<event>
 8    1  0.6637272E-009  0.1277704E+03  0.7561462E-02  0.1230802E+00
          4   -1    0    0  501    0  0.00000000000E+00  0.00000000000E+00  0.40729810952E+03  0.40729810952E+03  0.00000000000E+00 0. -1.
         -4   -1    0    0    0  501 -0.00000000000E+00 -0.00000000000E+00 -0.47671838825E+02  0.47671838825E+02  0.00000000000E+00 0.  1.
         25    2    1    2    0    0 -0.64560539230E+01 -0.85071260345E+02  0.23282241442E+03  0.27772474205E+03  0.12508379480E+03 0.  0.
         23    2    1    2    0    0  0.64560539230E+01  0.85071260345E+02  0.12680385627E+03  0.17724520629E+03  0.89765501272E+02 0.  0.
          5    1    3    3  502    0  0.57823636606E+02 -0.31391331049E+02  0.12296505100E+03  0.13952370689E+03  0.41800000000E+01 0.  1.
         -5    1    3    3    0  502 -0.64279690529E+02 -0.53679929296E+02  0.10985736342E+03  0.13820103517E+03  0.41800000000E+01 0.  1.
        -11    1    4    4    0    0  0.33025276560E+02  0.63362179125E+02  0.35658551943E+02  0.79855913757E+02  0.00000000000E+00 0.  1.
         11    1    4    4    0    0 -0.26569222637E+02  0.21709081220E+02  0.91145304331E+02  0.97389292536E+02  0.00000000000E+00 0. -1.
</event>
<event>
 8    1  0.6637272E-009  0.1209524E+03  0.7561462E-02  0.1241534E+00
         -2   -1    0    0    0  501 -0.00000000000E+00  0.00000000000E+00  0.10496748511E+04  0.10496748511E+04  0.00000000000E+00 0.  1.
          2   -1    0    0  501    0  0.00000000000E+00 -0.00000000000E+00 -0.20148371028E+02  0.20148371028E+02  0.00000000000E+00 0. -1.
         25    2    1    2    0    0  0.51906578181E+02  0.73094492846E+02  0.42119713108E+03  0.44843261398E+03  0.12509072032E+03 0.  0.
         23    2    1    2    0    0 -0.51906578181E+02 -0.73094492846E+02  0.60832934900E+03  0.62139060816E+03  0.89580094366E+02 0.  0.
          5    1    3    3  502    0  0.58790483783E+02  0.20284999956E+02  0.72257545354E+02  0.95427603277E+02  0.41800000000E+01 0. -1.
         -5    1    3    3    0  502 -0.68839056024E+01  0.52809492889E+02  0.34893958573E+03  0.35300501071E+03  0.41800000000E+01 0. -1.
        -11    1    4    4    0    0 -0.59068239503E+02 -0.67838996449E+01  0.31656205352E+03  0.32209720884E+03  0.00000000000E+00 0.  1.
         11    1    4    4    0    0  0.71616613221E+01 -0.66310593201E+02  0.29176729548E+03  0.29929339932E+03  0.00000000000E+00 0. -1.
</event>
<event>
 8    1  0.6637272E-009  0.1353969E+03  0.7561462E-02  0.1219661E+00
         -2   -1    0    0    0  501 -0.00000000000E+00  0.00000000000E+00  0.84015511872E+02  0.84015511872E+02  0.00000000000E+00 0.  1.
          2   -1    0    0  501    0  0.00000000000E+00 -0.00000000000E+00 -0.36774371729E+03  0.36774371729E+03  0.00000000000E+00 0. -1.
         25    2    1    2    0    0  0.41869055963E+02 -0.10056184247E+03 -0.42260822174E+02  0.17116224387E+03  0.12507931334E+03 0.  0.
         23    2    1    2    0    0 -0.41869055963E+02  0.10056184247E+03 -0.24146738324E+03  0.28059698529E+03  0.92533609982E+02 0.  0.
          5    1    3    3  502    0  0.21936819831E+02 -0.12440757803E+03 -0.10984535669E+02  0.12687238454E+03  0.41800000000E+01 0.  1.
         -5    1    3    3    0  502  0.19932236131E+02  0.23845735556E+02 -0.31276286505E+02  0.44289859324E+02  0.41800000000E+01 0.  1.
        -11    1    4    4    0    0 -0.30502265941E+02  0.34687666263E+02 -0.21977058500E+02  0.51152844678E+02  0.00000000000E+00 0.  1.
         11    1    4    4    0    0 -0.11366790021E+02  0.65874176212E+02 -0.21949032474E+03  0.22944414061E+03  0.00000000000E+00 0. -1.
</event>
<event>
 8    1  0.6637272E-009  0.1815431E+03  0.7561462E-02  0.1166318E+00
         -1   -1    0    0    0  501 -0.00000000000E+00  0.00000000000E+00  0.14596280700E+03  0.14596280700E+03  0.00000000000E+00 0.  1.
          1   -1    0    0  501    0  0.00000000000E+00 -0.00000000000E+00 -0.40335143208E+03  0.40335143208E+03  0.00000000000E+00 0. -1.
         25    2    1    2    0    0  0.44262180498E+02 -0.14333338218E+03  0.44385368006E+02  0.20030328777E+03  0.12509095542E+03 0.  0.
         23    2    1    2    0    0 -0.44262180498E+02  0.14333338218E+03 -0.30177399309E+03  0.34901095131E+03  0.90760686198E+02 0.  0.
          5    1    3    3  502    0 -0.36130416277E+02 -0.88978256646E+02  0.75541698669E+01  0.96421341094E+02  0.41800000000E+01 0.  1.
         -5    1    3    3    0  502  0.80392596775E+02 -0.54355125538E+02  0.36831198139E+02  0.10388194667E+03  0.41800000000E+01 0.  1.
        -11    1    4    4    0    0 -0.60985509940E+02  0.62657648819E+02 -0.19845496733E+03  0.21686306149E+03  0.00000000000E+00 0.  1.
         11    1    4    4    0    0  0.16723329442E+02  0.80675733366E+02 -0.10331902575E+03  0.13214788982E+03  0.00000000000E+00 0. -1.
</event>
<event>
 8    1  0.6637272E-009  0.1070881E+03  0.7561462E-02  0.1266059E+00
         -2   -1    0    0    0  501 -0.00000000000E+00  0.00000000000E+00  0.17335340176E+02  0.17335340176E+02  0.00000000000E+00 0.  1.
          2   -1    0    0  501    0  0.00000000000E+00 -0.00000000000E+00 -0.80744927966E+03  0.80744927966E+03  0.00000000000E+00 0. -1.
         25    2    1    2    0    0  0.26574383881E+02 -0.39010876426E+02 -0.41800439705E+03  0.43886560484E+03  0.12508915538E+03 0.  0.
         23    2    1    2    0    0 -0.26574383881E+02  0.39010876426E+02 -0.37210954243E+03  0.38591901500E+03  0.90774050318E+02 0.  0.
          5    1    3    3  502    0  0.67736281378E+02 -0.23434232306E+02 -0.35316486532E+03  0.36038904195E+03  0.41800000000E+01 0. -1.
         -5    1    3    3    0  502 -0.41161897497E+02 -0.15576644120E+02 -0.64839531731E+02  0.78476562888E+02  0.41800000000E+01 0. -1.
        -11    1    4    4    0    0  0.30768734830E+02  0.41118517184E+01 -0.72230633281E+02  0.78618615809E+02  0.00000000000E+00 0.  1.
         11    1    4    4    0    0 -0.57343118711E+02  0.34899024708E+02 -0.29987890915E+03  0.30730039919E+03  0.00000000000E+00 0. -1.
</event>
<event>
 8    1  0.6637272E-009  0.2271563E+03  0.7561462E-02  0.1128657E+00
         -2   -1    0    0    0  501 -0.00000000000E+00  0.00000000000E+00  0.84078168578E+03  0.84078168578E+03  0.00000000000E+00 0.  1.
          2   -1    0    0  501    0  0.00000000000E+00 -0.00000000000E+00 -0.70420609420E+02  0.70420609420E+02  0.00000000000E+00 0. -1.
         25    2    1    2    0    0  0.79602018043E+02  0.20063745638E+03  0.34235309698E+03  0.42360860954E+03  0.12508693330E+03 0.  0.
         23    2    1    2    0    0 -0.79602018043E+02 -0.20063745638E+03  0.42800797937E+03  0.48759368566E+03  0.89246298003E+02 0.  0.
          5    1    3    3  502    0  0.62688127172E+02  0.20585283119E+03  0.34353087053E+03  0.40538391779E+03  0.41800000000E+01 0. -1.
         -5    1    3    3    0  502  0.16913890872E+02 -0.52153748069E+01 -0.11777735476E+01  0.18224691749E+02  0.41800000000E+01 0. -1.
        -11    1    4    4    0    0 -0.53197402925E+01 -0.73196589056E+02  0.74654880294E+02  0.10468711209E+03  0.00000000000E+00 0. -1.
         11    1    4    4    0    0 -0.74282277751E+02 -0.12744086732E+03  0.35335309908E+03  0.38290657357E+03  0.00000000000E+00 0.  1.
</event>
<event>
 8    1  0.6637272E-009  0.5849788E+02  0.7561462E-02  0.1404246E+00
          2   -1    0    0  501    0  0.00000000000E+00  0.00000000000E+00  0.29229977599E+03  0.29229977599E+03  0.00000000000E+00 0. -1.
         -2   -1    0    0    0  501 -0.00000000000E+00 -0.00000000000E+00 -0.40664417876E+02  0.40664417876E+02  0.00000000000E+00 0.  1.
         25    2    1    2    0    0  0.41702338990E+01 -0.57693681179E+01  0.17525622811E+03  0.21543392352E+03  0.12508538465E+03 0.  0.
         23    2    1    2    0    0 -0.41702338990E+01  0.57693681179E+01  0.76379130003E+02  0.11753027034E+03  0.89044463541E+02 0.  0.
          5    1    3    3  502    0  0.30012624450E+02 -0.86687866958E+00 -0.71065593760E+01  0.31136549121E+02  0.41800000000E+01 0. -1.
         -5    1    3    3    0  502 -0.25842390551E+02 -0.49024894484E+01  0.18236278749E+03  0.18429737440E+03  0.41800000000E+01 0. -1.
        -11    1    4    4    0    0  0.13405535139E+02  0.28393356684E+02 -0.45067865110E+01  0.31720690421E+02  0.00000000000E+00 0.  1.
         11    1    4    4    0    0 -0.17575769037E+02 -0.22623988566E+02  0.80885916514E+02  0.85809579921E+02  0.00000000000E+00 0. -1.
</event>
<event>
 8    1  0.6637272E-009  0.5999891E+02  0.7561462E-02  0.1397836E+00
          1   -1    0    0  501    0  0.00000000000E+00  0.00000000000E+00  0.19641163421E+02  0.19641163421E+02  0.00000000000E+00 0. -1.
         -1   -1    0    0    0  501 -0.00000000000E+00 -0.00000000000E+00 -0.63186662105E+03  0.63186662105E+03  0.00000000000E+00 0.  1.
         25    2    1    2    0    0  0.47445986243E+01 -0.23598178142E+02 -0.32276297843E+03  0.34699101441E+03  0.12508972224E+03 0.  0.
         23    2    1    2    0    0 -0.47445986243E+01  0.23598178142E+02 -0.28946247920E+03  0.30451677006E+03  0.91446985489E+02 0.  0.
          5    1    3    3  502    0 -0.92525138615E+00 -0.72629604229E+01  0.10380520962E+02  0.13372894215E+02  0.41800000000E+01 0.  1.
         -5    1    3    3    0  502  0.56698500105E+01 -0.16335217719E+02 -0.33314349939E+03  0.33361812019E+03  0.41800000000E+01 0.  1.
        -11    1    4    4    0    0  0.41082717785E+02 -0.22848122682E+01 -0.14672072309E+03  0.15238103770E+03  0.00000000000E+00 0.  1.
         11    1    4    4    0    0 -0.45827316410E+02  0.25882990410E+02 -0.14274175611E+03  0.15213573236E+03  0.00000000000E+00 0. -1.
</event>
<event>
 8    1  0.6637272E-009  0.1009689E+03  0.7561462E-02  0.1278272E+00
         -3   -1    0    0    0  501 -0.00000000000E+00  0.00000000000E+00  0.14337048932E+02  0.14337048932E+02  0.00000000000E+00 0.  1.
          3   -1    0    0  501    0  0.00000000000E+00 -0.00000000000E+00 -0.12402087614E+04  0.12402087614E+04  0.00000000000E+00 0. -1.
         25    2    1    2    0    0  0.34393537258E+02  0.57752739739E+02 -0.85686163056E+03  0.86854914984E+03  0.12508987732E+03 0.  0.
         23    2    1    2    0    0 -0.34393537258E+02 -0.57752739739E+02 -0.36901008190E+03  0.38599666049E+03  0.91141028129E+02 0.  0.
          5    1    3    3  502    0 -0.20646381640E+02  0.31766127894E+02 -0.68711742784E+03  0.68817380944E+03  0.41800000000E+01 0. -1.
         -5    1    3    3    0  502  0.55039918899E+02  0.25986611845E+02 -0.16974420272E+03  0.18037534040E+03  0.41800000000E+01 0. -1.
        -11    1    4    4    0    0 -0.17372500248E+02 -0.75940372914E+02 -0.33440117734E+03  0.34335534277E+03  0.00000000000E+00 0. -1.
         11    1    4    4    0    0 -0.17021037010E+02  0.18187633176E+02 -0.34608904563E+02  0.42641317715E+02  0.00000000000E+00 0.  1.
</event>
<event>
 8    1  0.6637272E-009  0.1605072E+03  0.7561462E-02  0.1188125E+00
         -2   -1    0    0    0  501 -0.00000000000E+00  0.00000000000E+00  0.63440613226E+02  0.63440613226E+02  0.00000000000E+00 0.  1.
          2   -1    0    0  501    0  0.00000000000E+00 -0.00000000000E+00 -0.49902959763E+03  0.49902959763E+03  0.00000000000E+00 0. -1.
         25    2    1    2    0    0 -0.12931584002E+03  0.21500082260E+02 -0.15210834909E+03  0.23657711362E+03  0.12508773244E+03 0.  0.
         23    2    1    2    0    0  0.12931584002E+03 -0.21500082260E+02 -0.28348063531E+03  0.32589309723E+03  0.93060196727E+02 0.  0.
          5    1    3    3  502    0 -0.72093995427E+01  0.46673895050E+02 -0.11848925668E+02  0.48870209335E+02  0.41800000000E+01 0.  1.
         -5    1    3    3    0  502 -0.12210644047E+03 -0.25173812791E+02 -0.14025942343E+03  0.18770690428E+03  0.41800000000E+01 0.  1.
        -11    1    4    4    0    0  0.12192320605E+03 -0.40497347496E+02 -0.27553462524E+03  0.30401419874E+03  0.00000000000E+00 0. -1.
         11    1    4    4    0    0  0.73926339703E+01  0.18997265236E+02 -0.79460100643E+01  0.21878898497E+02  0.00000000000E+00 0.  1.
</event>
<event>
 8    1  0.6637272E-009  0.1204061E+03  0.7561462E-02  0.1242429E+00
          1   -1    0    0  501    0  0.00000000000E+00  0.00000000000E+00  0.37398207779E+03  0.37398207779E+03  0.00000000000E+00 0. -1.
         -1   -1    0    0    0  501 -0.00000000000E+00 -0.00000000000E+00 -0.56154977834E+02  0.56154977834E+02  0.00000000000E+00 0.  1.
         25    2    1    2    0    0  0.29614413507E+02  0.80564098942E+02  0.23539017112E+03  0.28004232597E+03  0.12509030398E+03 0.  0.
         23    2    1    2    0    0 -0.29614413507E+02 -0.80564098942E+02  0.82436928835E+02  0.15009472965E+03  0.91460336252E+02 0.  0.
          5    1    3    3  502    0 -0.14003920066E+02 -0.29589381816E+02  0.46136876090E+02  0.56724994745E+02  0.41800000000E+01 0. -1.
         -5    1    3    3    0  502  0.43618333574E+02  0.11015348076E+03  0.18925329503E+03  0.22331733123E+03  0.41800000000E+01 0. -1.
        -11    1    4    4    0    0 -0.17763211804E+02 -0.73164806607E+02  0.10155221395E+03  0.12641784992E+03  0.00000000000E+00 0. -1.
         11    1    4    4    0    0 -0.11851201703E+02 -0.73992923353E+01 -0.19115285115E+02  0.23676879734E+02  0.00000000000E+00 0.  1.
</event>
<event>
 8    1  0.6637272E-009  0.1265432E+03  0.7561462E-02  0.1232677E+00
         -2   -1    0    0    0  501 -0.00000000000E+00  0.00000000000E+00  0.77085321250E+02  0.77085321250E+02  0.00000000000E+00 0.  1.
          2   -1    0    0  501    0  0.00000000000E+00 -0.00000000000E+00 -0.56339775659E+03  0.56339775659E+03  0.00000000000E+00 0. -1.
         25    2    1    2    0    0  0.99426064681E+02 -0.11644892729E+02 -0.48249454946E+03  0.50839997387E+03  0.12509355419E+03 0.  0.
         23    2    1    2    0    0 -0.99426064681E+02  0.11644892729E+02 -0.38178858801E+01  0.13208310398E+03  0.86082659341E+02 0.  0.
          5    1    3    3  502    0 -0.81679519939E+01  0.33396580869E+02 -0.19610925468E+03  0.19914406650E+03  0.41800000000E+01 0. -1.
         -5    1    3    3    0  502  0.10759401667E+03 -0.45041473599E+02 -0.28638529479E+03  0.30925590736E+03  0.41800000000E+01 0. -1.
        -11    1    4    4    0    0 -0.72887333096E+02  0.16562907082E+02  0.36801399842E+02  0.83314081926E+02  0.00000000000E+00 0.  1.
         11    1    4    4    0    0 -0.26538731585E+02 -0.49180143526E+01 -0.40619285722E+02  0.48769022052E+02  0.00000000000E+00 0. -1.
</event>
<event>
 8    1  0.6637272E-009  0.1103687E+03  0.7561462E-02  0.1259889E+00
          1   -1    0    0  501    0  0.00000000000E+00  0.00000000000E+00  0.11051242521E+04  0.11051242521E+04  0.00000000000E+00 0. -1.
         -1   -1    0    0    0  501 -0.00000000000E+00 -0.00000000000E+00 -0.25040211869E+02  0.25040211869E+02  0.00000000000E+00 0.  1.
         25    2    1    2    0    0  0.19341590269E+02  0.20636229280E+02  0.99002784231E+03  0.99829968363E+03  0.12508868340E+03 0.  0.
         23    2    1    2    0    0 -0.19341590269E+02 -0.20636229280E+02  0.90056197939E+02  0.13186478036E+03  0.92077415462E+02 0.  0.
          5    1    3    3  502    0 -0.52901940026E+02  0.30487955414E+00  0.40288096890E+03  0.40636099186E+03  0.41800000000E+01 0. -1.
         -5    1    3    3    0  502  0.72243530295E+02  0.20331349726E+02  0.58714687341E+03  0.59193869176E+03  0.41800000000E+01 0. -1.
        -11    1    4    4    0    0 -0.45025222987E+02 -0.40087915653E+02  0.40042558576E+02  0.72372081522E+02  0.00000000000E+00 0.  1.
         11    1    4    4    0    0  0.25683632718E+02  0.19451686373E+02  0.50013639362E+02  0.59492698835E+02  0.00000000000E+00 0. -1.
</event>
<event>
 8    1  0.6637272E-009  0.1590230E+03  0.7561462E-02  0.1189804E+00
         -2   -1    0    0    0  501 -0.00000000000E+00  0.00000000000E+00  0.74342971915E+02  0.74342971915E+02  0.00000000000E+00 0.  1.
          2   -1    0    0  501    0  0.00000000000E+00 -0.00000000000E+00 -0.35821564040E+03  0.35821564040E+03  0.00000000000E+00 0. -1.
         25    2    1    2    0    0 -0.84565110965E+02  0.87875801246E+02 -0.15755544968E+03  0.23525411805E+03  0.12508943160E+03 0.  0.
         23    2    1    2    0    0  0.84565110965E+02 -0.87875801246E+02 -0.12631721880E+03  0.19730449426E+03  0.89997829161E+02 0.  0.
          5    1    3    3  502    0 -0.44321160765E+02  0.11567435949E+03 -0.97562373073E+02  0.15773652644E+03  0.41800000000E+01 0.  1.
         -5    1    3    3    0  502 -0.40243950199E+02 -0.27798558239E+02 -0.59993076608E+02  0.77517591608E+02  0.41800000000E+01 0.  1.
        -11    1    4    4    0    0  0.45446804073E+02 -0.94942944368E+02 -0.63390613608E+02  0.12287369360E+03  0.00000000000E+00 0.  1.
         11    1    4    4    0    0  0.39118306892E+02  0.70671431222E+01 -0.62926605192E+02  0.74430800660E+02  0.00000000000E+00 0. -1.
</event>
<event>
 8    1  0.6637272E-009  0.1125008E+03  0.7561462E-02  0.1256008E+00
          3   -1    0    0  501    0  0.00000000000E+00  0.00000000000E+00  0.15080909307E+03  0.15080909307E+03  0.00000000000E+00 0. -1.
         -3   -1    0    0    0  501 -0.00000000000E+00 -0.00000000000E+00 -0.12578803569E+03  0.12578803569E+03  0.00000000000E+00 0.  1.
         25    2    1    2    0    0  0.13352315262E+02  0.70932676616E+02  0.56405099864E+02  0.15503998143E+03  0.12508449790E+03 0.  0.
         23    2    1    2    0    0 -0.13352315262E+02 -0.70932676616E+02 -0.31384042484E+02  0.12155714734E+03  0.92636132327E+02 0.  0.
          5    1    3    3  502    0  0.56001763073E+02  0.14369707534E+02 -0.88449152134E+01  0.58637794016E+02  0.41800000000E+01 0. -1.
         -5    1    3    3    0  502 -0.42649447811E+02  0.56562969082E+02  0.65250015077E+02  0.96402187411E+02  0.41800000000E+01 0. -1.
        -11    1    4    4    0    0 -0.35780805850E+02 -0.62677859102E+02 -0.52833760414E+02  0.89443760701E+02  0.00000000000E+00 0.  1.
         11    1    4    4    0    0  0.22428490588E+02 -0.82548175135E+01  0.21449717930E+02  0.32113386640E+02  0.00000000000E+00 0. -1.
</event>
<event>
 8    1  0.6637272E-009  0.9211997E+02  0.7561462E-02  0.1297798E+00
          1   -1    0    0  501    0  0.00000000000E+00  0.00000000000E+00  0.19072829735E+03  0.19072829735E+03  0.00000000000E+00 0. -1.
         -1   -1    0    0    0  501 -0.00000000000E+00 -0.00000000000E+00 -0.14444803885E+03  0.14444803885E+03  0.00000000000E+00 0.  1.
         25    2    1    2    0    0 -0.37128208704E+02  0.42865748353E+02 -0.92427235144E+02  0.16554859324E+03  0.12509023409E+03 0.  0.
         23    2    1    2    0    0  0.37128208704E+02 -0.42865748353E+02  0.13870749365E+03  0.16962774295E+03  0.79484754028E+02 0.  0.
          5    1    3    3  502    0  0.23739877688E+02  0.37978596331E+02 -0.94121598085E+02  0.10431827835E+03  0.41800000000E+01 0.  1.
         -5    1    3    3    0  502 -0.60868086392E+02  0.48871520221E+01  0.16943629407E+01  0.61230314891E+02  0.41800000000E+01 0.  1.
        -11    1    4    4    0    0  0.38674218776E+02 -0.36961395707E+01  0.18195018625E+02  0.42900062336E+02  0.00000000000E+00 0.  1.
         11    1    4    4    0    0 -0.15460100715E+01 -0.39169608783E+02  0.12051247502E+03  0.12672768062E+03  0.00000000000E+00 0. -1.
</event>
<event>
 8    1  0.6637272E-009  0.1187632E+03  0.7561462E-02  0.1245151E+00
          1   -1    0    0  501    0  0.00000000000E+00  0.00000000000E+00  0.24296947753E+02  0.24296947753E+02  0.00000000000E+00 0. -1.
         -1   -1    0    0    0  501 -0.00000000000E+00 -0.00000000000E+00 -0.62419436232E+03  0.62419436232E+03  0.00000000000E+00 0.  1.
         25    2    1    2    0    0  0.35914949503E+02  0.39270341446E+02 -0.39463414955E+03  0.41739142238E+03  0.12508974449E+03 0.  0.
         23    2    1    2    0    0 -0.35914949503E+02 -0.39270341446E+02 -0.20526326502E+03  0.23109988769E+03  0.91880938216E+02 0.  0.
          5    1    3    3  502    0  0.54982437046E+02  0.76128546492E+02 -0.26187472836E+03  0.27823455883E+03  0.41800000000E+01 0.  1.
         -5    1    3    3    0  502 -0.19067487543E+02 -0.36858205046E+02 -0.13275942118E+03  0.13915686355E+03  0.41800000000E+01 0.  1.
        -11    1    4    4    0    0 -0.50718471394E+02  0.88384356335E+01 -0.13647344727E+03  0.14586117747E+03  0.00000000000E+00 0.  1.
         11    1    4    4    0    0  0.14803521891E+02 -0.48108777079E+02 -0.68789817750E+02  0.85238710212E+02  0.00000000000E+00 0. -1.
</event>
<event>
 7    1  0.6637272E-009  0.1499966E+03  0.7561462E-02  0.1200477E+00
         -3   -1    0    0    0  501 -0.00000000000E+00  0.00000000000E+00  0.35310022305E+03  0.35310022305E+03  0.00000000000E+00 0.  1.
          3   -1    0    0  501    0  0.00000000000E+00 -0.00000000000E+00 -0.72416885204E+02  0.72416885204E+02  0.00000000000E+00 0. -1.
         23    2    1    2    0    0  0.11756247865E+03 -0.97570836404E+01  0.12762240295E+03  0.19535929613E+03  0.89228021291E+02 0.  0.
          5    1    1    2  502    0 -0.11506585062E+03  0.52781301454E+02  0.98213132159E+02  0.16027884293E+03  0.41800000000E+01 0. -1.
         -5    1    1    2    0  502 -0.24966280360E+01 -0.43024217814E+02  0.54847802736E+02  0.69878969190E+02  0.41800000000E+01 0. -1.
        -11    1    3    3    0    0  0.10565808301E+03  0.10869944787E+02  0.56401240465E+02  0.12026174010E+03  0.00000000000E+00 0.  1.
         11    1    3    3    0    0  0.11904395643E+02 -0.20627028428E+02  0.71221162482E+02  0.75097556037E+02  0.00000000000E+00 0. -1.
</event>
<event>
 8    1  0.6637272E-009  0.1301979E+03  0.7561462E-02  0.1227162E+00
          1   -1    0    0  501    0  0.00000000000E+00  0.00000000000E+00  0.30107264505E+03  0.30107264505E+03  0.00000000000E+00 0. -1.
         -1   -1    0    0    0  501 -0.00000000000E+00 -0.00000000000E+00 -0.75042077237E+02  0.75042077237E+02  0.00000000000E+00 0.  1.
         25    2    1    2    0    0 -0.16773549670E+02 -0.10082046901E+03  0.92369240220E+02  0.18607869071E+03  0.12508830343E+03 0.  0.
         23    2    1    2    0    0  0.16773549670E+02  0.10082046901E+03  0.13366132760E+03  0.19003603159E+03  0.88330197923E+02 0.  0.
          5    1    3    3  502    0 -0.53249970620E+02 -0.12719063606E+02  0.24720881638E+01  0.54962874470E+02  0.41800000000E+01 0. -1.
         -5    1    3    3    0  502  0.36476420950E+02 -0.88101405405E+02  0.89897152056E+02  0.13111581624E+03  0.41800000000E+01 0. -1.
        -11    1    4    4    0    0 -0.13504260916E+02  0.37458729256E+02  0.87993505240E+00  0.39828328437E+02  0.00000000000E+00 0.  1.
         11    1    4    4    0    0  0.30277810586E+02  0.63361739755E+02  0.13278139255E+03  0.15020770315E+03  0.00000000000E+00 0. -1.
</event>
<event>
 8    1  0.6637272E-009  0.1092840E+03  0.7561462E-02  0.1261902E+00
          3   -1    0    0  501    0  0.00000000000E+00  0.00000000000E+00  0.72622296865E+03  0.72622296865E+03  0.00000000000E+00 0. -1.
         -3   -1    0    0    0  501 -0.00000000000E+00 -0.00000000000E+00 -0.17283610881E+02  0.17283610881E+02  0.00000000000E+00 0.  1.
         25    2    1    2    0    0  0.20406847819E+02 -0.16377643697E+02  0.43344599210E+03  0.45189315440E+03  0.12508928124E+03 0.  0.
         23    2    1    2    0    0 -0.20406847819E+02  0.16377643697E+02  0.27549336567E+03  0.29161342512E+03  0.91962647500E+02 0.  0.
          5    1    3    3  502    0  0.70467890963E+02  0.81635266690E+01  0.21679994880E+03  0.22814919904E+03  0.41800000000E+01 0.  1.
         -5    1    3    3    0  502 -0.50061043143E+02 -0.24541170366E+02  0.21664604330E+03  0.22374395536E+03  0.41800000000E+01 0.  1.
        -11    1    4    4    0    0  0.23968621244E+02 -0.22294649332E+02  0.61462579295E+02  0.69636160482E+02  0.00000000000E+00 0.  1.
         11    1    4    4    0    0 -0.44375469064E+02  0.38672293028E+02  0.21403078637E+03  0.22197726464E+03  0.00000000000E+00 0. -1.
</event>
<event>
 8    1  0.6637272E-009  0.1004042E+03  0.7561462E-02  0.1279448E+00
         -2   -1    0    0    0  501 -0.00000000000E+00  0.00000000000E+00  0.22266804012E+03  0.22266804012E+03  0.00000000000E+00 0.  1.
          2   -1    0    0  501    0  0.00000000000E+00 -0.00000000000E+00 -0.66272402125E+02  0.66272402125E+02  0.00000000000E+00 0. -1.
         25    2    1    2    0    0 -0.18423299862E+02  0.64145256633E+01  0.15131356057E+03  0.19729118725E+03  0.12508978710E+03 0.  0.
         23    2    1    2    0    0  0.18423299862E+02 -0.64145256633E+01  0.50820774323E+01  0.91649255000E+02  0.89404666062E+02 0.  0.
          5    1    3    3  502    0 -0.63568168694E+02  0.10567474530E+02  0.37418711974E+02  0.74633879672E+02  0.41800000000E+01 0.  1.
         -5    1    3    3    0  502  0.45144868832E+02 -0.41529488672E+01  0.11389484859E+03  0.12265730758E+03  0.41800000000E+01 0.  1.
        -11    1    4    4    0    0 -0.29913142727E+02  0.19648701573E+02 -0.39112631082E+01  0.36002299376E+02  0.00000000000E+00 0. -1.
         11    1    4    4    0    0  0.48336442588E+02 -0.26063227236E+02  0.89933405405E+01  0.55646955623E+02  0.00000000000E+00 0.  1.
</event>
<event>
 8    1  0.6637272E-009  0.1026440E+03  0.7561462E-02  0.1274832E+00
          2   -1    0    0  501    0  0.00000000000E+00  0.00000000000E+00  0.14631038657E+03  0.14631038657E+03  0.00000000000E+00 0. -1.
         -2   -1    0    0    0  501 -0.00000000000E+00 -0.00000000000E+00 -0.16893150494E+03  0.16893150494E+03  0.00000000000E+00 0.  1.
         25    2    1    2    0    0 -0.44086053268E+02 -0.48502000046E+02  0.83150241724E+02  0.16388559128E+03  0.12509396560E+03 0.  0.
         23    2    1    2    0    0  0.44086053268E+02  0.48502000046E+02 -0.10577136010E+03  0.15135630024E+03  0.86169164466E+02 0.  0.
          5    1    3    3  502    0 -0.77092431414E+02 -0.28753480475E+02  0.12491423455E+02  0.83327748563E+02  0.41800000000E+01 0.  1.
         -5    1    3    3    0  502  0.33006378146E+02 -0.19748519571E+02  0.70658818269E+02  0.80557842714E+02  0.41800000000E+01 0.  1.
        -11    1    4    4    0    0 -0.38277928978E+00  0.38666590261E+02 -0.97738518974E+02  0.10510979885E+03  0.00000000000E+00 0.  1.
         11    1    4    4    0    0  0.44468832558E+02  0.98354097850E+01 -0.80328411221E+01  0.46246501394E+02  0.00000000000E+00 0. -1.
</event>
<event>
 8    1  0.6637272E-009  0.1345904E+03  0.7561462E-02  0.1220799E+00
         -1   -1    0    0    0  501 -0.00000000000E+00  0.00000000000E+00  0.57527037735E+03  0.57527037735E+03  0.00000000000E+00 0.  1.
          1   -1    0    0  501    0  0.00000000000E+00 -0.00000000000E+00 -0.41876248302E+02  0.41876248302E+02  0.00000000000E+00 0. -1.
         25    2    1    2    0    0 -0.94234038827E+02  0.57609776856E+02  0.27868393956E+03  0.32484090486E+03  0.12513167001E+03 0.  0.
         23    2    1    2    0    0  0.94234038827E+02 -0.57609776856E+02  0.25471018948E+03  0.29230572079E+03  0.91468099984E+02 0.  0.
          5    1    3    3  502    0 -0.16558240918E+02 -0.16658475897E+02  0.17097197707E+03  0.17262841454E+03  0.41800000000E+01 0.  1.
         -5    1    3    3    0  502 -0.77675797909E+02  0.74268252753E+02  0.10771196249E+03  0.15221249032E+03  0.41800000000E+01 0.  1.
        -11    1    4    4    0    0  0.88942603736E+02 -0.95828853762E+01  0.12360555848E+03  0.15258097044E+03  0.00000000000E+00 0.  1.
         11    1    4    4    0    0  0.52914350910E+01 -0.48026891480E+02  0.13110463100E+03  0.13972475035E+03  0.00000000000E+00 0. -1.
</event>
<event>
 8    1  0.6637272E-009  0.1091828E+03  0.7561462E-02  0.1262091E+00
         -3   -1    0    0    0  501 -0.00000000000E+00  0.00000000000E+00  0.20165976513E+03  0.20165976513E+03  0.00000000000E+00 0.  1.
          3   -1    0    0  501    0  0.00000000000E+00 -0.00000000000E+00 -0.75365476232E+02  0.75365476232E+02  0.00000000000E+00 0. -1.
         25    2    1    2    0    0  0.26511828867E+01  0.60216646012E+02  0.73940495660E+02  0.15732701641E+03  0.12510603489E+03 0.  0.
         23    2    1    2    0    0 -0.26511828867E+01 -0.60216646012E+02  0.52353793241E+02  0.11969822495E+03  0.89183362587E+02 0.  0.
          5    1    3    3  502    0 -0.58275287553E+02  0.49971896993E+02  0.38557074957E+02  0.86007674412E+02  0.41800000000E+01 0.  1.
         -5    1    3    3    0  502  0.60926470440E+02  0.10244749019E+02  0.35383420703E+02  0.71319342000E+02  0.41800000000E+01 0.  1.
        -11    1    4    4    0    0 -0.60920204196E+01  0.86660373198E+01 -0.18185010137E+02  0.21045367883E+02  0.00000000000E+00 0. -1.
         11    1    4    4    0    0  0.34408375329E+01 -0.68882683332E+02  0.70538803379E+02  0.98652857070E+02  0.00000000000E+00 0.  1.
</event>
<event>
 8    1  0.6637272E-009  0.1168630E+03  0.7561462E-02  0.1248364E+00
         -1   -1    0    0    0  501 -0.00000000000E+00  0.00000000000E+00  0.10013024339E+03  0.10013024339E+03  0.00000000000E+00 0.  1.
          1   -1    0    0  501    0  0.00000000000E+00 -0.00000000000E+00 -0.20921412672E+03  0.20921412672E+03  0.00000000000E+00 0. -1.
         25    2    1    2    0    0  0.14433997462E+02 -0.82101304584E+02 -0.10852790725E+03  0.18540492047E+03  0.12509082055E+03 0.  0.
         23    2    1    2    0    0 -0.14433997462E+02  0.82101304584E+02 -0.55597608095E+00  0.12393944964E+03  0.91715394409E+02 0.  0.
          5    1    3    3  502    0 -0.43894246874E+02 -0.80506181874E+02 -0.68150735189E+02  0.11432386162E+03  0.41800000000E+01 0. -1.
         -5    1    3    3    0  502  0.58328244336E+02 -0.15951227101E+01 -0.40377172060E+02  0.71081058851E+02  0.41800000000E+01 0. -1.
        -11    1    4    4    0    0 -0.88487287336E+01  0.59539568708E+02  0.43405933407E+02  0.74211422956E+02  0.00000000000E+00 0.  1.
         11    1    4    4    0    0 -0.55852687283E+01  0.22561735876E+02 -0.43961909488E+02  0.49728026689E+02  0.00000000000E+00 0. -1.
</event>
<event>
 8    1  0.6637272E-009  0.7450799E+02  0.7561462E-02  0.1345401E+00
          1   -1    0    0  501    0  0.00000000000E+00  0.00000000000E+00  0.10177070211E+03  0.10177070211E+03  0.00000000000E+00 0. -1.
         -1   -1    0    0    0  501 -0.00000000000E+00 -0.00000000000E+00 -0.14350945954E+03  0.14350945954E+03  0.00000000000E+00 0.  1.
         25    2    1    2    0    0 -0.14052950820E+02  0.31168516535E+02  0.20275400164E+02  0.13125333803E+03  0.12508950812E+03 0.  0.
         23    2    1    2    0    0  0.14052950820E+02 -0.31168516535E+02 -0.62014157596E+02  0.11402682362E+03  0.89372249115E+02 0.  0.
          5    1    3    3  502    0 -0.27573693091E+02  0.26768109438E+02 -0.47861851223E+02  0.61522917975E+02  0.41800000000E+01 0. -1.
         -5    1    3    3    0  502  0.13520742271E+02  0.44004070972E+01  0.68137251388E+02  0.69730420054E+02  0.41800000000E+01 0. -1.
        -11    1    4    4    0    0 -0.19720249264E+02 -0.52167233298E+02 -0.39327107635E+02  0.68241701736E+02  0.00000000000E+00 0.  1.
         11    1    4    4    0    0  0.33773200084E+02  0.20998716763E+02 -0.22687049961E+02  0.45785121880E+02  0.00000000000E+00 0. -1.
</event>
<event>
 8    1  0.6637272E-009  0.1150022E+03  0.7561462E-02  0.1251577E+00
         -1   -1    0    0    0  501 -0.00000000000E+00  0.00000000000E+00  0.49662984909E+03  0.49662984909E+03  0.00000000000E+00 0. -1.
          1   -1    0    0  501    0  0.00000000000E+00 -0.00000000000E+00 -0.39778383141E+02  0.39778383141E+02  0.00000000000E+00 0.  1.
         25    2    1    2    0    0  0.43515288449E+02 -0.37720802874E+02  0.11931462969E+03  0.18220766075E+03  0.12508881438E+03 0.  0.
         23    2    1    2    0    0 -0.43515288449E+02  0.37720802874E+02  0.33753683627E+03  0.35420057148E+03  0.90611752559E+02 0.  0.
          5    1    3    3  502    0  0.64042899513E+02  0.17986445473E+02  0.26030382399E+02  0.71554583408E+02  0.41800000000E+01 0.  1.
         -5    1    3    3    0  502 -0.20527611064E+02 -0.55707248347E+02  0.93284247287E+02  0.11065307735E+03  0.41800000000E+01 0.  1.
        -11    1    4    4    0    0 -0.61121035483E+02 -0.11851283433E+01  0.15243271747E+03  0.16423434130E+03  0.00000000000E+00 0.  1.
         11    1    4    4    0    0  0.17605747034E+02  0.38905931217E+02  0.18510411880E+03  0.18996623018E+03  0.00000000000E+00 0. -1.
</event>
<event>
 8    1  0.6637272E-009  0.2322310E+03  0.7561462E-02  0.1125079E+00
          1   -1    0    0  501    0  0.00000000000E+00  0.00000000000E+00  0.26606029952E+03  0.26606029952E+03  0.00000000000E+00 0.  1.
         -1   -1    0    0    0  501 -0.00000000000E+00 -0.00000000000E+00 -0.22642848819E+03  0.22642848819E+03  0.00000000000E+00 0. -1.
         25    2    1    2    0    0  0.14089734260E+03  0.16257914814E+03 -0.24949521449E+02  0.25010759481E+03  0.12508912741E+03 0.  0.
         23    2    1    2    0    0 -0.14089734260E+03 -0.16257914814E+03  0.64581332779E+02  0.24238119290E+03  0.91070596597E+02 0.  0.
          5    1    3    3  502    0  0.16046386704E+03  0.11886361717E+03 -0.10960549529E+02  0.20003704196E+03  0.41800000000E+01 0. -1.
         -5    1    3    3    0  502 -0.19566524436E+02  0.43715530976E+02 -0.13988971920E+02  0.50070552847E+02  0.41800000000E+01 0. -1.
        -11    1    4    4    0    0 -0.10714436124E+03 -0.13887933516E+03  0.86610533168E+02  0.19562404846E+03  0.00000000000E+00 0.  1.
         11    1    4    4    0    0 -0.33752981363E+02 -0.23699812978E+02 -0.22029200389E+02  0.46757144436E+02  0.00000000000E+00 0. -1.
</event>
<event>
 8    1  0.6637272E-009  0.6462019E+02  0.7561462E-02  0.1379406E+00
          2   -1    0    0  501    0  0.00000000000E+00  0.00000000000E+00  0.21336819678E+02  0.21336819678E+02  0.00000000000E+00 0. -1.
         -2   -1    0    0    0  501 -0.00000000000E+00 -0.00000000000E+00 -0.60407372813E+03  0.60407372813E+03  0.00000000000E+00 0.  1.
         25    2    1    2    0    0 -0.18493744388E+01  0.13076386888E+02 -0.41147944222E+03  0.43027392644E+03  0.12508360531E+03 0.  0.
         23    2    1    2    0    0  0.18493744388E+01 -0.13076386888E+02 -0.17125746623E+03  0.19513662138E+03  0.92600049580E+02 0.  0.
          5    1    3    3  502    0  0.19130020501E+02  0.78739765041E+01 -0.40732337990E+03  0.40786978977E+03  0.41800000000E+01 0.  1.
         -5    1    3    3    0  502 -0.20979394940E+02  0.52024103839E+01 -0.41560623229E+01  0.22404136669E+02  0.41800000000E+01 0.  1.
        -11    1    4    4    0    0 -0.37327948725E+02  0.12462607131E+02 -0.11733807965E+03  0.12376153388E+03  0.00000000000E+00 0.  1.
         11    1    4    4    0    0  0.39177323163E+02 -0.25538994019E+02 -0.53919386582E+02  0.71375087497E+02  0.00000000000E+00 0. -1.
</event>
<event>
 8    1  0.6637272E-009  0.1377655E+03  0.7561462E-02  0.1216368E+00
          2   -1    0    0  501    0  0.00000000000E+00  0.00000000000E+00  0.61685893328E+02  0.61685893328E+02  0.00000000000E+00 0. -1.
         -2   -1    0    0    0  501 -0.00000000000E+00 -0.00000000000E+00 -0.39127074228E+03  0.39127074228E+03  0.00000000000E+00 0.  1.
         25    2    1    2    0    0 -0.71673742725E+02  0.83306018505E+02 -0.15082106027E+03  0.22466036264E+03  0.12509303820E+03 0.  0.
         23    2    1    2    0    0  0.71673742725E+02 -0.83306018505E+02 -0.17876378868E+03  0.22829627297E+03  0.89920398087E+02 0.  0.
          5    1    3    3  502    0 -0.87146838301E+02  0.10181158762E+03 -0.96864930765E+02  0.16540996951E+03  0.41800000000E+01 0. -1.
         -5    1    3    3    0  502  0.15473095576E+02 -0.18505569119E+02 -0.53956129509E+02  0.59250393135E+02  0.41800000000E+01 0. -1.
        -11    1    4    4    0    0  0.16533334052E+01 -0.27180133868E+02 -0.11507856080E+03  0.11825636703E+03  0.00000000000E+00 0. -1.
         11    1    4    4    0    0  0.70020409320E+02 -0.56125884637E+02 -0.63685227883E+02  0.11003990593E+03  0.00000000000E+00 0.  1.
</event>
<event>
 8    1  0.6637272E-009  0.1287106E+03  0.7561462E-02  0.1229382E+00
          1   -1    0    0  501    0  0.00000000000E+00  0.00000000000E+00  0.28470035527E+03  0.28470035527E+03  0.00000000000E+00 0. -1.
         -1   -1    0    0    0  501 -0.00000000000E+00 -0.00000000000E+00 -0.12069372914E+03  0.12069372914E+03  0.00000000000E+00 0.  1.
         25    2    1    2    0    0  0.82686255252E+02 -0.50617255658E+02  0.21808287907E+03  0.26945631155E+03  0.12508972105E+03 0.  0.
         23    2    1    2    0    0 -0.82686255252E+02  0.50617255658E+02 -0.54076252938E+02  0.13593777286E+03  0.78458355707E+02 0.  0.
          5    1    3    3  502    0  0.38446729396E+02  0.39373356912E+02  0.54666408822E+02  0.77680762672E+02  0.41800000000E+01 0. -1.
         -5    1    3    3    0  502  0.44239525857E+02 -0.89990612570E+02  0.16341647025E+03  0.19177554888E+03  0.41800000000E+01 0. -1.
        -11    1    4    4    0    0 -0.48089798961E+02  0.11115553050E+02  0.12722352568E+02  0.50970997033E+02  0.00000000000E+00 0. -1.
         11    1    4    4    0    0 -0.34596456291E+02  0.39501702608E+02 -0.66798605506E+02  0.84966775826E+02  0.00000000000E+00 0.  1.
</event>
<event>
 8    1  0.6637272E-009  0.1196507E+03  0.7561462E-02  0.1243674E+00
         -2   -1    0    0    0  501 -0.00000000000E+00  0.00000000000E+00  0.52323433721E+02  0.52323433721E+02  0.00000000000E+00 0.  1.
          2   -1    0    0  501    0  0.00000000000E+00 -0.00000000000E+00 -0.44958224205E+03  0.44958224205E+03  0.00000000000E+00 0. -1.
         25    2    1    2    0    0  0.16095460258E+02  0.93364282843E+02 -0.13592470090E+03  0.20759725542E+03  0.12508054603E+03 0.  0.
         23    2    1    2    0    0 -0.16095460258E+02 -0.93364282843E+02 -0.26133410743E+03  0.29430842035E+03  0.96674595564E+02 0.  0.
          5    1    3    3  502    0  0.24773374269E+01 -0.36835173442E+01 -0.10438583073E+03  0.10456375834E+03  0.41800000000E+01 0.  1.
         -5    1    3    3    0  502  0.13618122831E+02  0.97047800188E+02 -0.31538870170E+02  0.10303349709E+03  0.41800000000E+01 0.  1.
        -11    1    4    4    0    0  0.40741512249E+02 -0.36103023357E+02 -0.96746904617E+02  0.11101019173E+03  0.00000000000E+00 0.  1.
         11    1    4    4    0    0 -0.56836972508E+02 -0.57261259486E+02 -0.16458720282E+03  0.18329822861E+03  0.00000000000E+00 0. -1.
</event>
<event>
 8    1  0.6637272E-009  0.1492422E+03  0.7561462E-02  0.1201407E+00
         -3   -1    0    0    0  501 -0.00000000000E+00  0.00000000000E+00  0.21167331035E+03  0.21167331035E+03  0.00000000000E+00 0.  1.
          3   -1    0    0  501    0  0.00000000000E+00 -0.00000000000E+00 -0.26092032321E+03  0.26092032321E+03  0.00000000000E+00 0. -1.
         25    2    1    2    0    0  0.13726513494E+03  0.25741641252E+02  0.12426298256E+03  0.22493127944E+03  0.12509373395E+03 0.  0.
         23    2    1    2    0    0 -0.13726513494E+03 -0.25741641252E+02 -0.17350999541E+03  0.24766235412E+03  0.10828930592E+03 0.  0.
          5    1    3    3  502    0  0.12684951407E+03 -0.25399454589E+01  0.36565140886E+02  0.13210500547E+03  0.41800000000E+01 0. -1.
         -5    1    3    3    0  502  0.10415620864E+02  0.28281586711E+02  0.87697841672E+02  0.92826273968E+02  0.41800000000E+01 0. -1.
        -11    1    4    4    0    0 -0.76108498655E+02 -0.24463459365E+02 -0.19990549577E+02  0.82405014920E+02  0.00000000000E+00 0.  1.
         11    1    4    4    0    0 -0.61156636283E+02 -0.12781818871E+01 -0.15351944584E+03  0.16525733920E+03  0.00000000000E+00 0. -1.
</event>
<event>
 8    1  0.6637272E-009  0.7451500E+02  0.7561462E-02  0.1345380E+00
          1   -1    0    0  501    0  0.00000000000E+00  0.00000000000E+00  0.13439866104E+03  0.13439866104E+03  0.00000000000E+00 0. -1.
         -1   -1    0    0    0  501 -0.00000000000E+00 -0.00000000000E+00 -0.98653874772E+02  0.98653874772E+02  0.00000000000E+00 0.  1.
         25    2    1    2    0    0  0.26586677480E+01 -0.33142122694E+02 -0.54263034665E+00  0.12943317139E+03  0.12508869892E+03 0.  0.
         23    2    1    2    0    0 -0.26586677480E+01  0.33142122694E+02  0.36287416614E+02  0.10361936442E+03  0.91185126350E+02 0.  0.
          5    1    3    3  502    0  0.32939078524E+02 -0.42452337217E+02 -0.48033288383E+02  0.72193164649E+02  0.41800000000E+01 0.  1.
         -5    1    3    3    0  502 -0.30280410776E+02  0.93102145226E+01  0.47490658037E+02  0.57240006743E+02  0.41800000000E+01 0.  1.
        -11    1    4    4    0    0 -0.27562251256E+02  0.10409866755E+02 -0.21665503934E+02  0.36570986873E+02  0.00000000000E+00 0.  1.
         11    1    4    4    0    0  0.24903583508E+02  0.22732255939E+02  0.57952920548E+02  0.67048377547E+02  0.00000000000E+00 0. -1.
</event>
<event>
 8    1  0.6637272E-009  0.1233753E+03  0.7561462E-02  0.1237631E+00
          1   -1    0    0  501    0  0.00000000000E+00  0.00000000000E+00  0.27134519993E+03  0.27134519993E+03  0.00000000000E+00 0. -1.
         -1   -1    0    0    0  501 -0.00000000000E+00 -0.00000000000E+00 -0.91875050320E+02  0.91875050320E+02  0.00000000000E+00 0.  1.
         25    2    1    2    0    0 -0.67027541114E+02  0.42346078055E+02  0.19107020202E+03  0.24174592445E+03  0.12508952113E+03 0.  0.
         23    2    1    2    0    0  0.67027541114E+02 -0.42346078055E+02 -0.11600052409E+02  0.12147432579E+03  0.91299337435E+02 0.  0.
          5    1    3    3  502    0 -0.44056010156E+02  0.84205071608E+02  0.15458534077E+03  0.18150902483E+03  0.41800000000E+01 0. -1.
         -5    1    3    3    0  502 -0.22971530958E+02 -0.41858993553E+02  0.36484861250E+02  0.60236899623E+02  0.41800000000E+01 0. -1.
        -11    1    4    4    0    0  0.75236732415E+02 -0.17111609125E+02  0.20491270625E+02  0.79832732906E+02  0.00000000000E+00 0. -1.
         11    1    4    4    0    0 -0.82091913008E+01 -0.25234468930E+02 -0.32091323034E+02  0.41641592886E+02  0.00000000000E+00 0.  1.
</event>
<event>
 8    1  0.6637272E-009  0.9513735E+02  0.7561462E-02  0.1290867E+00
         -2   -1    0    0    0  501 -0.00000000000E+00  0.00000000000E+00  0.56453219498E+03  0.56453219498E+03  0.00000000000E+00 0. -1.
          2   -1    0    0  501    0  0.00000000000E+00 -0.00000000000E+00 -0.25071020421E+02  0.25071020421E+02  0.00000000000E+00 0.  1.
         25    2    1    2    0    0  0.28445340633E+02  0.28025315450E+02  0.37287156419E+03  0.39531657732E+03  0.12508971665E+03 0.  0.
         23    2    1    2    0    0 -0.28445340633E+02 -0.28025315450E+02  0.16658961037E+03  0.19428663808E+03  0.91655025750E+02 0.  0.
          5    1    3    3  502    0 -0.30597026925E+02  0.56218227811E+02  0.21525888236E+03  0.22461194543E+03  0.41800000000E+01 0.  1.
         -5    1    3    3    0  502  0.59042367558E+02 -0.28192912361E+02  0.15761268183E+03  0.17070463189E+03  0.41800000000E+01 0.  1.
        -11    1    4    4    0    0  0.10415494415E+02 -0.17408854755E+02 -0.25221119554E+01  0.20442891099E+02  0.00000000000E+00 0.  1.
         11    1    4    4    0    0 -0.38860835047E+02 -0.10616460696E+02  0.16911172232E+03  0.17384374698E+03  0.00000000000E+00 0. -1.
</event>
<event>
 8    1  0.6637272E-009  0.8313263E+02  0.7561462E-02  0.1320389E+00
          2   -1    0    0  501    0  0.00000000000E+00  0.00000000000E+00  0.37591894282E+02  0.37591894282E+02  0.00000000000E+00 0. -1.
         -2   -1    0    0    0  501 -0.00000000000E+00 -0.00000000000E+00 -0.36586350023E+03  0.36586350023E+03  0.00000000000E+00 0.  1.
         25    2    1    2    0    0  0.19082908345E+02 -0.36666738090E+02 -0.22132923408E+03  0.25757071626E+03  0.12508971558E+03 0.  0.
         23    2    1    2    0    0 -0.19082908345E+02  0.36666738090E+02 -0.10694237186E+03  0.14588467825E+03  0.90205661544E+02 0.  0.
          5    1    3    3  502    0 -0.19031783789E+02  0.17989981244E+02 -0.17331851473E+03  0.17533575838E+03  0.41800000000E+01 0.  1.
         -5    1    3    3    0  502  0.38114692135E+02 -0.54656719334E+02 -0.48010719356E+02  0.82234957882E+02  0.41800000000E+01 0.  1.
        -11    1    4    4    0    0 -0.40895128390E+02  0.19967717910E+02 -0.12024172464E+02  0.47071243961E+02  0.00000000000E+00 0. -1.
         11    1    4    4    0    0  0.21812220045E+02  0.16699020180E+02 -0.94918199401E+02  0.98813434288E+02  0.00000000000E+00 0.  1.
</event>
<event>
 8    1  0.6637272E-009  0.2174953E+03  0.7561462E-02  0.1135764E+00
          3   -1    0    0  501    0  0.00000000000E+00  0.00000000000E+00  0.37652560171E+03  0.37652560171E+03  0.00000000000E+00 0. -1.
         -3   -1    0    0    0  501 -0.00000000000E+00 -0.00000000000E+00 -0.24324183330E+03  0.24324183330E+03  0.00000000000E+00 0.  1.
         25    2    1    2    0    0  0.53055098112E+02  0.19640485163E+03  0.26820620792E+03  0.35912646232E+03  0.12509011469E+03 0.  0.
         23    2    1    2    0    0 -0.53055098112E+02 -0.19640485163E+03 -0.13492243951E+03  0.26064097268E+03  0.91323287154E+02 0.  0.
          5    1    3    3  502    0  0.14931130986E+02 -0.73596476384E+01  0.70761365041E+02  0.72813091326E+02  0.41800000000E+01 0.  1.
         -5    1    3    3    0  502  0.38123967125E+02  0.20376449927E+03  0.19744484288E+03  0.28631337100E+03  0.41800000000E+01 0.  1.
        -11    1    4    4    0    0 -0.12708071652E+02 -0.14294446272E+03 -0.12974529011E+03  0.19346435024E+03  0.00000000000E+00 0.  1.
         11    1    4    4    0    0 -0.40347026459E+02 -0.53460388907E+02 -0.51771493975E+01  0.67176622437E+02  0.00000000000E+00 0. -1.
</event>
<event>
 8    1  0.6637272E-009  0.2040338E+03  0.7561462E-02  0.1146380E+00
          2   -1    0    0  501    0  0.00000000000E+00  0.00000000000E+00  0.26521137898E+04  0.26521137898E+04  0.00000000000E+00 0. -1.
         -2   -1    0    0    0  501 -0.00000000000E+00 -0.00000000000E+00 -0.23078435669E+02  0.23078435669E+02  0.00000000000E+00 0.  1.
         25    2    1    2    0    0  0.16118005262E+03  0.87048402653E+02  0.20345461770E+04  0.20466026735E+04  0.12509165789E+03 0.  0.
         23    2    1    2    0    0 -0.16118005262E+03 -0.87048402653E+02  0.59448917708E+03  0.62858955196E+03  0.90282940842E+02 0.  0.
          5    1    3    3  502    0  0.17734640453E+03  0.59412678378E+02  0.16106369720E+04  0.16214655536E+04  0.41800000000E+01 0.  1.
         -5    1    3    3    0  502 -0.16166351908E+02  0.27635724275E+02  0.42390920498E+03  0.42513711983E+03  0.41800000000E+01 0.  1.
        -11    1    4    4    0    0 -0.86078728982E+02 -0.71736591834E+02  0.46324002474E+03  0.47659941955E+03  0.00000000000E+00 0. -1.
         11    1    4    4    0    0 -0.75101323635E+02 -0.15311810819E+02  0.13124915234E+03  0.15199013242E+03  0.00000000000E+00 0.  1.
</event>
<event>
 8    1  0.6637272E-009  0.9572909E+02  0.7561462E-02  0.1289542E+00
          1   -1    0    0  501    0  0.00000000000E+00  0.00000000000E+00  0.94272017485E+03  0.94272017485E+03  0.00000000000E+00 0. -1.
         -1   -1    0    0    0  501 -0.00000000000E+00 -0.00000000000E+00 -0.18150715261E+02  0.18150715261E+02  0.00000000000E+00 0.  1.
         25    2    1    2    0    0 -0.72771182700E+02 -0.12550488231E+02  0.52991166768E+03  0.54946095943E+03  0.12509120913E+03 0.  0.
         23    2    1    2    0    0  0.72771182700E+02  0.12550488231E+02  0.39465779190E+03  0.41140993068E+03  0.89722898786E+02 0.  0.
          5    1    3    3  502    0 -0.63040094107E+02 -0.56892705186E+01  0.53276097548E+03  0.53652413800E+03  0.41800000000E+01 0.  1.
         -5    1    3    3    0  502 -0.97310885931E+01 -0.68612177126E+01 -0.28493077955E+01  0.12936821426E+02  0.41800000000E+01 0.  1.
        -11    1    4    4    0    0  0.58423422595E+02 -0.33379100731E+02  0.20590213867E+03  0.21661752325E+03  0.00000000000E+00 0. -1.
         11    1    4    4    0    0  0.14347760105E+02  0.45929588962E+02  0.18875565324E+03  0.19479240743E+03  0.00000000000E+00 0.  1.
</event>
<event>
 8    1  0.6637272E-009  0.9253094E+02  0.7561462E-02  0.1296836E+00
         -1   -1    0    0    0  501 -0.00000000000E+00  0.00000000000E+00  0.73478721362E+02  0.73478721362E+02  0.00000000000E+00 0.  1.
          1   -1    0    0  501    0  0.00000000000E+00 -0.00000000000E+00 -0.18988344707E+03  0.18988344707E+03  0.00000000000E+00 0. -1.
         25    2    1    2    0    0  0.21899802615E+02  0.20801897671E+02 -0.25111872769E+02  0.13111359186E+03  0.12509135668E+03 0.  0.
         23    2    1    2    0    0 -0.21899802615E+02 -0.20801897671E+02 -0.91292852939E+02  0.13224857657E+03  0.90790862458E+02 0.  0.
          5    1    3    3  502    0 -0.38130411126E+02 -0.10626203789E+02  0.24759557892E+02  0.46875927368E+02  0.41800000000E+01 0.  1.
         -5    1    3    3    0  502  0.60030213741E+02  0.31428101460E+02 -0.49871430661E+02  0.84237664494E+02  0.41800000000E+01 0.  1.
        -11    1    4    4    0    0 -0.33928461841E+02  0.16822250847E+02 -0.61188886369E+01  0.38361040713E+02  0.00000000000E+00 0.  1.
         11    1    4    4    0    0  0.12028659225E+02 -0.37624148518E+02 -0.85173964302E+02  0.93887535857E+02  0.00000000000E+00 0. -1.
</event>
<event>
 8    1  0.6637272E-009  0.1191541E+03  0.7561462E-02  0.1244499E+00
          1   -1    0    0  501    0  0.00000000000E+00  0.00000000000E+00  0.32995397687E+02  0.32995397687E+02  0.00000000000E+00 0. -1.
         -1   -1    0    0    0  501 -0.00000000000E+00 -0.00000000000E+00 -0.71488456904E+03  0.71488456904E+03  0.00000000000E+00 0.  1.
         25    2    1    2    0    0  0.34636519601E+02 -0.74834990598E+02 -0.54055126364E+03  0.56092204862E+03  0.12505163611E+03 0.  0.
         23    2    1    2    0    0 -0.34636519601E+02  0.74834990598E+02 -0.14133790771E+03  0.18695791811E+03  0.90426183597E+02 0.  0.
          5    1    3    3  502    0  0.45957027830E+02 -0.91580843082E+02 -0.25823567580E+03  0.27785290332E+03  0.41800000000E+01 0.  1.
         -5    1    3    3    0  502 -0.11320508229E+02  0.16745852484E+02 -0.28231558785E+03  0.28306914530E+03  0.41800000000E+01 0.  1.
        -11    1    4    4    0    0 -0.60272320722E+02  0.42013629120E+02 -0.11858801696E+03  0.13950274349E+03  0.00000000000E+00 0.  1.
         11    1    4    4    0    0  0.25635801121E+02  0.32821361477E+02 -0.22749890755E+02  0.47455174615E+02  0.00000000000E+00 0. -1.
</event>
<event>
 8    1  0.6637272E-009  0.1175476E+03  0.7561462E-02  0.1247198E+00
          1   -1    0    0  501    0  0.00000000000E+00  0.00000000000E+00  0.35963887739E+03  0.35963887739E+03  0.00000000000E+00 0. -1.
         -1   -1    0    0    0  501 -0.00000000000E+00 -0.00000000000E+00 -0.57670027644E+02  0.57670027644E+02  0.00000000000E+00 0.  1.
         25    2    1    2    0    0 -0.45042591810E+02 -0.54143729696E+02  0.28070017673E+03  0.31529567671E+03  0.12513351266E+03 0.  0.
         23    2    1    2    0    0  0.45042591810E+02  0.54143729696E+02  0.21268673017E+02  0.10201322833E+03  0.70667982567E+02 0.  0.
          5    1    3    3  502    0 -0.67031982441E+02 -0.78230375750E+02  0.24951233583E+03  0.26997621468E+03  0.41800000000E+01 0. -1.
         -5    1    3    3    0  502  0.21989390631E+02  0.24086646054E+02  0.31187840902E+02  0.45319462028E+02  0.41800000000E+01 0. -1.
        -11    1    4    4    0    0  0.90913156208E+01  0.61704688607E+02  0.19021184051E+02  0.65206794573E+02  0.00000000000E+00 0. -1.
         11    1    4    4    0    0  0.35951276189E+02 -0.75609589110E+01  0.22474889653E+01  0.36806433757E+02  0.00000000000E+00 0.  1.
</event>
<event>
 8    1  0.6637272E-009  0.1576904E+03  0.7561462E-02  0.1191329E+00
         -1   -1    0    0    0  501 -0.00000000000E+00  0.00000000000E+00  0.78771239096E+02  0.78771239096E+02  0.00000000000E+00 0.  1.
          1   -1    0    0  501    0  0.00000000000E+00 -0.00000000000E+00 -0.35705635701E+03  0.35705635701E+03  0.00000000000E+00 0. -1.
         25    2    1    2    0    0 -0.68110929557E+02  0.10603684233E+03 -0.17504786854E+03  0.24934286952E+03  0.12508876706E+03 0.  0.
         23    2    1    2    0    0  0.68110929557E+02 -0.10603684233E+03 -0.10323724937E+03  0.18648472659E+03  0.90750828846E+02 0.  0.
          5    1    3    3  502    0  0.36110944962E+02  0.40277190112E+02 -0.54479684558E+02  0.76887975776E+02  0.41800000000E+01 0.  1.
         -5    1    3    3    0  502 -0.10422187452E+03  0.65759652213E+02 -0.12056818399E+03  0.17245489375E+03  0.41800000000E+01 0.  1.
        -11    1    4    4    0    0  0.39689140226E+02 -0.14965447112E+02  0.44099563398E+01  0.42645517631E+02  0.00000000000E+00 0.  1.
         11    1    4    4    0    0  0.28421789332E+02 -0.91071395213E+02 -0.10764720571E+03  0.14383920895E+03  0.00000000000E+00 0. -1.
</event>
<event>
 8    1  0.6637272E-009  0.1144315E+03  0.7561462E-02  0.1252577E+00
          2   -1    0    0  501    0  0.00000000000E+00  0.00000000000E+00  0.19980675226E+03  0.19980675226E+03  0.00000000000E+00 0. -1.
         -2   -1    0    0    0  501 -0.00000000000E+00 -0.00000000000E+00 -0.74603005523E+02  0.74603005523E+02  0.00000000000E+00 0.  1.
         25    2    1    2    0    0 -0.54191419221E+02 -0.12582435589E+02  0.82091272790E+02  0.15963151084E+03  0.12509282387E+03 0.  0.
         23    2    1    2    0    0  0.54191419221E+02  0.12582435589E+02  0.43112473942E+02  0.11477824694E+03  0.90666051848E+02 0.  0.
          5    1    3    3  502    0 -0.88130615803E+02 -0.29541504995E+02  0.77679040839E+02  0.12120730896E+03  0.41800000000E+01 0. -1.
         -5    1    3    3    0  502  0.33939196582E+02  0.16959069406E+02  0.44122319516E+01  0.38424201886E+02  0.41800000000E+01 0. -1.
        -11    1    4    4    0    0 -0.20655579981E+02  0.95080996737E+01 -0.79852515357E+01  0.24100232070E+02  0.00000000000E+00 0.  1.
         11    1    4    4    0    0  0.74846999202E+02  0.30743359152E+01  0.51097725478E+02  0.90678014865E+02  0.00000000000E+00 0. -1.
</event>
<event>
 8    1  0.6637272E-009  0.1000898E+03  0.7561462E-02  0.1280107E+00
         -2   -1    0    0    0  501 -0.00000000000E+00  0.00000000000E+00  0.16490212155E+02  0.16490212155E+02  0.00000000000E+00 0. -1.
          2   -1    0    0  501    0  0.00000000000E+00 -0.00000000000E+00 -0.13914407800E+04  0.13914407800E+04  0.00000000000E+00 0.  1.
         25    2    1    2    0    0 -0.77621490927E+02 -0.32221157470E+02 -0.10350526300E+04  0.10459656564E+04  0.12508760455E+03 0.  0.
         23    2    1    2    0    0  0.77621490927E+02  0.32221157470E+02 -0.33989793784E+03  0.36196533568E+03  0.91787783724E+02 0.  0.
          5    1    3    3  502    0 -0.20269895502E+02 -0.49322014700E+02 -0.15691140099E+03  0.16577753152E+03  0.41800000000E+01 0.  1.
         -5    1    3    3    0  502 -0.57351595425E+02  0.17100857230E+02 -0.87814122897E+03  0.88018812491E+03  0.41800000000E+01 0.  1.
        -11    1    4    4    0    0  0.48984718284E+02  0.31133199488E+02 -0.32407164174E+03  0.32922820007E+03  0.00000000000E+00 0.  1.
         11    1    4    4    0    0  0.28636772644E+02  0.10879579822E+01 -0.15826296100E+02  0.32737135615E+02  0.00000000000E+00 0. -1.
</event>
<event>
 8    1  0.6637272E-009  0.1228845E+03  0.7561462E-02  0.1238413E+00
         -3   -1    0    0    0  501 -0.00000000000E+00  0.00000000000E+00  0.39996572045E+03  0.39996572045E+03  0.00000000000E+00 0.  1.
          3   -1    0    0  501    0  0.00000000000E+00 -0.00000000000E+00 -0.42134371888E+02  0.42134371888E+02  0.00000000000E+00 0. -1.
         25    2    1    2    0    0  0.67566215664E+02  0.21539810759E+02  0.21839060044E+03  0.26147789956E+03  0.12508829142E+03 0.  0.
         23    2    1    2    0    0 -0.67566215664E+02 -0.21539810759E+02  0.13944074812E+03  0.18062219278E+03  0.90285643053E+02 0.  0.
          5    1    3    3  502    0  0.34784080683E+02  0.68038362828E+02  0.74982214594E+02  0.10713988982E+03  0.41800000000E+01 0. -1.
         -5    1    3    3    0  502  0.32782134981E+02 -0.46498552069E+02  0.14340838585E+03  0.15433800974E+03  0.41800000000E+01 0. -1.
        -11    1    4    4    0    0 -0.11680367812E+02 -0.48683637538E+02  0.81612367045E+02  0.95745005148E+02  0.00000000000E+00 0. -1.
         11    1    4    4    0    0 -0.55885847852E+02  0.27143826779E+02  0.57828381073E+02  0.84877187629E+02  0.00000000000E+00 0.  1.
</event>
<event>
 8    1  0.6637272E-009  0.7875898E+02  0.7561462E-02  0.1332611E+00
          2   -1    0    0  501    0  0.00000000000E+00  0.00000000000E+00  0.14440688598E+03  0.14440688598E+03  0.00000000000E+00 0. -1.
         -2   -1    0    0    0  501 -0.00000000000E+00 -0.00000000000E+00 -0.10287081554E+03  0.10287081554E+03  0.00000000000E+00 0.  1.
         25    2    1    2    0    0  0.34057813726E+02 -0.28957570293E+02 -0.84134265532E+01  0.13310044405E+03  0.12508583816E+03 0.  0.
         23    2    1    2    0    0 -0.34057813726E+02  0.28957570293E+02  0.49949496991E+02  0.11417725747E+03  0.92428449739E+02 0.  0.
          5    1    3    3  502    0 -0.19366165542E+01 -0.19895459438E+02 -0.63410746072E+02  0.66618127468E+02  0.41800000000E+01 0.  1.
         -5    1    3    3    0  502  0.35994430281E+02 -0.90621108551E+01  0.54997319519E+02  0.66482316586E+02  0.41800000000E+01 0.  1.
        -11    1    4    4    0    0 -0.29595696316E+02  0.60783944843E+02  0.20653326865E+02  0.70690544641E+02  0.00000000000E+00 0.  1.
         11    1    4    4    0    0 -0.44621174102E+01 -0.31826374550E+02  0.29296170126E+02  0.43486712830E+02  0.00000000000E+00 0. -1.
</event>
<event>
 8    1  0.6637272E-009  0.1483153E+03  0.7561462E-02  0.1202559E+00
          2   -1    0    0  501    0  0.00000000000E+00  0.00000000000E+00  0.63772439228E+02  0.63772439228E+02  0.00000000000E+00 0.  1.
         -2   -1    0    0    0  501 -0.00000000000E+00 -0.00000000000E+00 -0.34981870044E+03  0.34981870044E+03  0.00000000000E+00 0. -1.
         25    2    1    2    0    0  0.10104466102E+03 -0.76371210920E+01 -0.17385282410E+03  0.23694017798E+03  0.12508994507E+03 0.  0.
         23    2    1    2    0    0 -0.10104466102E+03  0.76371210920E+01 -0.11219343711E+03  0.17665096168E+03  0.91377490633E+02 0.  0.
          5    1    3    3  502    0  0.61377770755E+02  0.57397118711E+02 -0.10096518702E+03  0.13142717135E+03  0.41800000000E+01 0.  1.
         -5    1    3    3    0  502  0.39666890260E+02 -0.65034239803E+02 -0.72887637079E+02  0.10551300663E+03  0.41800000000E+01 0.  1.
        -11    1    4    4    0    0 -0.10765211439E+03 -0.18510492442E+02 -0.94093632830E+02  0.14417082854E+03  0.00000000000E+00 0.  1.
         11    1    4    4    0    0  0.66074533792E+01  0.26147613534E+02 -0.18099804278E+02  0.32480133137E+02  0.00000000000E+00 0. -1.
</event>
<event>
 8    1  0.6637272E-009  0.2158677E+03  0.7561462E-02  0.1137002E+00
          2   -1    0    0  501    0  0.00000000000E+00  0.00000000000E+00  0.41454539311E+03  0.41454539311E+03  0.00000000000E+00 0. -1.
         -2   -1    0    0    0  501 -0.00000000000E+00 -0.00000000000E+00 -0.12994226569E+03  0.12994226569E+03  0.00000000000E+00 0.  1.
         25    2    1    2    0    0  0.10327309673E+03  0.16294766804E+03  0.20333359332E+03  0.30693503454E+03  0.12508912915E+03 0.  0.
         23    2    1    2    0    0 -0.10327309673E+03 -0.16294766804E+03  0.81269534099E+02  0.23755262427E+03  0.11229085936E+03 0.  0.
          5    1    3    3  502    0 -0.27666726489E+02  0.26052357233E+02  0.19441184711E+02  0.42890618263E+02  0.41800000000E+01 0.  1.
         -5    1    3    3    0  502  0.13093982322E+03  0.13689531080E+03  0.18389240861E+03  0.26404441628E+03  0.41800000000E+01 0.  1.
        -11    1    4    4    0    0 -0.17745017097E+02 -0.89632874199E+02 -0.10873960056E+02  0.92017285203E+02  0.00000000000E+00 0.  1.
         11    1    4    4    0    0 -0.85528079631E+02 -0.73314793839E+02  0.92143494155E+02  0.14553533906E+03  0.00000000000E+00 0. -1.
</event>
<event>
 8    1  0.6637272E-009  0.1250351E+03  0.7561462E-02  0.1235014E+00
          2   -1    0    0  501    0  0.00000000000E+00  0.00000000000E+00  0.56971306590E+03  0.56971306590E+03  0.00000000000E+00 0. -1.
         -2   -1    0    0    0  501 -0.00000000000E+00 -0.00000000000E+00 -0.35797097783E+02  0.35797097783E+02  0.00000000000E+00 0.  1.
         25    2    1    2    0    0  0.57831152709E+02 -0.67983630435E+02  0.23108086566E+03  0.27750815287E+03  0.12508474009E+03 0.  0.
         23    2    1    2    0    0 -0.57831152709E+02  0.67983630435E+02  0.30283510246E+03  0.32800201081E+03  0.88938200940E+02 0.  0.
          5    1    3    3  502    0  0.76050427715E+02 -0.21374532131E+02  0.60220692322E+02  0.99421035818E+02  0.41800000000E+01 0. -1.
         -5    1    3    3    0  502 -0.18219275007E+02 -0.46609098304E+02  0.17086017334E+03  0.17808711705E+03  0.41800000000E+01 0. -1.
        -11    1    4    4    0    0  0.34304984301E+01  0.58680694788E+02  0.19461031649E+03  0.20329379613E+03  0.00000000000E+00 0. -1.
         11    1    4    4    0    0 -0.61261651139E+02  0.93029356462E+01  0.10822478596E+03  0.12470821468E+03  0.00000000000E+00 0.  1.
</event>
<event>
 8    1  0.6637272E-009  0.7921945E+02  0.7561462E-02  0.1331281E+00
          4   -1    0    0  501    0  0.00000000000E+00  0.00000000000E+00  0.21168214675E+03  0.21168214675E+03  0.00000000000E+00 0. -1.
         -4   -1    0    0    0  501 -0.00000000000E+00 -0.00000000000E+00 -0.81354514004E+02  0.81354514004E+02  0.00000000000E+00 0.  1.
         25    2    1    2    0    0  0.15548739028E+02  0.26703615704E+02  0.14652756174E+03  0.19512491884E+03  0.12509420941E+03 0.  0.
         23    2    1    2    0    0 -0.15548739028E+02 -0.26703615704E+02 -0.16199928990E+02  0.97911741911E+02  0.91484562238E+02 0.  0.
          5    1    3    3  502    0  0.35174805219E+02  0.20670115349E+02 -0.57493374945E+01  0.41413136470E+02  0.41800000000E+01 0. -1.
         -5    1    3    3    0  502 -0.19626066191E+02  0.60335003551E+01  0.15227689923E+03  0.15371178237E+03  0.41800000000E+01 0. -1.
        -11    1    4    4    0    0 -0.45254229291E+02  0.12816079662E+02 -0.10001391916E+02  0.48085600827E+02  0.00000000000E+00 0.  1.
         11    1    4    4    0    0  0.29705490263E+02 -0.39519695366E+02 -0.61985370736E+01  0.49826141085E+02  0.00000000000E+00 0. -1.
</event>
<event>
 8    1  0.6637272E-009  0.8576379E+02  0.7561462E-02  0.1313447E+00
         -2   -1    0    0    0  501 -0.00000000000E+00  0.00000000000E+00  0.37870750423E+02  0.37870750423E+02  0.00000000000E+00 0.  1.
          2   -1    0    0  501    0  0.00000000000E+00 -0.00000000000E+00 -0.48745033094E+03  0.48745033094E+03  0.00000000000E+00 0. -1.
         25    2    1    2    0    0 -0.25589910908E+01  0.81339514007E+02 -0.21969436820E+03  0.26558739674E+03  0.12509350469E+03 0.  0.
         23    2    1    2    0    0  0.25589910908E+01 -0.81339514007E+02 -0.22988521232E+03  0.25973368462E+03  0.89396370791E+02 0.  0.
          5    1    3    3  502    0  0.11856991386E+02  0.10639879090E+02 -0.18443693541E+03  0.18517086924E+03  0.41800000000E+01 0.  1.
         -5    1    3    3    0  502 -0.14415982477E+02  0.70699634918E+02 -0.35257432789E+02  0.80416527500E+02  0.41800000000E+01 0.  1.
        -11    1    4    4    0    0 -0.56321826190E+01 -0.52516506070E+02 -0.22275701257E+03  0.22893315955E+03  0.00000000000E+00 0. -1.
         11    1    4    4    0    0  0.81911737098E+01 -0.28823007937E+02 -0.71281997478E+01  0.30800525075E+02  0.00000000000E+00 0.  1.
</event>
<event>
 8    1  0.6637272E-009  0.1610527E+03  0.7561462E-02  0.1187513E+00
         -2   -1    0    0    0  501 -0.00000000000E+00  0.00000000000E+00  0.15945139246E+03  0.15945139246E+03  0.00000000000E+00 0.  1.
          2   -1    0    0  501    0  0.00000000000E+00 -0.00000000000E+00 -0.24651005269E+03  0.24651005269E+03  0.00000000000E+00 0. -1.
         25    2    1    2    0    0  0.53051697445E+02  0.13604169301E+03  0.34259211200E+02  0.19530345198E+03  0.12509164626E+03 0.  0.
         23    2    1    2    0    0 -0.53051697445E+02 -0.13604169301E+03 -0.12131787143E+03  0.21065799317E+03  0.91306841587E+02 0.  0.
          5    1    3    3  502    0  0.21318729804E+02  0.75995813031E+01 -0.38051231594E+02  0.44470332833E+02  0.41800000000E+01 0.  1.
         -5    1    3    3    0  502  0.31732967641E+02  0.12844211171E+03  0.72310442794E+02  0.15083311915E+03  0.41800000000E+01 0.  1.
        -11    1    4    4    0    0 -0.74007788129E+02 -0.93050791446E+02 -0.10893907426E+03  0.16125546314E+03  0.00000000000E+00 0.  1.
         11    1    4    4    0    0  0.20956090684E+02 -0.42990901567E+02 -0.12378797169E+02  0.49402530033E+02  0.00000000000E+00 0. -1.
</event>
<event>
 8    1  0.6637272E-009  0.1106084E+03  0.7561462E-02  0.1259447E+00
          1   -1    0    0  501    0  0.00000000000E+00  0.00000000000E+00  0.40606827481E+03  0.40606827481E+03  0.00000000000E+00 0. -1.
         -1   -1    0    0    0  501 -0.00000000000E+00 -0.00000000000E+00 -0.42381659795E+02  0.42381659795E+02  0.00000000000E+00 0.  1.
         25    2    1    2    0    0 -0.30817943467E+02  0.24164094559E+00  0.31250575574E+03  0.33801928806E+03  0.12508951874E+03 0.  0.
         23    2    1    2    0    0  0.30817943467E+02 -0.24164094559E+00  0.51180859280E+02  0.11043064655E+03  0.92874341513E+02 0.  0.
          5    1    3    3  502    0  0.38524056218E+02 -0.33820932732E+02  0.12142594490E+03  0.13186997723E+03  0.41800000000E+01 0.  1.
         -5    1    3    3    0  502 -0.69341999685E+02  0.34062573678E+02  0.19107981084E+03  0.20614931083E+03  0.41800000000E+01 0.  1.
        -11    1    4    4    0    0  0.28377003826E+02  0.41678803791E+02  0.95852060745E+01  0.51324976445E+02  0.00000000000E+00 0.  1.
         11    1    4    4    0    0  0.24409396409E+01 -0.41920444737E+02  0.41595653206E+02  0.59105670108E+02  0.00000000000E+00 0. -1.
</event>
<event>
 8    1  0.6637272E-009  0.7787358E+02  0.7561462E-02  0.1335197E+00
         -1   -1    0    0    0  501 -0.00000000000E+00  0.00000000000E+00  0.13085993398E+02  0.13085993398E+02  0.00000000000E+00 0.  1.
          1   -1    0    0  501    0  0.00000000000E+00 -0.00000000000E+00 -0.95080470598E+03  0.95080470598E+03  0.00000000000E+00 0. -1.
         25    2    1    2    0    0  0.96823497096E+01 -0.10510294259E+02 -0.66774744501E+03  0.67951338451E+03  0.12509026833E+03 0.  0.
         23    2    1    2    0    0 -0.96823497096E+01  0.10510294259E+02 -0.26997126757E+03  0.28437731487E+03  0.88214271609E+02 0.  0.
          5    1    3    3  502    0 -0.28037059260E+02 -0.33736638822E+02 -0.91572063621E+02  0.10162259949E+03  0.41800000000E+01 0. -1.
         -5    1    3    3    0  502  0.37719408970E+02  0.23226344563E+02 -0.57617538139E+03  0.57789078502E+03  0.41800000000E+01 0. -1.
        -11    1    4    4    0    0 -0.27130191045E+02  0.30389947971E+02 -0.24375552598E+03  0.24713630379E+03  0.00000000000E+00 0. -1.
         11    1    4    4    0    0  0.17447841336E+02 -0.19879653712E+02 -0.26215741589E+02  0.37241011078E+02  0.00000000000E+00 0.  1.
</event>
<event>
 8    1  0.6637272E-009  0.1567718E+03  0.7561462E-02  0.1192390E+00
          2   -1    0    0  501    0  0.00000000000E+00  0.00000000000E+00  0.40422621492E+03  0.40422621492E+03  0.00000000000E+00 0.  1.
         -2   -1    0    0    0  501 -0.00000000000E+00 -0.00000000000E+00 -0.72765490542E+02  0.72765490542E+02  0.00000000000E+00 0. -1.
         25    2    1    2    0    0  0.51588209097E+02  0.10318568681E+03  0.85144706998E+02  0.19027902591E+03  0.12509139576E+03 0.  0.
         23    2    1    2    0    0 -0.51588209097E+02 -0.10318568681E+03  0.24631601738E+03  0.28671267955E+03  0.90686001765E+02 0.  0.
          5    1    3    3  502    0  0.45336848888E+02  0.13168850066E+03  0.78976006099E+02  0.16016233332E+03  0.41800000000E+01 0.  1.
         -5    1    3    3    0  502  0.62513602091E+01 -0.28502813855E+02  0.61687008994E+01  0.30116692596E+02  0.41800000000E+01 0.  1.
        -11    1    4    4    0    0 -0.70962393208E+02 -0.46542724110E+02  0.16715965904E+03  0.18746796534E+03  0.00000000000E+00 0.  1.
         11    1    4    4    0    0  0.19374184111E+02 -0.56642962700E+02  0.79156358344E+02  0.99244714216E+02  0.00000000000E+00 0. -1.
</event>
<event>
 8    1  0.6637272E-009  0.1376205E+03  0.7561462E-02  0.1216567E+00
          3   -1    0    0  501    0  0.00000000000E+00  0.00000000000E+00  0.11986873834E+04  0.11986873834E+04  0.00000000000E+00 0. -1.
         -3   -1    0    0    0  501 -0.00000000000E+00 -0.00000000000E+00 -0.22997534668E+02  0.22997534668E+02  0.00000000000E+00 0.  1.
         25    2    1    2    0    0  0.41106026337E+02  0.10058803773E+03  0.85387114993E+03  0.86980117857E+03  0.12510192173E+03 0.  0.
         23    2    1    2    0    0 -0.41106026337E+02 -0.10058803773E+03  0.32181869882E+03  0.35188373951E+03  0.91908827056E+02 0.  0.
          5    1    3    3  502    0  0.60330140764E+02  0.97220625118E+02  0.41580240885E+03  0.43127797468E+03  0.41800000000E+01 0.  1.
         -5    1    3    3    0  502 -0.19224114428E+02  0.33674126124E+01  0.43806874108E+03  0.43852320390E+03  0.41800000000E+01 0.  1.
        -11    1    4    4    0    0 -0.52985052617E+01 -0.10461905529E+03  0.26031994911E+03  0.28060594575E+03  0.00000000000E+00 0. -1.
         11    1    4    4    0    0 -0.35807521075E+02  0.40310175561E+01  0.61498749711E+02  0.71277793765E+02  0.00000000000E+00 0.  1.
</event>
<event>
 8    1  0.6637272E-009  0.1369331E+03  0.7561462E-02  0.1217516E+00
         -1   -1    0    0    0  501 -0.00000000000E+00  0.00000000000E+00  0.38156330080E+02  0.38156330080E+02  0.00000000000E+00 0.  1.
          1   -1    0    0  501    0  0.00000000000E+00 -0.00000000000E+00 -0.52076106739E+03  0.52076106739E+03  0.00000000000E+00 0. -1.
         25    2    1    2    0    0  0.55112106372E+02 -0.67047843221E+02 -0.21910883850E+03  0.26681261229E+03  0.12509008522E+03 0.  0.
         23    2    1    2    0    0 -0.55112106372E+02  0.67047843221E+02 -0.26349589881E+03  0.29210478517E+03  0.91445936391E+02 0.  0.
          5    1    3    3  502    0  0.22775197864E+02 -0.99282476665E+02 -0.17851699254E+03  0.20557604149E+03  0.41800000000E+01 0.  1.
         -5    1    3    3    0  502  0.32336908508E+02  0.32234633444E+02 -0.40591845961E+02  0.61236570802E+02  0.41800000000E+01 0.  1.
        -11    1    4    4    0    0 -0.56986238274E+02 -0.19754049772E+01 -0.12067634089E+03  0.13346952022E+03  0.00000000000E+00 0. -1.
         11    1    4    4    0    0  0.18741319018E+01  0.69023248198E+02 -0.14281955792E+03  0.15863526495E+03  0.00000000000E+00 0.  1.
</event>
<event>
 8    1  0.6637272E-009  0.1003991E+03  0.7561462E-02  0.1279459E+00
          3   -1    0    0  501    0  0.00000000000E+00  0.00000000000E+00  0.11334197368E+03  0.11334197368E+03  0.00000000000E+00 0. -1.
         -3   -1    0    0    0  501 -0.00000000000E+00 -0.00000000000E+00 -0.11131643764E+03  0.11131643764E+03  0.00000000000E+00 0.  1.
         25    2    1    2    0    0 -0.26767191437E+02 -0.20497327806E+02 -0.39642584903E+01  0.12961226664E+03  0.12508797437E+03 0.  0.
         23    2    1    2    0    0  0.26767191437E+02  0.20497327806E+02  0.59897945269E+01  0.95046144685E+02  0.88663797552E+02 0.  0.
          5    1    3    3  502    0  0.91782287586E+01  0.40245268186E+02 -0.33163600031E+02  0.53115141546E+02  0.41800000000E+01 0.  1.
         -5    1    3    3    0  502 -0.35945420196E+02 -0.60742595991E+02  0.29199341541E+02  0.76497125091E+02  0.41800000000E+01 0.  1.
        -11    1    4    4    0    0 -0.26621136278E+02  0.22965379870E+02  0.19107014671E+02  0.40014642057E+02  0.00000000000E+00 0.  1.
         11    1    4    4    0    0  0.53388327715E+02 -0.24680520639E+01 -0.13117220144E+02  0.55031502628E+02  0.00000000000E+00 0. -1.
</event>
<event>
 8    1  0.6637272E-009  0.8149844E+02  0.7561462E-02  0.1324852E+00
         -2   -1    0    0    0  501 -0.00000000000E+00  0.00000000000E+00  0.39062814044E+02  0.39062814044E+02  0.00000000000E+00 0.  1.
          2   -1    0    0  501    0  0.00000000000E+00 -0.00000000000E+00 -0.35478031524E+03  0.35478031524E+03  0.00000000000E+00 0. -1.
         25    2    1    2    0    0 -0.17442986817E+02 -0.39157106286E+02 -0.14690022667E+03  0.19764657217E+03  0.12508778570E+03 0.  0.
         23    2    1    2    0    0  0.17442986817E+02  0.39157106286E+02 -0.16881727452E+03  0.19619655712E+03  0.90312125902E+02 0.  0.
          5    1    3    3  502    0  0.11287995952E+02 -0.41636514172E+02 -0.15995046356E+03  0.16571856069E+03  0.41800000000E+01 0. -1.
         -5    1    3    3    0  502 -0.28730982769E+02  0.24794078859E+01  0.13050236883E+02  0.31928011480E+02  0.41800000000E+01 0. -1.
        -11    1    4    4    0    0  0.49518297935E+02  0.24598921378E+02 -0.14054240457E+03  0.15102760094E+03  0.00000000000E+00 0. -1.
         11    1    4    4    0    0 -0.32075311119E+02  0.14558184908E+02 -0.28274869954E+02  0.45168956176E+02  0.00000000000E+00 0.  1.
</event>
<event>
 8    1  0.6637272E-009  0.1574706E+03  0.7561462E-02  0.1191582E+00
         -1   -1    0    0    0  501 -0.00000000000E+00  0.00000000000E+00  0.51780468133E+02  0.51780468133E+02  0.00000000000E+00 0.  1.
          1   -1    0    0  501    0  0.00000000000E+00 -0.00000000000E+00 -0.11299255606E+04  0.11299255606E+04  0.00000000000E+00 0. -1.
         25    2    1    2    0    0  0.93291818652E+02  0.10581587615E+03 -0.95482192617E+03  0.97325870145E+03  0.12508887312E+03 0.  0.
         23    2    1    2    0    0 -0.93291818652E+02 -0.10581587615E+03 -0.12332316628E+03  0.20844732727E+03  0.91330837242E+02 0.  0.
          5    1    3    3  502    0  0.50813331444E+02  0.11868935670E+03 -0.84362093919E+03  0.85345352509E+03  0.41800000000E+01 0.  1.
         -5    1    3    3    0  502  0.42478487209E+02 -0.12873480554E+02 -0.11120098698E+03  0.11980517636E+03  0.41800000000E+01 0.  1.
        -11    1    4    4    0    0 -0.26756905280E+02 -0.26571433579E+02 -0.93415146920E+02  0.10073908247E+03  0.00000000000E+00 0. -1.
         11    1    4    4    0    0 -0.66534913372E+02 -0.79244442569E+02 -0.29908019359E+02  0.10770824480E+03  0.00000000000E+00 0.  1.
</event>
<event>
 8    1  0.6637272E-009  0.1239995E+03  0.7561462E-02  0.1236641E+00
          2   -1    0    0  501    0  0.00000000000E+00  0.00000000000E+00  0.13136019494E+03  0.13136019494E+03  0.00000000000E+00 0. -1.
         -2   -1    0    0    0  501 -0.00000000000E+00 -0.00000000000E+00 -0.17650050298E+03  0.17650050298E+03  0.00000000000E+00 0.  1.
         25    2    1    2    0    0 -0.70349883511E+02 -0.33752358642E+02  0.49421470427E+02  0.15548532048E+03  0.12507947603E+03 0.  0.
         23    2    1    2    0    0  0.70349883511E+02  0.33752358642E+02 -0.94561778467E+02  0.15237537744E+03  0.90487556486E+02 0.  0.
          5    1    3    3  502    0 -0.84348164226E+02 -0.58914397024E+02  0.65700176428E+02  0.12214542385E+03  0.41800000000E+01 0. -1.
         -5    1    3    3    0  502  0.13998280715E+02  0.25162038381E+02 -0.16278706001E+02  0.33339896634E+02  0.41800000000E+01 0. -1.
        -11    1    4    4    0    0  0.37552034214E+02 -0.27437087056E+02 -0.20387973249E+02  0.50780099182E+02  0.00000000000E+00 0. -1.
         11    1    4    4    0    0  0.32797849296E+02  0.61189445699E+02 -0.74173805218E+02  0.10159527826E+03  0.00000000000E+00 0.  1.
</event>
<event>
 8    1  0.6637272E-009  0.1983270E+03  0.7561462E-02  0.1151158E+00
          2   -1    0    0  501    0  0.00000000000E+00  0.00000000000E+00  0.10886245106E+04  0.10886245106E+04  0.00000000000E+00 0. -1.
         -2   -1    0    0    0  501 -0.00000000000E+00 -0.00000000000E+00 -0.76255105136E+02  0.76255105136E+02  0.00000000000E+00 0.  1.
         25    2    1    2    0    0  0.10422105889E+03  0.15290027694E+03  0.12709305016E+03  0.25698546008E+03  0.12509340307E+03 0.  0.
         23    2    1    2    0    0 -0.10422105889E+03 -0.15290027694E+03  0.88527635531E+03  0.90789415566E+03  0.79479864163E+02 0.  0.
          5    1    3    3  502    0  0.11832809199E+03  0.14147909854E+03  0.14225939914E+03  0.23296583810E+03  0.41800000000E+01 0. -1.
         -5    1    3    3    0  502 -0.14107033100E+02  0.11421178392E+02 -0.15166348979E+02  0.24019621981E+02  0.41800000000E+01 0. -1.
        -11    1    4    4    0    0 -0.57522734285E+02 -0.36506739628E+02  0.20133700043E+03  0.21255162841E+03  0.00000000000E+00 0. -1.
         11    1    4    4    0    0 -0.46698324606E+02 -0.11639353731E+03  0.68393935488E+03  0.69534252725E+03  0.00000000000E+00 0.  1.
</event>
<event>
 8    1  0.6637272E-009  0.2903965E+03  0.7561462E-02  0.1090142E+00
         -2   -1    0    0    0  501 -0.00000000000E+00  0.00000000000E+00  0.35184611320E+03  0.35184611320E+03  0.00000000000E+00 0.  1.
          2   -1    0    0  501    0  0.00000000000E+00 -0.00000000000E+00 -0.26798876441E+03  0.26798876441E+03  0.00000000000E+00 0. -1.
         25    2    1    2    0    0  0.26602972939E+03  0.65803730691E+02  0.12858804185E+03  0.32754318030E+03  0.12509077729E+03 0.  0.
         23    2    1    2    0    0 -0.26602972939E+03 -0.65803730691E+02 -0.44730693054E+02  0.29229169731E+03  0.91277891751E+02 0.  0.
          5    1    3    3  502    0  0.24935312031E+03  0.95367029218E+02  0.11213152151E+03  0.28959074465E+03  0.41800000000E+01 0. -1.
         -5    1    3    3    0  502  0.16676609081E+02 -0.29563298526E+02  0.16456520343E+02  0.37952435653E+02  0.41800000000E+01 0. -1.
        -11    1    4    4    0    0 -0.18282744380E+03 -0.71232892037E+02 -0.64605317183E+02  0.20657648976E+03  0.00000000000E+00 0. -1.
         11    1    4    4    0    0 -0.83202285593E+02  0.54291613460E+01  0.19874624129E+02  0.85715207549E+02  0.00000000000E+00 0.  1.
</event>
<event>
 7    1  0.6637272E-009  0.7861386E+02  0.7561462E-02  0.1333032E+00
          2   -1    0    0  501    0  0.00000000000E+00  0.00000000000E+00  0.24579120503E+03  0.24579120503E+03  0.00000000000E+00 0. -1.
         -2   -1    0    0    0  501 -0.00000000000E+00 -0.00000000000E+00 -0.69935987269E+02  0.69935987269E+02  0.00000000000E+00 0.  1.
         23    2    1    2    0    0  0.41438696927E+02 -0.38156572459E+02  0.13667052324E+03  0.17318956599E+03  0.90236933802E+02 0.  0.
          5    1    1    2  502    0 -0.48695128752E+01  0.75200314601E+01 -0.44789661374E+02  0.45867735880E+02  0.41800000000E+01 0.  1.
         -5    1    1    2    0  502 -0.36569184051E+02  0.30636540999E+02  0.83974355899E+02  0.96669890427E+02  0.41800000000E+01 0.  1.
        -11    1    3    3    0    0  0.54547927731E+02  0.45901565426E+01  0.43765701670E+02  0.70085537734E+02  0.00000000000E+00 0.  1.
         11    1    3    3    0    0 -0.13109230805E+02 -0.42746729001E+02  0.92904821566E+02  0.10310402826E+03  0.00000000000E+00 0. -1.
</event>
<event>
 8    1  0.6637272E-009  0.1167620E+03  0.7561462E-02  0.1248536E+00
          2   -1    0    0  501    0  0.00000000000E+00  0.00000000000E+00  0.61077537684E+02  0.61077537684E+02  0.00000000000E+00 0. -1.
         -2   -1    0    0    0  501 -0.00000000000E+00 -0.00000000000E+00 -0.41561869237E+03  0.41561869237E+03  0.00000000000E+00 0.  1.
         25    2    1    2    0    0  0.47721874464E+02 -0.88363606634E+01 -0.31692976355E+02  0.13786644164E+03  0.12508897796E+03 0.  0.
         23    2    1    2    0    0 -0.47721874464E+02  0.88363606634E+01 -0.32284817833E+03  0.33882978842E+03  0.90659917793E+02 0.  0.
          5    1    3    3  502    0  0.19547199337E+02 -0.64902397325E+02 -0.10674497674E+01  0.67919261108E+02  0.41800000000E+01 0.  1.
         -5    1    3    3    0  502  0.28174675126E+02  0.56066036661E+02 -0.30625526588E+02  0.69947180531E+02  0.41800000000E+01 0.  1.
        -11    1    4    4    0    0 -0.66025353993E+02 -0.19631856634E+02 -0.20912203745E+03  0.22017443928E+03  0.00000000000E+00 0. -1.
         11    1    4    4    0    0  0.18303479529E+02  0.28468217298E+02 -0.11372614088E+03  0.11865534914E+03  0.00000000000E+00 0.  1.
</event>
<event>
 8    1  0.6637272E-009  0.1317885E+03  0.7561462E-02  0.1224826E+00
         -1   -1    0    0    0  501 -0.00000000000E+00  0.00000000000E+00  0.11442077730E+03  0.11442077730E+03  0.00000000000E+00 0.  1.
          1   -1    0    0  501    0  0.00000000000E+00 -0.00000000000E+00 -0.21063074256E+03  0.21063074256E+03  0.00000000000E+00 0. -1.
         25    2    1    2    0    0 -0.84905753552E+02  0.11592172303E+02  0.20653881302E+02  0.15302637834E+03  0.12508846553E+03 0.  0.
         23    2    1    2    0    0  0.84905753552E+02 -0.11592172303E+02 -0.11686384656E+03  0.17202514152E+03  0.92693717350E+02 0.  0.
          5    1    3    3  502    0 -0.47413312678E+02  0.68089125970E+02  0.18208915098E+02  0.85048152734E+02  0.41800000000E+01 0.  1.
         -5    1    3    3    0  502 -0.37492440874E+02 -0.56496953667E+02  0.24449662032E+01  0.67978225602E+02  0.41800000000E+01 0.  1.
        -11    1    4    4    0    0  0.49058481074E+02 -0.42749642486E+02 -0.27136915490E+02  0.70503040220E+02  0.00000000000E+00 0.  1.
         11    1    4    4    0    0  0.35847272477E+02  0.31157470183E+02 -0.89726931073E+02  0.10152210130E+03  0.00000000000E+00 0. -1.
</event>
<event>
 8    1  0.6637272E-009  0.9986315E+02  0.7561462E-02  0.1280584E+00
         -2   -1    0    0    0  501 -0.00000000000E+00  0.00000000000E+00  0.21868860968E+02  0.21868860968E+02  0.00000000000E+00 0.  1.
          2   -1    0    0  501    0  0.00000000000E+00 -0.00000000000E+00 -0.61563723476E+03  0.61563723476E+03  0.00000000000E+00 0. -1.
         25    2    1    2    0    0  0.12473902565E+02  0.33269902467E+02 -0.26567140048E+03  0.29578717106E+03  0.12508506257E+03 0.  0.
         23    2    1    2    0    0 -0.12473902565E+02 -0.33269902467E+02 -0.32809697332E+03  0.34171892467E+03  0.88666312218E+02 0.  0.
          5    1    3    3  502    0  0.82456061008E+01 -0.36878645323E+02 -0.18433480511E+03  0.18821481683E+03  0.41800000000E+01 0.  1.
         -5    1    3    3    0  502  0.42282964644E+01  0.70148547791E+02 -0.81336595367E+02  0.10757235423E+03  0.41800000000E+01 0.  1.
        -11    1    4    4    0    0 -0.74438391181E+01  0.28436918366E+02 -0.15786030484E+03  0.16057379896E+03  0.00000000000E+00 0. -1.
         11    1    4    4    0    0 -0.50300634471E+01 -0.61706820834E+02 -0.17023666847E+03  0.18114512571E+03  0.00000000000E+00 0.  1.
</event>
<event>
 8    1  0.6637272E-009  0.1204844E+03  0.7561462E-02  0.1242300E+00
         -1   -1    0    0    0  501 -0.00000000000E+00  0.00000000000E+00  0.26731520767E+02  0.26731520767E+02  0.00000000000E+00 0.  1.
          1   -1    0    0  501    0  0.00000000000E+00 -0.00000000000E+00 -0.57004457646E+03  0.57004457646E+03  0.00000000000E+00 0. -1.
         25    2    1    2    0    0 -0.94598021489E+01  0.56817686252E+02 -0.26977191068E+03  0.30289183632E+03  0.12509533721E+03 0.  0.
         23    2    1    2    0    0  0.94598021489E+01 -0.56817686252E+02 -0.27354114501E+03  0.29388426090E+03  0.90694340853E+02 0.  0.
          5    1    3    3  502    0  0.11356210997E+02 -0.36178965001E+02 -0.11420661614E+03  0.12040973634E+03  0.41800000000E+01 0.  1.
         -5    1    3    3    0  502 -0.20816013146E+02  0.92996651253E+02 -0.15556529454E+03  0.18248209998E+03  0.41800000000E+01 0.  1.
        -11    1    4    4    0    0  0.42664275850E+02 -0.12317212600E+01 -0.11054201475E+03  0.11849596869E+03  0.00000000000E+00 0.  1.
         11    1    4    4    0    0 -0.33204473702E+02 -0.55585964992E+02 -0.16299913026E+03  0.17538829221E+03  0.00000000000E+00 0. -1.
</event>
<event>
 8    1  0.6637272E-009  0.1903000E+03  0.7561462E-02  0.1158191E+00
         -2   -1    0    0    0  501 -0.00000000000E+00  0.00000000000E+00  0.19138768792E+03  0.19138768792E+03  0.00000000000E+00 0.  1.
          2   -1    0    0  501    0  0.00000000000E+00 -0.00000000000E+00 -0.30990277987E+03  0.30990277987E+03  0.00000000000E+00 0. -1.
         25    2    1    2    0    0  0.16025239159E+03 -0.90815131281E+02  0.57677804394E+02  0.23000451264E+03  0.12508848723E+03 0.  0.
         23    2    1    2    0    0 -0.16025239159E+03  0.90815131281E+02 -0.17619289635E+03  0.27128595515E+03  0.92865040015E+02 0.  0.
          5    1    3    3  502    0  0.11907426099E+03 -0.57532637524E+02 -0.22120597197E+02  0.13414722222E+03  0.41800000000E+01 0.  1.
         -5    1    3    3    0  502  0.41178130602E+02 -0.33282493757E+02  0.79798401591E+02  0.95857290422E+02  0.41800000000E+01 0.  1.
        -11    1    4    4    0    0 -0.69584165234E+02  0.40799507146E+01 -0.10782916777E+03  0.12839677360E+03  0.00000000000E+00 0. -1.
         11    1    4    4    0    0 -0.90668226354E+02  0.86735180566E+02 -0.68363728581E+02  0.14288918155E+03  0.00000000000E+00 0.  1.
</event>
<event>
 8    1  0.6637272E-009  0.1177994E+03  0.7561462E-02  0.1246772E+00
         -2   -1    0    0    0  501 -0.00000000000E+00  0.00000000000E+00  0.97133161334E+02  0.97133161334E+02  0.00000000000E+00 0.  1.
          2   -1    0    0  501    0  0.00000000000E+00 -0.00000000000E+00 -0.15420372158E+03  0.15420372158E+03  0.00000000000E+00 0. -1.
         25    2    1    2    0    0 -0.22060324975E+02 -0.49257848305E+02 -0.44511141178E+02  0.14332549485E+03  0.12509181518E+03 0.  0.
         23    2    1    2    0    0  0.22060324975E+02  0.49257848305E+02 -0.12559419070E+02  0.10801138807E+03  0.92713145712E+02 0.  0.
          5    1    3    3  502    0 -0.71004033121E+02 -0.30268191845E+02 -0.49513708625E+01  0.77457889401E+02  0.41800000000E+01 0.  1.
         -5    1    3    3    0  502  0.48943708146E+02 -0.18989656460E+02 -0.39559770316E+02  0.65867605445E+02  0.41800000000E+01 0.  1.
        -11    1    4    4    0    0 -0.16349321485E+02  0.62810996278E+02  0.15033893221E+01  0.64921350463E+02  0.00000000000E+00 0.  1.
         11    1    4    4    0    0  0.38409646460E+02 -0.13553147973E+02 -0.14062808392E+02  0.43090037607E+02  0.00000000000E+00 0. -1.
</event>
<event>
 8    1  0.6637272E-009  0.1745821E+03  0.7561462E-02  0.1173152E+00
         -1   -1    0    0    0  501 -0.00000000000E+00  0.00000000000E+00  0.12727882297E+03  0.12727882297E+03  0.00000000000E+00 0.  1.
          1   -1    0    0  501    0  0.00000000000E+00 -0.00000000000E+00 -0.33314371291E+03  0.33314371291E+03  0.00000000000E+00 0. -1.
         25    2    1    2    0    0 -0.12540401652E+03 -0.10849555811E+03 -0.45842018327E+02  0.21271242980E+03  0.12509050187E+03 0.  0.
         23    2    1    2    0    0  0.12540401652E+03  0.10849555811E+03 -0.16002287162E+03  0.24771010608E+03  0.90859912627E+02 0.  0.
          5    1    3    3  502    0 -0.29343267748E+02 -0.64078439683E+02 -0.74853296543E+02  0.10289588037E+03  0.41800000000E+01 0.  1.
         -5    1    3    3    0  502 -0.96060748775E+02 -0.44417118429E+02  0.29011278215E+02  0.10981654943E+03  0.41800000000E+01 0.  1.
        -11    1    4    4    0    0  0.10113599045E+03  0.57909836003E+02 -0.55503460102E+02  0.12908397171E+03  0.00000000000E+00 0.  1.
         11    1    4    4    0    0  0.24268026073E+02  0.50585722109E+02 -0.10451941152E+03  0.11862613437E+03  0.00000000000E+00 0. -1.
</event>
<event>
 8    1  0.6637272E-009  0.1101429E+03  0.7561462E-02  0.1260305E+00
         -1   -1    0    0    0  501 -0.00000000000E+00  0.00000000000E+00  0.65004015817E+02  0.65004015817E+02  0.00000000000E+00 0.  1.
          1   -1    0    0  501    0  0.00000000000E+00 -0.00000000000E+00 -0.27334120209E+03  0.27334120209E+03  0.00000000000E+00 0. -1.
         25    2    1    2    0    0  0.61739826993E+02 -0.46049402911E+02 -0.94243493268E+02  0.17453364847E+03  0.12509118546E+03 0.  0.
         23    2    1    2    0    0 -0.61739826993E+02  0.46049402911E+02 -0.11409369301E+03  0.16381156943E+03  0.88794739432E+02 0.  0.
          5    1    3    3  502    0 -0.15140263701E+02 -0.98958151544E+01 -0.87232307386E+02  0.89185775741E+02  0.41800000000E+01 0.  1.
         -5    1    3    3    0  502  0.76880090694E+02 -0.36153587757E+02 -0.70111858815E+01  0.85347872734E+02  0.41800000000E+01 0.  1.
        -11    1    4    4    0    0  0.93744818653E+01 -0.18424376518E+02 -0.28460445885E+02  0.35175780592E+02  0.00000000000E+00 0.  1.
         11    1    4    4    0    0 -0.71114308858E+02  0.64473779428E+02 -0.85633247120E+02  0.12863578884E+03  0.00000000000E+00 0. -1.
</event>
<event>
 8    1  0.6637272E-009  0.1029568E+03  0.7561462E-02  0.1274198E+00
         -2   -1    0    0    0  501 -0.00000000000E+00  0.00000000000E+00  0.28409567111E+02  0.28409567111E+02  0.00000000000E+00 0.  1.
          2   -1    0    0  501    0  0.00000000000E+00 -0.00000000000E+00 -0.44820656930E+03  0.44820656930E+03  0.00000000000E+00 0. -1.
         25    2    1    2    0    0  0.29917795721E+02  0.34354834267E+01 -0.22180729511E+03  0.25642336605E+03  0.12509032514E+03 0.  0.
         23    2    1    2    0    0 -0.29917795721E+02 -0.34354834267E+01 -0.19798970708E+03  0.22019277036E+03  0.91531715618E+02 0.  0.
          5    1    3    3  502    0  0.17014806192E+02  0.63968339044E+02 -0.10576056309E+03  0.12483677797E+03  0.41800000000E+01 0. -1.
         -5    1    3    3    0  502  0.12902989528E+02 -0.60532855618E+02 -0.11604673202E+03  0.13158658807E+03  0.41800000000E+01 0. -1.
        -11    1    4    4    0    0 -0.53671238265E+02 -0.10362400817E+01 -0.18577472433E+03  0.19337508581E+03  0.00000000000E+00 0. -1.
         11    1    4    4    0    0  0.23753442544E+02 -0.23992433450E+01 -0.12214982743E+02  0.26817684552E+02  0.00000000000E+00 0.  1.
</event>
<event>
 8    1  0.6637272E-009  0.1805449E+03  0.7561462E-02  0.1167277E+00
          1   -1    0    0  501    0  0.00000000000E+00  0.00000000000E+00  0.43169814899E+03  0.43169814899E+03  0.00000000000E+00 0. -1.
         -1   -1    0    0    0  501 -0.00000000000E+00 -0.00000000000E+00 -0.86967924971E+02  0.86967924971E+02  0.00000000000E+00 0.  1.
         25    2    1    2    0    0  0.13201930566E+03  0.92366645744E+02  0.21770933731E+03  0.29833730494E+03  0.12508835938E+03 0.  0.
         23    2    1    2    0    0 -0.13201930566E+03 -0.92366645744E+02  0.12702088671E+03  0.22032876903E+03  0.80310438208E+02 0.  0.
          5    1    3    3  502    0  0.21302931270E+02 -0.22049254994E+02  0.86872626337E+02  0.92218816590E+02  0.41800000000E+01 0. -1.
         -5    1    3    3    0  502  0.11071637439E+03  0.11441590074E+03  0.13083671097E+03  0.20611848835E+03  0.41800000000E+01 0. -1.
        -11    1    4    4    0    0 -0.56077467296E+02 -0.68264304913E+01  0.11290382283E+02  0.57608638447E+02  0.00000000000E+00 0. -1.
         11    1    4    4    0    0 -0.75941838369E+02 -0.85540215253E+02  0.11573050443E+03  0.16272013058E+03  0.00000000000E+00 0.  1.
</event>
<event>
 8    1  0.6637272E-009  0.1071753E+03  0.7561462E-02  0.1265892E+00
         -1   -1    0    0    0  501 -0.00000000000E+00  0.00000000000E+00  0.16326174400E+02  0.16326174400E+02  0.00000000000E+00 0.  1.
          1   -1    0    0  501    0  0.00000000000E+00 -0.00000000000E+00 -0.11748092330E+04  0.11748092330E+04  0.00000000000E+00 0. -1.
         25    2    1    2    0    0  0.62428116351E+02  0.57206866371E+02 -0.74077831848E+03  0.75602182725E+03  0.12508633373E+03 0.  0.
         23    2    1    2    0    0 -0.62428116351E+02 -0.57206866371E+02 -0.41770474011E+03  0.43511358014E+03  0.87616678986E+02 0.  0.
          5    1    3    3  502    0  0.65637710142E+02  0.63709290433E+02 -0.74194225173E+03  0.74757137451E+03  0.41800000000E+01 0.  1.
         -5    1    3    3    0  502 -0.32095937910E+01 -0.65024240617E+01  0.11639332535E+01  0.84504527453E+01  0.41800000000E+01 0.  1.
        -11    1    4    4    0    0  0.16116324325E+02  0.17388403405E+01 -0.21535064550E+02  0.26954006764E+02  0.00000000000E+00 0.  1.
         11    1    4    4    0    0 -0.78544440676E+02 -0.58945706712E+02 -0.39616967556E+03  0.40815957337E+03  0.00000000000E+00 0. -1.
</event>
<event>
 8    1  0.6637272E-009  0.1372454E+03  0.7561462E-02  0.1217084E+00
         -1   -1    0    0    0  501 -0.00000000000E+00  0.00000000000E+00  0.11898632259E+04  0.11898632259E+04  0.00000000000E+00 0.  1.
          1   -1    0    0  501    0  0.00000000000E+00 -0.00000000000E+00 -0.17364848810E+02  0.17364848810E+02  0.00000000000E+00 0. -1.
         25    2    1    2    0    0  0.92164938726E+01  0.89551779914E+02  0.75108619204E+03  0.76673466290E+03  0.12508841026E+03 0.  0.
         23    2    1    2    0    0 -0.92164938726E+01 -0.89551779914E+02  0.42141218506E+03  0.44049341181E+03  0.91333187233E+02 0.  0.
          5    1    3    3  502    0  0.61662369701E+02  0.67577332973E+02  0.55584723322E+03  0.56334053897E+03  0.41800000000E+01 0. -1.
         -5    1    3    3    0  502 -0.52445875829E+02  0.21974446940E+02  0.19523895882E+03  0.20339412393E+03  0.41800000000E+01 0. -1.
        -11    1    4    4    0    0 -0.48845166176E+02 -0.48249240646E+02  0.27089295024E+03  0.27945810057E+03  0.00000000000E+00 0. -1.
         11    1    4    4    0    0  0.39628672303E+02 -0.41302539267E+02  0.15051923482E+03  0.16103531125E+03  0.00000000000E+00 0.  1.
</event>
<event>
 8    1  0.6637272E-009  0.1585031E+03  0.7561462E-02  0.1190397E+00
         -2   -1    0    0    0  501 -0.00000000000E+00  0.00000000000E+00  0.22951427325E+02  0.22951427325E+02  0.00000000000E+00 0.  1.
          2   -1    0    0  501    0  0.00000000000E+00 -0.00000000000E+00 -0.12969805708E+04  0.12969805708E+04  0.00000000000E+00 0. -1.
         25    2    1    2    0    0 -0.12469977617E+03 -0.20498447928E+02 -0.49509931343E+03  0.52606196380E+03  0.12509052342E+03 0.  0.
         23    2    1    2    0    0  0.12469977617E+03  0.20498447928E+02 -0.77892983004E+03  0.79387003432E+03  0.86762496110E+02 0.  0.
          5    1    3    3  502    0 -0.30940973059E+02 -0.56146673972E+02 -0.10366086110E+03  0.12195425099E+03  0.41800000000E+01 0. -1.
         -5    1    3    3    0  502 -0.93758803110E+02  0.35648226044E+02 -0.39143845234E+03  0.40410771281E+03  0.41800000000E+01 0. -1.
        -11    1    4    4    0    0  0.59375829419E+02 -0.33002694154E+02 -0.39100273018E+03  0.39685992736E+03  0.00000000000E+00 0. -1.
         11    1    4    4    0    0  0.65323946749E+02  0.53501142082E+02 -0.38792709986E+03  0.39701010696E+03  0.00000000000E+00 0.  1.
</event>
<event>
 8    1  0.6637272E-009  0.1782378E+03  0.7561462E-02  0.1169520E+00
          1   -1    0    0  501    0  0.00000000000E+00  0.00000000000E+00  0.10917517276E+04  0.10917517276E+04  0.00000000000E+00 0. -1.
         -1   -1    0    0    0  501 -0.00000000000E+00 -0.00000000000E+00 -0.36959785095E+02  0.36959785095E+02  0.00000000000E+00 0.  1.
         25    2    1    2    0    0 -0.87824511200E+02  0.12715821884E+03  0.35665694008E+03  0.40833094099E+03  0.12509047557E+03 0.  0.
         23    2    1    2    0    0  0.87824511200E+02 -0.12715821884E+03  0.69813500248E+03  0.72038057175E+03  0.87597540440E+02 0.  0.
          5    1    3    3  502    0 -0.11513709576E+03  0.12244808317E+03  0.27867603630E+03  0.32546565026E+03  0.41800000000E+01 0.  1.
         -5    1    3    3    0  502  0.27312584563E+02  0.47101356729E+01  0.77980903776E+02  0.82865290727E+02  0.41800000000E+01 0.  1.
        -11    1    4    4    0    0  0.34409922139E+02 -0.86793913728E+02  0.54932947903E+03  0.55720741446E+03  0.00000000000E+00 0.  1.
         11    1    4    4    0    0  0.53414589061E+02 -0.40364305114E+02  0.14880552344E+03  0.16317315729E+03  0.00000000000E+00 0. -1.
</event>
<event>
 7    1  0.6637272E-009  0.9825511E+02  0.7561462E-02  0.1284009E+00
          1   -1    0    0  501    0  0.00000000000E+00  0.00000000000E+00  0.94220062041E+02  0.94220062041E+02  0.00000000000E+00 0. -1.
         -1   -1    0    0    0  501 -0.00000000000E+00 -0.00000000000E+00 -0.11482260791E+03  0.11482260791E+03  0.00000000000E+00 0.  1.
         25    2    1    2    0    0  0.22307642627E+02 -0.49221015741E+02 -0.33381459580E+02  0.14029281971E+03  0.12508962431E+03 0.  0.
          5    1    3    3  502    0 -0.30105601777E+02  0.24062328703E+02  0.10251140613E+02  0.40098643429E+02  0.41800000000E+01 0.  1.
         -5    1    3    3    0  502  0.52413244404E+02 -0.73283344444E+02 -0.43632600193E+02  0.10019417629E+03  0.41800000000E+01 0.  1.
        -11    1    1    2    0    0 -0.30139358332E+02  0.17448090480E+02  0.63026109783E+01  0.35391237436E+02  0.00000000000E+00 0. -1.
         11    1    1    2    0    0  0.78317157058E+01  0.31772925261E+02  0.64763027369E+01  0.33358612796E+02  0.00000000000E+00 0.  1.
</event>
<event>
 8    1  0.6637272E-009  0.9335075E+02  0.7561462E-02  0.1294934E+00
         -1   -1    0    0    0  501 -0.00000000000E+00  0.00000000000E+00  0.78947858407E+02  0.78947858407E+02  0.00000000000E+00 0.  1.
          1   -1    0    0  501    0  0.00000000000E+00 -0.00000000000E+00 -0.18989565294E+03  0.18989565294E+03  0.00000000000E+00 0. -1.
         25    2    1    2    0    0 -0.31628853979E+02 -0.38640420384E+02 -0.28754150194E+02  0.13772924887E+03  0.12509627632E+03 0.  0.
         23    2    1    2    0    0  0.31628853979E+02  0.38640420384E+02 -0.82193644336E+02  0.13111426247E+03  0.89116149843E+02 0.  0.
          5    1    3    3  502    0 -0.79547939340E+01 -0.58851955014E+02  0.33274824452E+02  0.68202035877E+02  0.41800000000E+01 0. -1.
         -5    1    3    3    0  502 -0.23674060046E+02  0.20211534630E+02 -0.62028974647E+02  0.69527212995E+02  0.41800000000E+01 0. -1.
        -11    1    4    4    0    0 -0.27779482977E+02  0.79624763270E+01 -0.55872895724E+01  0.29433289121E+02  0.00000000000E+00 0. -1.
         11    1    4    4    0    0  0.59408336956E+02  0.30677944057E+02 -0.76606354764E+02  0.10168097335E+03  0.00000000000E+00 0.  1.
</event>
<event>
 8    1  0.6637272E-009  0.9651612E+02  0.7561462E-02  0.1287797E+00
          1   -1    0    0  501    0  0.00000000000E+00  0.00000000000E+00  0.16339873792E+03  0.16339873792E+03  0.00000000000E+00 0. -1.
         -1   -1    0    0    0  501 -0.00000000000E+00 -0.00000000000E+00 -0.10557951972E+03  0.10557951972E+03  0.00000000000E+00 0.  1.
         25    2    1    2    0    0  0.53139111675E+02  0.46444356786E+02  0.13290444131E+02  0.14424063244E+03  0.12509148922E+03 0.  0.
         23    2    1    2    0    0 -0.53139111675E+02 -0.46444356786E+02  0.44528774062E+02  0.12473762520E+03  0.92713644917E+02 0.  0.
          5    1    3    3  502    0  0.46039675909E+02 -0.19757266161E+02  0.47590931394E+02  0.69226949051E+02  0.41800000000E+01 0. -1.
         -5    1    3    3    0  502  0.70994357670E+01  0.66201622947E+02 -0.34300487263E+02  0.75013683388E+02  0.41800000000E+01 0. -1.
        -11    1    4    4    0    0 -0.11194141660E+02  0.26193774124E+01  0.57720263847E+02  0.58854046624E+02  0.00000000000E+00 0. -1.
         11    1    4    4    0    0 -0.41944970015E+02 -0.49063734198E+02 -0.13191489785E+02  0.65883578574E+02  0.00000000000E+00 0.  1.
</event>
<event>
 8    1  0.6637272E-009  0.1169936E+03  0.7561462E-02  0.1248141E+00
          2   -1    0    0  501    0  0.00000000000E+00  0.00000000000E+00  0.12392614586E+03  0.12392614586E+03  0.00000000000E+00 0. -1.
         -2   -1    0    0    0  501 -0.00000000000E+00 -0.00000000000E+00 -0.11487567789E+03  0.11487567789E+03  0.00000000000E+00 0.  1.
         25    2    1    2    0    0  0.42905446431E+02  0.93589750954E+01 -0.17608987207E+02  0.13373474457E+03  0.12508572151E+03 0.  0.
         23    2    1    2    0    0 -0.42905446431E+02 -0.93589750954E+01  0.26659455181E+02  0.10506707918E+03  0.91650951051E+02 0.  0.
          5    1    3    3  502    0 -0.35395955744E+02  0.35040298364E+02 -0.44304215233E+01  0.50177656654E+02  0.41800000000E+01 0. -1.
         -5    1    3    3    0  502  0.78301402174E+02 -0.25681323269E+02 -0.13178565683E+02  0.83557087915E+02  0.41800000000E+01 0. -1.
        -11    1    4    4    0    0  0.28922846317E+02 -0.62986847092E+01  0.53344431821E+01  0.30077578895E+02  0.00000000000E+00 0. -1.
         11    1    4    4    0    0 -0.71828292747E+02 -0.30602903862E+01  0.21325011999E+02  0.74989500285E+02  0.00000000000E+00 0.  1.
</event>
<event>
 8    1  0.6637272E-009  0.1290734E+03  0.7561462E-02  0.1228837E+00
          2   -1    0    0  501    0  0.00000000000E+00  0.00000000000E+00  0.51957382247E+02  0.51957382247E+02  0.00000000000E+00 0. -1.
         -2   -1    0    0    0  501 -0.00000000000E+00 -0.00000000000E+00 -0.35980755573E+03  0.35980755573E+03  0.00000000000E+00 0.  1.
         25    2    1    2    0    0  0.55753913100E+02 -0.53733316489E+02 -0.21654506970E+03  0.26179088344E+03  0.12508769448E+03 0.  0.
         23    2    1    2    0    0 -0.55753913100E+02  0.53733316489E+02 -0.91305103780E+02  0.14997405454E+03  0.90331760373E+02 0.  0.
          5    1    3    3  502    0 -0.37852310137E+02 -0.18828519498E+02 -0.97311219037E+02  0.10618030081E+03  0.41800000000E+01 0. -1.
         -5    1    3    3    0  502  0.93606223236E+02 -0.34904796991E+02 -0.11923385066E+03  0.15561058263E+03  0.41800000000E+01 0. -1.
        -11    1    4    4    0    0 -0.79095195826E+02  0.41402693505E+02 -0.54213656395E+02  0.10444785097E+03  0.00000000000E+00 0. -1.
         11    1    4    4    0    0  0.23341282727E+02  0.12330622984E+02 -0.37091447386E+02  0.45526203572E+02  0.00000000000E+00 0.  1.
</event>
<event>
 8    1  0.6637272E-009  0.1012159E+03  0.7561462E-02  0.1277760E+00
         -1   -1    0    0    0  501 -0.00000000000E+00  0.00000000000E+00  0.24443530448E+03  0.24443530448E+03  0.00000000000E+00 0.  1.
          1   -1    0    0  501    0  0.00000000000E+00 -0.00000000000E+00 -0.12722425434E+03  0.12722425434E+03  0.00000000000E+00 0. -1.
         25    2    1    2    0    0 -0.56968568591E+02 -0.33520041195E+02  0.19121489492E+03  0.23786450502E+03  0.12508947095E+03 0.  0.
         23    2    1    2    0    0  0.56968568591E+02  0.33520041195E+02 -0.74003844772E+02  0.13379505380E+03  0.89752640138E+02 0.  0.
          5    1    3    3  502    0 -0.11164623180E+02  0.43672093282E+02  0.33386226103E+02  0.56249560317E+02  0.41800000000E+01 0.  1.
         -5    1    3    3    0  502 -0.45803945410E+02 -0.77192134477E+02  0.15782866881E+03  0.18161494470E+03  0.41800000000E+01 0.  1.
        -11    1    4    4    0    0  0.31703054259E+02  0.11291713914E+02  0.16322755286E+02  0.37403459634E+02  0.00000000000E+00 0.  1.
         11    1    4    4    0    0  0.25265514332E+02  0.22228327281E+02 -0.90326600058E+02  0.96391594168E+02  0.00000000000E+00 0. -1.
</event>
<event>
 8    1  0.6637272E-009  0.1607610E+03  0.7561462E-02  0.1187840E+00
         -2   -1    0    0    0  501 -0.00000000000E+00  0.00000000000E+00  0.29484088780E+02  0.29484088780E+02  0.00000000000E+00 0.  1.
          2   -1    0    0  501    0  0.00000000000E+00 -0.00000000000E+00 -0.15505465377E+04  0.15505465377E+04  0.00000000000E+00 0. -1.
         25    2    1    2    0    0  0.14462695659E+03  0.20749106608E+02 -0.12053792460E+04  0.12206285517E+04  0.12508977813E+03 0.  0.
         23    2    1    2    0    0 -0.14462695659E+03 -0.20749106608E+02 -0.31568320296E+03  0.35940207480E+03  0.90368604839E+02 0.  0.
          5    1    3    3  502    0  0.84300526798E+02 -0.13618405000E+02 -0.10028639227E+04  0.10065016441E+04  0.41800000000E+01 0. -1.
         -5    1    3    3    0  502  0.60326429791E+02  0.34367511608E+02 -0.20251532330E+03  0.21412690759E+03  0.41800000000E+01 0. -1.
        -11    1    4    4    0    0 -0.19310491786E+02 -0.35376951222E+02 -0.42946885215E+02  0.58897017925E+02  0.00000000000E+00 0.  1.
         11    1    4    4    0    0 -0.12531646480E+03  0.14627844614E+02 -0.27273631775E+03  0.30050505687E+03  0.00000000000E+00 0. -1.
</event>
<event>
 8    1  0.6637272E-009  0.9715005E+02  0.7561462E-02  0.1286406E+00
         -2   -1    0    0    0  501 -0.00000000000E+00  0.00000000000E+00  0.19809720570E+03  0.19809720570E+03  0.00000000000E+00 0.  1.
          2   -1    0    0  501    0  0.00000000000E+00 -0.00000000000E+00 -0.88378105106E+02  0.88378105106E+02  0.00000000000E+00 0. -1.
         25    2    1    2    0    0  0.41278902862E+02 -0.88213638854E+01  0.12586004825E+03  0.18240520127E+03  0.12509652841E+03 0.  0.
         23    2    1    2    0    0 -0.41278902862E+02  0.88213638854E+01 -0.16140947660E+02  0.10407010954E+03  0.93745897116E+02 0.  0.
          5    1    3    3  502    0  0.48201302722E+01 -0.46819321041E+02  0.12034891756E+03  0.12929275632E+03  0.41800000000E+01 0.  1.
         -5    1    3    3    0  502  0.36458772590E+02  0.37997957155E+02  0.55111306950E+01  0.53112444948E+02  0.41800000000E+01 0.  1.
        -11    1    4    4    0    0  0.61462946563E+01 -0.31425771423E+02  0.14003641414E+02  0.34949363663E+02  0.00000000000E+00 0.  1.
         11    1    4    4    0    0 -0.47425197519E+02  0.40247135309E+02 -0.30144589074E+02  0.69120745878E+02  0.00000000000E+00 0. -1.
</event>
<event>
 8    1  0.6637272E-009  0.2904496E+03  0.7561462E-02  0.1090115E+00
          1   -1    0    0  501    0  0.00000000000E+00  0.00000000000E+00  0.21225383564E+03  0.21225383564E+03  0.00000000000E+00 0. -1.
         -1   -1    0    0    0  501 -0.00000000000E+00 -0.00000000000E+00 -0.48466840455E+03  0.48466840455E+03  0.00000000000E+00 0.  1.
         25    2    1    2    0    0 -0.35846228924E+02 -0.28207227980E+03 -0.28936028199E+02  0.31198585079E+03  0.12509258252E+03 0.  0.
         23    2    1    2    0    0  0.35846228924E+02  0.28207227980E+03 -0.24347854071E+03  0.38493638940E+03  0.89691141920E+02 0.  0.
          5    1    3    3  502    0  0.37446973930E+01 -0.90569053213E+02 -0.66900127606E+02  0.11273808421E+03  0.41800000000E+01 0. -1.
         -5    1    3    3    0  502 -0.39590926317E+02 -0.19150322659E+03  0.37964099408E+02  0.19924776657E+03  0.41800000000E+01 0. -1.
        -11    1    4    4    0    0  0.45179896081E+02  0.77012369570E+02 -0.47510340132E+02  0.10114030105E+03  0.00000000000E+00 0.  1.
         11    1    4    4    0    0 -0.93336671577E+01  0.20505991023E+03 -0.19596820058E+03  0.28379608835E+03  0.00000000000E+00 0. -1.
</event>
<event>
 8    1  0.6637272E-009  0.1977579E+03  0.7561462E-02  0.1151645E+00
          1   -1    0    0  501    0  0.00000000000E+00  0.00000000000E+00  0.67505829944E+03  0.67505829944E+03  0.00000000000E+00 0.  1.
         -1   -1    0    0    0  501 -0.00000000000E+00 -0.00000000000E+00 -0.68387791294E+02  0.68387791294E+02  0.00000000000E+00 0. -1.
         25    2    1    2    0    0  0.17802418769E+03  0.52305475357E+02  0.32259668505E+03  0.39261252548E+03  0.12508996683E+03 0.  0.
         23    2    1    2    0    0 -0.17802418769E+03 -0.52305475357E+02  0.28407382309E+03  0.35083356525E+03  0.89206386464E+02 0.  0.
          5    1    3    3  502    0  0.12197120982E+03 -0.46537630225E+01  0.10603634289E+03  0.16173995162E+03  0.41800000000E+01 0.  1.
         -5    1    3    3    0  502  0.56052977869E+02  0.56959238379E+02  0.21656034216E+03  0.23087257386E+03  0.41800000000E+01 0.  1.
        -11    1    4    4    0    0 -0.10838370905E+03 -0.58995439396E+02  0.11849199086E+03  0.17107846783E+03  0.00000000000E+00 0. -1.
         11    1    4    4    0    0 -0.69640478643E+02  0.66899640391E+01  0.16558183223E+03  0.17975509742E+03  0.00000000000E+00 0.  1.
</event>
<event>
 8    1  0.6637272E-009  0.1013184E+03  0.7561462E-02  0.1277548E+00
         -1   -1    0    0    0  501 -0.00000000000E+00  0.00000000000E+00  0.25281704074E+03  0.25281704074E+03  0.00000000000E+00 0.  1.
          1   -1    0    0  501    0  0.00000000000E+00 -0.00000000000E+00 -0.52577367998E+02  0.52577367998E+02  0.00000000000E+00 0. -1.
         25    2    1    2    0    0 -0.35694198011E+02  0.20319851334E+02  0.13125744092E+03  0.18591008003E+03  0.12508824857E+03 0.  0.
         23    2    1    2    0    0  0.35694198011E+02 -0.20319851334E+02  0.68982231818E+02  0.11948432870E+03  0.88492849253E+02 0.  0.
          5    1    3    3  502    0  0.36893035113E+02 -0.23367897907E+02  0.27031622807E+02  0.51529949777E+02  0.41800000000E+01 0. -1.
         -5    1    3    3    0  502 -0.72587233124E+02  0.43687749240E+02  0.10422581811E+03  0.13438013026E+03  0.41800000000E+01 0. -1.
        -11    1    4    4    0    0 -0.99401445497E+01  0.13768911434E+02  0.59328652894E+02  0.61711250594E+02  0.00000000000E+00 0.  1.
         11    1    4    4    0    0  0.45634342561E+02 -0.34088762768E+02  0.96535789237E+01  0.57773078108E+02  0.00000000000E+00 0. -1.
</event>
<event>
 8    1  0.6637272E-009  0.1223250E+03  0.7561462E-02  0.1239310E+00
          1   -1    0    0  501    0  0.00000000000E+00  0.00000000000E+00  0.21438267304E+03  0.21438267304E+03  0.00000000000E+00 0. -1.
         -1   -1    0    0    0  501 -0.00000000000E+00 -0.00000000000E+00 -0.88284733739E+02  0.88284733739E+02  0.00000000000E+00 0.  1.
         25    2    1    2    0    0 -0.82843499357E+01 -0.83988318764E+02  0.61111862579E+02  0.16280506958E+03  0.12509261685E+03 0.  0.
         23    2    1    2    0    0  0.82843499357E+01  0.83988318764E+02  0.64986076717E+02  0.13986233719E+03  0.90640030096E+02 0.  0.
          5    1    3    3  502    0 -0.66418767938E+02 -0.39406616681E+02  0.35308828154E+02  0.85020702881E+02  0.41800000000E+01 0. -1.
         -5    1    3    3    0  502  0.58134418003E+02 -0.44581702083E+02  0.25803034425E+02  0.77784366698E+02  0.41800000000E+01 0. -1.
        -11    1    4    4    0    0 -0.11192220525E+02  0.67464090956E+02 -0.17467227232E+01  0.68408481997E+02  0.00000000000E+00 0.  1.
         11    1    4    4    0    0  0.19476570461E+02  0.16524227808E+02  0.66732799440E+02  0.71453855198E+02  0.00000000000E+00 0. -1.
</event>
<event>
 8    1  0.6637272E-009  0.5660622E+02  0.7561462E-02  0.1412652E+00
          2   -1    0    0  501    0  0.00000000000E+00  0.00000000000E+00  0.70841615860E+02  0.70841615860E+02  0.00000000000E+00 0. -1.
         -2   -1    0    0    0  501 -0.00000000000E+00 -0.00000000000E+00 -0.21058988343E+03  0.21058988343E+03  0.00000000000E+00 0.  1.
         25    2    1    2    0    0 -0.42517718938E+02  0.15693052017E+01 -0.12006934288E+03  0.17853425323E+03  0.12509042063E+03 0.  0.
         23    2    1    2    0    0  0.42517718938E+02 -0.15693052017E+01 -0.19678924695E+02  0.10289724606E+03  0.91598930274E+02 0.  0.
          5    1    3    3  502    0 -0.69728890368E+01  0.16154987884E+02 -0.13566008011E+03  0.13686027382E+03  0.41800000000E+01 0. -1.
         -5    1    3    3    0  502 -0.35544829901E+02 -0.14585682682E+02  0.15590737235E+02  0.41673979406E+02  0.41800000000E+01 0. -1.
        -11    1    4    4    0    0  0.19584182037E+02 -0.19296220917E+02 -0.52405614540E+02  0.59179665115E+02  0.00000000000E+00 0.  1.
         11    1    4    4    0    0  0.22933536901E+02  0.17726915716E+02  0.32726689846E+02  0.43717580947E+02  0.00000000000E+00 0. -1.
</event>
<event>
 8    1  0.6637272E-009  0.7490045E+02  0.7561462E-02  0.1344180E+00
         -1   -1    0    0    0  501 -0.00000000000E+00  0.00000000000E+00  0.33505063779E+02  0.33505063779E+02  0.00000000000E+00 0.  1.
          1   -1    0    0  501    0  0.00000000000E+00 -0.00000000000E+00 -0.57108883993E+03  0.57108883993E+03  0.00000000000E+00 0. -1.
         25    2    1    2    0    0 -0.35469006212E+02 -0.30848777239E+02 -0.44231531925E+03  0.46205804717E+03  0.12508037358E+03 0.  0.
         23    2    1    2    0    0  0.35469006212E+02  0.30848777239E+02 -0.95268456898E+02  0.14253585653E+03  0.95029964007E+02 0.  0.
          5    1    3    3  502    0  0.11660975305E+02  0.10438056626E+02 -0.35020131377E+03  0.35057576062E+03  0.41800000000E+01 0.  1.
         -5    1    3    3    0  502 -0.47129981517E+02 -0.41286833865E+02 -0.92114005485E+02  0.11148228655E+03  0.41800000000E+01 0.  1.
        -11    1    4    4    0    0  0.23791353157E+02 -0.11821805436E+02 -0.94633320507E+02  0.98291652337E+02  0.00000000000E+00 0. -1.
         11    1    4    4    0    0  0.11677653056E+02  0.42670582675E+02 -0.63513639024E+00  0.44244204197E+02  0.00000000000E+00 0.  1.
</event>
<event>
 8    1  0.6637272E-009  0.7250856E+02  0.7561462E-02  0.1351765E+00
          1   -1    0    0  501    0  0.00000000000E+00  0.00000000000E+00  0.95254542523E+03  0.95254542523E+03  0.00000000000E+00 0. -1.
         -1   -1    0    0    0  501 -0.00000000000E+00 -0.00000000000E+00 -0.15653028673E+02  0.15653028673E+02  0.00000000000E+00 0.  1.
         25    2    1    2    0    0 -0.25376358621E+00 -0.43919384531E+02  0.66047412206E+03  0.67364807671E+03  0.12508672436E+03 0.  0.
         23    2    1    2    0    0  0.25376358621E+00  0.43919384531E+02  0.27641827450E+03  0.29455037719E+03  0.91781727459E+02 0.  0.
          5    1    3    3  502    0  0.14379597824E+02 -0.39889246291E+02  0.63520730658E+02  0.76487125888E+02  0.41800000000E+01 0.  1.
         -5    1    3    3    0  502 -0.14633361411E+02 -0.40301382393E+01  0.59695339140E+03  0.59716095082E+03  0.41800000000E+01 0.  1.
        -11    1    4    4    0    0  0.17259496502E+02 -0.16513168353E+02  0.21909426327E+02  0.32412928139E+02  0.00000000000E+00 0.  1.
         11    1    4    4    0    0 -0.17005732916E+02  0.60432552883E+02  0.25450884817E+03  0.26213744905E+03  0.00000000000E+00 0. -1.
</event>
<event>
 8    1  0.6637272E-009  0.1072278E+03  0.7561462E-02  0.1265791E+00
          1   -1    0    0  501    0  0.00000000000E+00  0.00000000000E+00  0.49710410524E+02  0.49710410524E+02  0.00000000000E+00 0. -1.
         -1   -1    0    0    0  501 -0.00000000000E+00 -0.00000000000E+00 -0.31117470511E+03  0.31117470511E+03  0.00000000000E+00 0.  1.
         25    2    1    2    0    0 -0.32432313791E+02 -0.49516721687E+02 -0.16361078355E+03  0.21429416228E+03  0.12509891601E+03 0.  0.
         23    2    1    2    0    0  0.32432313791E+02  0.49516721687E+02 -0.97853511034E+02  0.14659095336E+03  0.91705164957E+02 0.  0.
          5    1    3    3  502    0 -0.32745305335E+02 -0.88550137414E+02 -0.88155098640E+02  0.12923689749E+03  0.41800000000E+01 0.  1.
         -5    1    3    3    0  502  0.31299154361E+00  0.39033415727E+02 -0.75455684911E+02  0.85057264783E+02  0.41800000000E+01 0.  1.
        -11    1    4    4    0    0  0.21048051268E+02 -0.76576215628E+01 -0.83639349744E+02  0.86586375694E+02  0.00000000000E+00 0.  1.
         11    1    4    4    0    0  0.11384262523E+02  0.57174343250E+02 -0.14214161290E+02  0.60004577663E+02  0.00000000000E+00 0. -1.
</event>
<event>
 8    1  0.6637272E-009  0.1106282E+03  0.7561462E-02  0.1259411E+00
          1   -1    0    0  501    0  0.00000000000E+00  0.00000000000E+00  0.10204759627E+03  0.10204759627E+03  0.00000000000E+00 0. -1.
         -1   -1    0    0    0  501 -0.00000000000E+00 -0.00000000000E+00 -0.15743786671E+03  0.15743786671E+03  0.00000000000E+00 0.  1.
         25    2    1    2    0    0 -0.76986935530E+01 -0.25286256827E+02  0.30654562575E+02  0.13147883509E+03  0.12509323404E+03 0.  0.
         23    2    1    2    0    0  0.76986935530E+01  0.25286256827E+02 -0.86044833011E+02  0.12800662789E+03  0.91012739930E+02 0.  0.
          5    1    3    3  502    0  0.79237773207E+01 -0.74337468048E+02  0.87771141896E+01  0.75388033111E+02  0.41800000000E+01 0. -1.
         -5    1    3    3    0  502 -0.15622470874E+02  0.49051211222E+02  0.21877448385E+02  0.56090801976E+02  0.41800000000E+01 0. -1.
        -11    1    4    4    0    0 -0.40772022269E+02  0.21553393970E+02 -0.40015326953E+02  0.61058439078E+02  0.00000000000E+00 0. -1.
         11    1    4    4    0    0  0.48470715822E+02  0.37328628566E+01 -0.46029506058E+02  0.66948188813E+02  0.00000000000E+00 0.  1.
</event>
<event>
 8    1  0.6637272E-009  0.8322556E+02  0.7561462E-02  0.1320139E+00
         -1   -1    0    0    0  501 -0.00000000000E+00  0.00000000000E+00  0.35602403058E+02  0.35602403058E+02  0.00000000000E+00 0.  1.
          1   -1    0    0  501    0  0.00000000000E+00 -0.00000000000E+00 -0.36810066587E+03  0.36810066587E+03  0.00000000000E+00 0. -1.
         25    2    1    2    0    0 -0.23123790921E+02 -0.68130983479E+00 -0.13568306584E+03  0.18598977728E+03  0.12508848471E+03 0.  0.
         23    2    1    2    0    0  0.23123790921E+02  0.68130983479E+00 -0.19681519697E+03  0.21771329164E+03  0.90153656110E+02 0.  0.
          5    1    3    3  502    0 -0.24338869009E+02 -0.55455951900E+02 -0.31944891472E+02  0.68598043973E+02  0.41800000000E+01 0. -1.
         -5    1    3    3    0  502  0.12150780882E+01  0.54774642065E+02 -0.10373817437E+03  0.11739173331E+03  0.41800000000E+01 0. -1.
        -11    1    4    4    0    0 -0.61830367089E+01  0.16410571573E+02  0.56934658854E+00  0.17545966996E+02  0.00000000000E+00 0.  1.
         11    1    4    4    0    0  0.29306827630E+02 -0.15729261738E+02 -0.19738454356E+03  0.20016732465E+03  0.00000000000E+00 0. -1.
</event>
<event>
 8    1  0.6637272E-009  0.9866552E+02  0.7561462E-02  0.1283127E+00
         -2   -1    0    0    0  501 -0.00000000000E+00  0.00000000000E+00  0.10461635375E+04  0.10461635375E+04  0.00000000000E+00 0. -1.
          2   -1    0    0  501    0  0.00000000000E+00 -0.00000000000E+00 -0.11432990118E+02  0.11432990118E+02  0.00000000000E+00 0.  1.
         25    2    1    2    0    0  0.16856088986E+02 -0.35607711942E+01  0.60951300719E+03  0.62245507606E+03  0.12508960370E+03 0.  0.
         23    2    1    2    0    0 -0.16856088986E+02  0.35607711942E+01  0.42521754018E+03  0.43514145155E+03  0.90781713727E+02 0.  0.
          5    1    3    3  502    0  0.59521946785E+02  0.11922376735E+02  0.50206721528E+03  0.50574100712E+03  0.41800000000E+01 0. -1.
         -5    1    3    3    0  502 -0.42665857799E+02 -0.15483147930E+02  0.10744579191E+03  0.11671406895E+03  0.41800000000E+01 0. -1.
        -11    1    4    4    0    0 -0.52108861797E+02  0.14326886590E+02  0.28985711930E+03  0.29485206929E+03  0.00000000000E+00 0.  1.
         11    1    4    4    0    0  0.35252772811E+02 -0.10766115395E+02  0.13536042089E+03  0.14028938226E+03  0.00000000000E+00 0. -1.
</event>
<event>
 8    1  0.6637272E-009  0.1164056E+03  0.7561462E-02  0.1249147E+00
          1   -1    0    0  501    0  0.00000000000E+00  0.00000000000E+00  0.17078907675E+04  0.17078907675E+04  0.00000000000E+00 0. -1.
         -1   -1    0    0    0  501 -0.00000000000E+00 -0.00000000000E+00 -0.10459334778E+02  0.10459334778E+02  0.00000000000E+00 0.  1.
         25    2    1    2    0    0 -0.73853137199E+02 -0.23656049559E+02  0.99194738000E+03  0.10028065013E+04  0.12508948713E+03 0.  0.
         23    2    1    2    0    0  0.73853137199E+02  0.23656049559E+02  0.70548405271E+03  0.71554360098E+03  0.91000009400E+02 0.  0.
          5    1    3    3  502    0  0.17985886630E+02 -0.73980577780E+01  0.58293204362E+03  0.58327134616E+03  0.41800000000E+01 0.  1.
         -5    1    3    3    0  502 -0.91839023828E+02 -0.16257991781E+02  0.40901533638E+03  0.41953515513E+03  0.41800000000E+01 0.  1.
        -11    1    4    4    0    0  0.17231221954E+02  0.53038106392E+02  0.33153641457E+03  0.33619391714E+03  0.00000000000E+00 0.  1.
         11    1    4    4    0    0  0.56621915245E+02 -0.29382056833E+02  0.37394763814E+03  0.37934968383E+03  0.00000000000E+00 0. -1.
</event>
<event>
 8    1  0.6637272E-009  0.9738577E+02  0.7561462E-02  0.1285891E+00
         -2   -1    0    0    0  501 -0.00000000000E+00  0.00000000000E+00  0.22363182140E+03  0.22363182140E+03  0.00000000000E+00 0.  1.
          2   -1    0    0  501    0  0.00000000000E+00 -0.00000000000E+00 -0.65921825558E+02  0.65921825558E+02  0.00000000000E+00 0. -1.
         25    2    1    2    0    0 -0.79028013032E+01  0.13500897806E+02  0.31748116480E+02  0.13000095069E+03  0.12509027048E+03 0.  0.
         23    2    1    2    0    0  0.79028013032E+01 -0.13500897806E+02  0.12596187936E+03  0.15955269627E+03  0.96674398502E+02 0.  0.
          5    1    3    3  502    0 -0.52831650647E+02  0.11138834065E+02  0.56681617716E+02  0.78393463511E+02  0.41800000000E+01 0. -1.
         -5    1    3    3    0  502  0.44928849344E+02  0.23620637412E+01 -0.24933501236E+02  0.51607487174E+02  0.41800000000E+01 0. -1.
        -11    1    4    4    0    0  0.21324623120E+02  0.37257882537E+02  0.74804484930E+02  0.86247320701E+02  0.00000000000E+00 0. -1.
         11    1    4    4    0    0 -0.13421821817E+02 -0.50758780343E+02  0.51157394433E+02  0.73305375574E+02  0.00000000000E+00 0.  1.
</event>
<event>
 8    1  0.6637272E-009  0.1400665E+03  0.7561462E-02  0.1213240E+00
         -1   -1    0    0    0  501 -0.00000000000E+00  0.00000000000E+00  0.49289961667E+03  0.49289961667E+03  0.00000000000E+00 0.  1.
          1   -1    0    0  501    0  0.00000000000E+00 -0.00000000000E+00 -0.46699036634E+02  0.46699036634E+02  0.00000000000E+00 0. -1.
         25    2    1    2    0    0 -0.45362896120E+01 -0.94716165838E+02  0.34515690972E+03  0.37917434740E+03  0.12509261932E+03 0.  0.
         23    2    1    2    0    0  0.45362896120E+01  0.94716165838E+02  0.10104367032E+03  0.16042430590E+03  0.80835664272E+02 0.  0.
          5    1    3    3  502    0 -0.43128860930E+02 -0.10718228825E+03  0.26898932941E+03  0.29278127211E+03  0.41800000000E+01 0. -1.
         -5    1    3    3    0  502  0.38592571318E+02  0.12466122416E+02  0.76167580308E+02  0.86393075295E+02  0.41800000000E+01 0. -1.
        -11    1    4    4    0    0  0.37925595869E+02  0.77279941899E+02  0.78644690243E+02  0.11659986083E+03  0.00000000000E+00 0. -1.
         11    1    4    4    0    0 -0.33389306257E+02  0.17436223939E+02  0.22398980078E+02  0.43824445075E+02  0.00000000000E+00 0.  1.
</event>
<event>
 8    1  0.6637272E-009  0.1089405E+03  0.7561462E-02  0.1262545E+00
         -2   -1    0    0    0  501 -0.00000000000E+00  0.00000000000E+00  0.11582450737E+03  0.11582450737E+03  0.00000000000E+00 0.  1.
          2   -1    0    0  501    0  0.00000000000E+00 -0.00000000000E+00 -0.17228236715E+03  0.17228236715E+03  0.00000000000E+00 0. -1.
         25    2    1    2    0    0 -0.73136610644E+01 -0.76803690857E+02  0.18982156259E+02  0.14819146471E+03  0.12509233145E+03 0.  0.
         23    2    1    2    0    0  0.73136610644E+01  0.76803690857E+02 -0.75440016036E+02  0.13991540982E+03  0.89066432045E+02 0.  0.
          5    1    3    3  502    0 -0.54245609315E+02 -0.57213170375E+02  0.45039432397E+02  0.90895301666E+02  0.41800000000E+01 0.  1.
         -5    1    3    3    0  502  0.46931948251E+02 -0.19590520482E+02 -0.26057276138E+02  0.57296163040E+02  0.41800000000E+01 0.  1.
        -11    1    4    4    0    0  0.23335344268E+02  0.27537357629E+02 -0.80143120205E+02  0.87896325711E+02  0.00000000000E+00 0. -1.
         11    1    4    4    0    0 -0.16021683203E+02  0.49266333228E+02  0.47031041688E+01  0.52019084106E+02  0.00000000000E+00 0.  1.
</event>
<event>
 8    1  0.6637272E-009  0.6528842E+02  0.7561462E-02  0.1376890E+00
          4   -1    0    0  501    0  0.00000000000E+00  0.00000000000E+00  0.44162493587E+02  0.44162493587E+02  0.00000000000E+00 0. -1.
         -4   -1    0    0    0  501 -0.00000000000E+00 -0.00000000000E+00 -0.30410013424E+03  0.30410013424E+03  0.00000000000E+00 0.  1.
         25    2    1    2    0    0 -0.61205570061E+01 -0.35388520742E+02 -0.20407330508E+03  0.24203860589E+03  0.12508782626E+03 0.  0.
         23    2    1    2    0    0  0.61205570061E+01  0.35388520742E+02 -0.55864335572E+02  0.10622402193E+03  0.82903017004E+02 0.  0.
          5    1    3    3  502    0 -0.13527657855E+02 -0.38090890942E+02 -0.22003256028E+03  0.22375368931E+03  0.41800000000E+01 0. -1.
         -5    1    3    3    0  502  0.74071008490E+01  0.27023701996E+01  0.15959255199E+02  0.18284916576E+02  0.41800000000E+01 0. -1.
        -11    1    4    4    0    0  0.35024495017E+02  0.38377752472E+02 -0.57021558700E+02  0.77142888801E+02  0.00000000000E+00 0.  1.
         11    1    4    4    0    0 -0.28903938011E+02 -0.29892317300E+01  0.11572231275E+01  0.29081133132E+02  0.00000000000E+00 0. -1.
</event>
<event>
 8    1  0.6637272E-009  0.1077050E+03  0.7561462E-02  0.1264880E+00
         -1   -1    0    0    0  501 -0.00000000000E+00  0.00000000000E+00  0.28667266408E+02  0.28667266408E+02  0.00000000000E+00 0.  1.
          1   -1    0    0  501    0  0.00000000000E+00 -0.00000000000E+00 -0.44823255186E+03  0.44823255186E+03  0.00000000000E+00 0. -1.
         25    2    1    2    0    0  0.17317057635E+02  0.33046725568E+02 -0.22164678299E+03  0.25722999666E+03  0.12509199901E+03 0.  0.
         23    2    1    2    0    0 -0.17317057635E+02 -0.33046725568E+02 -0.19791850246E+03  0.21966982160E+03  0.87699089801E+02 0.  0.
          5    1    3    3  502    0 -0.34090070719E+02 -0.26572821575E+02 -0.12605448867E+03  0.13332461994E+03  0.41800000000E+01 0. -1.
         -5    1    3    3    0  502  0.51407128354E+02  0.59619547142E+02 -0.95592294318E+02  0.12390537672E+03  0.41800000000E+01 0. -1.
        -11    1    4    4    0    0  0.28809573660E+02  0.95643623711E+01 -0.44206490812E+02  0.53625389434E+02  0.00000000000E+00 0.  1.
         11    1    4    4    0    0 -0.46126631295E+02 -0.42611087939E+02 -0.15371201165E+03  0.16604443217E+03  0.00000000000E+00 0. -1.
</event>
<event>
 8    1  0.6637272E-009  0.1193336E+03  0.7561462E-02  0.1244200E+00
          1   -1    0    0  501    0  0.00000000000E+00  0.00000000000E+00  0.43341810109E+03  0.43341810109E+03  0.00000000000E+00 0. -1.
         -1   -1    0    0    0  501 -0.00000000000E+00 -0.00000000000E+00 -0.56916633710E+02  0.56916633710E+02  0.00000000000E+00 0.  1.
         25    2    1    2    0    0  0.71447363005E+02  0.89449600293E+00  0.33878334864E+03  0.36813912181E+03  0.12508688934E+03 0.  0.
         23    2    1    2    0    0 -0.71447363005E+02 -0.89449600293E+00  0.37718118741E+02  0.12219561299E+03  0.91671072592E+02 0.  0.
          5    1    3    3  502    0  0.64047302407E+02 -0.54564318353E+02  0.16093126782E+03  0.18164709506E+03  0.41800000000E+01 0.  1.
         -5    1    3    3    0  502  0.74000605989E+01  0.55458814356E+02  0.17785208082E+03  0.18649202674E+03  0.41800000000E+01 0.  1.
        -11    1    4    4    0    0 -0.47357932133E+02 -0.33333714463E+02  0.53475766701E+02  0.78826187781E+02  0.00000000000E+00 0. -1.
         11    1    4    4    0    0 -0.24089430873E+02  0.32439218460E+02 -0.15757647960E+02  0.43369425213E+02  0.00000000000E+00 0.  1.
</event>
<event>
 8    1  0.6637272E-009  0.2406951E+03  0.7561462E-02  0.1119331E+00
          3   -1    0    0  501    0  0.00000000000E+00  0.00000000000E+00  0.96883384954E+02  0.96883384954E+02  0.00000000000E+00 0. -1.
         -3   -1    0    0    0  501 -0.00000000000E+00 -0.00000000000E+00 -0.66452440937E+03  0.66452440937E+03  0.00000000000E+00 0.  1.
         25    2    1    2    0    0 -0.20911185218E+03  0.87061591295E+02 -0.24516529440E+03  0.35646503421E+03  0.12511519346E+03 0.  0.
         23    2    1    2    0    0  0.20911185218E+03 -0.87061591295E+02 -0.32247573002E+03  0.40494276011E+03  0.93169496707E+02 0.  0.
          5    1    3    3  502    0 -0.31046638340E+01 -0.10043164835E+02 -0.65178923779E+02  0.66153371814E+02  0.41800000000E+01 0. -1.
         -5    1    3    3    0  502 -0.20600718835E+03  0.97104756130E+02 -0.17998637062E+03  0.29031166240E+03  0.41800000000E+01 0. -1.
        -11    1    4    4    0    0  0.16830124053E+03 -0.28169163379E+02 -0.25278036536E+03  0.30498642993E+03  0.00000000000E+00 0. -1.
         11    1    4    4    0    0  0.40810611648E+02 -0.58892427915E+02 -0.69695364657E+02  0.99956330182E+02  0.00000000000E+00 0.  1.
</event>
<event>
 8    1  0.6637272E-009  0.9434590E+02  0.7561462E-02  0.1292656E+00
         -1   -1    0    0    0  501 -0.00000000000E+00  0.00000000000E+00  0.11915227770E+03  0.11915227770E+03  0.00000000000E+00 0.  1.
          1   -1    0    0  501    0  0.00000000000E+00 -0.00000000000E+00 -0.19934583354E+03  0.19934583354E+03  0.00000000000E+00 0. -1.
         25    2    1    2    0    0  0.72047152360E+02  0.14613583909E+02  0.40321259034E+02  0.15059247865E+03  0.12509173313E+03 0.  0.
         23    2    1    2    0    0 -0.72047152360E+02 -0.14613583909E+02 -0.12051481487E+03  0.16790563259E+03  0.90907270641E+02 0.  0.
          5    1    3    3  502    0  0.29122607917E+01 -0.31117254997E+02 -0.28707063939E+02  0.42641912967E+02  0.41800000000E+01 0. -1.
         -5    1    3    3    0  502  0.69134891569E+02  0.45730838905E+02  0.69028322973E+02  0.10795056569E+03  0.41800000000E+01 0. -1.
        -11    1    4    4    0    0 -0.35741369454E+02 -0.22558901326E+01  0.54564522743E+01  0.36225783665E+02  0.00000000000E+00 0.  1.
         11    1    4    4    0    0 -0.36305782906E+02 -0.12357693776E+02 -0.12597126714E+03  0.13167984893E+03  0.00000000000E+00 0. -1.
</event>
<event>
 8    1  0.6637272E-009  0.1078327E+03  0.7561462E-02  0.1264637E+00
          2   -1    0    0  501    0  0.00000000000E+00  0.00000000000E+00  0.36729322888E+02  0.36729322888E+02  0.00000000000E+00 0. -1.
         -2   -1    0    0    0  501 -0.00000000000E+00 -0.00000000000E+00 -0.32476477948E+03  0.32476477948E+03  0.00000000000E+00 0.  1.
         25    2    1    2    0    0 -0.12771792197E+01 -0.13072140120E+02 -0.18324744789E+03  0.22226106091E+03  0.12509132665E+03 0.  0.
         23    2    1    2    0    0  0.12771792197E+01  0.13072140120E+02 -0.10478800871E+03  0.13923304146E+03  0.90734784026E+02 0.  0.
          5    1    3    3  502    0 -0.30008156633E+02  0.47779027411E+02 -0.10239879874E+03  0.11698850930E+03  0.41800000000E+01 0. -1.
         -5    1    3    3    0  502  0.28730977413E+02 -0.60851167531E+02 -0.80848649153E+02  0.10527255161E+03  0.41800000000E+01 0. -1.
        -11    1    4    4    0    0  0.72690385680E+01  0.51886395576E+02 -0.61067002340E+02  0.80462511410E+02  0.00000000000E+00 0.  1.
         11    1    4    4    0    0 -0.59918593483E+01 -0.38814255456E+02 -0.43721006365E+02  0.58770530052E+02  0.00000000000E+00 0. -1.
</event>
<event>
 8    1  0.6637272E-009  0.1296768E+03  0.7561462E-02  0.1227936E+00
         -1   -1    0    0    0  501 -0.00000000000E+00  0.00000000000E+00  0.23993686082E+03  0.23993686082E+03  0.00000000000E+00 0.  1.
          1   -1    0    0  501    0  0.00000000000E+00 -0.00000000000E+00 -0.88670171845E+02  0.88670171845E+02  0.00000000000E+00 0. -1.
         25    2    1    2    0    0 -0.51253253016E+02  0.82633437714E+02  0.73048103076E+02  0.17448343274E+03  0.12511299679E+03 0.  0.
         23    2    1    2    0    0  0.51253253016E+02 -0.82633437714E+02  0.78218585899E+02  0.15412359992E+03  0.90447531196E+02 0.  0.
          5    1    3    3  502    0 -0.72203422132E+02  0.62292326383E+01  0.10270145299E+02  0.73314976583E+02  0.41800000000E+01 0.  1.
         -5    1    3    3    0  502  0.20950169116E+02  0.76404205076E+02  0.62777957777E+02  0.10116845616E+03  0.41800000000E+01 0.  1.
        -11    1    4    4    0    0  0.40977419955E+02 -0.23154417222E+02 -0.91345206870E+01  0.47944921016E+02  0.00000000000E+00 0. -1.
         11    1    4    4    0    0  0.10275833061E+02 -0.59479020492E+02  0.87353106586E+02  0.10617867890E+03  0.00000000000E+00 0.  1.
</event>
<event>
 8    1  0.6637272E-009  0.1542540E+03  0.7561462E-02  0.1195341E+00
         -1   -1    0    0    0  501 -0.00000000000E+00  0.00000000000E+00  0.10989323113E+03  0.10989323113E+03  0.00000000000E+00 0.  1.
          1   -1    0    0  501    0  0.00000000000E+00 -0.00000000000E+00 -0.45986454500E+03  0.45986454500E+03  0.00000000000E+00 0. -1.
         25    2    1    2    0    0 -0.13138382906E+02 -0.14577406886E+03 -0.14535489933E+02  0.19308528446E+03  0.12509176771E+03 0.  0.
         23    2    1    2    0    0  0.13138382906E+02  0.14577406886E+03 -0.33543582394E+03  0.37667249167E+03  0.89119457722E+02 0.  0.
          5    1    3    3  502    0 -0.30541039530E+02 -0.92447965901E+02 -0.65307032059E+02  0.11731096424E+03  0.41800000000E+01 0.  1.
         -5    1    3    3    0  502  0.17402656624E+02 -0.53326102960E+02  0.50771542126E+02  0.75774320217E+02  0.41800000000E+01 0.  1.
        -11    1    4    4    0    0 -0.76977039872E+01  0.12549644566E+03 -0.18649216304E+03  0.22491762803E+03  0.00000000000E+00 0.  1.
         11    1    4    4    0    0  0.20836086894E+02  0.20277623199E+02 -0.14894366090E+03  0.15175486365E+03  0.00000000000E+00 0. -1.
</event>
<event>
 8    1  0.6637272E-009  0.1497228E+03  0.7561462E-02  0.1200814E+00
          1   -1    0    0  501    0  0.00000000000E+00  0.00000000000E+00  0.25740273643E+03  0.25740273643E+03  0.00000000000E+00 0. -1.
         -1   -1    0    0    0  501 -0.00000000000E+00 -0.00000000000E+00 -0.12431310630E+03  0.12431310630E+03  0.00000000000E+00 0.  1.
         25    2    1    2    0    0 -0.39124314312E+02  0.11500907742E+03 -0.66687178814E+01  0.17449804019E+03  0.12508914570E+03 0.  0.
         23    2    1    2    0    0  0.39124314312E+02 -0.11500907742E+03  0.13975834802E+03  0.20721780254E+03  0.93000118226E+02 0.  0.
          5    1    3    3  502    0  0.33967374831E+02  0.91032971042E+02 -0.63431878249E+01  0.97460211376E+02  0.41800000000E+01 0. -1.
         -5    1    3    3    0  502 -0.73091689142E+02  0.23976106382E+02 -0.32553005647E+00  0.77037828817E+02  0.41800000000E+01 0. -1.
        -11    1    4    4    0    0  0.38126792576E+02 -0.66643660443E+02  0.13904719494E+03  0.15883687295E+03  0.00000000000E+00 0. -1.
         11    1    4    4    0    0  0.99752173543E+00 -0.48365416981E+02  0.71115307959E+00  0.48380929591E+02  0.00000000000E+00 0.  1.
</event>
<event>
 8    1  0.6637272E-009  0.1508725E+03  0.7561462E-02  0.1199405E+00
          1   -1    0    0  501    0  0.00000000000E+00  0.00000000000E+00  0.14333166076E+03  0.14333166076E+03  0.00000000000E+00 0. -1.
         -1   -1    0    0    0  501 -0.00000000000E+00 -0.00000000000E+00 -0.20413100202E+03  0.20413100202E+03  0.00000000000E+00 0.  1.
         25    2    1    2    0    0  0.77134641339E+02  0.93518284103E+02 -0.85744671397E+02  0.19415053061E+03  0.12508739947E+03 0.  0.
         23    2    1    2    0    0 -0.77134641339E+02 -0.93518284103E+02  0.24945330141E+02  0.15331213216E+03  0.90481589381E+02 0.  0.
          5    1    3    3  502    0 -0.33571211410E+02  0.35408097530E+02 -0.27367375664E+02  0.56099957727E+02  0.41800000000E+01 0. -1.
         -5    1    3    3    0  502  0.11070585275E+03  0.58110186573E+02 -0.58377295733E+02  0.13805057288E+03  0.41800000000E+01 0. -1.
        -11    1    4    4    0    0 -0.59577992623E+02 -0.92577194531E+02 -0.13617663239E+02  0.11093022539E+03  0.00000000000E+00 0.  1.
         11    1    4    4    0    0 -0.17556648716E+02 -0.94108957229E+00  0.38562993380E+02  0.42381906778E+02  0.00000000000E+00 0. -1.
</event>
<event>
 8    1  0.6637272E-009  0.1330113E+03  0.7561462E-02  0.1223055E+00
          2   -1    0    0  501    0  0.00000000000E+00  0.00000000000E+00  0.20170348610E+03  0.20170348610E+03  0.00000000000E+00 0. -1.
         -2   -1    0    0    0  501 -0.00000000000E+00 -0.00000000000E+00 -0.11124745689E+03  0.11124745689E+03  0.00000000000E+00 0.  1.
         25    2    1    2    0    0 -0.73011920723E+02 -0.67667552787E+02  0.18663815025E+02  0.16095416774E+03  0.12509303679E+03 0.  0.
         23    2    1    2    0    0  0.73011920723E+02  0.67667552787E+02  0.71792214190E+02  0.15199677525E+03  0.89661917224E+02 0.  0.
          5    1    3    3  502    0  0.34620244125E+02 -0.19200008513E+02 -0.60945500229E+01  0.40271796212E+02  0.41800000000E+01 0.  1.
         -5    1    3    3    0  502 -0.10763216485E+03 -0.48467544273E+02  0.24758365048E+02  0.12068237153E+03  0.41800000000E+01 0.  1.
        -11    1    4    4    0    0 -0.99804164114E+00  0.20091936680E+02 -0.17483864470E+02  0.26652720752E+02  0.00000000000E+00 0.  1.
         11    1    4    4    0    0  0.74009962365E+02  0.47575616107E+02  0.89276078660E+02  0.12534405450E+03  0.00000000000E+00 0. -1.
</event>
<event>
 8    1  0.6637272E-009  0.1577623E+03  0.7561462E-02  0.1191246E+00
         -1   -1    0    0    0  501 -0.00000000000E+00  0.00000000000E+00  0.52199404682E+03  0.52199404682E+03  0.00000000000E+00 0.  1.
          1   -1    0    0  501    0  0.00000000000E+00 -0.00000000000E+00 -0.58310318077E+02  0.58310318077E+02  0.00000000000E+00 0. -1.
         25    2    1    2    0    0 -0.12792338099E+03  0.61519087647E+01  0.32684488020E+03  0.37266143593E+03  0.12508690071E+03 0.  0.
         23    2    1    2    0    0  0.12792338099E+03 -0.61519087647E+01  0.13683884854E+03  0.20764292897E+03  0.89378286484E+02 0.  0.
          5    1    3    3  502    0 -0.75798663482E+01 -0.46222381809E+02  0.72424073644E+02  0.86352080445E+02  0.41800000000E+01 0. -1.
         -5    1    3    3    0  502 -0.12034351464E+03  0.52374290573E+02  0.25442080656E+03  0.28630935549E+03  0.41800000000E+01 0. -1.
        -11    1    4    4    0    0  0.77119678542E+02  0.20524530488E+02  0.12615144061E+03  0.14927453613E+03  0.00000000000E+00 0.  1.
         11    1    4    4    0    0  0.50803702446E+02 -0.26676439252E+02  0.10687407929E+02  0.58368392831E+02  0.00000000000E+00 0. -1.
</event>
<event>
 8    1  0.6637272E-009  0.7624168E+02  0.7561462E-02  0.1340069E+00
          1   -1    0    0  501    0  0.00000000000E+00  0.00000000000E+00  0.23185785657E+02  0.23185785657E+02  0.00000000000E+00 0. -1.
         -1   -1    0    0    0  501 -0.00000000000E+00 -0.00000000000E+00 -0.58464438643E+03  0.58464438643E+03  0.00000000000E+00 0.  1.
         25    2    1    2    0    0 -0.89869943166E-01 -0.26551394178E+02 -0.40367658180E+03  0.42344817471E+03  0.12509432186E+03 0.  0.
         23    2    1    2    0    0  0.89869943166E-01  0.26551394178E+02 -0.15778201897E+03  0.18438199738E+03  0.91632804367E+02 0.  0.
          5    1    3    3  502    0 -0.48013868833E+01 -0.43509773184E+02 -0.40377524983E+02  0.59699000010E+02  0.41800000000E+01 0.  1.
         -5    1    3    3    0  502  0.47115169401E+01  0.16958379006E+02 -0.36329905682E+03  0.36374917470E+03  0.41800000000E+01 0.  1.
        -11    1    4    4    0    0 -0.29189345562E+02  0.46562842064E+02 -0.12294922891E+03  0.13467230244E+03  0.00000000000E+00 0.  1.
         11    1    4    4    0    0  0.29279215505E+02 -0.20011447886E+02 -0.34832790069E+02  0.49709694940E+02  0.00000000000E+00 0. -1.
</event>
<event>
 8    1  0.6637272E-009  0.1570549E+03  0.7561462E-02  0.1192062E+00
          2   -1    0    0  501    0  0.00000000000E+00  0.00000000000E+00  0.78854724296E+03  0.78854724296E+03  0.00000000000E+00 0. -1.
         -2   -1    0    0    0  501 -0.00000000000E+00 -0.00000000000E+00 -0.40413074008E+02  0.40413074008E+02  0.00000000000E+00 0.  1.
         25    2    1    2    0    0 -0.10339242043E+03  0.95899030032E+02  0.37733940297E+03  0.42180464499E+03  0.12509003534E+03 0.  0.
         23    2    1    2    0    0  0.10339242043E+03 -0.95899030032E+02  0.37079476598E+03  0.40715567197E+03  0.91653511531E+02 0.  0.
          5    1    3    3  502    0 -0.27562383024E+02  0.53152068811E+01  0.23533041715E+03  0.23703546996E+03  0.41800000000E+01 0. -1.
         -5    1    3    3    0  502 -0.75830037410E+02  0.90583823151E+02  0.14200898582E+03  0.18476917504E+03  0.41800000000E+01 0. -1.
        -11    1    4    4    0    0 -0.60027592381E+01 -0.47535825581E+02  0.12303831813E+03  0.13203831096E+03  0.00000000000E+00 0. -1.
         11    1    4    4    0    0  0.10939517967E+03 -0.48363204451E+02  0.24775644785E+03  0.27511736102E+03  0.00000000000E+00 0.  1.
</event>
<event>
 8    1  0.6637272E-009  0.1176656E+03  0.7561462E-02  0.1246999E+00
          2   -1    0    0  501    0  0.00000000000E+00  0.00000000000E+00  0.41052409851E+03  0.41052409851E+03  0.00000000000E+00 0.  1.
         -2   -1    0    0    0  501 -0.00000000000E+00 -0.00000000000E+00 -0.41317337224E+02  0.41317337224E+02  0.00000000000E+00 0. -1.
         25    2    1    2    0    0  0.61905174963E+02 -0.28146817304E+02  0.24976543662E+03  0.28749675581E+03  0.12508843776E+03 0.  0.
         23    2    1    2    0    0 -0.61905174963E+02  0.28146817304E+02  0.11944132466E+03  0.16434467992E+03  0.90102440418E+02 0.  0.
          5    1    3    3  502    0  0.94165579160E+02  0.66884368579E+01  0.15834101596E+03  0.18439425485E+03  0.41800000000E+01 0.  1.
         -5    1    3    3    0  502 -0.32260404197E+02 -0.34835254162E+02  0.91424420659E+02  0.10310250096E+03  0.41800000000E+01 0.  1.
        -11    1    4    4    0    0 -0.46298539533E+02 -0.13886664634E+02  0.14879027375E+02  0.50574496272E+02  0.00000000000E+00 0.  1.
         11    1    4    4    0    0 -0.15606635430E+02  0.42033481939E+02  0.10456229729E+03  0.11377018365E+03  0.00000000000E+00 0. -1.
</event>
<event>
 8    1  0.6637272E-009  0.1088425E+03  0.7561462E-02  0.1262728E+00
          1   -1    0    0  501    0  0.00000000000E+00  0.00000000000E+00  0.36139461048E+03  0.36139461048E+03  0.00000000000E+00 0. -1.
         -1   -1    0    0    0  501 -0.00000000000E+00 -0.00000000000E+00 -0.44188047964E+02  0.44188047964E+02  0.00000000000E+00 0.  1.
         25    2    1    2    0    0 -0.20853263566E+02  0.84735549817E+01  0.27464753628E+03  0.30261704470E+03  0.12505657447E+03 0.  0.
         23    2    1    2    0    0  0.20853263566E+02 -0.84735549817E+01  0.42559026234E+02  0.10296561375E+03  0.91016411517E+02 0.  0.
          5    1    3    3  502    0  0.51248698202E+02  0.28571614108E+01  0.82343134845E+02  0.97120835534E+02  0.41800000000E+01 0.  1.
         -5    1    3    3    0  502 -0.72101961767E+02  0.56163935709E+01  0.19230440144E+03  0.20549620916E+03  0.41800000000E+01 0.  1.
        -11    1    4    4    0    0  0.25215639453E+02  0.38798677033E+02  0.20162275349E+02  0.50474579342E+02  0.00000000000E+00 0. -1.
         11    1    4    4    0    0 -0.43623758868E+01 -0.47272232014E+02  0.22396750886E+02  0.52491034408E+02  0.00000000000E+00 0.  1.
</event>
<event>
 8    1  0.6637272E-009  0.1265585E+03  0.7561462E-02  0.1232653E+00
         -2   -1    0    0    0  501 -0.00000000000E+00  0.00000000000E+00  0.19308235178E+03  0.19308235178E+03  0.00000000000E+00 0. -1.
          2   -1    0    0  501    0  0.00000000000E+00 -0.00000000000E+00 -0.86420781605E+02  0.86420781605E+02  0.00000000000E+00 0.  1.
         25    2    1    2    0    0  0.60217567445E+02 -0.32489035272E+02  0.48793063928E+02  0.15069720084E+03  0.12508873015E+03 0.  0.
         23    2    1    2    0    0 -0.60217567445E+02  0.32489035272E+02  0.57868506246E+02  0.12880593255E+03  0.92523031737E+02 0.  0.
          5    1    3    3  502    0  0.66640081409E+01 -0.71492672291E+02  0.43608568646E+02  0.84111775960E+02  0.41800000000E+01 0. -1.
         -5    1    3    3    0  502  0.53553559304E+02  0.39003637019E+02  0.51844952815E+01  0.66585424878E+02  0.41800000000E+01 0. -1.
        -11    1    4    4    0    0 -0.56109653516E+02 -0.21924695601E+02  0.34721326736E+02  0.69530971697E+02  0.00000000000E+00 0. -1.
         11    1    4    4    0    0 -0.41079139296E+01  0.54413730872E+02  0.23147179510E+02  0.59274960849E+02  0.00000000000E+00 0.  1.
</event>
<event>
 8    1  0.6637272E-009  0.8949024E+02  0.7561462E-02  0.1304091E+00
         -2   -1    0    0    0  501 -0.00000000000E+00  0.00000000000E+00  0.60931861831E+03  0.60931861831E+03  0.00000000000E+00 0.  1.
          2   -1    0    0  501    0  0.00000000000E+00 -0.00000000000E+00 -0.24919789120E+02  0.24919789120E+02  0.00000000000E+00 0. -1.
         25    2    1    2    0    0  0.88951744853E-01  0.34452864845E+02  0.50713470181E+03  0.52346902689E+03  0.12508880256E+03 0.  0.
         23    2    1    2    0    0 -0.88951744853E-01 -0.34452864845E+02  0.77264127379E+02  0.11076938054E+03  0.71505961127E+02 0.  0.
          5    1    3    3  502    0 -0.37415017991E+02  0.68200443583E+02  0.27136658657E+03  0.28232690411E+03  0.41800000000E+01 0.  1.
         -5    1    3    3    0  502  0.37503969736E+02 -0.33747578738E+02  0.23576811524E+03  0.24114212279E+03  0.41800000000E+01 0.  1.
        -11    1    4    4    0    0 -0.16974323930E+02 -0.27231940699E+02  0.84989850351E+02  0.90845918620E+02  0.00000000000E+00 0.  1.
         11    1    4    4    0    0  0.16885372186E+02 -0.72209241459E+01 -0.77257229725E+01  0.19923461918E+02  0.00000000000E+00 0. -1.
</event>
<event>
 8    1  0.6637272E-009  0.2424866E+03  0.7561462E-02  0.1118147E+00
          2   -1    0    0  501    0  0.00000000000E+00  0.00000000000E+00  0.57779639141E+03  0.57779639141E+03  0.00000000000E+00 0. -1.
         -2   -1    0    0    0  501 -0.00000000000E+00 -0.00000000000E+00 -0.10877665239E+03  0.10877665239E+03  0.00000000000E+00 0.  1.
         25    2    1    2    0    0  0.58238590520E+02  0.21695812529E+03  0.26868242822E+03  0.37188630300E+03  0.12508642440E+03 0.  0.
         23    2    1    2    0    0 -0.58238590520E+02 -0.21695812529E+03  0.20033731080E+03  0.31468674079E+03  0.91815822041E+02 0.  0.
          5    1    3    3  502    0 -0.12864394225E+02  0.14432324422E+03  0.20769090444E+03  0.25327391427E+03  0.41800000000E+01 0. -1.
         -5    1    3    3    0  502  0.71102984745E+02  0.72634881071E+02  0.60991523783E+02  0.11861238873E+03  0.41800000000E+01 0. -1.
        -11    1    4    4    0    0 -0.63031896490E+02 -0.82887522345E+02  0.58434530769E+02  0.11940668207E+03  0.00000000000E+00 0.  1.
         11    1    4    4    0    0  0.47933059703E+01 -0.13407060295E+03  0.14190278003E+03  0.19528005873E+03  0.00000000000E+00 0. -1.
</event>
<event>
 8    1  0.6637272E-009  0.1038312E+03  0.7561462E-02  0.1272440E+00
          2   -1    0    0  501    0  0.00000000000E+00  0.00000000000E+00  0.86012458006E+02  0.86012458006E+02  0.00000000000E+00 0. -1.
         -2   -1    0    0    0  501 -0.00000000000E+00 -0.00000000000E+00 -0.26205920557E+03  0.26205920557E+03  0.00000000000E+00 0.  1.
         25    2    1    2    0    0 -0.68780122876E+02 -0.15390823740E+02 -0.18301561885E+03  0.23261448066E+03  0.12508875693E+03 0.  0.
         23    2    1    2    0    0  0.68780122876E+02  0.15390823740E+02  0.69688712879E+01  0.11545718292E+03  0.91182307285E+02 0.  0.
          5    1    3    3  502    0 -0.54160223221E+02  0.27220218207E+02 -0.20821260496E+02  0.64228244155E+02  0.41800000000E+01 0.  1.
         -5    1    3    3    0  502 -0.14619899655E+02 -0.42611041948E+02 -0.16219435835E+03  0.16838623650E+03  0.41800000000E+01 0.  1.
        -11    1    4    4    0    0  0.60608911034E+02 -0.21167866585E+02 -0.22253549385E+02  0.67946590295E+02  0.00000000000E+00 0.  1.
         11    1    4    4    0    0  0.81712118417E+01  0.36558690325E+02  0.29222420673E+02  0.47510592621E+02  0.00000000000E+00 0. -1.
</event>
<event>
 8    1  0.6637272E-009  0.1003356E+03  0.7561462E-02  0.1279592E+00
         -1   -1    0    0    0  501 -0.00000000000E+00  0.00000000000E+00  0.97701578897E+02  0.97701578897E+02  0.00000000000E+00 0.  1.
          1   -1    0    0  501    0  0.00000000000E+00 -0.00000000000E+00 -0.17132641351E+03  0.17132641351E+03  0.00000000000E+00 0. -1.
         25    2    1    2    0    0 -0.66613487471E+02 -0.24549834312E+02 -0.29096517868E+02  0.14675048503E+03  0.12509614873E+03 0.  0.
         23    2    1    2    0    0  0.66613487471E+02  0.24549834312E+02 -0.44528316746E+02  0.12227750738E+03  0.89044745724E+02 0.  0.
          5    1    3    3  502    0 -0.64299596942E+02  0.32470785638E+02  0.15985885772E+02  0.73904066403E+02  0.41800000000E+01 0. -1.
         -5    1    3    3    0  502 -0.23138905283E+01 -0.57020619950E+02 -0.45082403640E+02  0.72846418627E+02  0.41800000000E+01 0. -1.
        -11    1    4    4    0    0  0.20642899767E+02  0.10889850607E+02  0.27296343575E+02  0.35913904405E+02  0.00000000000E+00 0.  1.
         11    1    4    4    0    0  0.45970587703E+02  0.13659983705E+02 -0.71824660321E+02  0.86363602975E+02  0.00000000000E+00 0. -1.
</event>
<event>
 8    1  0.6637272E-009  0.1110251E+03  0.7561462E-02  0.1258683E+00
         -1   -1    0    0    0  501 -0.00000000000E+00  0.00000000000E+00  0.15306896738E+03  0.15306896738E+03  0.00000000000E+00 0.  1.
          1   -1    0    0  501    0  0.00000000000E+00 -0.00000000000E+00 -0.12834478007E+03  0.12834478007E+03  0.00000000000E+00 0. -1.
         25    2    1    2    0    0 -0.53100606478E+02 -0.62014376735E+02 -0.18755602013E+02  0.15054745941E+03  0.12508919856E+03 0.  0.
         23    2    1    2    0    0  0.53100606478E+02  0.62014376735E+02  0.43479789332E+02  0.13086628804E+03  0.92574488577E+02 0.  0.
          5    1    3    3  502    0 -0.80520559535E+02 -0.22025636795E+02 -0.45344796393E+02  0.95091072893E+02  0.41800000000E+01 0. -1.
         -5    1    3    3    0  502  0.27419953057E+02 -0.39988739940E+02  0.26589194379E+02  0.55456386516E+02  0.41800000000E+01 0. -1.
        -11    1    4    4    0    0  0.11641349824E+01  0.27313249358E+02  0.60275225792E+02  0.66185131601E+02  0.00000000000E+00 0.  1.
         11    1    4    4    0    0  0.51936471496E+02  0.34701127377E+02 -0.16795436460E+02  0.64681156441E+02  0.00000000000E+00 0. -1.
</event>
<event>
 8    1  0.6637272E-009  0.8968160E+02  0.7561462E-02  0.1303625E+00
         -4   -1    0    0    0  501 -0.00000000000E+00  0.00000000000E+00  0.33087986511E+02  0.33087986511E+02  0.00000000000E+00 0.  1.
          4   -1    0    0  501    0  0.00000000000E+00 -0.00000000000E+00 -0.42644579390E+03  0.42644579390E+03  0.00000000000E+00 0. -1.
         25    2    1    2    0    0  0.35462445945E+02  0.10175486376E+02 -0.14490217075E+03  0.19494895300E+03  0.12508928648E+03 0.  0.
         23    2    1    2    0    0 -0.35462445945E+02 -0.10175486376E+02 -0.24845563664E+03  0.26458482741E+03  0.83149274938E+02 0.  0.
          5    1    3    3  502    0 -0.29189606977E+02  0.91791925993E+01 -0.12259001999E+03  0.12642023625E+03  0.41800000000E+01 0. -1.
         -5    1    3    3    0  502  0.64652052922E+02  0.99629377651E+00 -0.22312150764E+02  0.68528716755E+02  0.41800000000E+01 0. -1.
        -11    1    4    4    0    0 -0.33718546711E+02 -0.40845978217E+02 -0.20246181198E+03  0.20927522462E+03  0.00000000000E+00 0. -1.
         11    1    4    4    0    0 -0.17438992339E+01  0.30670491842E+02 -0.45993824665E+02  0.55309602798E+02  0.00000000000E+00 0.  1.
</event>
<event>
 8    1  0.6637272E-009  0.1956394E+03  0.7561462E-02  0.1153471E+00
          2   -1    0    0  501    0  0.00000000000E+00  0.00000000000E+00  0.15611350215E+04  0.15611350215E+04  0.00000000000E+00 0.  1.
         -2   -1    0    0    0  501 -0.00000000000E+00 -0.00000000000E+00 -0.29175804972E+02  0.29175804972E+02  0.00000000000E+00 0. -1.
         25    2    1    2    0    0 -0.11434492562E+03  0.12648271503E+03  0.54451334646E+03  0.58413606924E+03  0.12509006234E+03 0.  0.
         23    2    1    2    0    0  0.11434492562E+03 -0.12648271503E+03  0.98744587002E+03  0.10061747572E+04  0.90915656302E+02 0.  0.
          5    1    3    3  502    0 -0.13239817018E+03  0.99186028806E+02  0.51091920374E+03  0.53705032253E+03  0.41800000000E+01 0. -1.
         -5    1    3    3    0  502  0.18053244564E+02  0.27296686224E+02  0.33594142721E+02  0.47085746710E+02  0.41800000000E+01 0. -1.
        -11    1    4    4    0    0  0.73452307212E+02 -0.13247346548E+03  0.80202071724E+03  0.81619954139E+03  0.00000000000E+00 0.  1.
         11    1    4    4    0    0  0.40892618406E+02  0.59907504494E+01  0.18542515278E+03  0.18997521579E+03  0.00000000000E+00 0. -1.
</event>
<event>
 8    1  0.6637272E-009  0.1222667E+03  0.7561462E-02  0.1239404E+00
          1   -1    0    0  501    0  0.00000000000E+00  0.00000000000E+00  0.25978019659E+02  0.25978019659E+02  0.00000000000E+00 0. -1.
         -1   -1    0    0    0  501 -0.00000000000E+00 -0.00000000000E+00 -0.72562310381E+03  0.72562310381E+03  0.00000000000E+00 0.  1.
         25    2    1    2    0    0  0.43958339395E+02  0.54175461745E+02 -0.50721248872E+03  0.52704837632E+03  0.12509262972E+03 0.  0.
         23    2    1    2    0    0 -0.43958339395E+02 -0.54175461745E+02 -0.19243259543E+03  0.22455274715E+03  0.92338053963E+02 0.  0.
          5    1    3    3  502    0  0.12850535650E+02  0.84265021261E+02 -0.21010117808E+03  0.22677236936E+03  0.41800000000E+01 0. -1.
         -5    1    3    3    0  502  0.31107803745E+02 -0.30089559516E+02 -0.29711131064E+03  0.30027600696E+03  0.41800000000E+01 0. -1.
        -11    1    4    4    0    0 -0.26735293815E+02 -0.80180318560E+02 -0.13871298091E+03  0.16243444984E+03  0.00000000000E+00 0.  1.
         11    1    4    4    0    0 -0.17223045581E+02  0.26004856815E+02 -0.53719614516E+02  0.62118297311E+02  0.00000000000E+00 0. -1.
</event>
<event>
 8    1  0.6637272E-009  0.1742452E+03  0.7561462E-02  0.1173492E+00
         -1   -1    0    0    0  501 -0.00000000000E+00  0.00000000000E+00  0.53025422604E+02  0.53025422604E+02  0.00000000000E+00 0.  1.
          1   -1    0    0  501    0  0.00000000000E+00 -0.00000000000E+00 -0.61967413926E+03  0.61967413926E+03  0.00000000000E+00 0. -1.
         25    2    1    2    0    0 -0.11398143515E+03  0.81203114399E+02 -0.22827134855E+03  0.29553391209E+03  0.12508705480E+03 0.  0.
         23    2    1    2    0    0  0.11398143515E+03 -0.81203114399E+02 -0.33837736811E+03  0.37716564978E+03  0.90382358789E+02 0.  0.
          5    1    3    3  502    0 -0.15516356993E+02  0.84185919268E+02 -0.13436279428E+03  0.15937019553E+03  0.41800000000E+01 0.  1.
         -5    1    3    3    0  502 -0.98465078153E+02 -0.29828048685E+01 -0.93908554272E+02  0.13616371655E+03  0.41800000000E+01 0.  1.
        -11    1    4    4    0    0 -0.11374593785E+02 -0.23662273363E+02 -0.33691455543E+02  0.42712980943E+02  0.00000000000E+00 0.  1.
         11    1    4    4    0    0  0.12535602893E+03 -0.57540841037E+02 -0.30468591257E+03  0.33445266884E+03  0.00000000000E+00 0. -1.
</event>
<event>
 8    1  0.6637272E-009  0.1337769E+03  0.7561462E-02  0.1221957E+00
         -2   -1    0    0    0  501 -0.00000000000E+00  0.00000000000E+00  0.27431504209E+03  0.27431504209E+03  0.00000000000E+00 0.  1.
          2   -1    0    0  501    0  0.00000000000E+00 -0.00000000000E+00 -0.10597097415E+03  0.10597097415E+03  0.00000000000E+00 0. -1.
         25    2    1    2    0    0 -0.11983491612E+03 -0.30655304612E+02  0.42855741556E+02  0.18107765788E+03  0.12510934729E+03 0.  0.
         23    2    1    2    0    0  0.11983491612E+03  0.30655304612E+02  0.12548832639E+03  0.19920835835E+03  0.92932745342E+02 0.  0.
          5    1    3    3  502    0 -0.83463298567E+02 -0.38388884260E+02 -0.32015064382E+02  0.97376924319E+02  0.41800000000E+01 0.  1.
         -5    1    3    3    0  502 -0.36371617550E+02  0.77335796474E+01  0.74870805938E+02  0.83700733564E+02  0.41800000000E+01 0.  1.
        -11    1    4    4    0    0  0.24252162222E+02 -0.18675370416E+02 -0.40036590191E+01  0.30870149305E+02  0.00000000000E+00 0.  1.
         11    1    4    4    0    0  0.95582753895E+02  0.49330675028E+02  0.12949198541E+03  0.16833820905E+03  0.00000000000E+00 0. -1.
</event>
<event>
 8    1  0.6637272E-009  0.1154576E+03  0.7561462E-02  0.1250785E+00
          2   -1    0    0  501    0  0.00000000000E+00  0.00000000000E+00  0.11088202911E+04  0.11088202911E+04  0.00000000000E+00 0. -1.
         -2   -1    0    0    0  501 -0.00000000000E+00 -0.00000000000E+00 -0.12203446864E+02  0.12203446864E+02  0.00000000000E+00 0.  1.
         25    2    1    2    0    0 -0.34793454955E+02  0.24728163991E+02  0.68726139706E+03  0.69985580240E+03  0.12509136522E+03 0.  0.
         23    2    1    2    0    0  0.34793454955E+02 -0.24728163991E+02  0.40935544721E+03  0.42116793560E+03  0.89378303954E+02 0.  0.
          5    1    3    3  502    0  0.13820714655E+02 -0.44887919930E+02  0.24157149913E+03  0.24613045139E+03  0.41800000000E+01 0. -1.
         -5    1    3    3    0  502 -0.48614169610E+02  0.69616083920E+02  0.44568989793E+03  0.45372535101E+03  0.41800000000E+01 0. -1.
        -11    1    4    4    0    0  0.53209198794E+01 -0.55724266170E+02  0.24809329745E+03  0.25433008133E+03  0.00000000000E+00 0. -1.
         11    1    4    4    0    0  0.29472535075E+02  0.30996102179E+02  0.16126214975E+03  0.16683785427E+03  0.00000000000E+00 0.  1.
</event>
<event>
 8    1  0.6637272E-009  0.8313040E+02  0.7561462E-02  0.1320395E+00
         -2   -1    0    0    0  501 -0.00000000000E+00  0.00000000000E+00  0.98901822903E+02  0.98901822903E+02  0.00000000000E+00 0.  1.
          2   -1    0    0  501    0  0.00000000000E+00 -0.00000000000E+00 -0.15451209696E+03  0.15451209696E+03  0.00000000000E+00 0. -1.
         25    2    1    2    0    0  0.29721971135E+02 -0.38820971692E+02 -0.62291958943E+02  0.14805038181E+03  0.12509262166E+03 0.  0.
         23    2    1    2    0    0 -0.29721971135E+02  0.38820971692E+02  0.66816848876E+01  0.10536353805E+03  0.93093323209E+02 0.  0.
          5    1    3    3  502    0  0.33542938083E+02 -0.51486989391E+02  0.19876106164E+02  0.64719168474E+02  0.41800000000E+01 0.  1.
         -5    1    3    3    0  502 -0.38209669477E+01  0.12666017699E+02 -0.82168065107E+02  0.83331213337E+02  0.41800000000E+01 0.  1.
        -11    1    4    4    0    0 -0.50486468113E+02  0.46517808880E+02 -0.19216216072E+02  0.71288519171E+02  0.00000000000E+00 0. -1.
         11    1    4    4    0    0  0.20764496978E+02 -0.76968371880E+01  0.25897900960E+02  0.34075018878E+02  0.00000000000E+00 0.  1.
</event>
<event>
 8    1  0.6637272E-009  0.1711153E+03  0.7561462E-02  0.1176690E+00
          1   -1    0    0  501    0  0.00000000000E+00  0.00000000000E+00  0.73211480586E+03  0.73211480586E+03  0.00000000000E+00 0. -1.
         -1   -1    0    0    0  501 -0.00000000000E+00 -0.00000000000E+00 -0.48300206911E+02  0.48300206911E+02  0.00000000000E+00 0.  1.
         25    2    1    2    0    0 -0.13792394263E+03 -0.63789693976E+02  0.39424090715E+03  0.44064257512E+03  0.12509135513E+03 0.  0.
         23    2    1    2    0    0  0.13792394263E+03  0.63789693976E+02  0.28957369180E+03  0.33977243765E+03  0.92196786263E+02 0.  0.
          5    1    3    3  502    0 -0.14964937472E+03 -0.28895460447E+02  0.35659665929E+03  0.38782538958E+03  0.41800000000E+01 0. -1.
         -5    1    3    3    0  502  0.11725432083E+02 -0.34894233529E+02  0.37644247860E+02  0.52817185537E+02  0.41800000000E+01 0. -1.
        -11    1    4    4    0    0  0.12484679847E+03  0.52503209537E+02  0.29242318015E+03  0.32226483889E+03  0.00000000000E+00 0. -1.
         11    1    4    4    0    0  0.13077144162E+02  0.11286484438E+02 -0.28494883489E+01  0.17507598757E+02  0.00000000000E+00 0.  1.
</event>
<event>
 8    1  0.6637272E-009  0.1136117E+03  0.7561462E-02  0.1254024E+00
         -1   -1    0    0    0  501 -0.00000000000E+00  0.00000000000E+00  0.82636528721E+02  0.82636528721E+02  0.00000000000E+00 0.  1.
          1   -1    0    0  501    0  0.00000000000E+00 -0.00000000000E+00 -0.40309663200E+03  0.40309663200E+03  0.00000000000E+00 0. -1.
         25    2    1    2    0    0  0.79084011486E+02  0.62046733294E+01 -0.55385540771E+01  0.14822796027E+03  0.12509226107E+03 0.  0.
         23    2    1    2    0    0 -0.79084011486E+02 -0.62046733294E+01 -0.31492154920E+03  0.33750520046E+03  0.91877088205E+02 0.  0.
          5    1    3    3  502    0  0.85610800343E+02  0.27399844003E+02  0.39173929291E+02  0.98142904598E+02  0.41800000000E+01 0. -1.
         -5    1    3    3    0  502 -0.65267888572E+01 -0.21195170674E+02 -0.44712483368E+02  0.50085055671E+02  0.41800000000E+01 0. -1.
        -11    1    4    4    0    0 -0.32101243367E+02  0.38286826083E+02 -0.19433350475E+03  0.20065363676E+03  0.00000000000E+00 0.  1.
         11    1    4    4    0    0 -0.46982768119E+02 -0.44491499412E+02 -0.12058804446E+03  0.13685156370E+03  0.00000000000E+00 0. -1.
</event>
<event>
 8    1  0.6637272E-009  0.1562633E+03  0.7561462E-02  0.1192981E+00
          1   -1    0    0  501    0  0.00000000000E+00  0.00000000000E+00  0.28297337652E+03  0.28297337652E+03  0.00000000000E+00 0. -1.
         -1   -1    0    0    0  501 -0.00000000000E+00 -0.00000000000E+00 -0.16432056196E+03  0.16432056196E+03  0.00000000000E+00 0.  1.
         25    2    1    2    0    0 -0.65354839004E+02  0.14163919472E+03  0.16709504501E+03  0.26057764870E+03  0.12508813082E+03 0.  0.
         23    2    1    2    0    0  0.65354839004E+02 -0.14163919472E+03 -0.48442230450E+02  0.18671628979E+03  0.90462183913E+02 0.  0.
          5    1    3    3  502    0 -0.58176531825E+02  0.12502020298E+03  0.57568317570E+02  0.14948626558E+03  0.41800000000E+01 0. -1.
         -5    1    3    3    0  502 -0.71783071798E+01  0.16618991744E+02  0.10952672744E+03  0.11109138312E+03  0.41800000000E+01 0. -1.
        -11    1    4    4    0    0  0.54117012069E+01 -0.12005426366E+02  0.23394098521E+02  0.26845867798E+02  0.00000000000E+00 0. -1.
         11    1    4    4    0    0  0.59943137797E+02 -0.12963376836E+03 -0.71836328971E+02  0.15987042199E+03  0.00000000000E+00 0.  1.
</event>
<event>
 8    1  0.6637272E-009  0.1428615E+03  0.7561462E-02  0.1209530E+00
         -1   -1    0    0    0  501 -0.00000000000E+00  0.00000000000E+00  0.29026255785E+02  0.29026255785E+02  0.00000000000E+00 0.  1.
          1   -1    0    0  501    0  0.00000000000E+00 -0.00000000000E+00 -0.94912464582E+03  0.94912464582E+03  0.00000000000E+00 0. -1.
         25    2    1    2    0    0 -0.68459605987E+02  0.86180323975E+02 -0.65306036261E+03  0.67397996652E+03  0.12508953662E+03 0.  0.
         23    2    1    2    0    0  0.68459605987E+02 -0.86180323975E+02 -0.26703802743E+03  0.30417093509E+03  0.95377585233E+02 0.  0.
          5    1    3    3  502    0 -0.86201294258E+02  0.19983940913E+02 -0.25276368539E+03  0.26783758899E+03  0.41800000000E+01 0.  1.
         -5    1    3    3    0  502  0.17741688271E+02  0.66196383062E+02 -0.40029667722E+03  0.40614237753E+03  0.41800000000E+01 0.  1.
        -11    1    4    4    0    0  0.63174817947E+02 -0.26409170614E+02 -0.21187066178E+03  0.22266045728E+03  0.00000000000E+00 0. -1.
         11    1    4    4    0    0  0.52847880400E+01 -0.59771153361E+02 -0.55167365654E+02  0.81510477805E+02  0.00000000000E+00 0.  1.
</event>
<event>
 8    1  0.6637272E-009  0.1523260E+03  0.7561462E-02  0.1197644E+00
         -2   -1    0    0    0  501 -0.00000000000E+00  0.00000000000E+00  0.66324571248E+02  0.66324571248E+02  0.00000000000E+00 0.  1.
          2   -1    0    0  501    0  0.00000000000E+00 -0.00000000000E+00 -0.35760693709E+03  0.35760693709E+03  0.00000000000E+00 0. -1.
         25    2    1    2    0    0 -0.10604193302E+03 -0.24872101842E+02 -0.16811489802E+03  0.23616245148E+03  0.12508625642E+03 0.  0.
         23    2    1    2    0    0  0.10604193302E+03  0.24872101842E+02 -0.12316746783E+03  0.18776905686E+03  0.90683408491E+02 0.  0.
          5    1    3    3  502    0 -0.13082280818E+03 -0.17980340927E+01 -0.12320442057E+03  0.17976273728E+03  0.41800000000E+01 0.  1.
         -5    1    3    3    0  502  0.24780875168E+02 -0.23074067749E+02 -0.44910477452E+02  0.56399714198E+02  0.41800000000E+01 0.  1.
        -11    1    4    4    0    0  0.29055844523E+02  0.50695158637E+02 -0.35960061256E+02  0.68610255908E+02  0.00000000000E+00 0. -1.
         11    1    4    4    0    0  0.76986088494E+02 -0.25823056795E+02 -0.87207406570E+02  0.11915880095E+03  0.00000000000E+00 0.  1.
</event>
<event>
 8    1  0.6637272E-009  0.1216139E+03  0.7561462E-02  0.1240458E+00
          2   -1    0    0  501    0  0.00000000000E+00  0.00000000000E+00  0.48764680929E+03  0.48764680929E+03  0.00000000000E+00 0. -1.
         -2   -1    0    0    0  501 -0.00000000000E+00 -0.00000000000E+00 -0.52488197887E+02  0.52488197887E+02  0.00000000000E+00 0.  1.
         25    2    1    2    0    0 -0.90800684874E+02 -0.73780450007E+02  0.21879502823E+03  0.27786071070E+03  0.12508793306E+03 0.  0.
         23    2    1    2    0    0  0.90800684874E+02  0.73780450007E+02  0.21636358318E+03  0.26227429648E+03  0.91029046417E+02 0.  0.
          5    1    3    3  502    0 -0.25706184901E+02 -0.16089640081E+02 -0.10676979011E+02  0.32421516635E+02  0.41800000000E+01 0.  1.
         -5    1    3    3    0  502 -0.65094499973E+02 -0.57690809926E+02  0.22947200724E+03  0.24543919406E+03  0.41800000000E+01 0.  1.
        -11    1    4    4    0    0  0.78169776974E+02  0.36689616913E+02  0.20345256347E+03  0.22101942811E+03  0.00000000000E+00 0. -1.
         11    1    4    4    0    0  0.12630907900E+02  0.37090833094E+02  0.12911019708E+02  0.41254868366E+02  0.00000000000E+00 0.  1.
</event>
<event>
 8    1  0.6637272E-009  0.6290869E+02  0.7561462E-02  0.1386015E+00
         -3   -1    0    0    0  501 -0.00000000000E+00  0.00000000000E+00  0.20697154520E+03  0.20697154520E+03  0.00000000000E+00 0.  1.
          3   -1    0    0  501    0  0.00000000000E+00 -0.00000000000E+00 -0.71104071374E+02  0.71104071374E+02  0.00000000000E+00 0. -1.
         25    2    1    2    0    0 -0.13582110634E+01 -0.39113088194E+01  0.29853014798E+02  0.12866612900E+03  0.12508647883E+03 0.  0.
         23    2    1    2    0    0  0.13582110634E+01  0.39113088194E+01  0.10601445902E+03  0.14940948757E+03  0.10519974515E+03 0.  0.
          5    1    3    3  502    0 -0.58040812413E+01 -0.10896147627E+02  0.78280630304E+02  0.79358319494E+02  0.41800000000E+01 0. -1.
         -5    1    3    3    0  502  0.44458701779E+01  0.69848388076E+01 -0.48427615506E+02  0.49307809507E+02  0.41800000000E+01 0. -1.
        -11    1    4    4    0    0  0.10913861779E+02 -0.48765488811E+02  0.64886660035E+02  0.81899108228E+02  0.00000000000E+00 0.  1.
         11    1    4    4    0    0 -0.95556507160E+01  0.52676797631E+02  0.41127798989E+02  0.67510379342E+02  0.00000000000E+00 0. -1.
</event>
<event>
 8    1  0.6637272E-009  0.2570173E+03  0.7561462E-02  0.1108949E+00
          2   -1    0    0  501    0  0.00000000000E+00  0.00000000000E+00  0.35616477380E+03  0.35616477380E+03  0.00000000000E+00 0. -1.
         -2   -1    0    0    0  501 -0.00000000000E+00 -0.00000000000E+00 -0.29437968144E+03  0.29437968144E+03  0.00000000000E+00 0.  1.
         25    2    1    2    0    0  0.73565899452E+02  0.22593057723E+03  0.22295266883E+03  0.34901579585E+03  0.12509023113E+03 0.  0.
         23    2    1    2    0    0 -0.73565899452E+02 -0.22593057723E+03 -0.16116757647E+03  0.30152865939E+03  0.92130220004E+02 0.  0.
          5    1    3    3  502    0 -0.72354272719E+01  0.16085852828E+03  0.10703327175E+03  0.19339444457E+03  0.41800000000E+01 0.  1.
         -5    1    3    3    0  502  0.80801326724E+02  0.65072048949E+02  0.11591939708E+03  0.15562135128E+03  0.41800000000E+01 0.  1.
        -11    1    4    4    0    0  0.11588672334E+02 -0.74516314378E+02 -0.79483281847E+02  0.10956537103E+03  0.00000000000E+00 0.  1.
         11    1    4    4    0    0 -0.85154571786E+02 -0.15141426285E+03 -0.81684294624E+02  0.19196328836E+03  0.00000000000E+00 0. -1.
</event>
<event>
 8    1  0.6637272E-009  0.1374686E+03  0.7561462E-02  0.1216776E+00
         -1   -1    0    0    0  501 -0.00000000000E+00  0.00000000000E+00  0.46754216791E+02  0.46754216791E+02  0.00000000000E+00 0.  1.
          1   -1    0    0  501    0  0.00000000000E+00 -0.00000000000E+00 -0.49150712101E+03  0.49150712101E+03  0.00000000000E+00 0. -1.
         25    2    1    2    0    0  0.96398976824E+01  0.71338831980E+02 -0.14685422457E+03  0.20590419963E+03  0.12509284382E+03 0.  0.
         23    2    1    2    0    0 -0.96398976824E+01 -0.71338831980E+02 -0.29789867964E+03  0.33235713817E+03  0.12859038603E+03 0.  0.
          5    1    3    3  502    0  0.59069978488E+02  0.71949486397E+02 -0.81098398067E+02  0.12353304627E+03  0.41800000000E+01 0.  1.
         -5    1    3    3    0  502 -0.49430080805E+02 -0.61065441722E+00 -0.65755826502E+02  0.82371153362E+02  0.41800000000E+01 0.  1.
        -11    1    4    4    0    0 -0.36090699424E+02 -0.91839602725E+02 -0.14207757167E+03  0.17298291125E+03  0.00000000000E+00 0.  1.
         11    1    4    4    0    0  0.26450801741E+02  0.20500770746E+02 -0.15582110798E+03  0.15937422692E+03  0.00000000000E+00 0. -1.
</event>
<event>
 8    1  0.6637272E-009  0.9931423E+02  0.7561462E-02  0.1281745E+00
         -2   -1    0    0    0  501 -0.00000000000E+00  0.00000000000E+00  0.58372982516E+02  0.58372982516E+02  0.00000000000E+00 0. -1.
          2   -1    0    0  501    0  0.00000000000E+00 -0.00000000000E+00 -0.29581311448E+03  0.29581311448E+03  0.00000000000E+00 0.  1.
         25    2    1    2    0    0 -0.66508842864E+02  0.40129166283E+02 -0.11656749359E+03  0.18780193001E+03  0.12509119949E+03 0.  0.
         23    2    1    2    0    0  0.66508842864E+02 -0.40129166283E+02 -0.12087263837E+03  0.16638416699E+03  0.83903040174E+02 0.  0.
          5    1    3    3  502    0 -0.16435724088E+02  0.27962256113E+02 -0.13027434259E+03  0.13431640827E+03  0.41800000000E+01 0. -1.
         -5    1    3    3    0  502 -0.50073118776E+02  0.12166910170E+02  0.13706848996E+02  0.53485521746E+02  0.41800000000E+01 0. -1.
        -11    1    4    4    0    0  0.84258624911E+02 -0.18535093146E+02 -0.94418180674E+02  0.12789784358E+03  0.00000000000E+00 0. -1.
         11    1    4    4    0    0 -0.17749782047E+02 -0.21594073137E+02 -0.26454457701E+02  0.38486323410E+02  0.00000000000E+00 0.  1.
</event>
<event>
 8    1  0.6637272E-009  0.2717896E+03  0.7561462E-02  0.1100260E+00
         -2   -1    0    0    0  501 -0.00000000000E+00  0.00000000000E+00  0.52988723369E+02  0.52988723369E+02  0.00000000000E+00 0. -1.
          2   -1    0    0  501    0  0.00000000000E+00 -0.00000000000E+00 -0.24694505674E+04  0.24694505674E+04  0.00000000000E+00 0.  1.
         25    2    1    2    0    0  0.72034628043E+02 -0.25553893426E+03 -0.19804749127E+04  0.20021008513E+04  0.12505120803E+03 0.  0.
         23    2    1    2    0    0 -0.72034628043E+02  0.25553893426E+03 -0.43598693140E+03  0.52033843948E+03  0.10088782228E+03 0.  0.
          5    1    3    3  502    0  0.60438703890E+02 -0.83988662356E+02 -0.11084057400E+04  0.11132329896E+04  0.41800000000E+01 0. -1.
         -5    1    3    3    0  502  0.11595924153E+02 -0.17155027191E+03 -0.87206917264E+03  0.88886786167E+03  0.41800000000E+01 0. -1.
        -11    1    4    4    0    0 -0.23499498708E+02  0.15042864409E+03 -0.32977170974E+03  0.36322222392E+03  0.00000000000E+00 0.  1.
         11    1    4    4    0    0 -0.48535129335E+02  0.10511029017E+03 -0.10621522166E+03  0.15711621556E+03  0.00000000000E+00 0. -1.
</event>
<event>
 8    1  0.6637272E-009  0.1072436E+03  0.7561462E-02  0.1265761E+00
          2   -1    0    0  501    0  0.00000000000E+00  0.00000000000E+00  0.72878112616E+02  0.72878112616E+02  0.00000000000E+00 0.  1.
         -2   -1    0    0    0  501 -0.00000000000E+00 -0.00000000000E+00 -0.19578113805E+03  0.19578113805E+03  0.00000000000E+00 0. -1.
         25    2    1    2    0    0  0.25506086385E+02  0.43797025992E+02 -0.63483719150E+02  0.14915357362E+03  0.12509143056E+03 0.  0.
         23    2    1    2    0    0 -0.25506086385E+02 -0.43797025992E+02 -0.59419306281E+02  0.11950567704E+03  0.90455585552E+02 0.  0.
          5    1    3    3  502    0  0.53904492239E+02  0.74631704749E+02 -0.36485486790E+02  0.99117348549E+02  0.41800000000E+01 0. -1.
         -5    1    3    3    0  502 -0.28398405854E+02 -0.30834678756E+02 -0.26998232360E+02  0.50036225073E+02  0.41800000000E+01 0. -1.
        -11    1    4    4    0    0 -0.29716564032E+02  0.59254700937E+01  0.11822359927E+02  0.32526198178E+02  0.00000000000E+00 0.  1.
         11    1    4    4    0    0  0.42104776471E+01 -0.49722496086E+02 -0.71241666208E+02  0.86979478862E+02  0.00000000000E+00 0. -1.
</event>
<event>
 8    1  0.6637272E-009  0.1806887E+03  0.7561462E-02  0.1167138E+00
         -4   -1    0    0    0  501 -0.00000000000E+00  0.00000000000E+00  0.10431760011E+04  0.10431760011E+04  0.00000000000E+00 0.  1.
          4   -1    0    0  501    0  0.00000000000E+00 -0.00000000000E+00 -0.34138883645E+02  0.34138883645E+02  0.00000000000E+00 0. -1.
         25    2    1    2    0    0  0.14207081276E+03 -0.33954083200E+02  0.39048221307E+03  0.43527080251E+03  0.12508923692E+03 0.  0.
         23    2    1    2    0    0 -0.14207081276E+03  0.33954083200E+02  0.61855490436E+03  0.64204408221E+03  0.90958442054E+02 0.  0.
          5    1    3    3  502    0  0.62492010948E+02 -0.77828662458E+02  0.17764347910E+03  0.20380684532E+03  0.41800000000E+01 0. -1.
         -5    1    3    3    0  502  0.79578801811E+02  0.43874579258E+02  0.21283873397E+03  0.23146395719E+03  0.41800000000E+01 0. -1.
        -11    1    4    4    0    0 -0.98872490046E+02  0.64099112898E+02  0.38529836003E+03  0.40291350412E+03  0.00000000000E+00 0.  1.
         11    1    4    4    0    0 -0.43198322713E+02 -0.30145029698E+02  0.23325654434E+03  0.23913057809E+03  0.00000000000E+00 0. -1.
</event>
<event>
 8    1  0.6637272E-009  0.6053326E+02  0.7561462E-02  0.1395607E+00
         -4   -1    0    0    0  501 -0.00000000000E+00  0.00000000000E+00  0.10612522845E+03  0.10612522845E+03  0.00000000000E+00 0.  1.
          4   -1    0    0  501    0  0.00000000000E+00 -0.00000000000E+00 -0.11534848871E+03  0.11534848871E+03  0.00000000000E+00 0. -1.
         25    2    1    2    0    0 -0.13556172698E+02  0.11571172666E+02  0.52100801169E+01  0.12645950176E+03  0.12508876367E+03 0.  0.
         23    2    1    2    0    0  0.13556172698E+02 -0.11571172666E+02 -0.14433340378E+02  0.95014215394E+02  0.92204761034E+02 0.  0.
          5    1    3    3  502    0 -0.36772015132E+02  0.99919837009E+01 -0.51973567983E+02  0.64581305376E+02  0.41800000000E+01 0.  1.
         -5    1    3    3    0  502  0.23215842434E+02  0.15791889649E+01  0.57183648100E+02  0.61878196384E+02  0.41800000000E+01 0.  1.
        -11    1    4    4    0    0  0.18808752680E+02  0.19784356456E+02  0.29882324815E+02  0.40473982681E+02  0.00000000000E+00 0.  1.
         11    1    4    4    0    0 -0.52525799817E+01 -0.31355529121E+02 -0.44315665192E+02  0.54540232713E+02  0.00000000000E+00 0. -1.
</event>
<event>
 8    1  0.6637272E-009  0.1518185E+03  0.7561462E-02  0.1198256E+00
         -2   -1    0    0    0  501 -0.00000000000E+00  0.00000000000E+00  0.63241176867E+02  0.63241176867E+02  0.00000000000E+00 0. -1.
          2   -1    0    0  501    0  0.00000000000E+00 -0.00000000000E+00 -0.42579032688E+03  0.42579032688E+03  0.00000000000E+00 0.  1.
         25    2    1    2    0    0  0.10049931417E+03  0.66336208711E+02 -0.25342249966E+03  0.30719772093E+03  0.12508745612E+03 0.  0.
         23    2    1    2    0    0 -0.10049931417E+03 -0.66336208711E+02 -0.10912665036E+03  0.18183378282E+03  0.81573856237E+02 0.  0.
          5    1    3    3  502    0  0.20149245342E+02 -0.33282883675E+02 -0.99842016418E+02  0.10723638877E+03  0.41800000000E+01 0.  1.
         -5    1    3    3    0  502  0.80350068827E+02  0.99619092386E+02 -0.15358048324E+03  0.19996133216E+03  0.41800000000E+01 0.  1.
        -11    1    4    4    0    0 -0.13220497210E+02 -0.44586584643E+02 -0.92359494883E+01  0.47413582859E+02  0.00000000000E+00 0. -1.
         11    1    4    4    0    0 -0.87278816960E+02 -0.21749624069E+02 -0.99890700873E+02  0.13442019996E+03  0.00000000000E+00 0.  1.
</event>
<event>
 8    1  0.6637272E-009  0.1001495E+03  0.7561462E-02  0.1279982E+00
         -2   -1    0    0    0  501 -0.00000000000E+00  0.00000000000E+00  0.51507381592E+02  0.51507381592E+02  0.00000000000E+00 0.  1.
          2   -1    0    0  501    0  0.00000000000E+00 -0.00000000000E+00 -0.40484270592E+03  0.40484270592E+03  0.00000000000E+00 0. -1.
         25    2    1    2    0    0  0.24496848474E+02 -0.89170740819E+02 -0.16009510844E+03  0.22322506497E+03  0.12508984483E+03 0.  0.
         23    2    1    2    0    0 -0.24496848474E+02  0.89170740819E+02 -0.19324021588E+03  0.23312502254E+03  0.91945519175E+02 0.  0.
          5    1    3    3  502    0  0.24760657514E+02 -0.47838543909E+02  0.37852050167E+01  0.54161024924E+02  0.41800000000E+01 0. -1.
         -5    1    3    3    0  502 -0.26380903980E+00 -0.41332196911E+02 -0.16388031346E+03  0.16906404005E+03  0.41800000000E+01 0. -1.
        -11    1    4    4    0    0  0.11417489045E+02  0.51216096242E+02 -0.16620634433E+03  0.17429284685E+03  0.00000000000E+00 0. -1.
         11    1    4    4    0    0 -0.35914337519E+02  0.37954644578E+02 -0.27033871554E+02  0.58832175684E+02  0.00000000000E+00 0.  1.
</event>
<event>
 8    1  0.6637272E-009  0.1463019E+03  0.7561462E-02  0.1205092E+00
          2   -1    0    0  501    0  0.00000000000E+00  0.00000000000E+00  0.73860797319E+03  0.73860797319E+03  0.00000000000E+00 0. -1.
         -2   -1    0    0    0  501 -0.00000000000E+00 -0.00000000000E+00 -0.58478094737E+02  0.58478094737E+02  0.00000000000E+00 0.  1.
         25    2    1    2    0    0 -0.96053790621E+02  0.33525604328E+02  0.63674693759E+03  0.65684270309E+03  0.12508148236E+03 0.  0.
         23    2    1    2    0    0  0.96053790621E+02 -0.33525604328E+02  0.43382940865E+02  0.14024336484E+03  0.86231229760E+02 0.  0.
          5    1    3    3  502    0  0.94565801548E+00 -0.39263766803E+02  0.13748556798E+03  0.14304646608E+03  0.41800000000E+01 0.  1.
         -5    1    3    3    0  502 -0.96999448636E+02  0.72789371131E+02  0.49926136961E+03  0.51379623701E+03  0.41800000000E+01 0.  1.
        -11    1    4    4    0    0  0.93258252691E+02 -0.56221458200E+02  0.27232528583E+02  0.11224778247E+03  0.00000000000E+00 0.  1.
         11    1    4    4    0    0  0.27955379302E+01  0.22695853872E+02  0.16150412282E+02  0.27995582369E+02  0.00000000000E+00 0. -1.
</event>
<event>
 8    1  0.6637272E-009  0.9626922E+02  0.7561462E-02  0.1288343E+00
         -2   -1    0    0    0  501 -0.00000000000E+00  0.00000000000E+00  0.11315990064E+03  0.11315990064E+03  0.00000000000E+00 0.  1.
          2   -1    0    0  501    0  0.00000000000E+00 -0.00000000000E+00 -0.12226102383E+03  0.12226102383E+03  0.00000000000E+00 0. -1.
         25    2    1    2    0    0 -0.34699724393E+02  0.15859329055E+02 -0.30844852555E+02  0.13436873737E+03  0.12509182012E+03 0.  0.
         23    2    1    2    0    0  0.34699724393E+02 -0.15859329055E+02  0.21743729364E+02  0.10105218711E+03  0.91011897917E+02 0.  0.
          5    1    3    3  502    0 -0.24967765734E+02  0.61104612482E+02 -0.51195092153E+02  0.83639541204E+02  0.41800000000E+01 0.  1.
         -5    1    3    3    0  502 -0.97319586584E+01 -0.45245283427E+02  0.20350239598E+02  0.50729196163E+02  0.41800000000E+01 0.  1.
        -11    1    4    4    0    0  0.19000334935E+02  0.27720735694E+02 -0.19649899174E+02  0.38930328185E+02  0.00000000000E+00 0. -1.
         11    1    4    4    0    0  0.15699389458E+02 -0.43580064749E+02  0.41393628539E+02  0.62121858926E+02  0.00000000000E+00 0.  1.
</event>
<event>
 8    1  0.6637272E-009  0.1030578E+03  0.7561462E-02  0.1273994E+00
         -1   -1    0    0    0  501 -0.00000000000E+00  0.00000000000E+00  0.59042550553E+03  0.59042550553E+03  0.00000000000E+00 0.  1.
          1   -1    0    0  501    0  0.00000000000E+00 -0.00000000000E+00 -0.33497709440E+02  0.33497709440E+02  0.00000000000E+00 0. -1.
         25    2    1    2    0    0 -0.14874182551E+02  0.86614120444E+02  0.26547039043E+03  0.30633939778E+03  0.12508417675E+03 0.  0.
         23    2    1    2    0    0  0.14874182551E+02 -0.86614120444E+02  0.29145740566E+03  0.31758381719E+03  0.90492068485E+02 0.  0.
          5    1    3    3  502    0 -0.16173204403E+02  0.81140916132E+02  0.27903414811E+03  0.29107206843E+03  0.41800000000E+01 0. -1.
         -5    1    3    3    0  502  0.12990218528E+01  0.54732043120E+01 -0.13563757677E+02  0.15267329351E+02  0.41800000000E+01 0. -1.
        -11    1    4    4    0    0  0.45961155531E+02 -0.58099018412E+02  0.12009386269E+03  0.14110442805E+03  0.00000000000E+00 0. -1.
         11    1    4    4    0    0 -0.31086972980E+02 -0.28515102032E+02  0.17136354297E+03  0.17647938914E+03  0.00000000000E+00 0.  1.
</event>
<event>
 8    1  0.6637272E-009  0.8144067E+02  0.7561462E-02  0.1325012E+00
          2   -1    0    0  501    0  0.00000000000E+00  0.00000000000E+00  0.53562909463E+03  0.53562909463E+03  0.00000000000E+00 0. -1.
         -2   -1    0    0    0  501 -0.00000000000E+00 -0.00000000000E+00 -0.23569978264E+02  0.23569978264E+02  0.00000000000E+00 0.  1.
         25    2    1    2    0    0  0.28517652968E+02 -0.98441328177E+01  0.32562489527E+03  0.35012955851E+03  0.12509585060E+03 0.  0.
         23    2    1    2    0    0 -0.28517652968E+02  0.98441328177E+01  0.18643422110E+03  0.20906951439E+03  0.89678200079E+02 0.  0.
          5    1    3    3  502    0 -0.14183055960E+01  0.24319703971E+02  0.29301664994E+03  0.29405728886E+03  0.41800000000E+01 0.  1.
         -5    1    3    3    0  502  0.29935958564E+02 -0.34163836789E+02  0.32608245329E+02  0.56072269641E+02  0.41800000000E+01 0.  1.
        -11    1    4    4    0    0 -0.39597869876E+02 -0.30961455251E+02  0.12256947490E+03  0.13247595702E+03  0.00000000000E+00 0.  1.
         11    1    4    4    0    0  0.11080216908E+02  0.40805588069E+02  0.63864746198E+02  0.76593557375E+02  0.00000000000E+00 0. -1.
</event>
<event>
 8    1  0.6637272E-009  0.1211801E+03  0.7561462E-02  0.1241163E+00
         -2   -1    0    0    0  501 -0.00000000000E+00  0.00000000000E+00  0.29068454344E+02  0.29068454344E+02  0.00000000000E+00 0.  1.
          2   -1    0    0  501    0  0.00000000000E+00 -0.00000000000E+00 -0.78151519955E+03  0.78151519955E+03  0.00000000000E+00 0. -1.
         25    2    1    2    0    0 -0.30309046582E+02  0.96051054783E+02 -0.48068901639E+03  0.50680696967E+03  0.12508769165E+03 0.  0.
         23    2    1    2    0    0  0.30309046582E+02 -0.96051054783E+02 -0.27175772883E+03  0.30377668423E+03  0.91014104818E+02 0.  0.
          5    1    3    3  502    0 -0.34349408702E+02  0.95014017218E+02 -0.48745135611E+03  0.49782912964E+03  0.41800000000E+01 0. -1.
         -5    1    3    3    0  502  0.40403621200E+01  0.10370375655E+01  0.67623397259E+01  0.89778400265E+01  0.41800000000E+01 0. -1.
        -11    1    4    4    0    0  0.62497881656E+02 -0.55680347495E+02 -0.15636835487E+03  0.17736219641E+03  0.00000000000E+00 0.  1.
         11    1    4    4    0    0 -0.32188835075E+02 -0.40370707288E+02 -0.11538937395E+03  0.12641448782E+03  0.00000000000E+00 0. -1.
</event>
<event>
 8    1  0.6637272E-009  0.8531525E+02  0.7561462E-02  0.1314610E+00
          4   -1    0    0  501    0  0.00000000000E+00  0.00000000000E+00  0.50943255082E+02  0.50943255082E+02  0.00000000000E+00 0.  1.
         -4   -1    0    0    0  501 -0.00000000000E+00 -0.00000000000E+00 -0.26247440398E+03  0.26247440398E+03  0.00000000000E+00 0. -1.
         25    2    1    2    0    0  0.33519118538E+02 -0.13502898935E+02 -0.14724091344E+03  0.19655653261E+03  0.12509486134E+03 0.  0.
         23    2    1    2    0    0 -0.33519118538E+02  0.13502898935E+02 -0.64290235458E+02  0.11686112645E+03  0.90650035372E+02 0.  0.
          5    1    3    3  502    0  0.41879887733E+02 -0.37335986918E+02 -0.15879655269E+03  0.16846874624E+03  0.41800000000E+01 0. -1.
         -5    1    3    3    0  502 -0.83607691949E+01  0.23833087983E+02  0.11555639250E+02  0.28087786364E+02  0.41800000000E+01 0. -1.
        -11    1    4    4    0    0  0.21018827040E+02 -0.16318225329E+02 -0.44099129634E+02  0.51505424981E+02  0.00000000000E+00 0. -1.
         11    1    4    4    0    0 -0.54537945578E+02  0.29821124264E+02 -0.20191105824E+02  0.65355701470E+02  0.00000000000E+00 0.  1.
</event>
<event>
 8    1  0.6637272E-009  0.8015867E+02  0.7561462E-02  0.1328602E+00
          2   -1    0    0  501    0  0.00000000000E+00  0.00000000000E+00  0.78094999028E+03  0.78094999028E+03  0.00000000000E+00 0. -1.
         -2   -1    0    0    0  501 -0.00000000000E+00 -0.00000000000E+00 -0.18921276223E+02  0.18921276223E+02  0.00000000000E+00 0.  1.
         25    2    1    2    0    0  0.52479306010E+02 -0.10106131694E+02  0.47638415230E+03  0.49542515742E+03  0.12509202446E+03 0.  0.
         23    2    1    2    0    0 -0.52479306010E+02  0.10106131694E+02  0.28564456176E+03  0.30444610909E+03  0.90765666513E+02 0.  0.
          5    1    3    3  502    0  0.63260856604E+02 -0.26375987928E+02  0.11829519532E+03  0.13678031420E+03  0.41800000000E+01 0. -1.
         -5    1    3    3    0  502 -0.10781550594E+02  0.16269856235E+02  0.35808895698E+03  0.35864484322E+03  0.41800000000E+01 0. -1.
        -11    1    4    4    0    0 -0.47937353847E+01  0.22022569315E+02  0.10355346386E+02  0.24803359792E+02  0.00000000000E+00 0.  1.
         11    1    4    4    0    0 -0.47685570625E+02 -0.11916437622E+02  0.27528921538E+03  0.27964274930E+03  0.00000000000E+00 0. -1.
</event>
<event>
 8    1  0.6637272E-009  0.1378285E+03  0.7561462E-02  0.1216281E+00
         -2   -1    0    0    0  501 -0.00000000000E+00  0.00000000000E+00  0.34506815359E+02  0.34506815359E+02  0.00000000000E+00 0.  1.
          2   -1    0    0  501    0  0.00000000000E+00 -0.00000000000E+00 -0.87082284897E+03  0.87082284897E+03  0.00000000000E+00 0. -1.
         25    2    1    2    0    0 -0.65196292471E+02  0.10901831714E+03 -0.32735374143E+03  0.37275291902E+03  0.12509483037E+03 0.  0.
         23    2    1    2    0    0  0.65196292471E+02 -0.10901831714E+03 -0.50896229218E+03  0.53257674531E+03  0.91977305676E+02 0.  0.
          5    1    3    3  502    0 -0.49131310132E+02  0.44838084281E+02 -0.28810492513E+03  0.29571313756E+03  0.41800000000E+01 0.  1.
         -5    1    3    3    0  502 -0.16064982339E+02  0.64180232857E+02 -0.39248816298E+02  0.77039781464E+02  0.41800000000E+01 0.  1.
        -11    1    4    4    0    0  0.73476307703E+02 -0.65544203564E+02 -0.43811501432E+03  0.44904295584E+03  0.00000000000E+00 0. -1.
         11    1    4    4    0    0 -0.82800152321E+01 -0.43474113575E+02 -0.70847277858E+02  0.83533789470E+02  0.00000000000E+00 0.  1.
</event>
<event>
 8    1  0.6637272E-009  0.1024716E+03  0.7561462E-02  0.1275183E+00
         -1   -1    0    0    0  501 -0.00000000000E+00  0.00000000000E+00  0.51120611370E+02  0.51120611370E+02  0.00000000000E+00 0. -1.
          1   -1    0    0  501    0  0.00000000000E+00 -0.00000000000E+00 -0.30110571475E+03  0.30110571475E+03  0.00000000000E+00 0.  1.
         25    2    1    2    0    0 -0.18977677961E+02  0.42286835116E+02 -0.19574248361E+03  0.23688830113E+03  0.12511042577E+03 0.  0.
         23    2    1    2    0    0  0.18977677961E+02 -0.42286835116E+02 -0.54242619771E+02  0.11533802499E+03  0.90621573172E+02 0.  0.
          5    1    3    3  502    0 -0.33709250122E+02  0.68840672489E+02 -0.19102799577E+03  0.20587500893E+03  0.41800000000E+01 0.  1.
         -5    1    3    3    0  502  0.14731572161E+02 -0.26553837373E+02 -0.47144878365E+01  0.31013292200E+02  0.41800000000E+01 0.  1.
        -11    1    4    4    0    0 -0.17847890144E+02 -0.55579164644E+02 -0.48243534183E+02  0.75729976334E+02  0.00000000000E+00 0.  1.
         11    1    4    4    0    0  0.36825568105E+02  0.13292329527E+02 -0.59990855888E+01  0.39608048657E+02  0.00000000000E+00 0. -1.
</event>
<event>
 8    1  0.6637272E-009  0.8212480E+02  0.7561462E-02  0.1323127E+00
         -1   -1    0    0    0  501 -0.00000000000E+00  0.00000000000E+00  0.10367410519E+03  0.10367410519E+03  0.00000000000E+00 0.  1.
          1   -1    0    0  501    0  0.00000000000E+00 -0.00000000000E+00 -0.15180531398E+03  0.15180531398E+03  0.00000000000E+00 0. -1.
         25    2    1    2    0    0 -0.22251543272E+02  0.55587912807E+02 -0.47690020720E+02  0.14665515957E+03  0.12509296753E+03 0.  0.
         23    2    1    2    0    0  0.22251543272E+02 -0.55587912807E+02 -0.44118807552E+00  0.10882425960E+03  0.90870113911E+02 0.  0.
          5    1    3    3  502    0  0.10870196147E+02  0.26086935794E+02  0.39496377568E+02  0.48745519019E+02  0.41800000000E+01 0. -1.
         -5    1    3    3    0  502 -0.33121739420E+02  0.29500977013E+02 -0.87186398288E+02  0.97909640554E+02  0.41800000000E+01 0. -1.
        -11    1    4    4    0    0 -0.65028515970E+01  0.14217377875E+02 -0.24955552939E+02  0.29448268795E+02  0.00000000000E+00 0. -1.
         11    1    4    4    0    0  0.28754394869E+02 -0.69805290682E+02  0.24514364864E+02  0.79375990804E+02  0.00000000000E+00 0.  1.
</event>
<event>
 8    1  0.6637272E-009  0.7916997E+02  0.7561462E-02  0.1331424E+00
         -2   -1    0    0    0  501 -0.00000000000E+00  0.00000000000E+00  0.89173521311E+02  0.89173521311E+02  0.00000000000E+00 0. -1.
          2   -1    0    0  501    0  0.00000000000E+00 -0.00000000000E+00 -0.17632140262E+03  0.17632140262E+03  0.00000000000E+00 0.  1.
         25    2    1    2    0    0 -0.58277971638E+02 -0.99204538511E+01 -0.22925766747E+02  0.14024911882E+03  0.12509791032E+03 0.  0.
         23    2    1    2    0    0  0.58277971638E+02  0.99204538511E+01 -0.64222114566E+02  0.12524580512E+03  0.89818117977E+02 0.  0.
          5    1    3    3  502    0 -0.62309574195E+02 -0.19490608502E+02  0.39770949555E+02  0.76560875679E+02  0.41800000000E+01 0.  1.
         -5    1    3    3    0  502  0.40316025575E+01  0.95701546508E+01 -0.62696716302E+02  0.63688243141E+02  0.41800000000E+01 0.  1.
        -11    1    4    4    0    0  0.20248534228E+02 -0.23554408289E+02 -0.67676810650E+02  0.74464514958E+02  0.00000000000E+00 0.  1.
         11    1    4    4    0    0  0.38029437410E+02  0.33474862140E+02  0.34546960845E+01  0.50781290157E+02  0.00000000000E+00 0. -1.
</event>
<event>
 8    1  0.6637272E-009  0.1588266E+03  0.7561462E-02  0.1190028E+00
          2   -1    0    0  501    0  0.00000000000E+00  0.00000000000E+00  0.91234602066E+03  0.91234602066E+03  0.00000000000E+00 0. -1.
         -2   -1    0    0    0  501 -0.00000000000E+00 -0.00000000000E+00 -0.31655676776E+02  0.31655676776E+02  0.00000000000E+00 0.  1.
         25    2    1    2    0    0 -0.11291810116E+03  0.58400730033E+02  0.39477967677E+03  0.43319752045E+03  0.12509178910E+03 0.  0.
         23    2    1    2    0    0  0.11291810116E+03 -0.58400730033E+02  0.48591066712E+03  0.51080417699E+03  0.93008537057E+02 0.  0.
          5    1    3    3  502    0 -0.31286204086E+02  0.86266861081E+02  0.21182333451E+03  0.23088394343E+03  0.41800000000E+01 0. -1.
         -5    1    3    3    0  502 -0.81631897076E+02 -0.27866131049E+02  0.18295634225E+03  0.20231357703E+03  0.41800000000E+01 0. -1.
        -11    1    4    4    0    0  0.47113756176E+02 -0.56550008550E+02  0.37223936523E+03  0.37944664251E+03  0.00000000000E+00 0. -1.
         11    1    4    4    0    0  0.65804344986E+02 -0.18507214821E+01  0.11367130190E+03  0.13135753448E+03  0.00000000000E+00 0.  1.
</event>
<event>
 8    1  0.6637272E-009  0.1497857E+03  0.7561462E-02  0.1200737E+00
          1   -1    0    0  501    0  0.00000000000E+00  0.00000000000E+00  0.55682187143E+03  0.55682187143E+03  0.00000000000E+00 0. -1.
         -1   -1    0    0    0  501 -0.00000000000E+00 -0.00000000000E+00 -0.44834067999E+02  0.44834067999E+02  0.00000000000E+00 0.  1.
         25    2    1    2    0    0 -0.22216810413E+02  0.11090180739E+03  0.28104811719E+03  0.32776265287E+03  0.12509002714E+03 0.  0.
         23    2    1    2    0    0  0.22216810413E+02 -0.11090180739E+03  0.23093968624E+03  0.27389328656E+03  0.94295260720E+02 0.  0.
          5    1    3    3  502    0  0.10516615039E+02  0.12113825356E+03  0.15489893123E+03  0.19696757845E+03  0.41800000000E+01 0.  1.
         -5    1    3    3    0  502 -0.32733425452E+02 -0.10236446164E+02  0.12614918596E+03  0.13079507442E+03  0.41800000000E+01 0.  1.
        -11    1    4    4    0    0  0.39412540400E+02 -0.95473452937E+01  0.96326978335E+02  0.10451500800E+03  0.00000000000E+00 0. -1.
         11    1    4    4    0    0 -0.17195729988E+02 -0.10135446210E+03  0.13461270791E+03  0.16937827856E+03  0.00000000000E+00 0.  1.
</event>
<event>
 8    1  0.6637272E-009  0.1007448E+03  0.7561462E-02  0.1278738E+00
          2   -1    0    0  501    0  0.00000000000E+00  0.00000000000E+00  0.74766486701E+03  0.74766486701E+03  0.00000000000E+00 0. -1.
         -2   -1    0    0    0  501 -0.00000000000E+00 -0.00000000000E+00 -0.17157575301E+02  0.17157575301E+02  0.00000000000E+00 0.  1.
         25    2    1    2    0    0  0.17019964108E+02 -0.59656992079E+01  0.32336957814E+03  0.34718952925E+03  0.12508963351E+03 0.  0.
         23    2    1    2    0    0 -0.17019964108E+02  0.59656992079E+01  0.40713771357E+03  0.41763291306E+03  0.91273564155E+02 0.  0.
          5    1    3    3  502    0  0.31769297073E+02 -0.52565799570E+02  0.25923221586E+03  0.26644186169E+03  0.41800000000E+01 0. -1.
         -5    1    3    3    0  502 -0.14749332966E+02  0.46600100362E+02  0.64137362281E+02  0.80747667564E+02  0.41800000000E+01 0. -1.
        -11    1    4    4    0    0  0.30876313632E+02  0.24598826346E+02  0.13365660853E+03  0.13936476601E+03  0.00000000000E+00 0. -1.
         11    1    4    4    0    0 -0.47896277740E+02 -0.18633127138E+02  0.27348110504E+03  0.27826814705E+03  0.00000000000E+00 0.  1.
</event>
<event>
 8    1  0.6637272E-009  0.1182947E+03  0.7561462E-02  0.1245937E+00
         -2   -1    0    0    0  501 -0.00000000000E+00  0.00000000000E+00  0.20943799294E+03  0.20943799294E+03  0.00000000000E+00 0.  1.
          2   -1    0    0  501    0  0.00000000000E+00 -0.00000000000E+00 -0.13447356215E+03  0.13447356215E+03  0.00000000000E+00 0. -1.
         25    2    1    2    0    0  0.12726771105E+02  0.80244607304E+02  0.14110175423E+03  0.20532855568E+03  0.12509573544E+03 0.  0.
         23    2    1    2    0    0 -0.12726771105E+02 -0.80244607304E+02 -0.66137323443E+02  0.13858299940E+03  0.90718986256E+02 0.  0.
          5    1    3    3  502    0 -0.44547599391E+01  0.11221398207E+03  0.10123989139E+03  0.15125743177E+03  0.41800000000E+01 0. -1.
         -5    1    3    3    0  502  0.17181531045E+02 -0.31969374761E+02  0.39861862845E+02  0.54071123912E+02  0.41800000000E+01 0. -1.
        -11    1    4    4    0    0  0.10348023217E+02 -0.13209086889E+02 -0.65572077628E+02  0.67684997787E+02  0.00000000000E+00 0. -1.
         11    1    4    4    0    0 -0.23074794322E+02 -0.67035520416E+02 -0.56524581470E+00  0.70898001617E+02  0.00000000000E+00 0.  1.
</event>
<event>
 8    1  0.6637272E-009  0.1085425E+03  0.7561462E-02  0.1263293E+00
         -2   -1    0    0    0  501 -0.00000000000E+00  0.00000000000E+00  0.73848568269E+02  0.73848568269E+02  0.00000000000E+00 0. -1.
          2   -1    0    0  501    0  0.00000000000E+00 -0.00000000000E+00 -0.20773339908E+03  0.20773339908E+03  0.00000000000E+00 0.  1.
         25    2    1    2    0    0  0.51367534464E+02  0.20979349124E+02 -0.44492767233E+02  0.14389582143E+03  0.12509054482E+03 0.  0.
         23    2    1    2    0    0 -0.51367534464E+02 -0.20979349124E+02 -0.89392063577E+02  0.13768614592E+03  0.88813158150E+02 0.  0.
          5    1    3    3  502    0  0.51260460909E+02  0.64550760512E+02 -0.15091224733E+01  0.82548079238E+02  0.41800000000E+01 0. -1.
         -5    1    3    3    0  502  0.10707355497E+00 -0.43571411389E+02 -0.42983644759E+02  0.61347742191E+02  0.41800000000E+01 0. -1.
        -11    1    4    4    0    0 -0.67741127710E+01 -0.41244374998E+02 -0.76278106176E+02  0.86978943168E+02  0.00000000000E+00 0.  1.
         11    1    4    4    0    0 -0.44593421693E+02  0.20265025874E+02 -0.13113957400E+02  0.50707202749E+02  0.00000000000E+00 0. -1.
</event>
<event>
 8    1  0.6637272E-009  0.6070235E+02  0.7561462E-02  0.1394908E+00
          1   -1    0    0  501    0  0.00000000000E+00  0.00000000000E+00  0.15204114378E+03  0.15204114378E+03  0.00000000000E+00 0. -1.
         -1   -1    0    0    0  501 -0.00000000000E+00 -0.00000000000E+00 -0.14561827841E+03  0.14561827841E+03  0.00000000000E+00 0.  1.
         25    2    1    2    0    0  0.27994426380E+02 -0.37350374078E+02 -0.86710172207E+02  0.15920028215E+03  0.12508931818E+03 0.  0.
         23    2    1    2    0    0 -0.27994426380E+02  0.37350374078E+02  0.93133037573E+02  0.13845914003E+03  0.91205440730E+02 0.  0.
          5    1    3    3  502    0  0.26679068370E+02 -0.28927918920E+02 -0.11907124835E+03  0.12547522371E+03  0.41800000000E+01 0.  1.
         -5    1    3    3    0  502  0.13153580100E+01 -0.84224551575E+01  0.32361076145E+02  0.33725058441E+02  0.41800000000E+01 0.  1.
        -11    1    4    4    0    0 -0.13470483435E+02 -0.13728372479E+02 -0.10572820946E+02  0.21947817150E+02  0.00000000000E+00 0.  1.
         11    1    4    4    0    0 -0.14523942944E+02  0.51078746556E+02  0.10370585852E+03  0.11651132288E+03  0.00000000000E+00 0. -1.
</event>
<event>
 8    1  0.6637272E-009  0.6845389E+02  0.7561462E-02  0.1365431E+00
          1   -1    0    0  501    0  0.00000000000E+00  0.00000000000E+00  0.62329119692E+03  0.62329119692E+03  0.00000000000E+00 0. -1.
         -1   -1    0    0    0  501 -0.00000000000E+00 -0.00000000000E+00 -0.19517542746E+02  0.19517542746E+02  0.00000000000E+00 0.  1.
         25    2    1    2    0    0 -0.60309211187E+01  0.19360643846E+02  0.34946635202E+03  0.37173341600E+03  0.12509114614E+03 0.  0.
         23    2    1    2    0    0  0.60309211187E+01 -0.19360643846E+02  0.25430730216E+03  0.27107532366E+03  0.91642897312E+02 0.  0.
          5    1    3    3  502    0 -0.11273214415E+02  0.29484101310E+02  0.11967244393E+02  0.34015951136E+02  0.41800000000E+01 0.  1.
         -5    1    3    3    0  502  0.52422932960E+01 -0.10123457464E+02  0.33749910762E+03  0.33771746487E+03  0.41800000000E+01 0.  1.
        -11    1    4    4    0    0  0.15214190066E+02 -0.54510751534E+02  0.13569312606E+03  0.14702216864E+03  0.00000000000E+00 0. -1.
         11    1    4    4    0    0 -0.91832689471E+01  0.35150107688E+02  0.11861417610E+03  0.12405315502E+03  0.00000000000E+00 0.  1.
</event>
<event>
 8    1  0.6637272E-009  0.8744507E+02  0.7561462E-02  0.1309159E+00
          3   -1    0    0  501    0  0.00000000000E+00  0.00000000000E+00  0.13285740451E+03  0.13285740451E+03  0.00000000000E+00 0. -1.
         -3   -1    0    0    0  501 -0.00000000000E+00 -0.00000000000E+00 -0.25755174912E+03  0.25755174912E+03  0.00000000000E+00 0.  1.
         25    2    1    2    0    0  0.48367698128E+02  0.36737528788E+02 -0.21111445848E+03  0.25279221917E+03  0.12508201809E+03 0.  0.
         23    2    1    2    0    0 -0.48367698128E+02 -0.36737528788E+02  0.86420113867E+02  0.13761693446E+03  0.88209434447E+02 0.  0.
          5    1    3    3  502    0  0.17890088674E+02  0.44306902463E+02 -0.97435837460E+01  0.48944526792E+02  0.41800000000E+01 0. -1.
         -5    1    3    3    0  502  0.30477609455E+02 -0.75693736755E+01 -0.20137087474E+03  0.20384769238E+03  0.41800000000E+01 0. -1.
        -11    1    4    4    0    0 -0.68053005838E+02 -0.30676161210E+02  0.89767342375E+02  0.11674936500E+03  0.00000000000E+00 0. -1.
         11    1    4    4    0    0  0.19685307710E+02 -0.60613675782E+01 -0.33472285085E+01  0.20867569461E+02  0.00000000000E+00 0.  1.
</event>
<event>
 8    1  0.6637272E-009  0.9048079E+02  0.7561462E-02  0.1301692E+00
          1   -1    0    0  501    0  0.00000000000E+00  0.00000000000E+00  0.42288401999E+03  0.42288401999E+03  0.00000000000E+00 0. -1.
         -1   -1    0    0    0  501 -0.00000000000E+00 -0.00000000000E+00 -0.29896977690E+02  0.29896977690E+02  0.00000000000E+00 0.  1.
         25    2    1    2    0    0 -0.19258288106E+02 -0.18466896075E+02  0.26557657354E+03  0.29477181708E+03  0.12509036660E+03 0.  0.
         23    2    1    2    0    0  0.19258288106E+02  0.18466896075E+02  0.12741046876E+03  0.15800918060E+03  0.89563193860E+02 0.  0.
          5    1    3    3  502    0 -0.54020357450E+02  0.19917019878E+02  0.21367324531E+03  0.22133371831E+03  0.41800000000E+01 0. -1.
         -5    1    3    3    0  502  0.34762069344E+02 -0.38383915953E+02  0.51903328235E+02  0.73438098769E+02  0.41800000000E+01 0. -1.
        -11    1    4    4    0    0  0.32721763486E+02  0.36342301197E+02  0.28505777114E+02  0.56604381375E+02  0.00000000000E+00 0.  1.
         11    1    4    4    0    0 -0.13463475380E+02 -0.17875405121E+02  0.98904691641E+02  0.10140479923E+03  0.00000000000E+00 0. -1.
</event>
<event>
 8    1  0.6637272E-009  0.8955065E+02  0.7561462E-02  0.1303944E+00
         -2   -1    0    0    0  501 -0.00000000000E+00  0.00000000000E+00  0.18978110094E+02  0.18978110094E+02  0.00000000000E+00 0.  1.
          2   -1    0    0  501    0  0.00000000000E+00 -0.00000000000E+00 -0.74306929386E+03  0.74306929386E+03  0.00000000000E+00 0. -1.
         25    2    1    2    0    0  0.38078381444E+02  0.68349369819E+01 -0.52048252043E+03  0.53669934723E+03  0.12508979070E+03 0.  0.
         23    2    1    2    0    0 -0.38078381444E+02 -0.68349369819E+01 -0.20360866333E+03  0.22534805672E+03  0.88479259662E+02 0.  0.
          5    1    3    3  502    0  0.66748604024E+02  0.15219172456E+02 -0.14939170281E+03  0.16438477003E+03  0.41800000000E+01 0. -1.
         -5    1    3    3    0  502 -0.28670222581E+02 -0.83842354744E+01 -0.37109081763E+03  0.37231457720E+03  0.41800000000E+01 0. -1.
        -11    1    4    4    0    0 -0.60653913328E+01  0.30541528818E+02 -0.24556159730E+02  0.39655755386E+02  0.00000000000E+00 0.  1.
         11    1    4    4    0    0 -0.32012990111E+02 -0.37376465800E+02 -0.17905250360E+03  0.18569230134E+03  0.00000000000E+00 0. -1.
</event>
<event>
 8    1  0.6637272E-009  0.9070950E+02  0.7561462E-02  0.1301143E+00
          1   -1    0    0  501    0  0.00000000000E+00  0.00000000000E+00  0.59324576659E+02  0.59324576659E+02  0.00000000000E+00 0. -1.
         -1   -1    0    0    0  501 -0.00000000000E+00 -0.00000000000E+00 -0.22013068586E+03  0.22013068586E+03  0.00000000000E+00 0.  1.
         25    2    1    2    0    0  0.16845357910E+02 -0.15931126423E+02 -0.58493139308E+02  0.14002564575E+03  0.12509263468E+03 0.  0.
         23    2    1    2    0    0 -0.16845357910E+02  0.15931126423E+02 -0.10231296990E+03  0.13942961677E+03  0.91842840500E+02 0.  0.
          5    1    3    3  502    0 -0.46829317582E+02 -0.75285575232E+01 -0.58801812161E+02  0.75662339886E+02  0.41800000000E+01 0. -1.
         -5    1    3    3    0  502  0.63674675492E+02 -0.84025688999E+01  0.30867285344E+00  0.64363305867E+02  0.41800000000E+01 0. -1.
        -11    1    4    4    0    0  0.10466389766E+02  0.34738534761E+02 -0.50027131208E+01  0.36624284985E+02  0.00000000000E+00 0. -1.
         11    1    4    4    0    0 -0.27311747676E+02 -0.18807408338E+02 -0.97310256774E+02  0.10280533178E+03  0.00000000000E+00 0.  1.
</event>
<event>
 8    1  0.6637272E-009  0.7771852E+02  0.7561462E-02  0.1335654E+00
          1   -1    0    0  501    0  0.00000000000E+00  0.00000000000E+00  0.14676879080E+03  0.14676879080E+03  0.00000000000E+00 0. -1.
         -1   -1    0    0    0  501 -0.00000000000E+00 -0.00000000000E+00 -0.10570196555E+03  0.10570196555E+03  0.00000000000E+00 0.  1.
         25    2    1    2    0    0  0.55361374165E+02 -0.23462049724E+02  0.36404118113E+02  0.14349094692E+03  0.12509613306E+03 0.  0.
         23    2    1    2    0    0 -0.55361374165E+02  0.23462049724E+02  0.46627071426E+01  0.10897980943E+03  0.90771738437E+02 0.  0.
          5    1    3    3  502    0  0.52305479125E+02 -0.70141127722E+01  0.80384616815E+02  0.96250817893E+02  0.41800000000E+01 0. -1.
         -5    1    3    3    0  502  0.30558950395E+01 -0.16447936952E+02 -0.43980498703E+02  0.47240129028E+02  0.41800000000E+01 0. -1.
        -11    1    4    4    0    0 -0.67686009792E+02  0.26284967619E+02  0.31626067904E+02  0.79199138982E+02  0.00000000000E+00 0. -1.
         11    1    4    4    0    0  0.12324635627E+02 -0.28229178953E+01 -0.26963360762E+02  0.29780670449E+02  0.00000000000E+00 0.  1.
</event>
<event>
 8    1  0.6637272E-009  0.1861755E+03  0.7561462E-02  0.1161957E+00
          2   -1    0    0  501    0  0.00000000000E+00  0.00000000000E+00  0.46247839852E+03  0.46247839852E+03  0.00000000000E+00 0. -1.
         -2   -1    0    0    0  501 -0.00000000000E+00 -0.00000000000E+00 -0.83967277339E+02  0.83967277339E+02  0.00000000000E+00 0.  1.
         25    2    1    2    0    0  0.93158217715E+02 -0.13468491123E+03  0.17882194615E+03  0.27284439755E+03  0.12509315732E+03 0.  0.
         23    2    1    2    0    0 -0.93158217715E+02  0.13468491123E+03  0.19968917503E+03  0.27360127831E+03  0.90351613302E+02 0.  0.
          5    1    3    3  502    0  0.52788171198E+02  0.54698865848E+01  0.19226257846E+02  0.56600636644E+02  0.41800000000E+01 0.  1.
         -5    1    3    3    0  502  0.40370046517E+02 -0.14015479781E+03  0.15959568831E+03  0.21624376091E+03  0.41800000000E+01 0.  1.
        -11    1    4    4    0    0 -0.22303076498E+02  0.15126809249E+01  0.73839617769E+02  0.77149235752E+02  0.00000000000E+00 0. -1.
         11    1    4    4    0    0 -0.70855141217E+02  0.13317223031E+03  0.12584955726E+03  0.19645204256E+03  0.00000000000E+00 0.  1.
</event>
<event>
 8    1  0.6637272E-009  0.1652921E+03  0.7561462E-02  0.1182848E+00
         -2   -1    0    0    0  501 -0.00000000000E+00  0.00000000000E+00  0.39064962633E+02  0.39064962633E+02  0.00000000000E+00 0.  1.
          2   -1    0    0  501    0  0.00000000000E+00 -0.00000000000E+00 -0.10495116101E+04  0.10495116101E+04  0.00000000000E+00 0. -1.
         25    2    1    2    0    0 -0.60813231133E+02  0.13177031632E+03 -0.76618318910E+03  0.78977596619E+03  0.12509089560E+03 0.  0.
         23    2    1    2    0    0  0.60813231133E+02 -0.13177031632E+03 -0.24426345833E+03  0.29880060651E+03  0.92495946030E+02 0.  0.
          5    1    3    3  502    0 -0.87563371143E+02  0.11128204018E+03 -0.71106578919E+03  0.72504004399E+03  0.41800000000E+01 0.  1.
         -5    1    3    3    0  502  0.26750140009E+02  0.20488276142E+02 -0.55117399910E+02  0.64735922197E+02  0.41800000000E+01 0.  1.
        -11    1    4    4    0    0  0.13894701765E+02 -0.93200956633E+02 -0.79801534903E+02  0.12348184493E+03  0.00000000000E+00 0.  1.
         11    1    4    4    0    0  0.46918529369E+02 -0.38569359684E+02 -0.16446192343E+03  0.17531876158E+03  0.00000000000E+00 0. -1.
</event>
<event>
 8    1  0.6637272E-009  0.1283307E+03  0.7561462E-02  0.1229954E+00
         -4   -1    0    0    0  501 -0.00000000000E+00  0.00000000000E+00  0.16243694069E+03  0.16243694069E+03  0.00000000000E+00 0.  1.
          4   -1    0    0  501    0  0.00000000000E+00 -0.00000000000E+00 -0.14455084900E+03  0.14455084900E+03  0.00000000000E+00 0. -1.
         25    2    1    2    0    0 -0.34272293733E+01 -0.81552706022E+02  0.80516459385E+02  0.16968339760E+03  0.12508783086E+03 0.  0.
         23    2    1    2    0    0  0.34272293733E+01  0.81552706022E+02 -0.62630367700E+02  0.13730439209E+03  0.90924932596E+02 0.  0.
          5    1    3    3  502    0  0.23297579107E+02  0.24497766268E+02  0.41040602335E+02  0.53335927708E+02  0.41800000000E+01 0. -1.
         -5    1    3    3    0  502 -0.26724808481E+02 -0.10605047229E+03  0.39475857049E+02  0.11634746990E+03  0.41800000000E+01 0. -1.
        -11    1    4    4    0    0  0.23303489594E+02  0.88943165271E+02 -0.26976792168E+02  0.95821117669E+02  0.00000000000E+00 0.  1.
         11    1    4    4    0    0 -0.19876260221E+02 -0.73904592482E+01 -0.35653575532E+02  0.41483274419E+02  0.00000000000E+00 0. -1.
</event>
<event>
 8    1  0.6637272E-009  0.1093242E+03  0.7561462E-02  0.1261826E+00
          2   -1    0    0  501    0  0.00000000000E+00  0.00000000000E+00  0.33762244904E+03  0.33762244904E+03  0.00000000000E+00 0. -1.
         -2   -1    0    0    0  501 -0.00000000000E+00 -0.00000000000E+00 -0.46299654953E+02  0.46299654953E+02  0.00000000000E+00 0.  1.
         25    2    1    2    0    0  0.44865922538E+02 -0.39172688359E+02  0.13245407247E+03  0.19168292687E+03  0.12510320788E+03 0.  0.
         23    2    1    2    0    0 -0.44865922538E+02  0.39172688359E+02  0.15886872162E+03  0.19223917712E+03  0.90383516158E+02 0.  0.
          5    1    3    3  502    0 -0.41670210136E+02 -0.86931603319E+01  0.22208583049E+02  0.48194097256E+02  0.41800000000E+01 0.  1.
         -5    1    3    3    0  502  0.86536132674E+02 -0.30479528027E+02  0.11024548942E+03  0.14348882962E+03  0.41800000000E+01 0.  1.
        -11    1    4    4    0    0  0.10461436456E+02  0.24731692735E+02  0.12031446193E+03  0.12327476639E+03  0.00000000000E+00 0. -1.
         11    1    4    4    0    0 -0.55327358994E+02  0.14440995623E+02  0.38554259691E+02  0.68964410736E+02  0.00000000000E+00 0.  1.
</event>
<event>
 8    1  0.6637272E-009  0.2935268E+03  0.7561462E-02  0.1088522E+00
         -1   -1    0    0    0  501 -0.00000000000E+00  0.00000000000E+00  0.23011101044E+03  0.23011101044E+03  0.00000000000E+00 0.  1.
          1   -1    0    0  501    0  0.00000000000E+00 -0.00000000000E+00 -0.42861572621E+03  0.42861572621E+03  0.00000000000E+00 0. -1.
         25    2    1    2    0    0  0.28075067149E+03  0.28350081256E+02 -0.18838872514E+03  0.36161208872E+03  0.12509326242E+03 0.  0.
         23    2    1    2    0    0 -0.28075067149E+03 -0.28350081256E+02 -0.10115990627E+02  0.29711464793E+03  0.92466827023E+02 0.  0.
          5    1    3    3  502    0  0.27298040755E+03  0.11807085161E+02 -0.13453821243E+03  0.30459105891E+03  0.41800000000E+01 0.  1.
         -5    1    3    3    0  502  0.77702639373E+01  0.16542996095E+02 -0.53850512710E+02  0.57021029810E+02  0.41800000000E+01 0.  1.
        -11    1    4    4    0    0 -0.14470690683E+03 -0.57832593327E+02 -0.22114369739E+02  0.15739676961E+03  0.00000000000E+00 0. -1.
         11    1    4    4    0    0 -0.13604376466E+03  0.29482512071E+02  0.11998379111E+02  0.13971787832E+03  0.00000000000E+00 0.  1.
</event>
<event>
 8    1  0.6637272E-009  0.6383053E+02  0.7561462E-02  0.1382425E+00
         -2   -1    0    0    0  501 -0.00000000000E+00  0.00000000000E+00  0.29810972231E+02  0.29810972231E+02  0.00000000000E+00 0.  1.
          2   -1    0    0  501    0  0.00000000000E+00 -0.00000000000E+00 -0.50318034245E+03  0.50318034245E+03  0.00000000000E+00 0. -1.
         25    2    1    2    0    0  0.25904662752E+01  0.26421232459E+02 -0.38204089736E+03  0.40287312603E+03  0.12508683537E+03 0.  0.
         23    2    1    2    0    0 -0.25904662752E+01 -0.26421232459E+02 -0.91328472865E+02  0.13011818865E+03  0.88797866091E+02 0.  0.
          5    1    3    3  502    0  0.11130537854E+02  0.21167536411E+02 -0.39156053009E+01  0.24591824566E+02  0.41800000000E+01 0.  1.
         -5    1    3    3    0  502 -0.85400715793E+01  0.52536960482E+01 -0.37812529206E+03  0.37828130146E+03  0.41800000000E+01 0.  1.
        -11    1    4    4    0    0  0.40934799960E+02  0.12313012499E+01 -0.36629533580E+02  0.54944487265E+02  0.00000000000E+00 0.  1.
         11    1    4    4    0    0 -0.43525266236E+02 -0.27652533709E+02 -0.54698939285E+02  0.75173701387E+02  0.00000000000E+00 0. -1.
</event>
<event>
 8    1  0.6637272E-009  0.8724715E+02  0.7561462E-02  0.1309658E+00
          2   -1    0    0  501    0  0.00000000000E+00  0.00000000000E+00  0.18602074141E+03  0.18602074141E+03  0.00000000000E+00 0.  1.
         -2   -1    0    0    0  501 -0.00000000000E+00 -0.00000000000E+00 -0.74974671691E+02  0.74974671691E+02  0.00000000000E+00 0. -1.
         25    2    1    2    0    0  0.27206360987E+02 -0.19083383458E+01  0.20964073951E+02  0.12973338780E+03  0.12508969454E+03 0.  0.
         23    2    1    2    0    0 -0.27206360987E+02  0.19083383458E+01  0.90081995765E+02  0.13126202529E+03  0.91493854931E+02 0.  0.
          5    1    3    3  502    0 -0.49445965072E+02  0.29603373813E+01 -0.10606266458E+01  0.49721870321E+02  0.41800000000E+01 0. -1.
         -5    1    3    3    0  502  0.76652326059E+02 -0.48686757271E+01  0.22024700596E+02  0.80011517483E+02  0.41800000000E+01 0. -1.
        -11    1    4    4    0    0 -0.12137864384E+00  0.16903835631E+02  0.97885711058E+02  0.99334620456E+02  0.00000000000E+00 0.  1.
         11    1    4    4    0    0 -0.27084982343E+02 -0.14995497285E+02 -0.78037152933E+01  0.31927404839E+02  0.00000000000E+00 0. -1.
</event>
<event>
 8    1  0.6637272E-009  0.1234345E+03  0.7561462E-02  0.1237536E+00
         -1   -1    0    0    0  501 -0.00000000000E+00  0.00000000000E+00  0.77932787532E+02  0.77932787532E+02  0.00000000000E+00 0.  1.
          1   -1    0    0  501    0  0.00000000000E+00 -0.00000000000E+00 -0.26204689250E+03  0.26204689250E+03  0.00000000000E+00 0. -1.
         25    2    1    2    0    0 -0.38127783297E+02 -0.62610756654E+02 -0.16458932085E+03  0.21934391891E+03  0.12509306742E+03 0.  0.
         23    2    1    2    0    0  0.38127783297E+02  0.62610756654E+02 -0.19524784116E+02  0.12063576112E+03  0.93797307842E+02 0.  0.
          5    1    3    3  502    0 -0.38235496037E+02  0.23608355058E+02 -0.10546771471E+03  0.11471799698E+03  0.41800000000E+01 0.  1.
         -5    1    3    3    0  502  0.10771274008E+00 -0.86219111713E+02 -0.59121606141E+02  0.10462592193E+03  0.41800000000E+01 0.  1.
        -11    1    4    4    0    0 -0.19990411234E+02 -0.10048855659E+02  0.77475030142E+01  0.23677412112E+02  0.00000000000E+00 0.  1.
         11    1    4    4    0    0  0.58118194531E+02  0.72659612314E+02 -0.27272287131E+02  0.96958349009E+02  0.00000000000E+00 0. -1.
</event>
<event>
 8    1  0.6637272E-009  0.1144811E+03  0.7561462E-02  0.1252490E+00
          1   -1    0    0  501    0  0.00000000000E+00  0.00000000000E+00  0.12176050082E+03  0.12176050082E+03  0.00000000000E+00 0. -1.
         -1   -1    0    0    0  501 -0.00000000000E+00 -0.00000000000E+00 -0.12241872824E+03  0.12241872824E+03  0.00000000000E+00 0.  1.
         25    2    1    2    0    0  0.28655377053E+02  0.47742335273E+02 -0.88081540625E+01  0.13720683485E+03  0.12509065010E+03 0.  0.
         23    2    1    2    0    0 -0.28655377053E+02 -0.47742335273E+02  0.81499266419E+01  0.10697239421E+03  0.90973680845E+02 0.  0.
          5    1    3    3  502    0  0.58570066228E+02 -0.19258875297E+02 -0.14554420954E+02  0.63487483057E+02  0.41800000000E+01 0.  1.
         -5    1    3    3    0  502 -0.29914689174E+02  0.67001210570E+02  0.57462668912E+01  0.73719351798E+02  0.41800000000E+01 0.  1.
        -11    1    4    4    0    0  0.15505093388E+02  0.11838747458E+02 -0.19726968331E+02  0.27743776634E+02  0.00000000000E+00 0.  1.
         11    1    4    4    0    0 -0.44160470441E+02 -0.59581082731E+02  0.27876894973E+02  0.79228617572E+02  0.00000000000E+00 0. -1.
</event>
<event>
 8    1  0.6637272E-009  0.1414088E+03  0.7561462E-02  0.1211446E+00
         -1   -1    0    0    0  501 -0.00000000000E+00  0.00000000000E+00  0.10822161974E+04  0.10822161974E+04  0.00000000000E+00 0.  1.
          1   -1    0    0  501    0  0.00000000000E+00 -0.00000000000E+00 -0.28134419432E+02  0.28134419432E+02  0.00000000000E+00 0. -1.
         25    2    1    2    0    0 -0.97803033768E+02 -0.81561049349E+02  0.71364393493E+03  0.73563098523E+03  0.12509053679E+03 0.  0.
         23    2    1    2    0    0  0.97803033768E+02  0.81561049349E+02  0.34043784303E+03  0.37471963159E+03  0.91100159959E+02 0.  0.
          5    1    3    3  502    0 -0.50088956631E+02 -0.56709290666E+02  0.13777552019E+03  0.15723998724E+03  0.41800000000E+01 0. -1.
         -5    1    3    3    0  502 -0.47714077137E+02 -0.24851758683E+02  0.57586841474E+03  0.57839099799E+03  0.41800000000E+01 0. -1.
        -11    1    4    4    0    0  0.68042520395E+02  0.19314443858E+01  0.19137482329E+03  0.20312025514E+03  0.00000000000E+00 0.  1.
         11    1    4    4    0    0  0.29760513373E+02  0.79629604963E+02  0.14906301974E+03  0.17159937645E+03  0.00000000000E+00 0. -1.
</event>
<event>
 8    1  0.6637272E-009  0.2042149E+03  0.7561462E-02  0.1146231E+00
         -2   -1    0    0    0  501 -0.00000000000E+00  0.00000000000E+00  0.75524273448E+03  0.75524273448E+03  0.00000000000E+00 0. -1.
          2   -1    0    0  501    0  0.00000000000E+00 -0.00000000000E+00 -0.60485275082E+02  0.60485275082E+02  0.00000000000E+00 0.  1.
         25    2    1    2    0    0 -0.15707132366E+03  0.92374101945E+02  0.32325972643E+03  0.39159860773E+03  0.12509293913E+03 0.  0.
         23    2    1    2    0    0  0.15707132366E+03 -0.92374101945E+02  0.37149773296E+03  0.42412940182E+03  0.93117176017E+02 0.  0.
          5    1    3    3  502    0 -0.17493935578E+03  0.90925324515E+02  0.31450070138E+03  0.37121335699E+03  0.41800000000E+01 0.  1.
         -5    1    3    3    0  502  0.17868032123E+02  0.14487774301E+01  0.87590250507E+01  0.20385250742E+02  0.41800000000E+01 0.  1.
        -11    1    4    4    0    0  0.61931123487E+02 -0.25606769610E+01  0.19373104475E+03  0.20340535593E+03  0.00000000000E+00 0. -1.
         11    1    4    4    0    0  0.95140200172E+02 -0.89813424984E+02  0.17776668821E+03  0.22072404589E+03  0.00000000000E+00 0.  1.
</event>
<event>
 8    1  0.6637272E-009  0.8696125E+02  0.7561462E-02  0.1310382E+00
         -2   -1    0    0    0  501 -0.00000000000E+00  0.00000000000E+00  0.99054208661E+01  0.99054208661E+01  0.00000000000E+00 0.  1.
          2   -1    0    0  501    0  0.00000000000E+00 -0.00000000000E+00 -0.18809342200E+04  0.18809342200E+04  0.00000000000E+00 0. -1.
         25    2    1    2    0    0 -0.94641843809E+01  0.28323155657E+02 -0.15621498296E+04  0.15674343396E+04  0.12508615756E+03 0.  0.
         23    2    1    2    0    0  0.94641843809E+01 -0.28323155657E+02 -0.30887896952E+03  0.32340530128E+03  0.91065905545E+02 0.  0.
          5    1    3    3  502    0  0.24315256288E+02 -0.23368593057E+02 -0.14481044473E+03  0.14874427765E+03  0.41800000000E+01 0.  1.
         -5    1    3    3    0  502 -0.33779440669E+02  0.51691748714E+02 -0.14173393849E+04  0.14186900619E+04  0.41800000000E+01 0.  1.
        -11    1    4    4    0    0  0.22861972574E+02  0.18460335088E+02 -0.37216701633E+02  0.47418737246E+02  0.00000000000E+00 0.  1.
         11    1    4    4    0    0 -0.13397788193E+02 -0.46783490745E+02 -0.27166226788E+03  0.27598656403E+03  0.00000000000E+00 0. -1.
</event>
<event>
 8    1  0.6637272E-009  0.1361071E+03  0.7561462E-02  0.1218665E+00
          2   -1    0    0  501    0  0.00000000000E+00  0.00000000000E+00  0.32621745718E+03  0.32621745718E+03  0.00000000000E+00 0. -1.
         -2   -1    0    0    0  501 -0.00000000000E+00 -0.00000000000E+00 -0.78834520773E+02  0.78834520773E+02  0.00000000000E+00 0.  1.
         25    2    1    2    0    0  0.28566234681E+02  0.10854456304E+03  0.17606492941E+03  0.24339925821E+03  0.12508552114E+03 0.  0.
         23    2    1    2    0    0 -0.28566234681E+02 -0.10854456304E+03  0.71318006993E+02  0.16165271974E+03  0.91909693448E+02 0.  0.
          5    1    3    3  502    0 -0.26619122158E+02  0.59373134748E+02  0.15226182383E+03  0.16563478557E+03  0.41800000000E+01 0. -1.
         -5    1    3    3    0  502  0.55185356838E+02  0.49171428291E+02  0.23803105582E+02  0.77764472640E+02  0.41800000000E+01 0. -1.
        -11    1    4    4    0    0  0.20907966256E+02 -0.60526243047E+02  0.22688473628E+01  0.64075867679E+02  0.00000000000E+00 0.  1.
         11    1    4    4    0    0 -0.49474200937E+02 -0.48018319992E+02  0.69049159630E+02  0.97576852065E+02  0.00000000000E+00 0. -1.
</event>
<event>
 8    1  0.6637272E-009  0.1375546E+03  0.7561462E-02  0.1216658E+00
          2   -1    0    0  501    0  0.00000000000E+00  0.00000000000E+00  0.10119493199E+04  0.10119493199E+04  0.00000000000E+00 0. -1.
         -2   -1    0    0    0  501 -0.00000000000E+00 -0.00000000000E+00 -0.27822388174E+02  0.27822388174E+02  0.00000000000E+00 0.  1.
         25    2    1    2    0    0 -0.43285985823E+02  0.94104504428E+02  0.29270859130E+03  0.33474639293E+03  0.12508994299E+03 0.  0.
         23    2    1    2    0    0  0.43285985823E+02 -0.94104504428E+02  0.69141834046E+03  0.70502531518E+03  0.90950751481E+02 0.  0.
          5    1    3    3  502    0 -0.69111854984E+02  0.90256141546E+02  0.14303206484E+03  0.18275191807E+03  0.41800000000E+01 0.  1.
         -5    1    3    3    0  502  0.25825869161E+02  0.38483628819E+01  0.14967652646E+03  0.15199447486E+03  0.41800000000E+01 0.  1.
        -11    1    4    4    0    0  0.36991772552E+02  0.34514058331E+01  0.13196798300E+03  0.13709796488E+03  0.00000000000E+00 0.  1.
         11    1    4    4    0    0  0.62942132712E+01 -0.97555910261E+02  0.55945035747E+03  0.56792735030E+03  0.00000000000E+00 0. -1.
</event>
<event>
 8    1  0.6637272E-009  0.1283324E+03  0.7561462E-02  0.1229951E+00
          2   -1    0    0  501    0  0.00000000000E+00  0.00000000000E+00  0.40909058209E+03  0.40909058209E+03  0.00000000000E+00 0. -1.
         -2   -1    0    0    0  501 -0.00000000000E+00 -0.00000000000E+00 -0.43710337332E+02  0.43710337332E+02  0.00000000000E+00 0.  1.
         25    2    1    2    0    0 -0.69213234685E+02  0.24872630468E+02  0.23586973535E+03  0.27693044528E+03  0.12508724902E+03 0.  0.
         23    2    1    2    0    0  0.69213234685E+02 -0.24872630468E+02  0.12951050941E+03  0.17587047414E+03  0.93532518546E+02 0.  0.
          5    1    3    3  502    0  0.31796603555E+02  0.29912522663E+02  0.68739016248E+02  0.81537155730E+02  0.41800000000E+01 0.  1.
         -5    1    3    3    0  502 -0.10100983824E+03 -0.50398921949E+01  0.16713071910E+03  0.19539328955E+03  0.41800000000E+01 0.  1.
        -11    1    4    4    0    0 -0.19555031626E+02 -0.61330248166E+00  0.35633843748E+01  0.19886505727E+02  0.00000000000E+00 0.  1.
         11    1    4    4    0    0  0.88768266310E+02 -0.24259327986E+02  0.12594712503E+03  0.15598396841E+03  0.00000000000E+00 0. -1.
</event>
<event>
 8    1  0.6637272E-009  0.1022312E+03  0.7561462E-02  0.1275673E+00
         -1   -1    0    0    0  501 -0.00000000000E+00  0.00000000000E+00  0.14232979046E+03  0.14232979046E+03  0.00000000000E+00 0.  1.
          1   -1    0    0  501    0  0.00000000000E+00 -0.00000000000E+00 -0.14353426554E+03  0.14353426554E+03  0.00000000000E+00 0. -1.
         25    2    1    2    0    0  0.40697904611E+02 -0.16936585295E+02  0.81276061916E+02  0.15555166266E+03  0.12508938467E+03 0.  0.
         23    2    1    2    0    0 -0.40697904611E+02  0.16936585295E+02 -0.82480536995E+02  0.13031239333E+03  0.90747526200E+02 0.  0.
          5    1    3    3  502    0  0.65159639593E+02 -0.47652744721E+02  0.21041489089E+02  0.83527117599E+02  0.41800000000E+01 0. -1.
         -5    1    3    3    0  502 -0.24461734982E+02  0.30716159426E+02  0.60234572826E+02  0.72024545065E+02  0.41800000000E+01 0. -1.
        -11    1    4    4    0    0 -0.12930750596E+02 -0.28270237864E+02 -0.68839412682E+02  0.75533273451E+02  0.00000000000E+00 0. -1.
         11    1    4    4    0    0 -0.27767154015E+02  0.45206823159E+02 -0.13641124313E+02  0.54779119879E+02  0.00000000000E+00 0.  1.
</event>
<event>
 8    1  0.6637272E-009  0.2225337E+03  0.7561462E-02  0.1132008E+00
         -2   -1    0    0    0  501 -0.00000000000E+00  0.00000000000E+00  0.34382379057E+03  0.34382379057E+03  0.00000000000E+00 0.  1.
          2   -1    0    0  501    0  0.00000000000E+00 -0.00000000000E+00 -0.20641421714E+03  0.20641421714E+03  0.00000000000E+00 0. -1.
         25    2    1    2    0    0  0.15573414639E+03 -0.13563065406E+03 -0.61845100437E+02  0.24922675847E+03  0.12506143297E+03 0.  0.
         23    2    1    2    0    0 -0.15573414639E+03  0.13563065406E+03  0.19925467387E+03  0.30101124924E+03  0.90865551441E+02 0.  0.
          5    1    3    3  502    0  0.28515077925E+02  0.21302154287E+02 -0.25338796720E+02  0.43890983876E+02  0.41800000000E+01 0. -1.
         -5    1    3    3    0  502  0.12721906847E+03 -0.15693280835E+03 -0.36506303717E+02  0.20533577459E+03  0.41800000000E+01 0. -1.
        -11    1    4    4    0    0 -0.53562048254E+02  0.36576446518E+02  0.12229622325E+02  0.66002220533E+02  0.00000000000E+00 0.  1.
         11    1    4    4    0    0 -0.10217209814E+03  0.99054207541E+02  0.18702505155E+03  0.23500902871E+03  0.00000000000E+00 0. -1.
</event>
<event>
 8    1  0.6637272E-009  0.9370141E+02  0.7561462E-02  0.1294128E+00
         -1   -1    0    0    0  501 -0.00000000000E+00  0.00000000000E+00  0.77688713014E+01  0.77688713014E+01  0.00000000000E+00 0.  1.
          1   -1    0    0  501    0  0.00000000000E+00 -0.00000000000E+00 -0.14263523568E+04  0.14263523568E+04  0.00000000000E+00 0. -1.
         25    2    1    2    0    0 -0.19264054558E+02  0.24643075173E+02 -0.11966380259E+04  0.12035643566E+04  0.12508481356E+03 0.  0.
         23    2    1    2    0    0  0.19264054558E+02 -0.24643075173E+02 -0.22194545964E+03  0.23055687151E+03  0.54021282770E+02 0.  0.
          5    1    3    3  502    0 -0.70726779351E+02  0.10794219948E+02 -0.53654430240E+03  0.54130957256E+03  0.41800000000E+01 0.  1.
         -5    1    3    3    0  502  0.51462724793E+02  0.13848855226E+02 -0.66009372346E+03  0.66225478404E+03  0.41800000000E+01 0.  1.
        -11    1    4    4    0    0  0.28640584028E+02 -0.36985111964E+02 -0.17325687755E+03  0.17946065635E+03  0.00000000000E+00 0.  1.
         11    1    4    4    0    0 -0.93765294701E+01  0.12342036790E+02 -0.48688582089E+02  0.51096215152E+02  0.00000000000E+00 0. -1.
</event>
<event>
 8    1  0.6637272E-009  0.1102690E+03  0.7561462E-02  0.1260073E+00
         -2   -1    0    0    0  501 -0.00000000000E+00  0.00000000000E+00  0.44774722728E+03  0.44774722728E+03  0.00000000000E+00 0.  1.
          2   -1    0    0  501    0  0.00000000000E+00 -0.00000000000E+00 -0.33018171380E+02  0.33018171380E+02  0.00000000000E+00 0. -1.
         25    2    1    2    0    0  0.47578391021E+02 -0.13096676998E+02  0.18908375193E+03  0.23201954818E+03  0.12508069097E+03 0.  0.
         23    2    1    2    0    0 -0.47578391021E+02  0.13096676998E+02  0.22564530397E+03  0.24874585048E+03  0.92322633663E+02 0.  0.
          5    1    3    3  502    0  0.78757747148E+02 -0.32686500712E+02  0.17023309693E+03  0.19044151269E+03  0.41800000000E+01 0. -1.
         -5    1    3    3    0  502 -0.31179356127E+02  0.19589823714E+02  0.18850655002E+02  0.41578035495E+02  0.41800000000E+01 0. -1.
        -11    1    4    4    0    0  0.75781444571E+01  0.37162240538E+02  0.47945428013E+02  0.61132842749E+02  0.00000000000E+00 0. -1.
         11    1    4    4    0    0 -0.55156535478E+02 -0.24065563540E+02  0.17769987596E+03  0.18761300773E+03  0.00000000000E+00 0.  1.
</event>
<event>
 8    1  0.6637272E-009  0.1686357E+03  0.7561462E-02  0.1179278E+00
         -3   -1    0    0    0  501 -0.00000000000E+00  0.00000000000E+00  0.12072752324E+03  0.12072752324E+03  0.00000000000E+00 0.  1.
          3   -1    0    0  501    0  0.00000000000E+00 -0.00000000000E+00 -0.28368015133E+03  0.28368015133E+03  0.00000000000E+00 0. -1.
         25    2    1    2    0    0 -0.99686399547E+02 -0.10290949661E+03 -0.13395763686E+03  0.23263485968E+03  0.12508631706E+03 0.  0.
         23    2    1    2    0    0  0.99686399547E+02  0.10290949661E+03 -0.28994991225E+02  0.17177281490E+03  0.90207802737E+02 0.  0.
          5    1    3    3  502    0  0.22589067864E+02 -0.51184092905E+02 -0.27903166877E+02  0.62658889835E+02  0.41800000000E+01 0.  1.
         -5    1    3    3    0  502 -0.12227546741E+03 -0.51725403707E+02 -0.10605446999E+03  0.16997596984E+03  0.41800000000E+01 0.  1.
        -11    1    4    4    0    0 -0.77488097114E+00  0.14477875760E+02  0.23824303404E+02  0.27889187147E+02  0.00000000000E+00 0.  1.
         11    1    4    4    0    0  0.10046128052E+03  0.88431620853E+02 -0.52819294629E+02  0.14388362775E+03  0.00000000000E+00 0. -1.
</event>
<event>
 8    1  0.6637272E-009  0.1107645E+03  0.7561462E-02  0.1259161E+00
          2   -1    0    0  501    0  0.00000000000E+00  0.00000000000E+00  0.26777596866E+02  0.26777596866E+02  0.00000000000E+00 0. -1.
         -2   -1    0    0    0  501 -0.00000000000E+00 -0.00000000000E+00 -0.52074938889E+03  0.52074938889E+03  0.00000000000E+00 0.  1.
         25    2    1    2    0    0 -0.37006257040E+02 -0.25492663135E+02 -0.24448547599E+03  0.27828073166E+03  0.12509068194E+03 0.  0.
         23    2    1    2    0    0  0.37006257040E+02  0.25492663135E+02 -0.24948631604E+03  0.26924625410E+03  0.90723671243E+02 0.  0.
          5    1    3    3  502    0 -0.20973901827E+02  0.50352305961E+02 -0.11401476099E+03  0.12645986477E+03  0.41800000000E+01 0.  1.
         -5    1    3    3    0  502 -0.16032355213E+02 -0.75844969096E+02 -0.13047071500E+03  0.15182086689E+03  0.41800000000E+01 0.  1.
        -11    1    4    4    0    0  0.31316314200E+02 -0.23947399392E+02 -0.17688870719E+03  0.18122859654E+03  0.00000000000E+00 0.  1.
         11    1    4    4    0    0  0.56899428397E+01  0.49440062526E+02 -0.72597608847E+02  0.88017657560E+02  0.00000000000E+00 0. -1.
</event>
<event>
 8    1  0.6637272E-009  0.3784332E+03  0.7561462E-02  0.1051514E+00
         -1   -1    0    0    0  501 -0.00000000000E+00  0.00000000000E+00  0.17174004937E+03  0.17174004937E+03  0.00000000000E+00 0.  1.
          1   -1    0    0  501    0  0.00000000000E+00 -0.00000000000E+00 -0.10476512737E+04  0.10476512737E+04  0.00000000000E+00 0. -1.
         25    2    1    2    0    0  0.36176040122E+03 -0.24704932073E+02 -0.16801489951E+03  0.41875614713E+03  0.12508710063E+03 0.  0.
         23    2    1    2    0    0 -0.36176040122E+03  0.24704932073E+02 -0.70789632479E+03  0.80063517592E+03  0.91752693133E+02 0.  0.
          5    1    3    3  502    0  0.29711524386E+03  0.30171594054E+02 -0.13108521123E+03  0.32617265095E+03  0.41800000000E+01 0.  1.
         -5    1    3    3    0  502  0.64645157359E+02 -0.54876526126E+02 -0.36929688285E+02  0.92583496188E+02  0.41800000000E+01 0.  1.
        -11    1    4    4    0    0 -0.14724295245E+03 -0.33531457032E+02 -0.31129347999E+03  0.34598912749E+03  0.00000000000E+00 0.  1.
         11    1    4    4    0    0 -0.21451744877E+03  0.58236389104E+02 -0.39660284481E+03  0.45464604843E+03  0.00000000000E+00 0. -1.
</event>
<event>
 8    1  0.6637272E-009  0.1355718E+03  0.7561462E-02  0.1219415E+00
          2   -1    0    0  501    0  0.00000000000E+00  0.00000000000E+00  0.22458530349E+04  0.22458530349E+04  0.00000000000E+00 0. -1.
         -2   -1    0    0    0  501 -0.00000000000E+00 -0.00000000000E+00 -0.13274937078E+02  0.13274937078E+02  0.00000000000E+00 0.  1.
         25    2    1    2    0    0 -0.35085544513E+02  0.83165282126E+02  0.18339659533E+04  0.18404416448E+04  0.12508745070E+03 0.  0.
         23    2    1    2    0    0  0.35085544513E+02 -0.83165282126E+02  0.39861214455E+03  0.41868632725E+03  0.90879806632E+02 0.  0.
          5    1    3    3  502    0 -0.13495859128E+02 -0.32219002435E+02  0.32072037389E+03  0.32264412742E+03  0.41800000000E+01 0. -1.
         -5    1    3    3    0  502 -0.21589685385E+02  0.11538428456E+03  0.15132455794E+04  0.15177975173E+04  0.41800000000E+01 0. -1.
        -11    1    4    4    0    0 -0.23732436496E+02 -0.35952116211E+02  0.75857059147E+02  0.87235753132E+02  0.00000000000E+00 0.  1.
         11    1    4    4    0    0  0.58817981008E+02 -0.47213165915E+02  0.32275508541E+03  0.33145057412E+03  0.00000000000E+00 0. -1.
</event>
<event>
 8    1  0.6637272E-009  0.1249699E+03  0.7561462E-02  0.1235116E+00
         -3   -1    0    0    0  501 -0.00000000000E+00  0.00000000000E+00  0.22689931107E+03  0.22689931107E+03  0.00000000000E+00 0.  1.
          3   -1    0    0  501    0  0.00000000000E+00 -0.00000000000E+00 -0.71292968385E+02  0.71292968385E+02  0.00000000000E+00 0. -1.
         25    2    1    2    0    0 -0.47451971580E+02  0.44547907638E+02  0.68028582642E+02  0.15655069716E+03  0.12507608502E+03 0.  0.
         23    2    1    2    0    0  0.47451971580E+02 -0.44547907638E+02  0.87577760047E+02  0.14164158229E+03  0.90312059540E+02 0.  0.
          5    1    3    3  502    0  0.14362562591E+02 -0.36229176777E+02  0.18726612983E+02  0.43439554417E+02  0.41800000000E+01 0.  1.
         -5    1    3    3    0  502 -0.61814534170E+02  0.80777084415E+02  0.49301969659E+02  0.11311114275E+03  0.41800000000E+01 0.  1.
        -11    1    4    4    0    0  0.41167614204E+02 -0.70827443616E+02  0.77590782298E+02  0.11283451921E+03  0.00000000000E+00 0.  1.
         11    1    4    4    0    0  0.62843573757E+01  0.26279535978E+02  0.99869777490E+01  0.28807063082E+02  0.00000000000E+00 0. -1.
</event>
<event>
 8    1  0.6637272E-009  0.2324091E+03  0.7561462E-02  0.1124956E+00
         -1   -1    0    0    0  501 -0.00000000000E+00  0.00000000000E+00  0.86815288943E+02  0.86815288943E+02  0.00000000000E+00 0.  1.
          1   -1    0    0  501    0  0.00000000000E+00 -0.00000000000E+00 -0.73041784512E+03  0.73041784512E+03  0.00000000000E+00 0. -1.
         25    2    1    2    0    0  0.13515285341E+03 -0.17973579716E+03 -0.27549477542E+03  0.37698294557E+03  0.12509004518E+03 0.  0.
         23    2    1    2    0    0 -0.13515285341E+03  0.17973579716E+03 -0.36810778075E+03  0.44025018849E+03  0.88009315712E+02 0.  0.
          5    1    3    3  502    0  0.11198032841E+03 -0.17576730230E+03 -0.17047368637E+03  0.26928143021E+03  0.41800000000E+01 0. -1.
         -5    1    3    3    0  502  0.23172525001E+02 -0.39684948511E+01 -0.10502108905E+03  0.10770151536E+03  0.41800000000E+01 0. -1.
        -11    1    4    4    0    0 -0.56504420154E+02  0.12347676642E+03 -0.15399223843E+03  0.20531164322E+03  0.00000000000E+00 0.  1.
         11    1    4    4    0    0 -0.78648433252E+02  0.56259030734E+02 -0.21411554232E+03  0.23493854527E+03  0.00000000000E+00 0. -1.
</event>
<event>
 8    1  0.6637272E-009  0.1479794E+03  0.7561462E-02  0.1202978E+00
         -1   -1    0    0    0  501 -0.00000000000E+00  0.00000000000E+00  0.18830193900E+02  0.18830193900E+02  0.00000000000E+00 0.  1.
          1   -1    0    0  501    0  0.00000000000E+00 -0.00000000000E+00 -0.14085857218E+04  0.14085857218E+04  0.00000000000E+00 0. -1.
         25    2    1    2    0    0 -0.12584375066E+03 -0.24262999806E+02 -0.81194526385E+03  0.83146214541E+03  0.12509534369E+03 0.  0.
         23    2    1    2    0    0  0.12584375066E+03  0.24262999806E+02 -0.57781026405E+03  0.59595377029E+03  0.69791491943E+02 0.  0.
          5    1    3    3  502    0 -0.11156655910E+03  0.19854473511E+02 -0.71477085116E+03  0.72370998286E+03  0.41800000000E+01 0. -1.
         -5    1    3    3    0  502 -0.14277191562E+02 -0.44117473317E+02 -0.97174412696E+02  0.10775216255E+03  0.41800000000E+01 0. -1.
        -11    1    4    4    0    0  0.64649575505E+02  0.35547782400E+02 -0.20252965558E+03  0.21554923762E+03  0.00000000000E+00 0.  1.
         11    1    4    4    0    0  0.61194175160E+02 -0.11284782595E+02 -0.37528060846E+03  0.38040453268E+03  0.00000000000E+00 0. -1.
</event>
<event>
 8    1  0.6637272E-009  0.8855523E+02  0.7561462E-02  0.1306389E+00
          1   -1    0    0  501    0  0.00000000000E+00  0.00000000000E+00  0.35804215065E+03  0.35804215065E+03  0.00000000000E+00 0. -1.
         -1   -1    0    0    0  501 -0.00000000000E+00 -0.00000000000E+00 -0.43639886069E+02  0.43639886069E+02  0.00000000000E+00 0.  1.
         25    2    1    2    0    0 -0.21419385842E+02 -0.74665926612E+01  0.82936562519E+02  0.15179008906E+03  0.12508883898E+03 0.  0.
         23    2    1    2    0    0  0.21419385842E+02  0.74665926612E+01  0.23146570206E+03  0.24989194766E+03  0.91406094870E+02 0.  0.
          5    1    3    3  502    0 -0.28419145459E+02  0.40740320003E+02 -0.60925308148E+01  0.50219645900E+02  0.41800000000E+01 0.  1.
         -5    1    3    3    0  502  0.69997596174E+01 -0.48206912665E+02  0.89029093333E+02  0.10157044316E+03  0.41800000000E+01 0.  1.
        -11    1    4    4    0    0  0.19642317886E+02 -0.32709953628E+02  0.44351686072E+02  0.58504989323E+02  0.00000000000E+00 0. -1.
         11    1    4    4    0    0  0.17770679560E+01  0.40176546289E+02  0.18711401599E+03  0.19138695834E+03  0.00000000000E+00 0.  1.
</event>
<event>
 8    1  0.6637272E-009  0.2313022E+03  0.7561462E-02  0.1125727E+00
          2   -1    0    0  501    0  0.00000000000E+00  0.00000000000E+00  0.83673121854E+03  0.83673121854E+03  0.00000000000E+00 0. -1.
         -2   -1    0    0    0  501 -0.00000000000E+00 -0.00000000000E+00 -0.66715176532E+02  0.66715176532E+02  0.00000000000E+00 0.  1.
         25    2    1    2    0    0 -0.10611624281E+03  0.17620206210E+03  0.48884634009E+03  0.54491004201E+03  0.12509350898E+03 0.  0.
         23    2    1    2    0    0  0.10611624281E+03 -0.17620206210E+03  0.28116970192E+03  0.35853635306E+03  0.84759020260E+02 0.  0.
          5    1    3    3  502    0 -0.90048955158E+02  0.32107539048E+02  0.19424077126E+03  0.21653327229E+03  0.41800000000E+01 0. -1.
         -5    1    3    3    0  502 -0.16067287647E+02  0.14409452305E+03  0.29460556883E+03  0.32837676972E+03  0.41800000000E+01 0. -1.
        -11    1    4    4    0    0  0.90205949943E+02 -0.69216882645E+02  0.13087640902E+03  0.17336875349E+03  0.00000000000E+00 0.  1.
         11    1    4    4    0    0  0.15910292862E+02 -0.10698517945E+03  0.15029329289E+03  0.18516759957E+03  0.00000000000E+00 0. -1.
</event>
<event>
 8    1  0.6637272E-009  0.1507640E+03  0.7561462E-02  0.1199537E+00
          1   -1    0    0  501    0  0.00000000000E+00  0.00000000000E+00  0.44269505960E+03  0.44269505960E+03  0.00000000000E+00 0. -1.
         -1   -1    0    0    0  501 -0.00000000000E+00 -0.00000000000E+00 -0.66995334718E+02  0.66995334718E+02  0.00000000000E+00 0.  1.
         25    2    1    2    0    0  0.98007852543E+02  0.81623986606E+02  0.26619575206E+03  0.32058715580E+03  0.12509169316E+03 0.  0.
         23    2    1    2    0    0 -0.98007852543E+02 -0.81623986606E+02  0.10950397282E+03  0.18910323852E+03  0.86607738715E+02 0.  0.
          5    1    3    3  502    0 -0.23192298680E+02  0.12493299768E+02  0.93593090481E+01  0.28267195174E+02  0.41800000000E+01 0. -1.
         -5    1    3    3    0  502  0.12120015122E+03  0.69130686838E+02  0.25683644302E+03  0.29231996063E+03  0.41800000000E+01 0. -1.
        -11    1    4    4    0    0 -0.16172547237E+02 -0.40637840011E+02 -0.32733119018E+01  0.43860003371E+02  0.00000000000E+00 0.  1.
         11    1    4    4    0    0 -0.81835305306E+02 -0.40986146595E+02  0.11277728472E+03  0.14524323514E+03  0.00000000000E+00 0. -1.
</event>
<event>
 8    1  0.6637272E-009  0.1186547E+03  0.7561462E-02  0.1245333E+00
          2   -1    0    0  501    0  0.00000000000E+00  0.00000000000E+00  0.84893059588E+02  0.84893059588E+02  0.00000000000E+00 0. -1.
         -2   -1    0    0    0  501 -0.00000000000E+00 -0.00000000000E+00 -0.20378969048E+03  0.20378969048E+03  0.00000000000E+00 0.  1.
         25    2    1    2    0    0 -0.52863706257E+02  0.24748668589E+02 -0.12406759909E+02  0.13859452348E+03  0.12508975262E+03 0.  0.
         23    2    1    2    0    0  0.52863706257E+02 -0.24748668589E+02 -0.10648987099E+03  0.15008822659E+03  0.88200425748E+02 0.  0.
          5    1    3    3  502    0 -0.95402466096E+00 -0.46132545055E+02  0.10914088035E+02  0.47599491530E+02  0.41800000000E+01 0.  1.
         -5    1    3    3    0  502 -0.51909681596E+02  0.70881213644E+02 -0.23320847944E+02  0.90995031951E+02  0.41800000000E+01 0.  1.
        -11    1    4    4    0    0 -0.18113250290E+02 -0.26411409528E+02 -0.49921752932E+02  0.59311329484E+02  0.00000000000E+00 0. -1.
         11    1    4    4    0    0  0.70976956547E+02  0.16627409387E+01 -0.56568118055E+02  0.90776897107E+02  0.00000000000E+00 0.  1.
</event>
<event>
 8    1  0.6637272E-009  0.9828559E+02  0.7561462E-02  0.1283943E+00
         -2   -1    0    0    0  501 -0.00000000000E+00  0.00000000000E+00  0.28387194579E+02  0.28387194579E+02  0.00000000000E+00 0.  1.
          2   -1    0    0  501    0  0.00000000000E+00 -0.00000000000E+00 -0.77609820992E+03  0.77609820992E+03  0.00000000000E+00 0. -1.
         25    2    1    2    0    0 -0.65648704815E+02 -0.32662072538E+02 -0.58421361592E+03  0.60193838145E+03  0.12509077750E+03 0.  0.
         23    2    1    2    0    0  0.65648704815E+02  0.32662072538E+02 -0.16349739943E+03  0.20254702305E+03  0.94431634008E+02 0.  0.
          5    1    3    3  502    0 -0.36835018605E+02 -0.31381867449E+02 -0.56488184514E+03  0.56696614676E+03  0.41800000000E+01 0.  1.
         -5    1    3    3    0  502 -0.28813686210E+02 -0.12802050889E+01 -0.19331770776E+02  0.34972234693E+02  0.41800000000E+01 0.  1.
        -11    1    4    4    0    0 -0.82448542617E+01  0.43409897386E+02 -0.71607745388E+02  0.84143128135E+02  0.00000000000E+00 0.  1.
         11    1    4    4    0    0  0.73893559077E+02 -0.10747824848E+02 -0.91889654041E+02  0.11840389492E+03  0.00000000000E+00 0. -1.
</event>
<event>
 8    1  0.6637272E-009  0.9896124E+02  0.7561462E-02  0.1282496E+00
          1   -1    0    0  501    0  0.00000000000E+00  0.00000000000E+00  0.70216191505E+02  0.70216191505E+02  0.00000000000E+00 0. -1.
         -1   -1    0    0    0  501 -0.00000000000E+00 -0.00000000000E+00 -0.19470849686E+03  0.19470849686E+03  0.00000000000E+00 0.  1.
         25    2    1    2    0    0 -0.28686831515E+02 -0.84169673866E+01 -0.10326854616E+03  0.16493821936E+03  0.12508574634E+03 0.  0.
         23    2    1    2    0    0  0.28686831515E+02  0.84169673866E+01 -0.21223759194E+02  0.99986469007E+02  0.93021859731E+02 0.  0.
          5    1    3    3  502    0 -0.67770255201E+02 -0.11760043552E+01 -0.17216861184E+02  0.70057713246E+02  0.41800000000E+01 0. -1.
         -5    1    3    3    0  502  0.39083423685E+02 -0.72409630314E+01 -0.86051684980E+02  0.94880506114E+02  0.41800000000E+01 0. -1.
        -11    1    4    4    0    0 -0.39760953828E+01 -0.35272641662E+02 -0.27739226541E+02  0.45049231662E+02  0.00000000000E+00 0.  1.
         11    1    4    4    0    0  0.32662926898E+02  0.43689609048E+02  0.65154673465E+01  0.54937237345E+02  0.00000000000E+00 0. -1.
</event>
<event>
 8    1  0.6637272E-009  0.1180004E+03  0.7561462E-02  0.1246433E+00
         -2   -1    0    0    0  501 -0.00000000000E+00  0.00000000000E+00  0.56291609642E+02  0.56291609642E+02  0.00000000000E+00 0.  1.
          2   -1    0    0  501    0  0.00000000000E+00 -0.00000000000E+00 -0.47721833288E+03  0.47721833288E+03  0.00000000000E+00 0. -1.
         25    2    1    2    0    0  0.78630455129E+02 -0.54847273921E+02 -0.35101856650E+03  0.38477578010E+03  0.12508954788E+03 0.  0.
         23    2    1    2    0    0 -0.78630455129E+02  0.54847273921E+02 -0.69908156742E+02  0.14873416243E+03  0.89686837188E+02 0.  0.
          5    1    3    3  502    0  0.65153158422E+02 -0.62353726384E+02 -0.35659676293E+03  0.36784731205E+03  0.41800000000E+01 0. -1.
         -5    1    3    3    0  502  0.13477296707E+02  0.75064524636E+01  0.55781964304E+01  0.16928468050E+02  0.41800000000E+01 0. -1.
        -11    1    4    4    0    0 -0.33954389671E+02  0.73778383829E+02 -0.54566415157E+02  0.97845000697E+02  0.00000000000E+00 0. -1.
         11    1    4    4    0    0 -0.44676065459E+02 -0.18931109908E+02 -0.15341741585E+02  0.50889161735E+02  0.00000000000E+00 0.  1.
</event>
<event>
 8    1  0.6637272E-009  0.2227060E+03  0.7561462E-02  0.1131882E+00
         -1   -1    0    0    0  501 -0.00000000000E+00  0.00000000000E+00  0.90602983232E+03  0.90602983232E+03  0.00000000000E+00 0.  1.
          1   -1    0    0  501    0  0.00000000000E+00 -0.00000000000E+00 -0.61880736903E+02  0.61880736903E+02  0.00000000000E+00 0. -1.
         25    2    1    2    0    0  0.18351341971E+03 -0.10145125795E+03  0.38866863899E+03  0.45899867442E+03  0.12508772615E+03 0.  0.
         23    2    1    2    0    0 -0.18351341971E+03  0.10145125795E+03  0.45548045643E+03  0.50891189481E+03  0.86944450836E+02 0.  0.
          5    1    3    3  502    0  0.15750960462E+03 -0.37849446854E+02  0.33348340302E+03  0.37077015611E+03  0.41800000000E+01 0.  1.
         -5    1    3    3    0  502  0.26003815091E+02 -0.63601811091E+02  0.55185235966E+02  0.88228518304E+02  0.41800000000E+01 0.  1.
        -11    1    4    4    0    0 -0.10042181065E+03  0.29646000523E+02  0.30606223948E+03  0.32347723233E+03  0.00000000000E+00 0.  1.
         11    1    4    4    0    0 -0.83091609063E+02  0.71805257422E+02  0.14941821695E+03  0.18543466247E+03  0.00000000000E+00 0. -1.
</event>
<event>
 7    1  0.6637272E-009  0.1406081E+03  0.7561462E-02  0.1212513E+00
         -1   -1    0    0    0  501 -0.00000000000E+00  0.00000000000E+00  0.31027867712E+03  0.31027867712E+03  0.00000000000E+00 0.  1.
          1   -1    0    0  501    0  0.00000000000E+00 -0.00000000000E+00 -0.10585868672E+03  0.10585868672E+03  0.00000000000E+00 0. -1.
         23    2    1    2    0    0 -0.79178026796E+02 -0.92422665254E+02  0.18615585741E+03  0.24057999883E+03  0.91725806653E+02 0.  0.
          5    1    1    2  502    0  0.10120039904E+03  0.57674440053E+02  0.46496180706E+02  0.12548796365E+03  0.41800000000E+01 0. -1.
         -5    1    1    2    0  502 -0.22022372247E+02  0.34748225201E+02 -0.28232047720E+02  0.50069401359E+02  0.41800000000E+01 0. -1.
        -11    1    3    3    0    0 -0.15156759956E+02 -0.31388736964E+02  0.42158775745E+00  0.34859115261E+02  0.00000000000E+00 0. -1.
         11    1    3    3    0    0 -0.64021266840E+02 -0.61033928290E+02  0.18573426966E+03  0.20572088357E+03  0.00000000000E+00 0.  1.
</event>
<event>
 8    1  0.6637272E-009  0.8642179E+02  0.7561462E-02  0.1311756E+00
          2   -1    0    0  501    0  0.00000000000E+00  0.00000000000E+00  0.14517857636E+03  0.14517857636E+03  0.00000000000E+00 0. -1.
         -2   -1    0    0    0  501 -0.00000000000E+00 -0.00000000000E+00 -0.11675428170E+03  0.11675428170E+03  0.00000000000E+00 0.  1.
         25    2    1    2    0    0  0.72884420383E+02 -0.24563170576E+02  0.99263966722E+01  0.14716647524E+03  0.12507577704E+03 0.  0.
         23    2    1    2    0    0 -0.72884420383E+02  0.24563170576E+02  0.18497897984E+02  0.11476638281E+03  0.83148435408E+02 0.  0.
          5    1    3    3  502    0  0.64746462885E+02 -0.11467868066E+02  0.63352271531E+02  0.91403496444E+02  0.41800000000E+01 0.  1.
         -5    1    3    3    0  502  0.81379574985E+01 -0.13095302510E+02 -0.53425874858E+02  0.55762978798E+02  0.41800000000E+01 0.  1.
        -11    1    4    4    0    0 -0.20636365966E+02 -0.14943827717E+02 -0.25350215625E+02  0.35941772624E+02  0.00000000000E+00 0.  1.
         11    1    4    4    0    0 -0.52248054417E+02  0.39506998293E+02  0.43848113608E+02  0.78824610189E+02  0.00000000000E+00 0. -1.
</event>
<event>
 8    1  0.6637272E-009  0.6719653E+02  0.7561462E-02  0.1369894E+00
         -3   -1    0    0    0  501 -0.00000000000E+00  0.00000000000E+00  0.10119386325E+03  0.10119386325E+03  0.00000000000E+00 0.  1.
          3   -1    0    0  501    0  0.00000000000E+00 -0.00000000000E+00 -0.15457054477E+03  0.15457054477E+03  0.00000000000E+00 0. -1.
         25    2    1    2    0    0  0.17486356653E+02  0.30449696025E+02  0.23004036944E+02  0.13194110236E+03  0.12508521943E+03 0.  0.
         23    2    1    2    0    0 -0.17486356653E+02 -0.30449696025E+02 -0.76380718469E+02  0.12382330566E+03  0.90913366533E+02 0.  0.
          5    1    3    3  502    0  0.36194277081E+02  0.11780910924E-01 -0.43250341347E+02  0.56551660090E+02  0.41800000000E+01 0. -1.
         -5    1    3    3    0  502 -0.18707920429E+02  0.30437915114E+02  0.66254378291E+02  0.75389442272E+02  0.41800000000E+01 0. -1.
        -11    1    4    4    0    0  0.15747423633E+02  0.15855991829E+01 -0.76032173342E+02  0.77662003960E+02  0.00000000000E+00 0. -1.
         11    1    4    4    0    0 -0.33233780286E+02 -0.32035295208E+02 -0.34854512622E+00  0.46161301702E+02  0.00000000000E+00 0.  1.
</event>
<event>
 8    1  0.6637272E-009  0.1283327E+03  0.7561462E-02  0.1229951E+00
          1   -1    0    0  501    0  0.00000000000E+00  0.00000000000E+00  0.18068952636E+02  0.18068952636E+02  0.00000000000E+00 0. -1.
         -1   -1    0    0    0  501 -0.00000000000E+00 -0.00000000000E+00 -0.11010103251E+04  0.11010103251E+04  0.00000000000E+00 0.  1.
         25    2    1    2    0    0  0.86069567198E+02 -0.25131549985E+02 -0.60648850209E+03  0.62571182912E+03  0.12508966674E+03 0.  0.
         23    2    1    2    0    0 -0.86069567198E+02  0.25131549985E+02 -0.47645287035E+03  0.49336744860E+03  0.91457839837E+02 0.  0.
          5    1    3    3  502    0  0.98006643204E+02 -0.45615676793E+02 -0.57964643541E+03  0.58965545411E+03  0.41800000000E+01 0.  1.
         -5    1    3    3    0  502 -0.11937076006E+02  0.20484126809E+02 -0.26842066678E+02  0.36056375001E+02  0.41800000000E+01 0.  1.
        -11    1    4    4    0    0 -0.56527136051E+02  0.57467500320E+02 -0.24857365191E+03  0.26131722317E+03  0.00000000000E+00 0. -1.
         11    1    4    4    0    0 -0.29542431147E+02 -0.32335950335E+02 -0.22787921844E+03  0.23205022542E+03  0.00000000000E+00 0.  1.
</event>
<event>
 8    1  0.6637272E-009  0.9320211E+02  0.7561462E-02  0.1295278E+00
          1   -1    0    0  501    0  0.00000000000E+00  0.00000000000E+00  0.26504686903E+03  0.26504686903E+03  0.00000000000E+00 0. -1.
         -1   -1    0    0    0  501 -0.00000000000E+00 -0.00000000000E+00 -0.70616112818E+02  0.70616112818E+02  0.00000000000E+00 0.  1.
         25    2    1    2    0    0  0.72751067960E+02  0.63031793588E+01  0.56652865902E+02  0.15552614613E+03  0.12508551857E+03 0.  0.
         23    2    1    2    0    0 -0.72751067960E+02 -0.63031793588E+01  0.13777789031E+03  0.18013683573E+03  0.90189159916E+02 0.  0.
          5    1    3    3  502    0  0.80586836649E+02  0.87483138005E+01 -0.15629600620E+02  0.82659107489E+02  0.41800000000E+01 0.  1.
         -5    1    3    3    0  502 -0.78357686886E+01 -0.24451344417E+01  0.72282466522E+02  0.72867038638E+02  0.41800000000E+01 0.  1.
        -11    1    4    4    0    0  0.87587890115E+01 -0.11376015618E+02  0.77021442412E+02  0.78348150632E+02  0.00000000000E+00 0. -1.
         11    1    4    4    0    0 -0.81509856972E+02  0.50728362595E+01  0.60756447902E+02  0.10178868509E+03  0.00000000000E+00 0.  1.
</event>
<event>
 8    1  0.6637272E-009  0.1217476E+03  0.7561462E-02  0.1240242E+00
          1   -1    0    0  501    0  0.00000000000E+00  0.00000000000E+00  0.10598625808E+04  0.10598625808E+04  0.00000000000E+00 0. -1.
         -1   -1    0    0    0  501 -0.00000000000E+00 -0.00000000000E+00 -0.17134061175E+02  0.17134061175E+02  0.00000000000E+00 0.  1.
         25    2    1    2    0    0  0.65922360126E+02  0.29031068792E+02  0.70689856608E+03  0.72148524878E+03  0.12508725342E+03 0.  0.
         23    2    1    2    0    0 -0.65922360126E+02 -0.29031068792E+02  0.33582995354E+03  0.35551139318E+03  0.91749836350E+02 0.  0.
          5    1    3    3  502    0 -0.23432178755E+02 -0.28678412037E+02  0.15538669449E+03  0.15979366553E+03  0.41800000000E+01 0. -1.
         -5    1    3    3    0  502  0.89354538882E+02  0.57709480830E+02  0.55151187159E+03  0.56169158325E+03  0.41800000000E+01 0. -1.
        -11    1    4    4    0    0 -0.11593123952E+02 -0.42289786313E+02  0.24464210978E+03  0.24854091902E+03  0.00000000000E+00 0. -1.
         11    1    4    4    0    0 -0.54329236175E+02  0.13258717520E+02  0.91187843754E+02  0.10697047416E+03  0.00000000000E+00 0.  1.
</event>
<event>
 8    1  0.6637272E-009  0.7696018E+02  0.7561462E-02  0.1337906E+00
          1   -1    0    0  501    0  0.00000000000E+00  0.00000000000E+00  0.52141338228E+03  0.52141338228E+03  0.00000000000E+00 0. -1.
         -1   -1    0    0    0  501 -0.00000000000E+00 -0.00000000000E+00 -0.29328469300E+02  0.29328469300E+02  0.00000000000E+00 0.  1.
         25    2    1    2    0    0 -0.56593279265E+02  0.84352391416E+01  0.25822043128E+03  0.29257393652E+03  0.12509102559E+03 0.  0.
         23    2    1    2    0    0  0.56593279265E+02 -0.84352391416E+01  0.23386448169E+03  0.25816791505E+03  0.93188647632E+02 0.  0.
          5    1    3    3  502    0 -0.25385731295E+02  0.94217048266E+00  0.25892397427E+03  0.26020072999E+03  0.41800000000E+01 0. -1.
         -5    1    3    3    0  502 -0.31207547970E+02  0.74930686590E+01 -0.70354298698E+00  0.32373206529E+02  0.41800000000E+01 0. -1.
        -11    1    4    4    0    0  0.32767936224E+01  0.29940134237E+02  0.14244391798E+03  0.14559333358E+03  0.00000000000E+00 0. -1.
         11    1    4    4    0    0  0.53316485642E+02 -0.38375373379E+02  0.91420563715E+02  0.11257458147E+03  0.00000000000E+00 0.  1.
</event>
<event>
 8    1  0.6637272E-009  0.1094021E+03  0.7561462E-02  0.1261681E+00
         -2   -1    0    0    0  501 -0.00000000000E+00  0.00000000000E+00  0.39241593411E+03  0.39241593411E+03  0.00000000000E+00 0.  1.
          2   -1    0    0  501    0  0.00000000000E+00 -0.00000000000E+00 -0.41379788432E+02  0.41379788432E+02  0.00000000000E+00 0. -1.
         25    2    1    2    0    0 -0.15091910941E+02  0.57069644519E+02  0.13282153865E+03  0.19176241657E+03  0.12508618300E+03 0.  0.
         23    2    1    2    0    0  0.15091910941E+02 -0.57069644519E+02  0.21821460703E+03  0.24203330598E+03  0.86474252687E+02 0.  0.
          5    1    3    3  502    0 -0.65636447902E+02  0.25831050107E+02  0.39219941331E+02  0.80814990199E+02  0.41800000000E+01 0. -1.
         -5    1    3    3    0  502  0.50544536961E+02  0.31238594412E+02  0.93601597316E+02  0.11094742637E+03  0.41800000000E+01 0. -1.
        -11    1    4    4    0    0  0.31740206831E+02 -0.28588794382E+01  0.24526570370E+02  0.40214009691E+02  0.00000000000E+00 0. -1.
         11    1    4    4    0    0 -0.16648295890E+02 -0.54210765081E+02  0.19368803666E+03  0.20181929628E+03  0.00000000000E+00 0.  1.
</event>
<event>
 8    1  0.6637272E-009  0.1167663E+03  0.7561462E-02  0.1248529E+00
         -1   -1    0    0    0  501 -0.00000000000E+00  0.00000000000E+00  0.19919851942E+02  0.19919851942E+02  0.00000000000E+00 0.  1.
          1   -1    0    0  501    0  0.00000000000E+00 -0.00000000000E+00 -0.14101161086E+04  0.14101161086E+04  0.00000000000E+00 0. -1.
         25    2    1    2    0    0 -0.10220678295E+03  0.89187509102E+01 -0.10674204023E+04  0.10796108985E+04  0.12509039287E+03 0.  0.
         23    2    1    2    0    0  0.10220678295E+03 -0.89187509102E+01 -0.32277585437E+03  0.35042506202E+03  0.89931648092E+02 0.  0.
          5    1    3    3  502    0 -0.30927198304E+02 -0.96494444274E+00 -0.45682216500E+02  0.55333172844E+02  0.41800000000E+01 0. -1.
         -5    1    3    3    0  502 -0.71279584647E+02  0.98836953529E+01 -0.10217381858E+04  0.10242777256E+04  0.41800000000E+01 0. -1.
        -11    1    4    4    0    0  0.97591428829E+02 -0.35046937311E+02 -0.20543085302E+03  0.23011781802E+03  0.00000000000E+00 0. -1.
         11    1    4    4    0    0  0.46153541227E+01  0.26128186401E+02 -0.11734500134E+03  0.12030724400E+03  0.00000000000E+00 0.  1.
</event>
<event>
 7    1  0.6637272E-009  0.1780615E+03  0.7561462E-02  0.1169692E+00
         -3   -1    0    0    0  501 -0.00000000000E+00  0.00000000000E+00  0.80599926846E+02  0.80599926846E+02  0.00000000000E+00 0.  1.
          3   -1    0    0  501    0  0.00000000000E+00 -0.00000000000E+00 -0.46190259834E+03  0.46190259834E+03  0.00000000000E+00 0. -1.
         25    2    1    2    0    0 -0.65632096290E+01  0.12660607012E+03 -0.14432241731E+03  0.22925874916E+03  0.12513369336E+03 0.  0.
          5    1    3    3  502    0  0.40419247124E+02  0.33693333617E+02 -0.10566986144E+03  0.11812090537E+03  0.41800000000E+01 0. -1.
         -5    1    3    3    0  502 -0.46982456753E+02  0.92912736499E+02 -0.38652555876E+02  0.11113784379E+03  0.41800000000E+01 0. -1.
        -11    1    1    2    0    0  0.73121540977E+02 -0.10727910898E+03 -0.11744027129E+03  0.17506508589E+03  0.00000000000E+00 0.  1.
         11    1    1    2    0    0 -0.66558331348E+02 -0.19326961136E+02 -0.11953998290E+03  0.13817869014E+03  0.00000000000E+00 0. -1.
</event>
<event>
 8    1  0.6637272E-009  0.1358181E+03  0.7561462E-02  0.1219069E+00
         -2   -1    0    0    0  501 -0.00000000000E+00  0.00000000000E+00  0.23818238570E+03  0.23818238570E+03  0.00000000000E+00 0.  1.
          2   -1    0    0  501    0  0.00000000000E+00 -0.00000000000E+00 -0.96958699531E+02  0.96958699531E+02  0.00000000000E+00 0. -1.
         25    2    1    2    0    0  0.92605396253E+02 -0.93004338401E+01  0.13150163866E+03  0.20396595585E+03  0.12508865933E+03 0.  0.
         23    2    1    2    0    0 -0.92605396253E+02  0.93004338401E+01  0.97220475175E+01  0.13117512938E+03  0.91924636932E+02 0.  0.
          5    1    3    3  502    0  0.12246356159E+03 -0.13772599627E+02  0.11785742292E+03  0.17057213417E+03  0.41800000000E+01 0.  1.
         -5    1    3    3    0  502 -0.29858165334E+02  0.44721657870E+01  0.13644215738E+02  0.33393821690E+02  0.41800000000E+01 0.  1.
        -11    1    4    4    0    0 -0.96667069988E+02  0.26455004623E+02  0.29701421927E+02  0.10453020690E+03  0.00000000000E+00 0.  1.
         11    1    4    4    0    0  0.40616737346E+01 -0.17154570782E+02 -0.19979374410E+02  0.26644922482E+02  0.00000000000E+00 0. -1.
</event>
<event>
 8    1  0.6637272E-009  0.1143432E+03  0.7561462E-02  0.1252732E+00
          4   -1    0    0  501    0  0.00000000000E+00  0.00000000000E+00  0.26103624777E+03  0.26103624777E+03  0.00000000000E+00 0. -1.
         -4   -1    0    0    0  501 -0.00000000000E+00 -0.00000000000E+00 -0.57476652280E+02  0.57476652280E+02  0.00000000000E+00 0.  1.
         25    2    1    2    0    0  0.39123545897E+02  0.39349998924E+02  0.10806509022E+03  0.17437176677E+03  0.12509346531E+03 0.  0.
         23    2    1    2    0    0 -0.39123545897E+02 -0.39349998924E+02  0.95494505270E+02  0.14414113328E+03  0.92619606492E+02 0.  0.
          5    1    3    3  502    0 -0.30963939820E+02  0.39795356521E+02  0.87727832416E+02  0.10127231088E+03  0.41800000000E+01 0. -1.
         -5    1    3    3    0  502  0.70087485717E+02 -0.44535759723E+00  0.20337257806E+02  0.73099455898E+02  0.41800000000E+01 0. -1.
        -11    1    4    4    0    0  0.12736911807E+02 -0.52789113478E+02  0.45090371845E+02  0.70583716658E+02  0.00000000000E+00 0. -1.
         11    1    4    4    0    0 -0.51860457704E+02  0.13439114554E+02  0.50404133425E+02  0.73557416618E+02  0.00000000000E+00 0.  1.
</event>
<event>
 8    1  0.6637272E-009  0.1304598E+03  0.7561462E-02  0.1226775E+00
         -2   -1    0    0    0  501 -0.00000000000E+00  0.00000000000E+00  0.23981068452E+03  0.23981068452E+03  0.00000000000E+00 0.  1.
          2   -1    0    0  501    0  0.00000000000E+00 -0.00000000000E+00 -0.11596037638E+03  0.11596037638E+03  0.00000000000E+00 0. -1.
         25    2    1    2    0    0 -0.94488357259E+01  0.12516899218E+03  0.65332905500E+02  0.18886989114E+03  0.12508752990E+03 0.  0.
         23    2    1    2    0    0  0.94488357259E+01 -0.12516899218E+03  0.58517402645E+02  0.16690116976E+03  0.93140522628E+02 0.  0.
          5    1    3    3  502    0  0.15387581349E+02  0.20663858268E+02 -0.33756488199E+02  0.42670195614E+02  0.41800000000E+01 0.  1.
         -5    1    3    3    0  502 -0.24836417074E+02  0.10450513391E+03  0.99089393699E+02  0.14619969552E+03  0.41800000000E+01 0.  1.
        -11    1    4    4    0    0 -0.69261478491E+01 -0.39218038902E+02  0.68090818122E+02  0.78882099439E+02  0.00000000000E+00 0.  1.
         11    1    4    4    0    0  0.16374983575E+02 -0.85950953276E+02 -0.95734154779E+01  0.88019070320E+02  0.00000000000E+00 0. -1.
</event>
<event>
 8    1  0.6637272E-009  0.1008645E+03  0.7561462E-02  0.1278488E+00
         -3   -1    0    0    0  501 -0.00000000000E+00  0.00000000000E+00  0.11008047920E+03  0.11008047920E+03  0.00000000000E+00 0.  1.
          3   -1    0    0  501    0  0.00000000000E+00 -0.00000000000E+00 -0.15753277598E+03  0.15753277598E+03  0.00000000000E+00 0. -1.
         25    2    1    2    0    0  0.75085493082E+02  0.25528911791E+01 -0.21022738097E+02  0.14741784391E+03  0.12508283919E+03 0.  0.
         23    2    1    2    0    0 -0.75085493082E+02 -0.25528911791E+01 -0.26429558690E+02  0.12019541127E+03  0.90022590465E+02 0.  0.
          5    1    3    3  502    0  0.12324945444E+02  0.27390094058E+02 -0.61523963407E+02  0.68591486396E+02  0.41800000000E+01 0.  1.
         -5    1    3    3    0  502  0.62760547638E+02 -0.24837202879E+02  0.40501225310E+02  0.78826357510E+02  0.41800000000E+01 0.  1.
        -11    1    4    4    0    0 -0.36628856121E+01  0.26442187786E+02 -0.33445994019E+02  0.42792996411E+02  0.00000000000E+00 0. -1.
         11    1    4    4    0    0 -0.71422607470E+02 -0.28995078965E+02  0.70164353287E+01  0.77402414863E+02  0.00000000000E+00 0.  1.
</event>
<event>
 8    1  0.6637272E-009  0.1064651E+03  0.7561462E-02  0.1267260E+00
          1   -1    0    0  501    0  0.00000000000E+00  0.00000000000E+00  0.70626465121E+03  0.70626465121E+03  0.00000000000E+00 0. -1.
         -1   -1    0    0    0  501 -0.00000000000E+00 -0.00000000000E+00 -0.19335864935E+02  0.19335864935E+02  0.00000000000E+00 0.  1.
         25    2    1    2    0    0  0.33657929028E+02 -0.33307608567E+01  0.47620882580E+03  0.49352585884E+03  0.12509587293E+03 0.  0.
         23    2    1    2    0    0 -0.33657929028E+02  0.33307608567E+01  0.21071996048E+03  0.23207465730E+03  0.91169044440E+02 0.  0.
          5    1    3    3  502    0 -0.40343068089E+02  0.59589676992E+01  0.75477172496E+02  0.85891492052E+02  0.41800000000E+01 0.  1.
         -5    1    3    3    0  502  0.74000997117E+02 -0.92897285559E+01  0.40073165330E+03  0.40763436679E+03  0.41800000000E+01 0.  1.
        -11    1    4    4    0    0  0.12600123333E+01 -0.40880280413E+02  0.87625079845E+02  0.96700256336E+02  0.00000000000E+00 0. -1.
         11    1    4    4    0    0 -0.34917941362E+02  0.44211041269E+02  0.12309488063E+03  0.13537440097E+03  0.00000000000E+00 0.  1.
</event>
<event>
 8    1  0.6637272E-009  0.1021984E+03  0.7561462E-02  0.1275740E+00
          2   -1    0    0  501    0  0.00000000000E+00  0.00000000000E+00  0.50770324386E+03  0.50770324386E+03  0.00000000000E+00 0. -1.
         -2   -1    0    0    0  501 -0.00000000000E+00 -0.00000000000E+00 -0.25798664235E+02  0.25798664235E+02  0.00000000000E+00 0.  1.
         25    2    1    2    0    0  0.86054885417E+01 -0.13723395015E+02  0.19653331403E+03  0.23352726304E+03  0.12508898056E+03 0.  0.
         23    2    1    2    0    0 -0.86054885417E+01  0.13723395015E+02  0.28537126560E+03  0.29997464506E+03  0.91025504354E+02 0.  0.
          5    1    3    3  502    0  0.28362687549E+02  0.43041559918E+02  0.14600716372E+03  0.15489539109E+03  0.41800000000E+01 0. -1.
         -5    1    3    3    0  502 -0.19757199007E+02 -0.56764954932E+02  0.50526150314E+02  0.78631871952E+02  0.41800000000E+01 0. -1.
        -11    1    4    4    0    0 -0.49061495403E+02 -0.18120222296E+01  0.14814072917E+03  0.15606405542E+03  0.00000000000E+00 0. -1.
         11    1    4    4    0    0  0.40456006861E+02  0.15535417245E+02  0.13723053643E+03  0.14391058963E+03  0.00000000000E+00 0.  1.
</event>
<event>
 8    1  0.6637272E-009  0.1340682E+03  0.7561462E-02  0.1221541E+00
         -2   -1    0    0    0  501 -0.00000000000E+00  0.00000000000E+00  0.46397999192E+02  0.46397999192E+02  0.00000000000E+00 0.  1.
          2   -1    0    0  501    0  0.00000000000E+00 -0.00000000000E+00 -0.44403392921E+03  0.44403392921E+03  0.00000000000E+00 0. -1.
         25    2    1    2    0    0 -0.70779387959E+02 -0.60544183210E+02 -0.24302094556E+03  0.28875792393E+03  0.12508652513E+03 0.  0.
         23    2    1    2    0    0  0.70779387959E+02  0.60544183210E+02 -0.15461498446E+03  0.20167400448E+03  0.89951602442E+02 0.  0.
          5    1    3    3  502    0 -0.61483569586E+02 -0.97773749516E+02 -0.16187585961E+03  0.19889997925E+03  0.41800000000E+01 0. -1.
         -5    1    3    3    0  502 -0.92958183732E+01  0.37229566307E+02 -0.81145085951E+02  0.89857944672E+02  0.41800000000E+01 0. -1.
        -11    1    4    4    0    0  0.83145181155E+02  0.57895268106E+02 -0.89012365541E+02  0.13486357714E+03  0.00000000000E+00 0.  1.
         11    1    4    4    0    0 -0.12365793196E+02  0.26489151031E+01 -0.65602618918E+02  0.66810427341E+02  0.00000000000E+00 0. -1.
</event>
<event>
 8    1  0.6637272E-009  0.1176646E+03  0.7561462E-02  0.1247000E+00
         -4   -1    0    0    0  501 -0.00000000000E+00  0.00000000000E+00  0.73778081854E+02  0.73778081854E+02  0.00000000000E+00 0.  1.
          4   -1    0    0  501    0  0.00000000000E+00 -0.00000000000E+00 -0.32045637175E+03  0.32045637175E+03  0.00000000000E+00 0. -1.
         25    2    1    2    0    0 -0.12863896813E+02 -0.10305639954E+03 -0.17856014137E+03  0.24149235103E+03  0.12509488476E+03 0.  0.
         23    2    1    2    0    0  0.12863896813E+02  0.10305639954E+03 -0.68118148527E+02  0.15274210257E+03  0.88904254182E+02 0.  0.
          5    1    3    3  502    0 -0.26452998386E+02 -0.84088726905E+02 -0.19405038806E+03  0.21317528145E+03  0.41800000000E+01 0. -1.
         -5    1    3    3    0  502  0.13589101573E+02 -0.18967672637E+02  0.15490246692E+02  0.28317069577E+02  0.41800000000E+01 0. -1.
        -11    1    4    4    0    0  0.13032625965E+02 -0.59789553489E+01  0.10961541887E+02  0.18048618982E+02  0.00000000000E+00 0.  1.
         11    1    4    4    0    0 -0.16872915229E+00  0.10903535489E+03 -0.79079690414E+02  0.13469348359E+03  0.00000000000E+00 0. -1.
</event>
<event>
 8    1  0.6637272E-009  0.3604821E+03  0.7561462E-02  0.1058393E+00
         -2   -1    0    0    0  501 -0.00000000000E+00  0.00000000000E+00  0.67563528883E+02  0.67563528883E+02  0.00000000000E+00 0.  1.
          2   -1    0    0  501    0  0.00000000000E+00 -0.00000000000E+00 -0.21669422345E+04  0.21669422345E+04  0.00000000000E+00 0. -1.
         25    2    1    2    0    0 -0.34377633332E+03 -0.99574596661E+02 -0.82890322721E+03  0.91149365987E+03  0.12507143663E+03 0.  0.
         23    2    1    2    0    0  0.34377633332E+03  0.99574596661E+02 -0.12704754784E+04  0.13230121035E+04  0.90309562910E+02 0.  0.
          5    1    3    3  502    0 -0.17549081148E+03 -0.82094075597E+02 -0.30902081002E+03  0.36475717345E+03  0.41800000000E+01 0.  1.
         -5    1    3    3    0  502 -0.16828552184E+03 -0.17480521064E+02 -0.51988241719E+03  0.54673648642E+03  0.41800000000E+01 0.  1.
        -11    1    4    4    0    0  0.15315864782E+03  0.46613906054E+02 -0.41144577980E+03  0.44149525179E+03  0.00000000000E+00 0.  1.
         11    1    4    4    0    0  0.19061768549E+03  0.52960690607E+02 -0.85902969862E+03  0.88151685173E+03  0.00000000000E+00 0. -1.
</event>
<event>
 7    1  0.6637272E-009  0.1045857E+03  0.7561462E-02  0.1270938E+00
         -3   -1    0    0    0  501 -0.00000000000E+00  0.00000000000E+00  0.58769689250E+02  0.58769689250E+02  0.00000000000E+00 0.  1.
          3   -1    0    0  501    0  0.00000000000E+00 -0.00000000000E+00 -0.21214001851E+03  0.21214001851E+03  0.00000000000E+00 0. -1.
         25    2    1    2    0    0  0.62477575165E+02  0.18080355931E+02 -0.14245928796E+03  0.20042904377E+03  0.12508719435E+03 0.  0.
          5    1    3    3  502    0 -0.29133418450E+02  0.36938195335E+02 -0.43727081783E+02  0.64363937313E+02  0.41800000000E+01 0. -1.
         -5    1    3    3    0  502  0.91610993615E+02 -0.18857839404E+02 -0.98732206175E+02  0.13606510645E+03  0.41800000000E+01 0. -1.
        -11    1    1    2    0    0 -0.23189623895E+02  0.35622416921E+01 -0.10296880616E+02  0.25621748041E+02  0.00000000000E+00 0.  1.
         11    1    1    2    0    0 -0.39287951269E+02 -0.21642597623E+02 -0.61416068353E+00  0.44858915950E+02  0.00000000000E+00 0. -1.
</event>
<event>
 8    1  0.6637272E-009  0.1019598E+03  0.7561462E-02  0.1276228E+00
          2   -1    0    0  501    0  0.00000000000E+00  0.00000000000E+00  0.30228276858E+02  0.30228276858E+02  0.00000000000E+00 0. -1.
         -2   -1    0    0    0  501 -0.00000000000E+00 -0.00000000000E+00 -0.56601043715E+03  0.56601043715E+03  0.00000000000E+00 0.  1.
         25    2    1    2    0    0 -0.60870517500E+02  0.31844926732E+02 -0.26686699564E+03  0.30263018587E+03  0.12509083411E+03 0.  0.
         23    2    1    2    0    0  0.60870517500E+02 -0.31844926732E+02 -0.26891516465E+03  0.29360852813E+03  0.95766814487E+02 0.  0.
          5    1    3    3  502    0 -0.50098140855E+02 -0.15190202176E+02 -0.29221522534E+02  0.60099382181E+02  0.41800000000E+01 0. -1.
         -5    1    3    3    0  502 -0.10772376645E+02  0.47035128907E+02 -0.23764547311E+03  0.24253080369E+03  0.41800000000E+01 0. -1.
        -11    1    4    4    0    0  0.54700823909E+02  0.14198782367E+02 -0.21564654470E+03  0.22292872806E+03  0.00000000000E+00 0.  1.
         11    1    4    4    0    0  0.61696935917E+01 -0.46043709098E+02 -0.53268619952E+02  0.70679800071E+02  0.00000000000E+00 0. -1.
</event>
<event>
 8    1  0.6637272E-009  0.1074072E+03  0.7561462E-02  0.1265448E+00
         -1   -1    0    0    0  501 -0.00000000000E+00  0.00000000000E+00  0.58340762506E+03  0.58340762506E+03  0.00000000000E+00 0.  1.
          1   -1    0    0  501    0  0.00000000000E+00 -0.00000000000E+00 -0.55677300319E+02  0.55677300319E+02  0.00000000000E+00 0. -1.
         25    2    1    2    0    0  0.83055367799E+02 -0.43349068540E+02  0.86257549099E+02  0.17850857618E+03  0.12509041183E+03 0.  0.
         23    2    1    2    0    0 -0.83055367799E+02  0.43349068540E+02  0.44147277564E+03  0.46057634920E+03  0.91951215012E+02 0.  0.
          5    1    3    3  502    0  0.68660567632E+02 -0.39679372900E+02 -0.10879462438E+02  0.80153361029E+02  0.41800000000E+01 0. -1.
         -5    1    3    3    0  502  0.14394800167E+02 -0.36696956400E+01  0.97137011536E+02  0.98355215155E+02  0.41800000000E+01 0. -1.
        -11    1    4    4    0    0 -0.90294683057E+02  0.55383525606E+02  0.42869977825E+03  0.44159253228E+03  0.00000000000E+00 0.  1.
         11    1    4    4    0    0  0.72393152576E+01 -0.12034457066E+02  0.12772997398E+02  0.18983816919E+02  0.00000000000E+00 0. -1.
</event>
<event>
 8    1  0.6637272E-009  0.8776798E+02  0.7561462E-02  0.1308349E+00
         -1   -1    0    0    0  501 -0.00000000000E+00  0.00000000000E+00  0.11463502373E+03  0.11463502373E+03  0.00000000000E+00 0.  1.
          1   -1    0    0  501    0  0.00000000000E+00 -0.00000000000E+00 -0.10774309747E+03  0.10774309747E+03  0.00000000000E+00 0. -1.
         25    2    1    2    0    0  0.11309272840E+02  0.21525425101E+02  0.12877687530E+02  0.12807917736E+03  0.12508875752E+03 0.  0.
         23    2    1    2    0    0 -0.11309272840E+02 -0.21525425101E+02 -0.59857612632E+01  0.94298943840E+02  0.90913243774E+02 0.  0.
          5    1    3    3  502    0 -0.35219169718E+01 -0.34325646037E+02 -0.37623200503E+02  0.51221396810E+02  0.41800000000E+01 0. -1.
         -5    1    3    3    0  502  0.14831189812E+02  0.55851071138E+02  0.50500888034E+02  0.76857780548E+02  0.41800000000E+01 0. -1.
        -11    1    4    4    0    0 -0.19831217869E+02 -0.49644056631E+02  0.17960627493E+02  0.56394979395E+02  0.00000000000E+00 0.  1.
         11    1    4    4    0    0  0.85219450286E+01  0.28118631530E+02 -0.23946388756E+02  0.37903964445E+02  0.00000000000E+00 0. -1.
</event>
<event>
 8    1  0.6637272E-009  0.1371165E+03  0.7561462E-02  0.1217262E+00
         -1   -1    0    0    0  501 -0.00000000000E+00  0.00000000000E+00  0.32850903110E+02  0.32850903110E+02  0.00000000000E+00 0.  1.
          1   -1    0    0  501    0  0.00000000000E+00 -0.00000000000E+00 -0.75739631267E+03  0.75739631267E+03  0.00000000000E+00 0. -1.
         25    2    1    2    0    0  0.89632341625E+02 -0.60964203971E+02 -0.48629131764E+03  0.51368992350E+03  0.12508997187E+03 0.  0.
         23    2    1    2    0    0 -0.89632341625E+02  0.60964203971E+02 -0.23825409192E+03  0.27655729228E+03  0.89265518348E+02 0.  0.
          5    1    3    3  502    0  0.54360053738E+02 -0.83897594870E+02 -0.19326949517E+03  0.21763361880E+03  0.41800000000E+01 0.  1.
         -5    1    3    3    0  502  0.35272287886E+02  0.22933390899E+02 -0.29302182246E+03  0.29605630470E+03  0.41800000000E+01 0.  1.
        -11    1    4    4    0    0 -0.70251736813E+02  0.78792793672E+02 -0.14308150568E+03  0.17780868406E+03  0.00000000000E+00 0.  1.
         11    1    4    4    0    0 -0.19380604811E+02 -0.17828589701E+02 -0.95172586243E+02  0.98748608222E+02  0.00000000000E+00 0. -1.
</event>
<event>
 8    1  0.6637272E-009  0.1127149E+03  0.7561462E-02  0.1255623E+00
          2   -1    0    0  501    0  0.00000000000E+00  0.00000000000E+00  0.37906637317E+03  0.37906637317E+03  0.00000000000E+00 0. -1.
         -2   -1    0    0    0  501 -0.00000000000E+00 -0.00000000000E+00 -0.49539556599E+02  0.49539556599E+02  0.00000000000E+00 0.  1.
         25    2    1    2    0    0 -0.22207635972E+02  0.74216462047E+02  0.21265540963E+03  0.25859467776E+03  0.12509045440E+03 0.  0.
         23    2    1    2    0    0  0.22207635972E+02 -0.74216462047E+02  0.11687140693E+03  0.17001125201E+03  0.96143838687E+02 0.  0.
          5    1    3    3  502    0 -0.45439797635E+02  0.61221274664E+02  0.44672363942E+02  0.88464185865E+02  0.41800000000E+01 0.  1.
         -5    1    3    3    0  502  0.23232161662E+02  0.12995187383E+02  0.16798304569E+03  0.17013049189E+03  0.41800000000E+01 0.  1.
        -11    1    4    4    0    0  0.54276930469E+02 -0.71745258937E+02  0.96540984014E+02  0.13196033099E+03  0.00000000000E+00 0.  1.
         11    1    4    4    0    0 -0.32069294496E+02 -0.24712031098E+01  0.20330422919E+02  0.38050921018E+02  0.00000000000E+00 0. -1.
</event>
<event>
 8    1  0.6637272E-009  0.1423146E+03  0.7561462E-02  0.1210248E+00
         -1   -1    0    0    0  501 -0.00000000000E+00  0.00000000000E+00  0.73652514524E+02  0.73652514524E+02  0.00000000000E+00 0.  1.
          1   -1    0    0  501    0  0.00000000000E+00 -0.00000000000E+00 -0.28615550469E+03  0.28615550469E+03  0.00000000000E+00 0. -1.
         25    2    1    2    0    0  0.32789798329E+02 -0.89293736270E+02 -0.99874005932E+02  0.18618701566E+03  0.12506896310E+03 0.  0.
         23    2    1    2    0    0 -0.32789798329E+02  0.89293736270E+02 -0.11262898423E+03  0.17362100355E+03  0.91708356064E+02 0.  0.
          5    1    3    3  502    0 -0.39532569143E+02 -0.71349726421E+02 -0.61675738632E+02  0.10234733323E+03  0.41800000000E+01 0. -1.
         -5    1    3    3    0  502  0.72322367472E+02 -0.17944009849E+02 -0.38198267301E+02  0.83839682436E+02  0.41800000000E+01 0. -1.
        -11    1    4    4    0    0  0.20316839108E+02  0.68226810954E+02 -0.82716633794E+02  0.10913163240E+03  0.00000000000E+00 0.  1.
         11    1    4    4    0    0 -0.53106637437E+02  0.21066925316E+02 -0.29912350438E+02  0.64489371146E+02  0.00000000000E+00 0. -1.
</event>
<event>
 8    1  0.6637272E-009  0.1306615E+03  0.7561462E-02  0.1226477E+00
          2   -1    0    0  501    0  0.00000000000E+00  0.00000000000E+00  0.18341975299E+03  0.18341975299E+03  0.00000000000E+00 0. -1.
         -2   -1    0    0    0  501 -0.00000000000E+00 -0.00000000000E+00 -0.14314034658E+03  0.14314034658E+03  0.00000000000E+00 0.  1.
         25    2    1    2    0    0  0.11636085872E+03  0.20162676795E+02 -0.96829443183E+00  0.17203090818E+03  0.12508921936E+03 0.  0.
         23    2    1    2    0    0 -0.11636085872E+03 -0.20162676795E+02  0.41247700850E+02  0.15452919138E+03  0.90727698012E+02 0.  0.
          5    1    3    3  502    0  0.53768724516E+02 -0.29293328049E+02 -0.49250688548E+02  0.78691025706E+02  0.41800000000E+01 0. -1.
         -5    1    3    3    0  502  0.62592134205E+02  0.49456004844E+02  0.48282394116E+02  0.93339882478E+02  0.41800000000E+01 0. -1.
        -11    1    4    4    0    0 -0.62086880028E+02 -0.21706691045E+02  0.67477625258E+02  0.94229459397E+02  0.00000000000E+00 0. -1.
         11    1    4    4    0    0 -0.54273978693E+02  0.15440142500E+01 -0.26229924409E+02  0.60299731987E+02  0.00000000000E+00 0.  1.
</event>
<event>
 8    1  0.6637272E-009  0.1119713E+03  0.7561462E-02  0.1256962E+00
         -1   -1    0    0    0  501 -0.00000000000E+00  0.00000000000E+00  0.13608374996E+03  0.13608374996E+03  0.00000000000E+00 0.  1.
          1   -1    0    0  501    0  0.00000000000E+00 -0.00000000000E+00 -0.15706262967E+03  0.15706262967E+03  0.00000000000E+00 0. -1.
         25    2    1    2    0    0  0.92982060481E+02  0.57064477632E+01  0.18579386257E+02  0.15708120363E+03  0.12510429179E+03 0.  0.
         23    2    1    2    0    0 -0.92982060481E+02 -0.57064477632E+01 -0.39558265963E+02  0.13606517599E+03  0.90943106361E+02 0.  0.
          5    1    3    3  502    0  0.13330829991E+02  0.36017238386E+02 -0.38407215239E+02  0.54475123420E+02  0.41800000000E+01 0. -1.
         -5    1    3    3    0  502  0.79651230490E+02 -0.30310790623E+02  0.56986601496E+02  0.10260608021E+03  0.41800000000E+01 0. -1.
        -11    1    4    4    0    0 -0.71638049141E+02 -0.19901721021E+02  0.14942008120E+02  0.75837670000E+02  0.00000000000E+00 0.  1.
         11    1    4    4    0    0 -0.21344011339E+02  0.14195273258E+02 -0.54500274084E+02  0.60227505993E+02  0.00000000000E+00 0. -1.
</event>
<event>
 8    1  0.6637272E-009  0.1324430E+03  0.7561462E-02  0.1223875E+00
          4   -1    0    0  501    0  0.00000000000E+00  0.00000000000E+00  0.23207564628E+03  0.23207564628E+03  0.00000000000E+00 0. -1.
         -4   -1    0    0    0  501 -0.00000000000E+00 -0.00000000000E+00 -0.12529864650E+03  0.12529864650E+03  0.00000000000E+00 0.  1.
         25    2    1    2    0    0  0.11191576662E+03 -0.67540492069E+02  0.78650429520E+02  0.19728169142E+03  0.12508924342E+03 0.  0.
         23    2    1    2    0    0 -0.11191576662E+03  0.67540492069E+02  0.28126570257E+02  0.16009260135E+03  0.88043626495E+02 0.  0.
          5    1    3    3  502    0  0.60355552414E+02 -0.19831673590E+02  0.10445475752E+03  0.12232888765E+03  0.41800000000E+01 0.  1.
         -5    1    3    3    0  502  0.51560214209E+02 -0.47708818479E+02 -0.25804328003E+02  0.74952803774E+02  0.41800000000E+01 0.  1.
        -11    1    4    4    0    0 -0.17318562055E+02  0.12988831239E+02 -0.29523342035E+02  0.36609698900E+02  0.00000000000E+00 0.  1.
         11    1    4    4    0    0 -0.94597204567E+02  0.54551660830E+02  0.57649912292E+02  0.12348290245E+03  0.00000000000E+00 0. -1.
</event>
<event>
 8    1  0.6637272E-009  0.1264374E+03  0.7561462E-02  0.1232840E+00
         -2   -1    0    0    0  501 -0.00000000000E+00  0.00000000000E+00  0.19682857107E+02  0.19682857107E+02  0.00000000000E+00 0. -1.
          2   -1    0    0  501    0  0.00000000000E+00 -0.00000000000E+00 -0.10580538103E+04  0.10580538103E+04  0.00000000000E+00 0.  1.
         25    2    1    2    0    0 -0.23174046645E+02 -0.86945918897E+02 -0.44945957880E+03  0.47514014606E+03  0.12509043199E+03 0.  0.
         23    2    1    2    0    0  0.23174046645E+02  0.86945918897E+02 -0.58891137437E+03  0.60259652132E+03  0.90605360738E+02 0.  0.
          5    1    3    3  502    0 -0.11089272618E+02  0.17431527030E+02 -0.10103579750E+02  0.23374875947E+02  0.41800000000E+01 0.  1.
         -5    1    3    3    0  502 -0.12084774026E+02 -0.10437744593E+03 -0.43935599905E+03  0.45176527012E+03  0.41800000000E+01 0.  1.
        -11    1    4    4    0    0  0.51575334156E+02  0.22612157197E+02 -0.30085794201E+03  0.30608303778E+03  0.00000000000E+00 0. -1.
         11    1    4    4    0    0 -0.28401287511E+02  0.64333761700E+02 -0.28805343236E+03  0.29651348354E+03  0.00000000000E+00 0.  1.
</event>
<event>
 8    1  0.6637272E-009  0.1829530E+03  0.7561462E-02  0.1164975E+00
         -1   -1    0    0    0  501 -0.00000000000E+00  0.00000000000E+00  0.11998605798E+03  0.11998605798E+03  0.00000000000E+00 0.  1.
          1   -1    0    0  501    0  0.00000000000E+00 -0.00000000000E+00 -0.65592443993E+03  0.65592443993E+03  0.00000000000E+00 0. -1.
         25    2    1    2    0    0  0.15277884282E+03 -0.15488849228E+02 -0.55892369141E+03  0.59297934939E+03  0.12509011443E+03 0.  0.
         23    2    1    2    0    0 -0.15277884282E+03  0.15488849228E+02  0.22985309458E+02  0.18293114852E+03  0.96717120424E+02 0.  0.
          5    1    3    3  502    0  0.15854877559E+03  0.20760393300E+02 -0.42686747588E+03  0.45585307122E+03  0.41800000000E+01 0. -1.
         -5    1    3    3    0  502 -0.57699327695E+01 -0.36249242529E+02 -0.13205621552E+03  0.13712627818E+03  0.41800000000E+01 0. -1.
        -11    1    4    4    0    0 -0.14441926541E+03  0.34286807641E+02 -0.46170929338E+01  0.14850530949E+03  0.00000000000E+00 0. -1.
         11    1    4    4    0    0 -0.83595774119E+01 -0.18797958413E+02  0.27602402392E+02  0.34425839028E+02  0.00000000000E+00 0.  1.
</event>
<event>
 8    1  0.6637272E-009  0.1455355E+03  0.7561462E-02  0.1206069E+00
         -1   -1    0    0    0  501 -0.00000000000E+00  0.00000000000E+00  0.11278523782E+03  0.11278523782E+03  0.00000000000E+00 0.  1.
          1   -1    0    0  501    0  0.00000000000E+00 -0.00000000000E+00 -0.26758563729E+03  0.26758563729E+03  0.00000000000E+00 0. -1.
         25    2    1    2    0    0 -0.20631096676E+02  0.11445671599E+03 -0.58661608173E+01  0.17089494271E+03  0.12507872568E+03 0.  0.
         23    2    1    2    0    0  0.20631096676E+02 -0.11445671599E+03 -0.14893423865E+03  0.20947593239E+03  0.90403411571E+02 0.  0.
          5    1    3    3  502    0  0.49572223714E+02  0.50534627465E+02 -0.22534944133E+02  0.74407325204E+02  0.41800000000E+01 0. -1.
         -5    1    3    3    0  502 -0.70203320390E+02  0.63922088526E+02  0.16668783316E+02  0.96487617509E+02  0.41800000000E+01 0. -1.
        -11    1    4    4    0    0  0.30238448090E+02 -0.40499897605E+02 -0.96123457538E+01  0.51449029532E+02  0.00000000000E+00 0.  1.
         11    1    4    4    0    0 -0.96073514146E+01 -0.73956818385E+02 -0.13932189290E+03  0.15802690286E+03  0.00000000000E+00 0. -1.
</event>
<event>
 8    1  0.6637272E-009  0.1382416E+03  0.7561462E-02  0.1215715E+00
          2   -1    0    0  501    0  0.00000000000E+00  0.00000000000E+00  0.76881757885E+03  0.76881757885E+03  0.00000000000E+00 0. -1.
         -2   -1    0    0    0  501 -0.00000000000E+00 -0.00000000000E+00 -0.30031097561E+02  0.30031097561E+02  0.00000000000E+00 0.  1.
         25    2    1    2    0    0  0.66797959005E+02  0.77557266065E+02  0.31898124212E+03  0.35759568245E+03  0.12509413431E+03 0.  0.
         23    2    1    2    0    0 -0.66797959005E+02 -0.77557266065E+02  0.41980523917E+03  0.44125299396E+03  0.89390541973E+02 0.  0.
          5    1    3    3  502    0  0.50905983487E+02 -0.25428934408E+02  0.12317397306E+03  0.13574737530E+03  0.41800000000E+01 0.  1.
         -5    1    3    3    0  502  0.15891975518E+02  0.10298620047E+03  0.19580726906E+03  0.22184830716E+03  0.41800000000E+01 0.  1.
        -11    1    4    4    0    0 -0.70171710519E+01 -0.47886746192E+02  0.69775493543E+02  0.84917610951E+02  0.00000000000E+00 0.  1.
         11    1    4    4    0    0 -0.59780787953E+02 -0.29670519873E+02  0.35002974563E+03  0.35633538301E+03  0.00000000000E+00 0. -1.
</event>
<event>
 8    1  0.6637272E-009  0.1027686E+03  0.7561462E-02  0.1274579E+00
          2   -1    0    0  501    0  0.00000000000E+00  0.00000000000E+00  0.47853679944E+03  0.47853679944E+03  0.00000000000E+00 0.  1.
         -2   -1    0    0    0  501 -0.00000000000E+00 -0.00000000000E+00 -0.29448102549E+02  0.29448102549E+02  0.00000000000E+00 0. -1.
         25    2    1    2    0    0 -0.41775094538E+02  0.28186810209E+02  0.27428672958E+03  0.30563698247E+03  0.12506438436E+03 0.  0.
         23    2    1    2    0    0  0.41775094538E+02 -0.28186810209E+02  0.17480196731E+03  0.20234791952E+03  0.88596263829E+02 0.  0.
          5    1    3    3  502    0  0.26251992071E+02  0.41144301165E+02  0.46578381387E+02  0.67594664129E+02  0.41800000000E+01 0.  1.
         -5    1    3    3    0  502 -0.68027086609E+02 -0.12957490956E+02  0.22770834820E+03  0.23804231834E+03  0.41800000000E+01 0.  1.
        -11    1    4    4    0    0  0.28102150174E+01  0.22818417275E+02  0.92376109002E+01  0.24777226046E+02  0.00000000000E+00 0. -1.
         11    1    4    4    0    0  0.38964879521E+02 -0.51005227484E+02  0.16556435641E+03  0.17757069347E+03  0.00000000000E+00 0.  1.
</event>
<event>
 8    1  0.6637272E-009  0.8894587E+02  0.7561462E-02  0.1305425E+00
          2   -1    0    0  501    0  0.00000000000E+00  0.00000000000E+00  0.88551500338E+02  0.88551500338E+02  0.00000000000E+00 0. -1.
         -2   -1    0    0    0  501 -0.00000000000E+00 -0.00000000000E+00 -0.17304899497E+03  0.17304899497E+03  0.00000000000E+00 0.  1.
         25    2    1    2    0    0 -0.43798996595E+02 -0.41129518081E+02 -0.56840892160E+02  0.14996726791E+03  0.12509718248E+03 0.  0.
         23    2    1    2    0    0  0.43798996595E+02  0.41129518081E+02 -0.27656602472E+02  0.11163322739E+03  0.89928307211E+02 0.  0.
          5    1    3    3  502    0 -0.49337563730E+02 -0.28366875025E+02 -0.94058378257E+02  0.11001511584E+03  0.41800000000E+01 0.  1.
         -5    1    3    3    0  502  0.55385671346E+01 -0.12762643056E+02  0.37217486097E+02  0.39952152070E+02  0.41800000000E+01 0.  1.
        -11    1    4    4    0    0  0.25713397967E+02  0.68684725072E+02 -0.28446074525E+02  0.78663520447E+02  0.00000000000E+00 0.  1.
         11    1    4    4    0    0  0.18085598628E+02 -0.27555206991E+02  0.78947205289E+00  0.32969706947E+02  0.00000000000E+00 0. -1.
</event>
<event>
 8    1  0.6637272E-009  0.1070757E+03  0.7561462E-02  0.1266083E+00
          1   -1    0    0  501    0  0.00000000000E+00  0.00000000000E+00  0.33009256344E+03  0.33009256344E+03  0.00000000000E+00 0. -1.
         -1   -1    0    0    0  501 -0.00000000000E+00 -0.00000000000E+00 -0.47156121997E+02  0.47156121997E+02  0.00000000000E+00 0.  1.
         25    2    1    2    0    0 -0.43346893782E+02 -0.31402139710E+02  0.19715951740E+03  0.23954935825E+03  0.12508785775E+03 0.  0.
         23    2    1    2    0    0  0.43346893782E+02  0.31402139710E+02  0.85776924047E+02  0.13769932719E+03  0.93479283436E+02 0.  0.
          5    1    3    3  502    0 -0.68805449139E+02 -0.64188888499E+02  0.13140255003E+03  0.16167407273E+03  0.41800000000E+01 0. -1.
         -5    1    3    3    0  502  0.25458555357E+02  0.32786748789E+02  0.65756967370E+02  0.77875285519E+02  0.41800000000E+01 0. -1.
        -11    1    4    4    0    0  0.12794057041E+02  0.43527950842E+02 -0.50064432264E+00  0.45372029322E+02  0.00000000000E+00 0.  1.
         11    1    4    4    0    0  0.30552836741E+02 -0.12125811132E+02  0.86277568369E+02  0.92327297872E+02  0.00000000000E+00 0. -1.
</event>
<event>
 8    1  0.6637272E-009  0.8950130E+02  0.7561462E-02  0.1304064E+00
          2   -1    0    0  501    0  0.00000000000E+00  0.00000000000E+00  0.78293634873E+02  0.78293634873E+02  0.00000000000E+00 0. -1.
         -2   -1    0    0    0  501 -0.00000000000E+00 -0.00000000000E+00 -0.20911655202E+03  0.20911655202E+03  0.00000000000E+00 0.  1.
         25    2    1    2    0    0  0.59234701799E+01 -0.50480098596E+02 -0.13062757592E+03  0.18787012770E+03  0.12509313906E+03 0.  0.
         23    2    1    2    0    0 -0.59234701799E+01  0.50480098596E+02 -0.19534122805E+00  0.99540059191E+02  0.85585380600E+02 0.  0.
          5    1    3    3  502    0 -0.57089953303E+01 -0.62542014920E+02 -0.14954749076E+03  0.16225295267E+03  0.41800000000E+01 0. -1.
         -5    1    3    3    0  502  0.11632465510E+02  0.12061916324E+02  0.18919914837E+02  0.25617175033E+02  0.41800000000E+01 0. -1.
        -11    1    4    4    0    0 -0.27771669309E+01  0.74507075532E+02  0.51109227263E+01  0.74733784139E+02  0.00000000000E+00 0. -1.
         11    1    4    4    0    0 -0.31463032490E+01 -0.24026976936E+02 -0.53062639543E+01  0.24806275053E+02  0.00000000000E+00 0.  1.
</event>
<event>
 8    1  0.6637272E-009  0.1203801E+03  0.7561462E-02  0.1242471E+00
          2   -1    0    0  501    0  0.00000000000E+00  0.00000000000E+00  0.14576250367E+04  0.14576250367E+04  0.00000000000E+00 0. -1.
         -2   -1    0    0    0  501 -0.00000000000E+00 -0.00000000000E+00 -0.11177431346E+02  0.11177431346E+02  0.00000000000E+00 0.  1.
         25    2    1    2    0    0  0.50884512477E+02  0.32734384926E+02  0.97082075411E+03  0.98071459259E+03  0.12508957566E+03 0.  0.
         23    2    1    2    0    0 -0.50884512477E+02 -0.32734384926E+02  0.47562685120E+03  0.48808787541E+03  0.91367931878E+02 0.  0.
          5    1    3    3  502    0  0.27474530632E+01  0.70523613936E+02  0.66886973495E+03  0.67259595847E+03  0.41800000000E+01 0.  1.
         -5    1    3    3    0  502  0.48137059414E+02 -0.37789229011E+02  0.30195101917E+03  0.30811863412E+03  0.41800000000E+01 0.  1.
        -11    1    4    4    0    0 -0.62161988484E+02  0.11371814125E+02  0.30607721598E+03  0.31253270727E+03  0.00000000000E+00 0.  1.
         11    1    4    4    0    0  0.11277476007E+02 -0.44106199051E+02  0.16954963522E+03  0.17555516815E+03  0.00000000000E+00 0. -1.
</event>
<event>
 8    1  0.6637272E-009  0.9555548E+02  0.7561462E-02  0.1289930E+00
          2   -1    0    0  501    0  0.00000000000E+00  0.00000000000E+00  0.20915734756E+02  0.20915734756E+02  0.00000000000E+00 0. -1.
         -2   -1    0    0    0  501 -0.00000000000E+00 -0.00000000000E+00 -0.89901799888E+03  0.89901799888E+03  0.00000000000E+00 0.  1.
         25    2    1    2    0    0 -0.36554742289E+02  0.45102591356E+02 -0.66511250867E+03  0.67925893979E+03  0.12509022811E+03 0.  0.
         23    2    1    2    0    0  0.36554742289E+02 -0.45102591356E+02 -0.21298975546E+03  0.24067479385E+03  0.95860458651E+02 0.  0.
          5    1    3    3  502    0 -0.62454342559E+02  0.67111749019E+02 -0.58470490464E+03  0.59186301597E+03  0.41800000000E+01 0. -1.
         -5    1    3    3    0  502  0.25899600270E+02 -0.22009157663E+02 -0.80407604023E+02  0.87395923818E+02  0.41800000000E+01 0. -1.
        -11    1    4    4    0    0  0.39755908666E+02 -0.30396377443E+02 -0.21886835715E+03  0.22451688087E+03  0.00000000000E+00 0.  1.
         11    1    4    4    0    0 -0.32011663763E+01 -0.14706213913E+02  0.58786016927E+01  0.16157912974E+02  0.00000000000E+00 0. -1.
</event>
<event>
 8    1  0.6637272E-009  0.1395495E+03  0.7561462E-02  0.1213936E+00
         -1   -1    0    0    0  501 -0.00000000000E+00  0.00000000000E+00  0.50129217207E+02  0.50129217207E+02  0.00000000000E+00 0.  1.
          1   -1    0    0  501    0  0.00000000000E+00 -0.00000000000E+00 -0.47482998955E+03  0.47482998955E+03  0.00000000000E+00 0. -1.
         25    2    1    2    0    0  0.72708086058E+02  0.83114663329E+02 -0.26221909357E+03  0.31080681791E+03  0.12509001556E+03 0.  0.
         23    2    1    2    0    0 -0.72708086058E+02 -0.83114663329E+02 -0.16248167877E+03  0.21415238884E+03  0.85243396639E+02 0.  0.
          5    1    3    3  502    0  0.10770767937E+03  0.67952645661E+02 -0.18578768503E+03  0.22528435933E+03  0.41800000000E+01 0.  1.
         -5    1    3    3    0  502 -0.34999593314E+02  0.15162017668E+02 -0.76431408539E+02  0.85522458589E+02  0.41800000000E+01 0.  1.
        -11    1    4    4    0    0 -0.32710655802E+02 -0.19258241867E+02 -0.12373186780E+03  0.12942349861E+03  0.00000000000E+00 0. -1.
         11    1    4    4    0    0 -0.39997430256E+02 -0.63856421462E+02 -0.38749810967E+02  0.84728890226E+02  0.00000000000E+00 0.  1.
</event>
<event>
 8    1  0.6637272E-009  0.1366274E+03  0.7561462E-02  0.1217940E+00
          3   -1    0    0  501    0  0.00000000000E+00  0.00000000000E+00  0.20265530523E+02  0.20265530523E+02  0.00000000000E+00 0. -1.
         -3   -1    0    0    0  501 -0.00000000000E+00 -0.00000000000E+00 -0.96831340105E+03  0.96831340105E+03  0.00000000000E+00 0.  1.
         25    2    1    2    0    0 -0.19160690316E+02  0.88412950517E+02 -0.56131179108E+03  0.58215283526E+03  0.12508802869E+03 0.  0.
         23    2    1    2    0    0  0.19160690316E+02 -0.88412950517E+02 -0.38673607945E+03  0.40642609631E+03  0.86217137196E+02 0.  0.
          5    1    3    3  502    0  0.50963998155E+02  0.52336675478E+02 -0.31953752625E+03  0.32780811428E+03  0.41800000000E+01 0. -1.
         -5    1    3    3    0  502 -0.70124688471E+02  0.36076275038E+02 -0.24177426483E+03  0.25434472097E+03  0.41800000000E+01 0. -1.
        -11    1    4    4    0    0  0.11518428191E+02  0.14161521904E+02 -0.10336497175E+03  0.10496447149E+03  0.00000000000E+00 0. -1.
         11    1    4    4    0    0  0.76422621250E+01 -0.10257447242E+03 -0.28337110769E+03  0.30146162482E+03  0.00000000000E+00 0.  1.
</event>
<event>
 7    1  0.6637272E-009  0.1486360E+03  0.7561462E-02  0.1202159E+00
         -2   -1    0    0    0  501 -0.00000000000E+00  0.00000000000E+00  0.70394686046E+02  0.70394686046E+02  0.00000000000E+00 0.  1.
          2   -1    0    0  501    0  0.00000000000E+00 -0.00000000000E+00 -0.11401766861E+04  0.11401766861E+04  0.00000000000E+00 0. -1.
         25    2    1    2    0    0 -0.94220150430E+02  0.73412343407E+02 -0.10677468303E+04  0.10816640070E+04  0.12508765527E+03 0.  0.
          5    1    3    3  502    0  0.25013090998E+02  0.38123508036E+02 -0.38061942598E+03  0.38336363471E+03  0.41800000000E+01 0.  1.
         -5    1    3    3    0  502 -0.11923324143E+03  0.35288835371E+02 -0.68712740432E+03  0.69830037228E+03  0.41800000000E+01 0.  1.
        -11    1    1    2    0    0  0.11119465520E+02 -0.32683390792E+02  0.90801293919E+01  0.35697272962E+02  0.00000000000E+00 0.  1.
         11    1    1    2    0    0  0.83100684910E+02 -0.40728952615E+02 -0.11115299162E+02  0.93210092206E+02  0.00000000000E+00 0. -1.
</event>
<event>
 8    1  0.6637272E-009  0.1806326E+03  0.7561462E-02  0.1167192E+00
          1   -1    0    0  501    0  0.00000000000E+00  0.00000000000E+00  0.83391274913E+03  0.83391274913E+03  0.00000000000E+00 0. -1.
         -1   -1    0    0    0  501 -0.00000000000E+00 -0.00000000000E+00 -0.43600665799E+02  0.43600665799E+02  0.00000000000E+00 0.  1.
         25    2    1    2    0    0 -0.46165110367E+02 -0.14609607863E+03  0.48793143611E+03  0.52649727429E+03  0.12508801656E+03 0.  0.
         23    2    1    2    0    0  0.46165110367E+02  0.14609607863E+03  0.30238064723E+03  0.35101614064E+03  0.91120763646E+02 0.  0.
          5    1    3    3  502    0  0.18423517434E+02 -0.10705930195E+03  0.37626243347E+03  0.39165292207E+03  0.41800000000E+01 0.  1.
         -5    1    3    3    0  502 -0.64588627802E+02 -0.39036776678E+02  0.11166900264E+03  0.13484435222E+03  0.41800000000E+01 0.  1.
        -11    1    4    4    0    0  0.72036184369E+02  0.12161931242E+03  0.25723236358E+03  0.29351142718E+03  0.00000000000E+00 0.  1.
         11    1    4    4    0    0 -0.25871074002E+02  0.24476766205E+02  0.45148283645E+02  0.57504713459E+02  0.00000000000E+00 0. -1.
</event>
<event>
 8    1  0.6637272E-009  0.1056974E+03  0.7561462E-02  0.1268752E+00
         -1   -1    0    0    0  501 -0.00000000000E+00  0.00000000000E+00  0.22511032275E+03  0.22511032275E+03  0.00000000000E+00 0.  1.
          1   -1    0    0  501    0  0.00000000000E+00 -0.00000000000E+00 -0.77703519835E+02  0.77703519835E+02  0.00000000000E+00 0. -1.
         25    2    1    2    0    0 -0.46376022804E+02  0.44109408724E+02  0.36922921568E+02  0.14527986965E+03  0.12508622210E+03 0.  0.
         23    2    1    2    0    0  0.46376022804E+02 -0.44109408724E+02  0.11048388135E+03  0.15753397293E+03  0.92270738382E+02 0.  0.
          5    1    3    3  502    0  0.18651240480E+02  0.57117054674E+02  0.49122602658E+02  0.77722128110E+02  0.41800000000E+01 0.  1.
         -5    1    3    3    0  502 -0.65027263284E+02 -0.13007645950E+02 -0.12199681090E+02  0.67557741541E+02  0.41800000000E+01 0.  1.
        -11    1    4    4    0    0  0.16341473544E+02  0.12539987489E+02 -0.85713001452E+01  0.22310585605E+02  0.00000000000E+00 0. -1.
         11    1    4    4    0    0  0.30034549260E+02 -0.56649396214E+02  0.11905518149E+03  0.13522338733E+03  0.00000000000E+00 0.  1.
</event>
<event>
 8    1  0.6637272E-009  0.8502918E+02  0.7561462E-02  0.1315356E+00
         -1   -1    0    0    0  501 -0.00000000000E+00  0.00000000000E+00  0.57524390327E+02  0.57524390327E+02  0.00000000000E+00 0.  1.
          1   -1    0    0  501    0  0.00000000000E+00 -0.00000000000E+00 -0.25449764479E+03  0.25449764479E+03  0.00000000000E+00 0. -1.
         25    2    1    2    0    0  0.35592687032E+02 -0.35574210630E+02 -0.91487078890E+02  0.16294020658E+03  0.12508901425E+03 0.  0.
         23    2    1    2    0    0 -0.35592687032E+02  0.35574210630E+02 -0.10548617557E+03  0.14908182853E+03  0.92551037431E+02 0.  0.
          5    1    3    3  502    0 -0.14499678664E+02 -0.54490293001E+02 -0.93419517256E+02  0.10919757926E+03  0.41800000000E+01 0.  1.
         -5    1    3    3    0  502  0.50092365696E+02  0.18916082371E+02  0.19324383666E+01  0.53742627320E+02  0.41800000000E+01 0.  1.
        -11    1    4    4    0    0 -0.23208326882E+02  0.11630529142E+01 -0.10982231487E+03  0.11225381941E+03  0.00000000000E+00 0. -1.
         11    1    4    4    0    0 -0.12384360149E+02  0.34411157716E+02  0.43361393001E+01  0.36828009119E+02  0.00000000000E+00 0.  1.
</event>
<event>
 8    1  0.6637272E-009  0.9797846E+02  0.7561462E-02  0.1284605E+00
         -1   -1    0    0    0  501 -0.00000000000E+00  0.00000000000E+00  0.48258118441E+03  0.48258118441E+03  0.00000000000E+00 0.  1.
          1   -1    0    0  501    0  0.00000000000E+00 -0.00000000000E+00 -0.40038688710E+02  0.40038688710E+02  0.00000000000E+00 0. -1.
         25    2    1    2    0    0 -0.76773400329E+02  0.18327325667E+02  0.32847275043E+03  0.36023902221E+03  0.12509100482E+03 0.  0.
         23    2    1    2    0    0  0.76773400329E+02 -0.18327325667E+02  0.11406974527E+03  0.16238085091E+03  0.84413198557E+02 0.  0.
          5    1    3    3  502    0 -0.89107032691E+01  0.63562875399E+01  0.26860148283E+03  0.26885689874E+03  0.41800000000E+01 0. -1.
         -5    1    3    3    0  502 -0.67862697060E+02  0.11971038127E+02  0.59871267601E+02  0.91382123472E+02  0.41800000000E+01 0. -1.
        -11    1    4    4    0    0  0.38960084862E+02 -0.51722716666E+02  0.57690009079E+02  0.86725225738E+02  0.00000000000E+00 0. -1.
         11    1    4    4    0    0  0.37813315466E+02  0.33395390999E+02  0.56379736192E+02  0.75655625168E+02  0.00000000000E+00 0.  1.
</event>
<event>
 8    1  0.6637272E-009  0.1117484E+03  0.7561462E-02  0.1257366E+00
         -1   -1    0    0    0  501 -0.00000000000E+00  0.00000000000E+00  0.32474909230E+02  0.32474909230E+02  0.00000000000E+00 0.  1.
          1   -1    0    0  501    0  0.00000000000E+00 -0.00000000000E+00 -0.65912175779E+03  0.65912175779E+03  0.00000000000E+00 0. -1.
         25    2    1    2    0    0 -0.69735491504E+02 -0.30643070811E+02 -0.48586403489E+03  0.50745744605E+03  0.12508861895E+03 0.  0.
         23    2    1    2    0    0  0.69735491504E+02  0.30643070811E+02 -0.14078281367E+03  0.18413922097E+03  0.91024257811E+02 0.  0.
          5    1    3    3  502    0 -0.39652326923E+02 -0.78801374553E+02 -0.32628186417E+03  0.33802261899E+03  0.41800000000E+01 0. -1.
         -5    1    3    3    0  502 -0.30083164581E+02  0.48158303742E+02 -0.15958217071E+03  0.16943482706E+03  0.41800000000E+01 0. -1.
        -11    1    4    4    0    0  0.37506281489E+02  0.67074800941E+01 -0.13881155864E+03  0.14394568508E+03  0.00000000000E+00 0. -1.
         11    1    4    4    0    0  0.32229210015E+02  0.23935590717E+02 -0.19712550321E+01  0.40193535892E+02  0.00000000000E+00 0.  1.
</event>
<event>
 8    1  0.6637272E-009  0.1320763E+03  0.7561462E-02  0.1224407E+00
          2   -1    0    0  501    0  0.00000000000E+00  0.00000000000E+00  0.49199445641E+03  0.49199445641E+03  0.00000000000E+00 0. -1.
         -2   -1    0    0    0  501 -0.00000000000E+00 -0.00000000000E+00 -0.74547555387E+02  0.74547555387E+02  0.00000000000E+00 0.  1.
         25    2    1    2    0    0 -0.91620676506E+01 -0.12654397344E+03  0.35785415276E+03  0.39975518144E+03  0.12508912719E+03 0.  0.
         23    2    1    2    0    0  0.91620676506E+01  0.12654397344E+03  0.59592748262E+02  0.16678683036E+03  0.90383795213E+02 0.  0.
          5    1    3    3  502    0 -0.19830926388E+02 -0.50944028705E+02  0.29703727254E+03  0.30205491782E+03  0.41800000000E+01 0. -1.
         -5    1    3    3    0  502  0.10668858737E+02 -0.75599944738E+02  0.60816880221E+02  0.97700263618E+02  0.41800000000E+01 0. -1.
        -11    1    4    4    0    0 -0.12046893493E+02  0.88408440729E+02 -0.43981609627E+01  0.89333777794E+02  0.00000000000E+00 0.  1.
         11    1    4    4    0    0  0.21208961144E+02  0.38135532714E+02  0.63990909225E+02  0.77453052565E+02  0.00000000000E+00 0. -1.
</event>
<event>
 8    1  0.6637272E-009  0.9521369E+02  0.7561462E-02  0.1290696E+00
         -2   -1    0    0    0  501 -0.00000000000E+00  0.00000000000E+00  0.25666857960E+03  0.25666857960E+03  0.00000000000E+00 0.  1.
          2   -1    0    0  501    0  0.00000000000E+00 -0.00000000000E+00 -0.51254671112E+02  0.51254671112E+02  0.00000000000E+00 0. -1.
         25    2    1    2    0    0 -0.77847692344E+01 -0.33291868167E+02  0.10950895554E+03  0.16972958942E+03  0.12508785338E+03 0.  0.
         23    2    1    2    0    0  0.77847692344E+01  0.33291868167E+02  0.95904952946E+02  0.13819366129E+03  0.93438626396E+02 0.  0.
          5    1    3    3  502    0  0.26045699052E+02  0.39714435134E+02  0.28872863579E+02  0.55738043098E+02  0.41800000000E+01 0.  1.
         -5    1    3    3    0  502 -0.33830468286E+02 -0.73006303301E+02  0.80636091961E+02  0.11399154632E+03  0.41800000000E+01 0.  1.
        -11    1    4    4    0    0 -0.19408280250E+02  0.28237299102E+00  0.93353171985E+02  0.95349755093E+02  0.00000000000E+00 0.  1.
         11    1    4    4    0    0  0.27193049484E+02  0.33009495176E+02  0.25517809611E+01  0.42843906196E+02  0.00000000000E+00 0. -1.
</event>
<event>
 7    1  0.6637272E-009  0.1854498E+03  0.7561462E-02  0.1162631E+00
         -1   -1    0    0    0  501 -0.00000000000E+00  0.00000000000E+00  0.66837245517E+02  0.66837245517E+02  0.00000000000E+00 0.  1.
          1   -1    0    0  501    0  0.00000000000E+00 -0.00000000000E+00 -0.67508591682E+03  0.67508591682E+03  0.00000000000E+00 0. -1.
         25    2    1    2    0    0 -0.44949499485E+02  0.95076609189E+02 -0.10469555960E+03  0.19408613661E+03  0.12509296186E+03 0.  0.
          5    1    3    3  502    0 -0.73703648233E+02  0.22707303386E+02 -0.82484906498E+02  0.11300036102E+03  0.41800000000E+01 0. -1.
         -5    1    3    3    0  502  0.28754148747E+02  0.72369305803E+02 -0.22210653097E+02  0.81085775593E+02  0.41800000000E+01 0. -1.
        -11    1    1    2    0    0 -0.18226211261E+02 -0.13806639461E+03 -0.33295108668E+03  0.36090296510E+03  0.00000000000E+00 0. -1.
         11    1    1    2    0    0  0.63175710746E+02  0.42989785419E+02 -0.17060202502E+03  0.18693406062E+03  0.00000000000E+00 0.  1.
</event>
<event>
 8    1  0.6637272E-009  0.1091755E+03  0.7561462E-02  0.1262104E+00
         -2   -1    0    0    0  501 -0.00000000000E+00  0.00000000000E+00  0.89516678244E+02  0.89516678244E+02  0.00000000000E+00 0.  1.
          2   -1    0    0  501    0  0.00000000000E+00 -0.00000000000E+00 -0.14749146824E+03  0.14749146824E+03  0.00000000000E+00 0. -1.
         25    2    1    2    0    0 -0.26264396810E+02 -0.23551618214E+02 -0.50842140360E+02  0.13956330931E+03  0.12509395193E+03 0.  0.
         23    2    1    2    0    0  0.26264396810E+02  0.23551618214E+02 -0.71326496394E+01  0.97444837175E+02  0.90554537936E+02 0.  0.
          5    1    3    3  502    0  0.47107017661E+02 -0.30299720003E+02 -0.21228318245E+02  0.60043801018E+02  0.41800000000E+01 0.  1.
         -5    1    3    3    0  502 -0.73371414471E+02  0.67481017886E+01 -0.29613822115E+02  0.79519508295E+02  0.41800000000E+01 0.  1.
        -11    1    4    4    0    0  0.44274402195E+02 -0.14251412416E+02 -0.23955205674E+02  0.52318040143E+02  0.00000000000E+00 0. -1.
         11    1    4    4    0    0 -0.18010005385E+02  0.37803030630E+02  0.16822556034E+02  0.45126797032E+02  0.00000000000E+00 0.  1.
</event>
<event>
 8    1  0.6637272E-009  0.6752346E+02  0.7561462E-02  0.1368723E+00
          2   -1    0    0  501    0  0.00000000000E+00  0.00000000000E+00  0.30334065541E+03  0.30334065541E+03  0.00000000000E+00 0. -1.
         -2   -1    0    0    0  501 -0.00000000000E+00 -0.00000000000E+00 -0.40582916582E+02  0.40582916582E+02  0.00000000000E+00 0.  1.
         25    2    1    2    0    0  0.12914337781E+02 -0.78726424343E+01  0.17183195808E+03  0.21307875422E+03  0.12509026766E+03 0.  0.
         23    2    1    2    0    0 -0.12914337781E+02  0.78726424343E+01  0.90925780757E+02  0.13084481778E+03  0.92866086998E+02 0.  0.
          5    1    3    3  502    0  0.62997530291E+01  0.16091782044E+02 -0.15785171878E+02  0.23775541819E+02  0.41800000000E+01 0.  1.
         -5    1    3    3    0  502  0.66145847520E+01 -0.23964424479E+02  0.18761712995E+03  0.18930321240E+03  0.41800000000E+01 0.  1.
        -11    1    4    4    0    0  0.35158622459E+02 -0.15714059654E+02  0.25006151447E+02  0.45916968695E+02  0.00000000000E+00 0. -1.
         11    1    4    4    0    0 -0.48072960240E+02  0.23586702088E+02  0.65919629310E+02  0.84927849084E+02  0.00000000000E+00 0.  1.
</event>
<event>
 8    1  0.6637272E-009  0.8530926E+02  0.7561462E-02  0.1314626E+00
          4   -1    0    0  501    0  0.00000000000E+00  0.00000000000E+00  0.10201311132E+03  0.10201311132E+03  0.00000000000E+00 0. -1.
         -4   -1    0    0    0  501 -0.00000000000E+00 -0.00000000000E+00 -0.21534701943E+03  0.21534701943E+03  0.00000000000E+00 0.  1.
         25    2    1    2    0    0  0.10796444637E+02  0.47829909076E+02  0.33353713575E+02  0.13843651195E+03  0.12509170321E+03 0.  0.
         23    2    1    2    0    0 -0.10796444637E+02 -0.47829909076E+02 -0.14668762168E+03  0.17892361880E+03  0.89956320464E+02 0.  0.
          5    1    3    3  502    0 -0.73397414383E+01 -0.21351267792E+02  0.58234688495E+02  0.62597921569E+02  0.41800000000E+01 0.  1.
         -5    1    3    3    0  502  0.18136186075E+02  0.69181176867E+02 -0.24880974920E+02  0.75838590381E+02  0.41800000000E+01 0.  1.
        -11    1    4    4    0    0  0.20104705951E+02 -0.12826061617E+01  0.18457008035E+01  0.20229950356E+02  0.00000000000E+00 0.  1.
         11    1    4    4    0    0 -0.30901150588E+02 -0.46547302914E+02 -0.14853332249E+03  0.15869366845E+03  0.00000000000E+00 0. -1.
</event>
<event>
 8    1  0.6637272E-009  0.1139909E+03  0.7561462E-02  0.1253353E+00
         -2   -1    0    0    0  501 -0.00000000000E+00  0.00000000000E+00  0.78915377339E+02  0.78915377339E+02  0.00000000000E+00 0.  1.
          2   -1    0    0  501    0  0.00000000000E+00 -0.00000000000E+00 -0.27165982692E+03  0.27165982692E+03  0.00000000000E+00 0. -1.
         25    2    1    2    0    0  0.65479657968E+02 -0.63285182227E+02 -0.11092185740E+03  0.19037061790E+03  0.12507883040E+03 0.  0.
         23    2    1    2    0    0 -0.65479657968E+02  0.63285182227E+02 -0.81822592186E+02  0.16020458636E+03  0.10333427796E+03 0.  0.
          5    1    3    3  502    0  0.25996668641E+02 -0.38578279295E+02  0.20402228269E+02  0.50968948705E+02  0.41800000000E+01 0.  1.
         -5    1    3    3    0  502  0.39482989327E+02 -0.24706902933E+02 -0.13132408567E+03  0.13940166920E+03  0.41800000000E+01 0.  1.
        -11    1    4    4    0    0  0.11931062494E+02  0.55433851653E+02 -0.17766628770E+02  0.59421505023E+02  0.00000000000E+00 0.  1.
         11    1    4    4    0    0 -0.77410720462E+02  0.78513305741E+01 -0.64055963416E+02  0.10078308134E+03  0.00000000000E+00 0. -1.
</event>
<event>
 8    1  0.6637272E-009  0.1050932E+03  0.7561462E-02  0.1269936E+00
         -1   -1    0    0    0  501 -0.00000000000E+00  0.00000000000E+00  0.41449160262E+02  0.41449160262E+02  0.00000000000E+00 0.  1.
          1   -1    0    0  501    0  0.00000000000E+00 -0.00000000000E+00 -0.32908331313E+03  0.32908331313E+03  0.00000000000E+00 0. -1.
         25    2    1    2    0    0 -0.41666797803E+02 -0.12213335643E+02 -0.14223745524E+03  0.19434247970E+03  0.12510882516E+03 0.  0.
         23    2    1    2    0    0  0.41666797803E+02  0.12213335643E+02 -0.14539669762E+03  0.17618999370E+03  0.89540083719E+02 0.  0.
          5    1    3    3  502    0 -0.23423255080E+02  0.55726352548E+02 -0.79747905075E+02  0.10015625797E+03  0.41800000000E+01 0.  1.
         -5    1    3    3    0  502 -0.18243542723E+02 -0.67939688190E+02 -0.62489550169E+02  0.94186221725E+02  0.41800000000E+01 0.  1.
        -11    1    4    4    0    0  0.22777393513E+02  0.39700508549E+02 -0.13292158355E+03  0.14058124842E+03  0.00000000000E+00 0. -1.
         11    1    4    4    0    0  0.18889404290E+02 -0.27487172906E+02 -0.12475114070E+02  0.35608745272E+02  0.00000000000E+00 0.  1.
</event>
<event>
 8    1  0.6637272E-009  0.1199173E+03  0.7561462E-02  0.1243234E+00
          1   -1    0    0  501    0  0.00000000000E+00  0.00000000000E+00  0.23379040592E+03  0.23379040592E+03  0.00000000000E+00 0. -1.
         -1   -1    0    0    0  501 -0.00000000000E+00 -0.00000000000E+00 -0.78533721275E+02  0.78533721275E+02  0.00000000000E+00 0.  1.
         25    2    1    2    0    0 -0.48538485584E+02  0.59786171733E+02  0.11726104564E+03  0.18795929479E+03  0.12509265670E+03 0.  0.
         23    2    1    2    0    0  0.48538485584E+02 -0.59786171733E+02  0.37995639007E+02  0.12436483240E+03  0.89958724102E+02 0.  0.
          5    1    3    3  502    0 -0.54620316549E+02 -0.14003458161E+02  0.97852476572E+01  0.57382046775E+02  0.41800000000E+01 0. -1.
         -5    1    3    3    0  502  0.60818309651E+01  0.73789629894E+02  0.10747579798E+03  0.13057724801E+03  0.41800000000E+01 0. -1.
        -11    1    4    4    0    0 -0.21281103520E+02 -0.10966056027E+02 -0.10713715856E+02  0.26228295012E+02  0.00000000000E+00 0.  1.
         11    1    4    4    0    0  0.69819589104E+02 -0.48820115706E+02  0.48709354864E+02  0.98136537392E+02  0.00000000000E+00 0. -1.
</event>
<event>
 8    1  0.6637272E-009  0.6880043E+02  0.7561462E-02  0.1364220E+00
          3   -1    0    0  501    0  0.00000000000E+00  0.00000000000E+00  0.12221327897E+03  0.12221327897E+03  0.00000000000E+00 0. -1.
         -3   -1    0    0    0  501 -0.00000000000E+00 -0.00000000000E+00 -0.11274214597E+03  0.11274214597E+03  0.00000000000E+00 0.  1.
         25    2    1    2    0    0  0.11483956555E+02 -0.47484110770E+01 -0.23348207523E+02  0.12785412760E+03  0.12508841067E+03 0.  0.
         23    2    1    2    0    0 -0.11483956555E+02  0.47484110770E+01  0.32819340532E+02  0.10710129734E+03  0.10118868570E+03 0.  0.
          5    1    3    3  502    0  0.10487479951E+02  0.32539886786E+02  0.40884241924E+02  0.53458629850E+02  0.41800000000E+01 0. -1.
         -5    1    3    3    0  502  0.99647660369E+00 -0.37288297863E+02 -0.64232449447E+02  0.74395497747E+02  0.41800000000E+01 0. -1.
        -11    1    4    4    0    0 -0.83043958205E+01  0.34610147279E+02 -0.23934821730E+02  0.42891735519E+02  0.00000000000E+00 0.  1.
         11    1    4    4    0    0 -0.31795607341E+01 -0.29861736202E+02  0.56754162262E+02  0.64209561823E+02  0.00000000000E+00 0. -1.
</event>
<event>
 8    1  0.6637272E-009  0.1066689E+03  0.7561462E-02  0.1266866E+00
         -1   -1    0    0    0  501 -0.00000000000E+00  0.00000000000E+00  0.16965172594E+03  0.16965172594E+03  0.00000000000E+00 0.  1.
          1   -1    0    0  501    0  0.00000000000E+00 -0.00000000000E+00 -0.10912093168E+03  0.10912093168E+03  0.00000000000E+00 0. -1.
         25    2    1    2    0    0  0.13511083820E+02 -0.28414171708E+02 -0.43082273192E+02  0.13599016602E+03  0.12508928192E+03 0.  0.
         23    2    1    2    0    0 -0.13511083820E+02  0.28414171708E+02  0.10361306745E+03  0.14278249160E+03  0.93065877860E+02 0.  0.
          5    1    3    3  502    0  0.21383565809E+02  0.46451149856E+02 -0.50745394816E+01  0.51557633388E+02  0.41800000000E+01 0.  1.
         -5    1    3    3    0  502 -0.78724819891E+01 -0.74865321563E+02 -0.38007733711E+02  0.84432532636E+02  0.41800000000E+01 0.  1.
        -11    1    4    4    0    0 -0.11431476476E+02 -0.27968981222E+02  0.72058167704E+02  0.78136560571E+02  0.00000000000E+00 0.  1.
         11    1    4    4    0    0 -0.20796073438E+01  0.56383152929E+02  0.31554899747E+02  0.64645931032E+02  0.00000000000E+00 0. -1.
</event>
<event>
 8    1  0.6637272E-009  0.1403622E+03  0.7561462E-02  0.1212842E+00
         -1   -1    0    0    0  501 -0.00000000000E+00  0.00000000000E+00  0.25543384139E+03  0.25543384139E+03  0.00000000000E+00 0.  1.
          1   -1    0    0  501    0  0.00000000000E+00 -0.00000000000E+00 -0.11420191669E+03  0.11420191669E+03  0.00000000000E+00 0. -1.
         25    2    1    2    0    0  0.10289912626E+03 -0.33461061197E+01 -0.14170567071E+02  0.16262691262E+03  0.12508909276E+03 0.  0.
         23    2    1    2    0    0 -0.10289912626E+03  0.33461061197E+01  0.15540249177E+03  0.20700884546E+03  0.90018337247E+02 0.  0.
          5    1    3    3  502    0  0.10483608097E+03  0.43683733229E+02 -0.18610758305E+02  0.11516381874E+03  0.41800000000E+01 0.  1.
         -5    1    3    3    0  502 -0.19369547132E+01 -0.47029839349E+02  0.44401912348E+01  0.47463093883E+02  0.41800000000E+01 0.  1.
        -11    1    4    4    0    0 -0.25619148802E+02 -0.26608499966E+02  0.10182446534E+03  0.10831701066E+03  0.00000000000E+00 0.  1.
         11    1    4    4    0    0 -0.77279977455E+02  0.29954606086E+02  0.53578026430E+02  0.98691834806E+02  0.00000000000E+00 0. -1.
</event>
<event>
 8    1  0.6637272E-009  0.9774151E+02  0.7561462E-02  0.1285118E+00
          2   -1    0    0  501    0  0.00000000000E+00  0.00000000000E+00  0.39994638629E+03  0.39994638629E+03  0.00000000000E+00 0.  1.
         -2   -1    0    0    0  501 -0.00000000000E+00 -0.00000000000E+00 -0.46648632878E+02  0.46648632878E+02  0.00000000000E+00 0. -1.
         25    2    1    2    0    0  0.80197739616E+02  0.25759567122E+02  0.21828775248E+03  0.26531238023E+03  0.12508350604E+03 0.  0.
         23    2    1    2    0    0 -0.80197739616E+02 -0.25759567122E+02  0.13501000093E+03  0.18128263894E+03  0.86835834136E+02 0.  0.
          5    1    3    3  502    0  0.58151880853E+02  0.32886149669E+02  0.22962443239E+03  0.23918192331E+03  0.41800000000E+01 0. -1.
         -5    1    3    3    0  502  0.22045858762E+02 -0.71265825470E+01 -0.11336679915E+02  0.26130456920E+02  0.41800000000E+01 0. -1.
        -11    1    4    4    0    0 -0.23178578051E+02  0.20988653085E+02  0.89092800453E+02  0.94420851147E+02  0.00000000000E+00 0.  1.
         11    1    4    4    0    0 -0.57019161565E+02 -0.46748220207E+02  0.45917200482E+02  0.86861787791E+02  0.00000000000E+00 0. -1.
</event>
<event>
 8    1  0.6637272E-009  0.1073291E+03  0.7561462E-02  0.1265597E+00
         -2   -1    0    0    0  501 -0.00000000000E+00  0.00000000000E+00  0.31286506538E+02  0.31286506538E+02  0.00000000000E+00 0. -1.
          2   -1    0    0  501    0  0.00000000000E+00 -0.00000000000E+00 -0.46732930692E+03  0.46732930692E+03  0.00000000000E+00 0.  1.
         25    2    1    2    0    0 -0.41165117714E+02  0.19183882994E+01 -0.31402658041E+03  0.34052902476E+03  0.12509626842E+03 0.  0.
         23    2    1    2    0    0  0.41165117714E+02 -0.19183882994E+01 -0.12201621997E+03  0.15808678869E+03  0.91680028865E+02 0.  0.
          5    1    3    3  502    0 -0.38407183428E+02 -0.49530313642E+02 -0.84713316081E+02  0.10546175624E+03  0.41800000000E+01 0.  1.
         -5    1    3    3    0  502 -0.27579342861E+01  0.51448701941E+02 -0.22931326433E+03  0.23506726852E+03  0.41800000000E+01 0.  1.
        -11    1    4    4    0    0 -0.26989641303E+02  0.13642767647E+02 -0.30831117791E+02  0.43187077592E+02  0.00000000000E+00 0.  1.
         11    1    4    4    0    0  0.68154759017E+02 -0.15561155947E+02 -0.91185102177E+02  0.11489971110E+03  0.00000000000E+00 0. -1.
</event>
<event>
 8    1  0.6637272E-009  0.6740088E+02  0.7561462E-02  0.1369161E+00
          2   -1    0    0  501    0  0.00000000000E+00  0.00000000000E+00  0.75378253560E+02  0.75378253560E+02  0.00000000000E+00 0.  1.
         -2   -1    0    0    0  501 -0.00000000000E+00 -0.00000000000E+00 -0.16671165830E+03  0.16671165830E+03  0.00000000000E+00 0. -1.
         25    2    1    2    0    0  0.21004136340E+02 -0.92565167020E+01 -0.33794306076E+02  0.13159119810E+03  0.12508929391E+03 0.  0.
         23    2    1    2    0    0 -0.21004136340E+02  0.92565167020E+01 -0.57539098668E+02  0.11049871376E+03  0.91500606677E+02 0.  0.
          5    1    3    3  502    0 -0.19304157329E+02 -0.23498729068E+02  0.37435530614E+02  0.48412107064E+02  0.41800000000E+01 0.  1.
         -5    1    3    3    0  502  0.40308293669E+02  0.14242212366E+02 -0.71229836690E+02  0.83179091041E+02  0.41800000000E+01 0.  1.
        -11    1    4    4    0    0  0.51442893650E+01 -0.20733197464E+02 -0.66386217427E+02  0.69738504819E+02  0.00000000000E+00 0. -1.
         11    1    4    4    0    0 -0.26148425705E+02  0.29989714166E+02  0.88471187588E+01  0.40760208941E+02  0.00000000000E+00 0.  1.
</event>
<event>
 8    1  0.6637272E-009  0.1028878E+03  0.7561462E-02  0.1274338E+00
         -2   -1    0    0    0  501 -0.00000000000E+00  0.00000000000E+00  0.38611394831E+02  0.38611394831E+02  0.00000000000E+00 0.  1.
          2   -1    0    0  501    0  0.00000000000E+00 -0.00000000000E+00 -0.39277897610E+03  0.39277897610E+03  0.00000000000E+00 0. -1.
         25    2    1    2    0    0  0.27527900532E+02 -0.42766030415E+02 -0.15542980659E+03  0.20588326205E+03  0.12507107639E+03 0.  0.
         23    2    1    2    0    0 -0.27527900532E+02  0.42766030415E+02 -0.19873777468E+03  0.22550710888E+03  0.93648461852E+02 0.  0.
          5    1    3    3  502    0 -0.33508463382E+02 -0.37917017120E+02 -0.12979633572E+03  0.13937388017E+03  0.41800000000E+01 0. -1.
         -5    1    3    3    0  502  0.61036363914E+02 -0.48490132948E+01 -0.25633470868E+02  0.66509381883E+02  0.41800000000E+01 0. -1.
        -11    1    4    4    0    0 -0.84218202084E+01 -0.23343105390E+02 -0.11236610733E+03  0.11507375766E+03  0.00000000000E+00 0. -1.
         11    1    4    4    0    0 -0.19106080323E+02  0.66109135805E+02 -0.86371667348E+02  0.11043335122E+03  0.00000000000E+00 0.  1.
</event>
<event>
 8    1  0.6637272E-009  0.1521981E+03  0.7561462E-02  0.1197798E+00
         -1   -1    0    0    0  501 -0.00000000000E+00  0.00000000000E+00  0.98217990363E+02  0.98217990363E+02  0.00000000000E+00 0.  1.
          1   -1    0    0  501    0  0.00000000000E+00 -0.00000000000E+00 -0.35799861833E+03  0.35799861833E+03  0.00000000000E+00 0. -1.
         25    2    1    2    0    0  0.25823192363E+02  0.12768165700E+03 -0.23463114924E+03  0.29608940797E+03  0.12509084108E+03 0.  0.
         23    2    1    2    0    0 -0.25823192363E+02 -0.12768165700E+03 -0.25149478728E+02  0.16012720072E+03  0.89659251228E+02 0.  0.
          5    1    3    3  502    0  0.52421923757E+02  0.11465240523E+02 -0.11585623481E+03  0.12774838306E+03  0.41800000000E+01 0.  1.
         -5    1    3    3    0  502 -0.26598731394E+02  0.11621641648E+03 -0.11877491443E+03  0.16834102491E+03  0.41800000000E+01 0.  1.
        -11    1    4    4    0    0  0.20154552233E+01 -0.18244772223E+02 -0.42111543646E+02  0.45938174555E+02  0.00000000000E+00 0. -1.
         11    1    4    4    0    0 -0.27838647586E+02 -0.10943688478E+03  0.16962064918E+02  0.11418902616E+03  0.00000000000E+00 0.  1.
</event>
<event>
 8    1  0.6637272E-009  0.9160528E+02  0.7561462E-02  0.1299010E+00
         -2   -1    0    0    0  501 -0.00000000000E+00  0.00000000000E+00  0.96240793417E+02  0.96240793417E+02  0.00000000000E+00 0.  1.
          2   -1    0    0  501    0  0.00000000000E+00 -0.00000000000E+00 -0.16362675123E+03  0.16362675123E+03  0.00000000000E+00 0. -1.
         25    2    1    2    0    0  0.22196771318E+02 -0.36638405438E+02 -0.90699269129E+02  0.16033725364E+03  0.12508640244E+03 0.  0.
         23    2    1    2    0    0 -0.22196771318E+02  0.36638405438E+02  0.23313311318E+02  0.99530291001E+02  0.86762312856E+02 0.  0.
          5    1    3    3  502    0  0.35564998323E+02  0.13842402958E+02 -0.10001226221E+03  0.10712798989E+03  0.41800000000E+01 0.  1.
         -5    1    3    3    0  502 -0.13368227004E+02 -0.50480808396E+02  0.93129930792E+01  0.53209263757E+02  0.41800000000E+01 0.  1.
        -11    1    4    4    0    0  0.94307566659E+01  0.55038109213E+02  0.28299418146E+02  0.62601834673E+02  0.00000000000E+00 0. -1.
         11    1    4    4    0    0 -0.31627527984E+02 -0.18399703776E+02 -0.49861068285E+01  0.36928456328E+02  0.00000000000E+00 0.  1.
</event>
<event>
 8    1  0.6637272E-009  0.1672856E+03  0.7561462E-02  0.1180708E+00
         -2   -1    0    0    0  501 -0.00000000000E+00  0.00000000000E+00  0.11222632897E+03  0.11222632897E+03  0.00000000000E+00 0. -1.
          2   -1    0    0  501    0  0.00000000000E+00 -0.00000000000E+00 -0.34686294695E+03  0.34686294695E+03  0.00000000000E+00 0.  1.
         25    2    1    2    0    0 -0.70048645703E+02 -0.11280182205E+03 -0.23569022240E+03  0.29804240952E+03  0.12509329764E+03 0.  0.
         23    2    1    2    0    0  0.70048645703E+02  0.11280182205E+03  0.10536044210E+01  0.16104686640E+03  0.91125843057E+02 0.  0.
          5    1    3    3  502    0 -0.10367119660E+02 -0.11666895684E+03 -0.18752547971E+03  0.22113887175E+03  0.41800000000E+01 0. -1.
         -5    1    3    3    0  502 -0.59681526043E+02  0.38671347872E+01 -0.48164742686E+02  0.76903537762E+02  0.41800000000E+01 0. -1.
        -11    1    4    4    0    0 -0.16355582132E+02  0.44073085824E+02 -0.15299590168E+02  0.49437024792E+02  0.00000000000E+00 0.  1.
         11    1    4    4    0    0  0.86404227835E+02  0.68728736226E+02  0.16353194589E+02  0.11160984161E+03  0.00000000000E+00 0. -1.
</event>
<event>
 8    1  0.6637272E-009  0.7512846E+02  0.7561462E-02  0.1343474E+00
          2   -1    0    0  501    0  0.00000000000E+00  0.00000000000E+00  0.18191168323E+03  0.18191168323E+03  0.00000000000E+00 0. -1.
         -2   -1    0    0    0  501 -0.00000000000E+00 -0.00000000000E+00 -0.70196198985E+02  0.70196198985E+02  0.00000000000E+00 0.  1.
         25    2    1    2    0    0 -0.29568356064E+02  0.20041659030E+02  0.68771844260E+02  0.14714730294E+03  0.12508719527E+03 0.  0.
         23    2    1    2    0    0  0.29568356064E+02 -0.20041659030E+02  0.42943639984E+02  0.10496057928E+03  0.88862878697E+02 0.  0.
          5    1    3    3  502    0 -0.37048107724E+02 -0.58948434702E+01  0.99270616844E+02  0.10620470439E+03  0.41800000000E+01 0. -1.
         -5    1    3    3    0  502  0.74797516603E+01  0.25936502500E+02 -0.30498772584E+02  0.40942598549E+02  0.41800000000E+01 0. -1.
        -11    1    4    4    0    0  0.35648840376E+02  0.22543209070E+02 -0.26693276466E+01  0.42263002797E+02  0.00000000000E+00 0.  1.
         11    1    4    4    0    0 -0.60804843126E+01 -0.42584868100E+02  0.45612967631E+02  0.62697576481E+02  0.00000000000E+00 0. -1.
</event>
<event>
 8    1  0.6637272E-009  0.1247110E+03  0.7561462E-02  0.1235522E+00
          2   -1    0    0  501    0  0.00000000000E+00  0.00000000000E+00  0.38448924190E+02  0.38448924190E+02  0.00000000000E+00 0. -1.
         -2   -1    0    0    0  501 -0.00000000000E+00 -0.00000000000E+00 -0.50537237550E+03  0.50537237550E+03  0.00000000000E+00 0.  1.
         25    2    1    2    0    0 -0.26925512077E+02 -0.67821300008E+02 -0.20898934616E+03  0.25425814194E+03  0.12508374793E+03 0.  0.
         23    2    1    2    0    0  0.26925512077E+02  0.67821300008E+02 -0.25793410515E+03  0.28956315775E+03  0.10950848275E+03 0.  0.
          5    1    3    3  502    0 -0.68963323299E+02 -0.70248914637E+02 -0.17118247705E+03  0.19751395600E+03  0.41800000000E+01 0.  1.
         -5    1    3    3    0  502  0.42037811222E+02  0.24276146285E+01 -0.37806869117E+02  0.56744185937E+02  0.41800000000E+01 0.  1.
        -11    1    4    4    0    0  0.35192830196E+02  0.83631745672E+02 -0.25601557698E+03  0.27161881348E+03  0.00000000000E+00 0.  1.
         11    1    4    4    0    0 -0.82673181194E+01 -0.15810445664E+02 -0.19185281699E+01  0.17944344271E+02  0.00000000000E+00 0. -1.
</event>
<event>
 8    1  0.6637272E-009  0.9287813E+02  0.7561462E-02  0.1296028E+00
          2   -1    0    0  501    0  0.00000000000E+00  0.00000000000E+00  0.27325528404E+03  0.27325528404E+03  0.00000000000E+00 0. -1.
         -2   -1    0    0    0  501 -0.00000000000E+00 -0.00000000000E+00 -0.67903157205E+02  0.67903157205E+02  0.00000000000E+00 0.  1.
         25    2    1    2    0    0 -0.35345412401E+02 -0.69631531779E+02  0.14402772563E+03  0.20612895811E+03  0.12508922107E+03 0.  0.
         23    2    1    2    0    0  0.35345412401E+02  0.69631531779E+02  0.61324401203E+02  0.13502948313E+03  0.91511915813E+02 0.  0.
          5    1    3    3  502    0 -0.68761385099E+01 -0.51845650737E+02 -0.55635550892E+01  0.52760575493E+02  0.41800000000E+01 0. -1.
         -5    1    3    3    0  502 -0.28469273891E+02 -0.17785881042E+02  0.14959128072E+03  0.15336838262E+03  0.41800000000E+01 0. -1.
        -11    1    4    4    0    0  0.44902938459E+02  0.20414421207E+02 -0.74866354916E+01  0.49890602186E+02  0.00000000000E+00 0.  1.
         11    1    4    4    0    0 -0.95575260584E+01  0.49217110572E+02  0.68811036695E+02  0.85138880944E+02  0.00000000000E+00 0. -1.
</event>
<event>
 8    1  0.6637272E-009  0.1620574E+03  0.7561462E-02  0.1186393E+00
          2   -1    0    0  501    0  0.00000000000E+00  0.00000000000E+00  0.90987277532E+03  0.90987277532E+03  0.00000000000E+00 0. -1.
         -2   -1    0    0    0  501 -0.00000000000E+00 -0.00000000000E+00 -0.52916763134E+02  0.52916763134E+02  0.00000000000E+00 0.  1.
         25    2    1    2    0    0  0.83271559576E+02  0.12510669715E+03  0.70101145235E+03  0.72777052366E+03  0.12508813079E+03 0.  0.
         23    2    1    2    0    0 -0.83271559576E+02 -0.12510669715E+03  0.15594455983E+03  0.23501901479E+03  0.91265509741E+02 0.  0.
          5    1    3    3  502    0  0.10609211766E+01  0.35597458548E+02  0.42060390278E+03  0.42212962469E+03  0.41800000000E+01 0. -1.
         -5    1    3    3    0  502  0.82210638399E+02  0.89509238605E+02  0.28040754957E+03  0.30564089896E+03  0.41800000000E+01 0. -1.
        -11    1    4    4    0    0 -0.86620999924E+02 -0.69802104640E+02  0.65916706228E+02  0.12930794098E+03  0.00000000000E+00 0.  1.
         11    1    4    4    0    0  0.33494403480E+01 -0.55304592513E+02  0.90027853600E+02  0.10571107382E+03  0.00000000000E+00 0. -1.
</event>
<event>
 8    1  0.6637272E-009  0.1418708E+03  0.7561462E-02  0.1210834E+00
          1   -1    0    0  501    0  0.00000000000E+00  0.00000000000E+00  0.10532992631E+04  0.10532992631E+04  0.00000000000E+00 0. -1.
         -1   -1    0    0    0  501 -0.00000000000E+00 -0.00000000000E+00 -0.28132178175E+02  0.28132178175E+02  0.00000000000E+00 0.  1.
         25    2    1    2    0    0  0.12764971558E+03  0.51288540233E+01  0.64807301120E+03  0.67228864779E+03  0.12511052342E+03 0.  0.
         23    2    1    2    0    0 -0.12764971558E+03 -0.51288540233E+01  0.37709407374E+03  0.40914279350E+03  0.94218522546E+02 0.  0.
          5    1    3    3  502    0  0.61978683247E+02  0.36411415892E+02  0.51982710350E+03  0.52479028032E+03  0.41800000000E+01 0.  1.
         -5    1    3    3    0  502  0.65671032333E+02 -0.31282561869E+02  0.12824590770E+03  0.14749836747E+03  0.41800000000E+01 0.  1.
        -11    1    4    4    0    0 -0.97669252689E+02  0.20072671609E+02  0.15986921060E+03  0.18841539100E+03  0.00000000000E+00 0.  1.
         11    1    4    4    0    0 -0.29980462892E+02 -0.25201525633E+02  0.21722486314E+03  0.22072740250E+03  0.00000000000E+00 0. -1.
</event>
<event>
 8    1  0.6637272E-009  0.1316649E+03  0.7561462E-02  0.1225006E+00
          1   -1    0    0  501    0  0.00000000000E+00  0.00000000000E+00  0.38006204057E+03  0.38006204057E+03  0.00000000000E+00 0. -1.
         -1   -1    0    0    0  501 -0.00000000000E+00 -0.00000000000E+00 -0.57866833752E+02  0.57866833752E+02  0.00000000000E+00 0.  1.
         25    2    1    2    0    0  0.79201426909E+02  0.60751374741E+02  0.16111714957E+03  0.22709282208E+03  0.12509523731E+03 0.  0.
         23    2    1    2    0    0 -0.79201426909E+02 -0.60751374741E+02  0.16107805725E+03  0.21083605224E+03  0.92423508051E+02 0.  0.
          5    1    3    3  502    0  0.59702313657E+02  0.80215509903E+02  0.48753150565E+02  0.11132491354E+03  0.41800000000E+01 0. -1.
         -5    1    3    3    0  502  0.19499113253E+02 -0.19464135162E+02  0.11236399900E+03  0.11576790854E+03  0.41800000000E+01 0. -1.
        -11    1    4    4    0    0 -0.74584656328E+02 -0.13019395001E+00  0.98935501775E+02  0.12389964254E+03  0.00000000000E+00 0.  1.
         11    1    4    4    0    0 -0.46167705817E+01 -0.60621180791E+02  0.62142555476E+02  0.86936409704E+02  0.00000000000E+00 0. -1.
</event>
<event>
 8    1  0.6637272E-009  0.1129189E+03  0.7561462E-02  0.1255258E+00
          2   -1    0    0  501    0  0.00000000000E+00  0.00000000000E+00  0.10288791632E+04  0.10288791632E+04  0.00000000000E+00 0. -1.
         -2   -1    0    0    0  501 -0.00000000000E+00 -0.00000000000E+00 -0.13037891937E+02  0.13037891937E+02  0.00000000000E+00 0.  1.
         25    2    1    2    0    0  0.11984765191E+02  0.39760811764E+02  0.60566797457E+03  0.61984309084E+03  0.12508878882E+03 0.  0.
         23    2    1    2    0    0 -0.11984765191E+02 -0.39760811764E+02  0.41017329665E+03  0.42207396426E+03  0.90441922083E+02 0.  0.
          5    1    3    3  502    0 -0.53826649820E+02  0.14507055296E+02  0.35672073765E+03  0.36107467366E+03  0.41800000000E+01 0.  1.
         -5    1    3    3    0  502  0.65811415010E+02  0.25253756468E+02  0.24894723691E+03  0.25876841718E+03  0.41800000000E+01 0.  1.
        -11    1    4    4    0    0  0.14730339455E+02 -0.62515438262E+02  0.25219993235E+03  0.26024981998E+03  0.00000000000E+00 0.  1.
         11    1    4    4    0    0 -0.26715104645E+02  0.22754626497E+02  0.15797336430E+03  0.16182414428E+03  0.00000000000E+00 0. -1.
</event>
<event>
 8    1  0.6637272E-009  0.1217812E+03  0.7561462E-02  0.1240187E+00
          2   -1    0    0  501    0  0.00000000000E+00  0.00000000000E+00  0.55787006301E+02  0.55787006301E+02  0.00000000000E+00 0. -1.
         -2   -1    0    0    0  501 -0.00000000000E+00 -0.00000000000E+00 -0.31475762717E+03  0.31475762717E+03  0.00000000000E+00 0.  1.
         25    2    1    2    0    0 -0.26919909167E+02 -0.70414731971E+02 -0.15726902916E+03  0.21462578546E+03  0.12509102392E+03 0.  0.
         23    2    1    2    0    0  0.26919909167E+02  0.70414731971E+02 -0.10170159170E+03  0.15591884800E+03  0.91019544161E+02 0.  0.
          5    1    3    3  502    0 -0.71215168538E+02 -0.15778088131E+02 -0.60134474319E+02  0.94626506311E+02  0.41800000000E+01 0. -1.
         -5    1    3    3    0  502  0.44295259372E+02 -0.54636643840E+02 -0.97134554842E+02  0.11999927915E+03  0.41800000000E+01 0. -1.
        -11    1    4    4    0    0 -0.48611602661E+00 -0.12604660355E+02  0.85293682226E+01  0.15227077649E+02  0.00000000000E+00 0. -1.
         11    1    4    4    0    0  0.27406025193E+02  0.83019392325E+02 -0.11023095993E+03  0.14069177035E+03  0.00000000000E+00 0.  1.
</event>
<event>
 8    1  0.6637272E-009  0.1406020E+03  0.7561462E-02  0.1212521E+00
         -1   -1    0    0    0  501 -0.00000000000E+00  0.00000000000E+00  0.51400704264E+02  0.51400704264E+02  0.00000000000E+00 0.  1.
          1   -1    0    0  501    0  0.00000000000E+00 -0.00000000000E+00 -0.54824525919E+03  0.54824525919E+03  0.00000000000E+00 0. -1.
         25    2    1    2    0    0  0.72309260201E+02 -0.99331040168E+02 -0.32725229965E+03  0.37125945536E+03  0.12507690002E+03 0.  0.
         23    2    1    2    0    0 -0.72309260201E+02  0.99331040168E+02 -0.16959225528E+03  0.22838650809E+03  0.91123978056E+02 0.  0.
          5    1    3    3  502    0  0.10897323584E+01 -0.24704728773E+02 -0.22346371365E+03  0.22486666018E+03  0.41800000000E+01 0. -1.
         -5    1    3    3    0  502  0.71219527843E+02 -0.74626311395E+02 -0.10378858600E+03  0.14639279518E+03  0.41800000000E+01 0. -1.
        -11    1    4    4    0    0 -0.86439859081E+02  0.46415664145E+02 -0.11243342856E+03  0.14922311809E+03  0.00000000000E+00 0. -1.
         11    1    4    4    0    0  0.14130598880E+02  0.52915376022E+02 -0.57158826717E+02  0.79163389998E+02  0.00000000000E+00 0.  1.
</event>
<event>
 7    1  0.6637272E-009  0.1039226E+03  0.7561462E-02  0.1272257E+00
         -1   -1    0    0    0  501 -0.00000000000E+00  0.00000000000E+00  0.12006264980E+03  0.12006264980E+03  0.00000000000E+00 0.  1.
          1   -1    0    0  501    0  0.00000000000E+00 -0.00000000000E+00 -0.18465660784E+03  0.18465660784E+03  0.00000000000E+00 0. -1.
         23    2    1    2    0    0 -0.37366686668E+02 -0.15526225808E+02 -0.12545002493E+03  0.15976349533E+03  0.90273654643E+02 0.  0.
          5    1    1    2  502    0 -0.41060560281E+02 -0.59514455552E+01 -0.25199723619E+01  0.41775734290E+02  0.41800000000E+01 0.  1.
         -5    1    1    2    0  502  0.78427246948E+02  0.21477671363E+02  0.63376039262E+02  0.10318002803E+03  0.41800000000E+01 0.  1.
        -11    1    3    3    0    0 -0.60165815630E+02 -0.14566248968E+02 -0.46061937254E+02  0.77160890631E+02  0.00000000000E+00 0.  1.
         11    1    3    3    0    0  0.22799128962E+02 -0.95997684016E+00 -0.79388087679E+02  0.82602604695E+02  0.00000000000E+00 0. -1.
</event>
<event>
 8    1  0.6637272E-009  0.1144129E+03  0.7561462E-02  0.1252609E+00
          2   -1    0    0  501    0  0.00000000000E+00  0.00000000000E+00  0.88284065770E+02  0.88284065770E+02  0.00000000000E+00 0. -1.
         -2   -1    0    0    0  501 -0.00000000000E+00 -0.00000000000E+00 -0.26865728226E+03  0.26865728226E+03  0.00000000000E+00 0.  1.
         25    2    1    2    0    0 -0.71028412583E+02  0.49043412615E+02 -0.19428375759E+02  0.15322874588E+03  0.12510513604E+03 0.  0.
         23    2    1    2    0    0  0.71028412583E+02 -0.49043412615E+02 -0.16094484073E+03  0.20371260215E+03  0.90251264825E+02 0.  0.
          5    1    3    3  502    0  0.25771868258E+02 -0.93838914239E+01  0.19124859554E+02  0.33696873219E+02  0.41800000000E+01 0.  1.
         -5    1    3    3    0  502 -0.96800280841E+02  0.58427304039E+02 -0.38553235314E+02  0.11953187266E+03  0.41800000000E+01 0.  1.
        -11    1    4    4    0    0  0.47693412118E+02 -0.22934710041E+02 -0.16017076920E+03  0.16868710024E+03  0.00000000000E+00 0.  1.
         11    1    4    4    0    0  0.23335000465E+02 -0.26108702574E+02 -0.77407153007E+00  0.35025501903E+02  0.00000000000E+00 0. -1.
</event>
<event>
 8    1  0.6637272E-009  0.1062836E+03  0.7561462E-02  0.1267611E+00
         -1   -1    0    0    0  501 -0.00000000000E+00  0.00000000000E+00  0.37031300824E+02  0.37031300824E+02  0.00000000000E+00 0.  1.
          1   -1    0    0  501    0  0.00000000000E+00 -0.00000000000E+00 -0.33477420922E+03  0.33477420922E+03  0.00000000000E+00 0. -1.
         25    2    1    2    0    0 -0.75875406118E+01  0.13006966783E+02 -0.20463221261E+03  0.24030954776E+03  0.12509030478E+03 0.  0.
         23    2    1    2    0    0  0.75875406118E+01 -0.13006966783E+02 -0.93110695786E+02  0.13149596228E+03  0.91623329286E+02 0.  0.
          5    1    3    3  502    0  0.56018089494E+02 -0.11098447227E+01 -0.63373420746E+02  0.84693098673E+02  0.41800000000E+01 0.  1.
         -5    1    3    3    0  502 -0.63605630105E+02  0.14116811506E+02 -0.14125879186E+03  0.15561644909E+03  0.41800000000E+01 0.  1.
        -11    1    4    4    0    0  0.48255330841E+02  0.45403312860E+00 -0.61930679883E+02  0.78512369799E+02  0.00000000000E+00 0. -1.
         11    1    4    4    0    0 -0.40667790229E+02 -0.13460999911E+02 -0.31180015903E+02  0.52983592484E+02  0.00000000000E+00 0.  1.
</event>
<event>
 8    1  0.6637272E-009  0.1200613E+03  0.7561462E-02  0.1242996E+00
          1   -1    0    0  501    0  0.00000000000E+00  0.00000000000E+00  0.28448693197E+03  0.28448693197E+03  0.00000000000E+00 0. -1.
         -1   -1    0    0    0  501 -0.00000000000E+00 -0.00000000000E+00 -0.63668895636E+02  0.63668895636E+02  0.00000000000E+00 0.  1.
         25    2    1    2    0    0 -0.60230028693E+02 -0.62758391873E+01  0.49360959442E+02  0.14748296050E+03  0.12509067434E+03 0.  0.
         23    2    1    2    0    0  0.60230028693E+02  0.62758391873E+01  0.17145707689E+03  0.20067286710E+03  0.84882435529E+02 0.  0.
          5    1    3    3  502    0  0.30010593345E+02 -0.29914197715E+02  0.30085375154E+02  0.52135373175E+02  0.41800000000E+01 0. -1.
         -5    1    3    3    0  502 -0.90240622038E+02  0.23638358528E+02  0.19275584287E+02  0.95347587328E+02  0.41800000000E+01 0. -1.
        -11    1    4    4    0    0  0.55987678207E+02  0.40865884431E+02  0.10979969554E+03  0.12984842611E+03  0.00000000000E+00 0.  1.
         11    1    4    4    0    0  0.42423504860E+01 -0.34590045243E+02  0.61657381347E+02  0.70824440994E+02  0.00000000000E+00 0. -1.
</event>
<event>
 8    1  0.6637272E-009  0.1400757E+03  0.7561462E-02  0.1213227E+00
         -2   -1    0    0    0  501 -0.00000000000E+00  0.00000000000E+00  0.86588564820E+03  0.86588564820E+03  0.00000000000E+00 0.  1.
          2   -1    0    0  501    0  0.00000000000E+00 -0.00000000000E+00 -0.30683123545E+02  0.30683123545E+02  0.00000000000E+00 0. -1.
         25    2    1    2    0    0 -0.11096323524E+03  0.27699440358E+01  0.31350144171E+03  0.35531092754E+03  0.12506873753E+03 0.  0.
         23    2    1    2    0    0  0.11096323524E+03 -0.27699440358E+01  0.52170108294E+03  0.54125784421E+03  0.92019138278E+02 0.  0.
          5    1    3    3  502    0 -0.38598319229E+00  0.47380278881E+02  0.79339951995E+02  0.92505892745E+02  0.41800000000E+01 0.  1.
         -5    1    3    3    0  502 -0.11057725205E+03 -0.44610334845E+02  0.23416148972E+03  0.26280503479E+03  0.41800000000E+01 0.  1.
        -11    1    4    4    0    0  0.91292362164E+02  0.65126992218E+01  0.50654516024E+03  0.51474722924E+03  0.00000000000E+00 0.  1.
         11    1    4    4    0    0  0.19670873074E+02 -0.92826432576E+01  0.15155922700E+02  0.26510614973E+02  0.00000000000E+00 0. -1.
</event>
<event>
 8    1  0.6637272E-009  0.9720065E+02  0.7561462E-02  0.1286295E+00
          2   -1    0    0  501    0  0.00000000000E+00  0.00000000000E+00  0.86549155801E+03  0.86549155801E+03  0.00000000000E+00 0. -1.
         -2   -1    0    0    0  501 -0.00000000000E+00 -0.00000000000E+00 -0.28164544741E+02  0.28164544741E+02  0.00000000000E+00 0.  1.
         25    2    1    2    0    0  0.96504377914E+01  0.93176829204E+02  0.62401708141E+03  0.64328837574E+03  0.12509022354E+03 0.  0.
         23    2    1    2    0    0 -0.96504377914E+01 -0.93176829204E+02  0.21330993186E+03  0.25036772701E+03  0.91694161468E+02 0.  0.
          5    1    3    3  502    0  0.54411985681E+01  0.91056887760E+02  0.20726737832E+03  0.22649106377E+03  0.41800000000E+01 0.  1.
         -5    1    3    3    0  502  0.42092392233E+01  0.21199414448E+01  0.41674970309E+03  0.41679731198E+03  0.41800000000E+01 0.  1.
        -11    1    4    4    0    0  0.12582604003E+01 -0.78448074006E+02  0.21779712667E+03  0.23149788750E+03  0.00000000000E+00 0. -1.
         11    1    4    4    0    0 -0.10908698192E+02 -0.14728755199E+02 -0.44871948012E+01  0.18869839510E+02  0.00000000000E+00 0.  1.
</event>
<event>
 8    1  0.6637272E-009  0.1299821E+03  0.7561462E-02  0.1227482E+00
         -1   -1    0    0    0  501 -0.00000000000E+00  0.00000000000E+00  0.24848941041E+03  0.24848941041E+03  0.00000000000E+00 0.  1.
          1   -1    0    0  501    0  0.00000000000E+00 -0.00000000000E+00 -0.10881023826E+03  0.10881023826E+03  0.00000000000E+00 0. -1.
         25    2    1    2    0    0 -0.87236180582E+02 -0.53645722401E+02  0.14883000511E+03  0.21973904875E+03  0.12508742700E+03 0.  0.
         23    2    1    2    0    0  0.87236180582E+02  0.53645722401E+02 -0.91508329545E+01  0.13756059991E+03  0.91384715186E+02 0.  0.
          5    1    3    3  502    0 -0.10308297367E+03 -0.53858322518E+02  0.62959865568E+02  0.13231868892E+03  0.41800000000E+01 0.  1.
         -5    1    3    3    0  502  0.15846793084E+02  0.21260011625E+00  0.85870139537E+02  0.87420359837E+02  0.41800000000E+01 0.  1.
        -11    1    4    4    0    0  0.21135407561E+02  0.57218008774E+02 -0.30245259911E+02  0.68083637740E+02  0.00000000000E+00 0. -1.
         11    1    4    4    0    0  0.66100773020E+02 -0.35722863730E+01  0.21094426956E+02  0.69476962170E+02  0.00000000000E+00 0.  1.
</event>
<event>
 8    1  0.6637272E-009  0.1015837E+03  0.7561462E-02  0.1277000E+00
         -2   -1    0    0    0  501 -0.00000000000E+00  0.00000000000E+00  0.16493184652E+02  0.16493184652E+02  0.00000000000E+00 0.  1.
          2   -1    0    0  501    0  0.00000000000E+00 -0.00000000000E+00 -0.79583349549E+03  0.79583349549E+03  0.00000000000E+00 0. -1.
         25    2    1    2    0    0 -0.11452571784E+02  0.16201398093E+02 -0.55910944233E+03  0.57327534506E+03  0.12509039152E+03 0.  0.
         23    2    1    2    0    0  0.11452571784E+02 -0.16201398093E+02 -0.22023086851E+03  0.23905133509E+03  0.90830934493E+02 0.  0.
          5    1    3    3  502    0  0.49838162448E+02 -0.28150651308E+01 -0.12899275793E+03  0.13837763919E+03  0.41800000000E+01 0. -1.
         -5    1    3    3    0  502 -0.61290734232E+02  0.19016463223E+02 -0.43011668440E+03  0.43489770587E+03  0.41800000000E+01 0. -1.
        -11    1    4    4    0    0  0.91875543918E+01 -0.52045635544E+02 -0.16421651977E+03  0.17251152049E+03  0.00000000000E+00 0. -1.
         11    1    4    4    0    0  0.22650173921E+01  0.35844237451E+02 -0.56014348741E+02  0.66539814601E+02  0.00000000000E+00 0.  1.
</event>
<event>
 8    1  0.6637272E-009  0.8525276E+02  0.7561462E-02  0.1314773E+00
          1   -1    0    0  501    0  0.00000000000E+00  0.00000000000E+00  0.40089829526E+03  0.40089829526E+03  0.00000000000E+00 0. -1.
         -1   -1    0    0    0  501 -0.00000000000E+00 -0.00000000000E+00 -0.31231189220E+02  0.31231189220E+02  0.00000000000E+00 0.  1.
         25    2    1    2    0    0  0.17120833905E+02 -0.54178111785E+01  0.16478989274E+03  0.20766647642E+03  0.12508869272E+03 0.  0.
         23    2    1    2    0    0 -0.17120833905E+02  0.54178111785E+01  0.20487721330E+03  0.22446300806E+03  0.89924934399E+02 0.  0.
          5    1    3    3  502    0 -0.32096087983E+02 -0.36173015534E+01  0.15356545443E+03  0.15698109736E+03  0.41800000000E+01 0.  1.
         -5    1    3    3    0  502  0.49216921888E+02 -0.18005096252E+01  0.11224438312E+02  0.50685379060E+02  0.41800000000E+01 0.  1.
        -11    1    4    4    0    0  0.22740040072E+02 -0.28297685752E+02  0.56387257938E+02  0.67062592398E+02  0.00000000000E+00 0. -1.
         11    1    4    4    0    0 -0.39860873977E+02  0.33715496930E+02  0.14848995536E+03  0.15740041566E+03  0.00000000000E+00 0.  1.
</event>
<event>
 8    1  0.6637272E-009  0.9095804E+02  0.7561462E-02  0.1300548E+00
         -2   -1    0    0    0  501 -0.00000000000E+00  0.00000000000E+00  0.13971577395E+02  0.13971577395E+02  0.00000000000E+00 0.  1.
          2   -1    0    0  501    0  0.00000000000E+00 -0.00000000000E+00 -0.85561311272E+03  0.85561311272E+03  0.00000000000E+00 0. -1.
         25    2    1    2    0    0 -0.11464835852E+02 -0.22935465568E+02 -0.60497474004E+03  0.61830374706E+03  0.12509040533E+03 0.  0.
         23    2    1    2    0    0  0.11464835852E+02  0.22935465568E+02 -0.23666679529E+03  0.25128094305E+03  0.80457829376E+02 0.  0.
          5    1    3    3  502    0 -0.25751802752E+02 -0.62657498354E+02 -0.50723447911E+03  0.51175522142E+03  0.41800000000E+01 0.  1.
         -5    1    3    3    0  502  0.14286966900E+02  0.39722032787E+02 -0.97740260921E+02  0.10654852564E+03  0.41800000000E+01 0.  1.
        -11    1    4    4    0    0  0.28442526992E+02 -0.13457989858E+02 -0.41802168789E+02  0.52321278159E+02  0.00000000000E+00 0.  1.
         11    1    4    4    0    0 -0.16977691140E+02  0.36393455426E+02 -0.19486462650E+03  0.19895966489E+03  0.00000000000E+00 0. -1.
</event>
<event>
 8    1  0.6637272E-009  0.9664272E+02  0.7561462E-02  0.1287519E+00
         -1   -1    0    0    0  501 -0.00000000000E+00  0.00000000000E+00  0.30760333298E+03  0.30760333298E+03  0.00000000000E+00 0.  1.
          1   -1    0    0  501    0  0.00000000000E+00 -0.00000000000E+00 -0.64836470664E+02  0.64836470664E+02  0.00000000000E+00 0. -1.
         25    2    1    2    0    0  0.67214629363E+02  0.40086753749E+02  0.68613526656E+02  0.16270380033E+03  0.12505981119E+03 0.  0.
         23    2    1    2    0    0 -0.67214629363E+02 -0.40086753749E+02  0.17415333566E+03  0.20973600332E+03  0.86804680406E+02 0.  0.
          5    1    3    3  502    0  0.66517283687E+02  0.19661351768E+02 -0.19485803541E+02  0.72168460716E+02  0.41800000000E+01 0.  1.
         -5    1    3    3    0  502  0.69734567566E+00  0.20425401981E+02  0.88099330197E+02  0.90535339610E+02  0.41800000000E+01 0.  1.
        -11    1    4    4    0    0 -0.17602175864E+02 -0.49413894668E+02  0.38714041495E+02  0.65194682224E+02  0.00000000000E+00 0. -1.
         11    1    4    4    0    0 -0.49612453499E+02  0.93271409195E+01  0.13543929417E+03  0.14454132110E+03  0.00000000000E+00 0.  1.
</event>
<event>
 8    1  0.6637272E-009  0.1103619E+03  0.7561462E-02  0.1259901E+00
          1   -1    0    0  501    0  0.00000000000E+00  0.00000000000E+00  0.72766416298E+03  0.72766416298E+03  0.00000000000E+00 0. -1.
         -1   -1    0    0    0  501 -0.00000000000E+00 -0.00000000000E+00 -0.19536603236E+02  0.19536603236E+02  0.00000000000E+00 0.  1.
         25    2    1    2    0    0 -0.31656298052E+02 -0.36007899569E+02  0.38227039260E+03  0.40506483479E+03  0.12509267479E+03 0.  0.
         23    2    1    2    0    0  0.31656298052E+02  0.36007899569E+02  0.32585716714E+03  0.34213593142E+03  0.92603521301E+02 0.  0.
          5    1    3    3  502    0 -0.29819015392E+02 -0.73971527727E+02  0.15262662414E+03  0.17225945370E+03  0.41800000000E+01 0. -1.
         -5    1    3    3    0  502 -0.18372826600E+01  0.37963628158E+02  0.22964376846E+03  0.23280538108E+03  0.41800000000E+01 0. -1.
        -11    1    4    4    0    0  0.56231580869E+02 -0.32284131543E+01  0.20858517932E+03  0.21605598897E+03  0.00000000000E+00 0.  1.
         11    1    4    4    0    0 -0.24575282817E+02  0.39236312723E+02  0.11727198782E+03  0.12607994245E+03  0.00000000000E+00 0. -1.
</event>
<event>
 7    1  0.6637272E-009  0.1826587E+03  0.7561462E-02  0.1165255E+00
          2   -1    0    0  501    0  0.00000000000E+00  0.00000000000E+00  0.43756353135E+03  0.43756353135E+03  0.00000000000E+00 0. -1.
         -2   -1    0    0    0  501 -0.00000000000E+00 -0.00000000000E+00 -0.89901490420E+02  0.89901490420E+02  0.00000000000E+00 0.  1.
         25    2    1    2    0    0 -0.48172516881E+02 -0.15281194741E+03  0.28749510491E+03  0.35209728536E+03  0.12508789054E+03 0.  0.
          5    1    3    3  502    0  0.23562620740E+02 -0.12303897181E+03  0.17088026259E+03  0.21192291576E+03  0.41800000000E+01 0.  1.
         -5    1    3    3    0  502 -0.71735137620E+02 -0.29772975599E+02  0.11661484232E+03  0.14017436961E+03  0.41800000000E+01 0.  1.
        -11    1    1    2    0    0  0.27992007594E+02  0.48955806393E+02  0.65915836269E+01  0.56777393771E+02  0.00000000000E+00 0.  1.
         11    1    1    2    0    0  0.20180509287E+02  0.10385614102E+03  0.53575352395E+02  0.11859034264E+03  0.00000000000E+00 0. -1.
</event>
<event>
 8    1  0.6637272E-009  0.1471129E+03  0.7561462E-02  0.1204066E+00
         -2   -1    0    0    0  501 -0.00000000000E+00  0.00000000000E+00  0.22740378364E+03  0.22740378364E+03  0.00000000000E+00 0.  1.
          2   -1    0    0  501    0  0.00000000000E+00 -0.00000000000E+00 -0.10286706766E+03  0.10286706766E+03  0.00000000000E+00 0. -1.
         25    2    1    2    0    0  0.94536508956E+02 -0.42336472860E+02  0.39131831350E+02  0.16705784302E+03  0.12508994456E+03 0.  0.
         23    2    1    2    0    0 -0.94536508956E+02  0.42336472860E+02  0.85404884634E+02  0.16321300827E+03  0.92816826548E+02 0.  0.
          5    1    3    3  502    0  0.71404676081E+01  0.38333167718E+02 -0.62087575899E+01  0.39704396429E+02  0.41800000000E+01 0.  1.
         -5    1    3    3    0  502  0.87396041348E+02 -0.80669640578E+02  0.45340588940E+02  0.12735344660E+03  0.41800000000E+01 0.  1.
        -11    1    4    4    0    0  0.17191715495E+02  0.90021483537E+01  0.25748674220E+02  0.32242642273E+02  0.00000000000E+00 0.  1.
         11    1    4    4    0    0 -0.11172822445E+03  0.33334324506E+02  0.59656210414E+02  0.13097036600E+03  0.00000000000E+00 0. -1.
</event>
<event>
 7    1  0.6637272E-009  0.1371465E+03  0.7561462E-02  0.1217221E+00
         -1   -1    0    0    0  501 -0.00000000000E+00  0.00000000000E+00  0.79589804396E+02  0.79589804396E+02  0.00000000000E+00 0.  1.
          1   -1    0    0  501    0  0.00000000000E+00 -0.00000000000E+00 -0.29465385983E+03  0.29465385983E+03  0.00000000000E+00 0. -1.
         23    2    1    2    0    0  0.80693273371E+02  0.12401492044E+02 -0.27776622429E+02  0.13447222421E+03  0.10317963442E+03 0.  0.
          5    1    1    2  502    0 -0.89128034268E+02  0.35126702745E+02 -0.92073548072E+02  0.13293871668E+03  0.41800000000E+01 0.  1.
         -5    1    1    2    0  502  0.84347608968E+01 -0.47528194789E+02 -0.95213884934E+02  0.10683272334E+03  0.41800000000E+01 0.  1.
        -11    1    3    3    0    0 -0.24150231012E+02  0.61462661100E+01  0.28130968758E+01  0.25078352399E+02  0.00000000000E+00 0.  1.
         11    1    3    3    0    0  0.10484350438E+03  0.62552259343E+01 -0.30589719305E+02  0.10939387181E+03  0.00000000000E+00 0. -1.
</event>
<event>
 8    1  0.6637272E-009  0.7805350E+02  0.7561462E-02  0.1334668E+00
         -1   -1    0    0    0  501 -0.00000000000E+00  0.00000000000E+00  0.54840114491E+02  0.54840114491E+02  0.00000000000E+00 0.  1.
          1   -1    0    0  501    0  0.00000000000E+00 -0.00000000000E+00 -0.25437856139E+03  0.25437856139E+03  0.00000000000E+00 0. -1.
         25    2    1    2    0    0 -0.24423966771E+02  0.16626577451E+02 -0.15906902197E+03  0.20450863903E+03  0.12509139242E+03 0.  0.
         23    2    1    2    0    0  0.24423966771E+02 -0.16626577451E+02 -0.40469424927E+02  0.10471003685E+03  0.91942613800E+02 0.  0.
          5    1    3    3  502    0 -0.50872017690E+02  0.20566930310E+02 -0.13793471248E+02  0.56733526731E+02  0.41800000000E+01 0.  1.
         -5    1    3    3    0  502  0.26448050919E+02 -0.39403528589E+01 -0.14527555072E+03  0.14777511230E+03  0.41800000000E+01 0.  1.
        -11    1    4    4    0    0  0.47144469537E+02 -0.19678297334E+02 -0.56927779347E+02  0.76489270197E+02  0.00000000000E+00 0. -1.
         11    1    4    4    0    0 -0.22720502766E+02  0.30517198829E+01  0.16458354420E+02  0.28220766652E+02  0.00000000000E+00 0.  1.
</event>
<event>
 8    1  0.6637272E-009  0.2806695E+03  0.7561462E-02  0.1095324E+00
         -2   -1    0    0    0  501 -0.00000000000E+00  0.00000000000E+00  0.11447331103E+03  0.11447331103E+03  0.00000000000E+00 0.  1.
          2   -1    0    0  501    0  0.00000000000E+00 -0.00000000000E+00 -0.77330949246E+03  0.77330949246E+03  0.00000000000E+00 0. -1.
         25    2    1    2    0    0  0.25858892782E+03 -0.79585906865E+02 -0.40480035334E+03  0.50270596269E+03  0.12509120154E+03 0.  0.
         23    2    1    2    0    0 -0.25858892782E+03  0.79585906865E+02 -0.25403582809E+03  0.38507684080E+03  0.10270258617E+03 0.  0.
          5    1    3    3  502    0  0.23236466890E+03 -0.30201400653E+02 -0.27501147316E+03  0.36132291199E+03  0.41800000000E+01 0.  1.
         -5    1    3    3    0  502  0.26224258915E+02 -0.49384506211E+02 -0.12978888018E+03  0.14138305071E+03  0.41800000000E+01 0.  1.
        -11    1    4    4    0    0 -0.52721476662E+02  0.10468307586E+02 -0.11575904954E+03  0.12762953073E+03  0.00000000000E+00 0. -1.
         11    1    4    4    0    0 -0.20586745116E+03  0.69117599278E+02 -0.13827677856E+03  0.25744731007E+03  0.00000000000E+00 0.  1.
</event>
<event>
 8    1  0.6637272E-009  0.9963279E+02  0.7561462E-02  0.1281070E+00
          1   -1    0    0  501    0  0.00000000000E+00  0.00000000000E+00  0.24492679693E+03  0.24492679693E+03  0.00000000000E+00 0. -1.
         -1   -1    0    0    0  501 -0.00000000000E+00 -0.00000000000E+00 -0.49736399532E+02  0.49736399532E+02  0.00000000000E+00 0.  1.
         25    2    1    2    0    0 -0.20519296210E+02 -0.12249060822E+02  0.16197727875E+03  0.20604836830E+03  0.12509280651E+03 0.  0.
         23    2    1    2    0    0  0.20519296210E+02  0.12249060822E+02  0.33213118645E+02  0.88614828161E+02  0.78602770383E+02 0.  0.
          5    1    3    3  502    0 -0.30261298902E+02  0.47478980402E+02  0.11897505035E+03  0.13169105815E+03  0.41800000000E+01 0.  1.
         -5    1    3    3    0  502  0.97420026925E+01 -0.59728041224E+02  0.43002228398E+02  0.74357310146E+02  0.41800000000E+01 0.  1.
        -11    1    4    4    0    0  0.56365672451E+01 -0.33534341769E+02  0.14389143734E+02  0.36923846300E+02  0.00000000000E+00 0. -1.
         11    1    4    4    0    0  0.14882728964E+02  0.45783402592E+02  0.18823974911E+02  0.51690981861E+02  0.00000000000E+00 0.  1.
</event>
<event>
 8    1  0.6637272E-009  0.1509233E+03  0.7561462E-02  0.1199343E+00
         -1   -1    0    0    0  501 -0.00000000000E+00  0.00000000000E+00  0.10307909408E+03  0.10307909408E+03  0.00000000000E+00 0.  1.
          1   -1    0    0  501    0  0.00000000000E+00 -0.00000000000E+00 -0.29605183462E+03  0.29605183462E+03  0.00000000000E+00 0. -1.
         25    2    1    2    0    0 -0.44146517305E+02  0.12812631852E+03 -0.81783804958E+02  0.20173186628E+03  0.12506752829E+03 0.  0.
         23    2    1    2    0    0  0.44146517305E+02 -0.12812631852E+03 -0.11118893558E+03  0.19739906242E+03  0.90764210799E+02 0.  0.
          5    1    3    3  502    0 -0.61571415871E+02  0.41710030438E+02  0.91094570520E+01  0.75041458536E+02  0.41800000000E+01 0. -1.
         -5    1    3    3    0  502  0.17424898566E+02  0.86416288084E+02 -0.90893262010E+02  0.12669040775E+03  0.41800000000E+01 0. -1.
        -11    1    4    4    0    0  0.69059867873E+00 -0.47574785108E+02 -0.92449271790E+02  0.10397453996E+03  0.00000000000E+00 0. -1.
         11    1    4    4    0    0  0.43455918626E+02 -0.80551533414E+02 -0.18739663787E+02  0.93424522465E+02  0.00000000000E+00 0.  1.
</event>
<event>
 8    1  0.6637272E-009  0.9988916E+02  0.7561462E-02  0.1280529E+00
         -1   -1    0    0    0  501 -0.00000000000E+00  0.00000000000E+00  0.81345302157E+02  0.81345302157E+02  0.00000000000E+00 0.  1.
          1   -1    0    0  501    0  0.00000000000E+00 -0.00000000000E+00 -0.17031927272E+03  0.17031927272E+03  0.00000000000E+00 0. -1.
         25    2    1    2    0    0 -0.27394768316E+02 -0.12022917063E+02 -0.97993025917E+01  0.12899001711E+03  0.12508946525E+03 0.  0.
         23    2    1    2    0    0  0.27394768316E+02  0.12022917063E+02 -0.79174667974E+02  0.12267455777E+03  0.88799747803E+02 0.  0.
          5    1    3    3  502    0  0.39161320084E+02 -0.36301862917E+02  0.11720824273E+02  0.54829593867E+02  0.41800000000E+01 0.  1.
         -5    1    3    3    0  502 -0.66556088400E+02  0.24278945855E+02 -0.21520126865E+02  0.74160423241E+02  0.41800000000E+01 0.  1.
        -11    1    4    4    0    0  0.17788473634E+02  0.41014064010E+02 -0.82591922748E+01  0.45462044585E+02  0.00000000000E+00 0.  1.
         11    1    4    4    0    0  0.96062946824E+01 -0.28991146947E+02 -0.70915475700E+02  0.77212513186E+02  0.00000000000E+00 0. -1.
</event>
<event>
 8    1  0.6637272E-009  0.1754452E+03  0.7561462E-02  0.1172285E+00
         -2   -1    0    0    0  501 -0.00000000000E+00  0.00000000000E+00  0.28008643461E+03  0.28008643461E+03  0.00000000000E+00 0.  1.
          2   -1    0    0  501    0  0.00000000000E+00 -0.00000000000E+00 -0.21202365794E+03  0.21202365794E+03  0.00000000000E+00 0. -1.
         25    2    1    2    0    0  0.14161240967E+03 -0.95620667802E+02 -0.10095216858E+03  0.23459773292E+03  0.12508944507E+03 0.  0.
         23    2    1    2    0    0 -0.14161240967E+03  0.95620667802E+02  0.16901494525E+03  0.25751235963E+03  0.92461759442E+02 0.  0.
          5    1    3    3  502    0  0.57412105677E+02 -0.51511530363E+02  0.20876112582E+02  0.80017948706E+02  0.41800000000E+01 0. -1.
         -5    1    3    3    0  502  0.84200303994E+02 -0.44109137439E+02 -0.12182828116E+03  0.15457978422E+03  0.41800000000E+01 0. -1.
        -11    1    4    4    0    0 -0.32720357694E+02  0.51481276487E+02  0.13286027894E+02  0.62429657804E+02  0.00000000000E+00 0. -1.
         11    1    4    4    0    0 -0.10889205198E+03  0.44139391315E+02  0.15572891736E+03  0.19508270182E+03  0.00000000000E+00 0.  1.
</event>
<event>
 8    1  0.6637272E-009  0.1558901E+03  0.7561462E-02  0.1193417E+00
          1   -1    0    0  501    0  0.00000000000E+00  0.00000000000E+00  0.10020144749E+04  0.10020144749E+04  0.00000000000E+00 0. -1.
         -1   -1    0    0    0  501 -0.00000000000E+00 -0.00000000000E+00 -0.28506652190E+02  0.28506652190E+02  0.00000000000E+00 0.  1.
         25    2    1    2    0    0 -0.11379984404E+03 -0.34157746494E+02  0.35559487821E+03  0.39523668724E+03  0.12508863010E+03 0.  0.
         23    2    1    2    0    0  0.11379984404E+03  0.34157746494E+02  0.61791294453E+03  0.63528443989E+03  0.87480034245E+02 0.  0.
          5    1    3    3  502    0 -0.26175799293E+02  0.43462111653E+02  0.69996373740E+02  0.86551096786E+02  0.41800000000E+01 0. -1.
         -5    1    3    3    0  502 -0.87624044747E+02 -0.77619858147E+02  0.28559850447E+03  0.30868559045E+03  0.41800000000E+01 0. -1.
        -11    1    4    4    0    0  0.90670993104E+02 -0.12630000661E+02  0.45833441184E+03  0.46738761107E+03  0.00000000000E+00 0. -1.
         11    1    4    4    0    0  0.23128850936E+02  0.46787747155E+02  0.15957853269E+03  0.16789682882E+03  0.00000000000E+00 0.  1.
</event>
<event>
 8    1  0.6637272E-009  0.1088070E+03  0.7561462E-02  0.1262795E+00
         -1   -1    0    0    0  501 -0.00000000000E+00  0.00000000000E+00  0.51494837556E+02  0.51494837556E+02  0.00000000000E+00 0.  1.
          1   -1    0    0  501    0  0.00000000000E+00 -0.00000000000E+00 -0.32364415404E+03  0.32364415404E+03  0.00000000000E+00 0. -1.
         25    2    1    2    0    0  0.40101738639E+02  0.57196064003E+02 -0.16107961179E+03  0.21557235912E+03  0.12508101976E+03 0.  0.
         23    2    1    2    0    0 -0.40101738639E+02 -0.57196064003E+02 -0.11106970469E+03  0.15956663247E+03  0.90804689961E+02 0.  0.
          5    1    3    3  502    0  0.19159351855E+02  0.94441730990E+02 -0.86718545050E+02  0.12970697657E+03  0.41800000000E+01 0. -1.
         -5    1    3    3    0  502  0.20942386784E+02 -0.37245666987E+02 -0.74361066737E+02  0.85865382546E+02  0.41800000000E+01 0. -1.
        -11    1    4    4    0    0 -0.26108359692E+01 -0.34079567565E+02 -0.11034350173E+03  0.11551589399E+03  0.00000000000E+00 0. -1.
         11    1    4    4    0    0 -0.37490902670E+02 -0.23116496438E+02 -0.72620296619E+00  0.44050738488E+02  0.00000000000E+00 0.  1.
</event>
<event>
 8    1  0.6637272E-009  0.8255631E+02  0.7561462E-02  0.1321950E+00
         -1   -1    0    0    0  501 -0.00000000000E+00  0.00000000000E+00  0.27140377697E+02  0.27140377697E+02  0.00000000000E+00 0.  1.
          1   -1    0    0  501    0  0.00000000000E+00 -0.00000000000E+00 -0.50009812250E+03  0.50009812250E+03  0.00000000000E+00 0. -1.
         25    2    1    2    0    0  0.33900344832E+02 -0.26409903829E+02 -0.25354331646E+03  0.28596533120E+03  0.12508093750E+03 0.  0.
         23    2    1    2    0    0 -0.33900344832E+02  0.26409903829E+02 -0.21941442834E+03  0.24127316900E+03  0.90682602047E+02 0.  0.
          5    1    3    3  502    0  0.43588178739E+02  0.14580057790E+01 -0.25236897451E+03  0.25614376198E+03  0.41800000000E+01 0. -1.
         -5    1    3    3    0  502 -0.96878339079E+01 -0.27867909608E+02 -0.11743419533E+01  0.29821569220E+02  0.41800000000E+01 0. -1.
        -11    1    4    4    0    0 -0.33356870788E+02  0.54234684959E+02 -0.19169886767E+03  0.20199638053E+03  0.00000000000E+00 0.  1.
         11    1    4    4    0    0 -0.54347404313E+00 -0.27824781131E+02 -0.27715560672E+02  0.39276788468E+02  0.00000000000E+00 0. -1.
</event>
<event>
 7    1  0.6637272E-009  0.1416005E+03  0.7561462E-02  0.1211191E+00
          1   -1    0    0  501    0  0.00000000000E+00  0.00000000000E+00  0.14851623412E+04  0.14851623412E+04  0.00000000000E+00 0. -1.
         -1   -1    0    0    0  501 -0.00000000000E+00 -0.00000000000E+00 -0.23151596426E+02  0.23151596426E+02  0.00000000000E+00 0.  1.
         25    2    1    2    0    0 -0.94277603960E+02 -0.66944793256E+02  0.87450113281E+03  0.89093667086E+03  0.12508416463E+03 0.  0.
          5    1    3    3  502    0 -0.14554704979E+02 -0.26217390890E+02  0.62663334934E+03  0.62736434225E+03  0.41800000000E+01 0. -1.
         -5    1    3    3    0  502 -0.79722898980E+02 -0.40727402366E+02  0.24786778348E+03  0.26357232862E+03  0.41800000000E+01 0. -1.
        -11    1    1    2    0    0 -0.13062502044E+02  0.53562649191E+02  0.72233585323E+02  0.90869561441E+02  0.00000000000E+00 0.  1.
         11    1    1    2    0    0  0.10734010600E+03  0.13382144065E+02  0.51527602660E+03  0.52650770529E+03  0.00000000000E+00 0. -1.
</event>
<event>
 8    1  0.6637272E-009  0.1100391E+03  0.7561462E-02  0.1260498E+00
         -2   -1    0    0    0  501 -0.00000000000E+00  0.00000000000E+00  0.15504620277E+03  0.15504620277E+03  0.00000000000E+00 0.  1.
          2   -1    0    0  501    0  0.00000000000E+00 -0.00000000000E+00 -0.12634311801E+03  0.12634311801E+03  0.00000000000E+00 0. -1.
         25    2    1    2    0    0  0.68693192296E+02  0.29579934050E+02 -0.35237917854E+02  0.14994429536E+03  0.12509138136E+03 0.  0.
         23    2    1    2    0    0 -0.68693192296E+02 -0.29579934050E+02  0.63941002616E+02  0.13144502543E+03  0.87152829717E+02 0.  0.
          5    1    3    3  502    0  0.57057009742E+02 -0.21458446807E+02  0.28447562520E+02  0.67399580959E+02  0.41800000000E+01 0.  1.
         -5    1    3    3    0  502  0.11636182554E+02  0.51038380857E+02 -0.63685480374E+02  0.82544714400E+02  0.41800000000E+01 0.  1.
        -11    1    4    4    0    0 -0.33167283490E+02  0.24863935249E+02  0.50016580209E+02  0.64961082703E+02  0.00000000000E+00 0.  1.
         11    1    4    4    0    0 -0.35525908806E+02 -0.54443869299E+02  0.13924422408E+02  0.66483942724E+02  0.00000000000E+00 0. -1.
</event>
<event>
 8    1  0.6637272E-009  0.9531690E+02  0.7561462E-02  0.1290464E+00
          2   -1    0    0  501    0  0.00000000000E+00  0.00000000000E+00  0.21582365453E+03  0.21582365453E+03  0.00000000000E+00 0. -1.
         -2   -1    0    0    0  501 -0.00000000000E+00 -0.00000000000E+00 -0.69120159453E+02  0.69120159453E+02  0.00000000000E+00 0.  1.
         25    2    1    2    0    0 -0.33161459162E+02  0.36795504243E+02  0.94214196111E+02  0.16424872577E+03  0.12509091759E+03 0.  0.
         23    2    1    2    0    0  0.33161459162E+02 -0.36795504243E+02  0.52489298967E+02  0.12069508821E+03  0.96739786571E+02 0.  0.
          5    1    3    3  502    0  0.29981695057E+02 -0.29840054490E+02  0.26361602644E+02  0.50017370827E+02  0.41800000000E+01 0. -1.
         -5    1    3    3    0  502 -0.63143154220E+02  0.66635558733E+02  0.67852593467E+02  0.11423135495E+03  0.41800000000E+01 0. -1.
        -11    1    4    4    0    0  0.59083280341E+01 -0.26416166285E+02 -0.25649889020E+02  0.37291272278E+02  0.00000000000E+00 0.  1.
         11    1    4    4    0    0  0.27253131128E+02 -0.10379337958E+02  0.78139187987E+02  0.83403815932E+02  0.00000000000E+00 0. -1.
</event>
<event>
 8    1  0.6637272E-009  0.9722598E+02  0.7561462E-02  0.1286240E+00
         -3   -1    0    0    0  501 -0.00000000000E+00  0.00000000000E+00  0.37276154250E+03  0.37276154250E+03  0.00000000000E+00 0.  1.
          3   -1    0    0  501    0  0.00000000000E+00 -0.00000000000E+00 -0.46690554970E+02  0.46690554970E+02  0.00000000000E+00 0. -1.
         25    2    1    2    0    0  0.46130051514E+02 -0.38656831509E+02  0.25191844308E+03  0.28763396194E+03  0.12509221330E+03 0.  0.
         23    2    1    2    0    0 -0.46130051514E+02  0.38656831509E+02  0.74152544455E+02  0.13181813553E+03  0.90857518839E+02 0.  0.
          5    1    3    3  502    0  0.45397122561E+02  0.17013171904E+01  0.24145363185E+03  0.24572570470E+03  0.41800000000E+01 0. -1.
         -5    1    3    3    0  502  0.73292895254E+00 -0.40358148700E+02  0.10464811227E+02  0.41908257245E+02  0.41800000000E+01 0. -1.
        -11    1    4    4    0    0 -0.62252876045E+02 -0.42665207068E+01  0.35124078652E+02  0.71605339717E+02  0.00000000000E+00 0.  1.
         11    1    4    4    0    0  0.16122824531E+02  0.42923352216E+02  0.39028465803E+02  0.60212795810E+02  0.00000000000E+00 0. -1.
</event>
<event>
 8    1  0.6637272E-009  0.8379739E+02  0.7561462E-02  0.1318608E+00
          2   -1    0    0  501    0  0.00000000000E+00  0.00000000000E+00  0.48163108438E+03  0.48163108438E+03  0.00000000000E+00 0. -1.
         -2   -1    0    0    0  501 -0.00000000000E+00 -0.00000000000E+00 -0.26964517316E+02  0.26964517316E+02  0.00000000000E+00 0.  1.
         25    2    1    2    0    0 -0.37464561495E+01 -0.10515591054E+01  0.32726351292E+03  0.35036732652E+03  0.12506284379E+03 0.  0.
         23    2    1    2    0    0  0.37464561495E+01  0.10515591054E+01  0.12740305415E+03  0.15822827518E+03  0.93752371429E+02 0.  0.
          5    1    3    3  502    0  0.29655425418E+02 -0.23123045731E+02  0.24806016229E+02  0.45243014287E+02  0.41800000000E+01 0.  1.
         -5    1    3    3    0  502 -0.33401881568E+02  0.22071486626E+02  0.30245749669E+03  0.30512431224E+03  0.41800000000E+01 0.  1.
        -11    1    4    4    0    0 -0.20152908345E+02  0.39436973654E+02  0.39351102286E+02  0.59244610361E+02  0.00000000000E+00 0.  1.
         11    1    4    4    0    0  0.23899364494E+02 -0.38385414549E+02  0.88051951863E+02  0.98983664815E+02  0.00000000000E+00 0. -1.
</event>
<event>
 8    1  0.6637272E-009  0.9899121E+02  0.7561462E-02  0.1282432E+00
          1   -1    0    0  501    0  0.00000000000E+00  0.00000000000E+00  0.11397156658E+03  0.11397156658E+03  0.00000000000E+00 0. -1.
         -1   -1    0    0    0  501 -0.00000000000E+00 -0.00000000000E+00 -0.14790634320E+03  0.14790634320E+03  0.00000000000E+00 0.  1.
         25    2    1    2    0    0  0.92280176179E+01  0.28659891729E+02  0.45346071721E+02  0.13641607584E+03  0.12508610564E+03 0.  0.
         23    2    1    2    0    0 -0.92280176179E+01 -0.28659891729E+02 -0.79280848343E+02  0.12546183394E+03  0.92459035023E+02 0.  0.
          5    1    3    3  502    0  0.13414861761E+02  0.65557407927E+02  0.65694055755E+02  0.93866466918E+02  0.41800000000E+01 0. -1.
         -5    1    3    3    0  502 -0.41868441434E+01 -0.36897516197E+02 -0.20347984034E+02  0.42549608925E+02  0.41800000000E+01 0. -1.
        -11    1    4    4    0    0  0.31582589862E+02  0.13985609454E+02 -0.46558104771E+02  0.57971668719E+02  0.00000000000E+00 0.  1.
         11    1    4    4    0    0 -0.40810607480E+02 -0.42645501183E+02 -0.32722743571E+02  0.67490165216E+02  0.00000000000E+00 0. -1.
</event>
<event>
 8    1  0.6637272E-009  0.2199997E+03  0.7561462E-02  0.1133883E+00
          1   -1    0    0  501    0  0.00000000000E+00  0.00000000000E+00  0.61782949629E+02  0.61782949629E+02  0.00000000000E+00 0. -1.
         -1   -1    0    0    0  501 -0.00000000000E+00 -0.00000000000E+00 -0.99441113419E+03  0.99441113419E+03  0.00000000000E+00 0.  1.
         25    2    1    2    0    0  0.20866943511E+03  0.46134360961E+01 -0.32239393355E+03  0.40391838303E+03  0.12509194548E+03 0.  0.
         23    2    1    2    0    0 -0.20866943511E+03 -0.46134360961E+01 -0.61023425101E+03  0.65227570078E+03  0.97537335328E+02 0.  0.
          5    1    3    3  502    0  0.20848173456E+03  0.23375959418E+02 -0.32243083767E+03  0.38469492666E+03  0.41800000000E+01 0. -1.
         -5    1    3    3    0  502  0.18770055477E+00 -0.18762523322E+02  0.36904119805E-01  0.19223456371E+02  0.41800000000E+01 0. -1.
        -11    1    4    4    0    0 -0.12942013713E+03  0.11996613856E+02 -0.23641894445E+03  0.26979141561E+03  0.00000000000E+00 0.  1.
         11    1    4    4    0    0 -0.79249297980E+02 -0.16610049952E+02 -0.37381530655E+03  0.38248428517E+03  0.00000000000E+00 0. -1.
</event>
<event>
 8    1  0.6637272E-009  0.1364570E+03  0.7561462E-02  0.1218177E+00
         -1   -1    0    0    0  501 -0.00000000000E+00  0.00000000000E+00  0.53998751986E+02  0.53998751986E+02  0.00000000000E+00 0.  1.
          1   -1    0    0  501    0  0.00000000000E+00 -0.00000000000E+00 -0.48304486372E+03  0.48304486372E+03  0.00000000000E+00 0. -1.
         25    2    1    2    0    0 -0.47700612697E+02 -0.72690900236E+02 -0.94009962825E+02  0.17900955515E+03  0.12508889757E+03 0.  0.
         23    2    1    2    0    0  0.47700612697E+02  0.72690900236E+02 -0.33503614891E+03  0.35803406056E+03  0.91541531636E+02 0.  0.
          5    1    3    3  502    0 -0.83574206070E+02 -0.16120289997E+02 -0.53166529129E+02  0.10044234112E+03  0.41800000000E+01 0.  1.
         -5    1    3    3    0  502  0.35873593374E+02 -0.56570610239E+02 -0.40843433696E+02  0.78567214030E+02  0.41800000000E+01 0.  1.
        -11    1    4    4    0    0 -0.61778165430E+01  0.65999445126E+02 -0.12991333460E+03  0.14584775172E+03  0.00000000000E+00 0.  1.
         11    1    4    4    0    0  0.53878429240E+02  0.66914551099E+01 -0.20512281431E+03  0.21218630884E+03  0.00000000000E+00 0. -1.
</event>
<event>
 8    1  0.6637272E-009  0.6590500E+02  0.7561462E-02  0.1374599E+00
         -2   -1    0    0    0  501 -0.00000000000E+00  0.00000000000E+00  0.12677488172E+03  0.12677488172E+03  0.00000000000E+00 0. -1.
          2   -1    0    0  501    0  0.00000000000E+00 -0.00000000000E+00 -0.12257920726E+03  0.12257920726E+03  0.00000000000E+00 0.  1.
         25    2    1    2    0    0  0.25172951566E+02 -0.49708177971E+02 -0.28520269829E+02  0.13987488072E+03  0.12508795312E+03 0.  0.
         23    2    1    2    0    0 -0.25172951566E+02  0.49708177971E+02  0.32715944286E+02  0.10947920827E+03  0.88378637607E+02 0.  0.
          5    1    3    3  502    0  0.20888263564E+02  0.98776110031E-02  0.45653710773E+02  0.50379096455E+02  0.41800000000E+01 0. -1.
         -5    1    3    3    0  502  0.42846880022E+01 -0.49718055582E+02 -0.74173980602E+02  0.89495784260E+02  0.41800000000E+01 0. -1.
        -11    1    4    4    0    0 -0.29114595339E+02  0.36744842129E+02  0.61696655069E+02  0.77487549526E+02  0.00000000000E+00 0. -1.
         11    1    4    4    0    0  0.39416437724E+01  0.12963335841E+02 -0.28980710783E+02  0.31991658745E+02  0.00000000000E+00 0.  1.
</event>
<event>
 8    1  0.6637272E-009  0.1090895E+03  0.7561462E-02  0.1262265E+00
         -2   -1    0    0    0  501 -0.00000000000E+00  0.00000000000E+00  0.10597235640E+03  0.10597235640E+03  0.00000000000E+00 0.  1.
          2   -1    0    0  501    0  0.00000000000E+00 -0.00000000000E+00 -0.32435637291E+03  0.32435637291E+03  0.00000000000E+00 0. -1.
         25    2    1    2    0    0  0.45547771350E+02 -0.91294123901E+01 -0.28069175697E+03  0.31079387086E+03  0.12508805734E+03 0.  0.
         23    2    1    2    0    0 -0.45547771350E+02  0.91294123901E+01  0.62307740459E+02  0.11953485844E+03  0.90820604582E+02 0.  0.
          5    1    3    3  502    0 -0.38050271453E+02 -0.99178354516E+01 -0.15363404073E+03  0.15864134861E+03  0.41800000000E+01 0.  1.
         -5    1    3    3    0  502  0.83598042803E+02  0.78842306149E+00 -0.12705771625E+03  0.15215252226E+03  0.41800000000E+01 0.  1.
        -11    1    4    4    0    0 -0.69778935972E+02  0.25689588172E+01  0.63529219993E+02  0.94401595578E+02  0.00000000000E+00 0.  1.
         11    1    4    4    0    0  0.24231164622E+02  0.65604535729E+01 -0.12214795338E+01  0.25133262866E+02  0.00000000000E+00 0. -1.
</event>
<event>
 8    1  0.6637272E-009  0.1036966E+03  0.7561462E-02  0.1272709E+00
          2   -1    0    0  501    0  0.00000000000E+00  0.00000000000E+00  0.31700285201E+03  0.31700285201E+03  0.00000000000E+00 0. -1.
         -2   -1    0    0    0  501 -0.00000000000E+00 -0.00000000000E+00 -0.43563632772E+02  0.43563632772E+02  0.00000000000E+00 0.  1.
         25    2    1    2    0    0  0.17847236852E+02 -0.37655909499E+02  0.13558965735E+03  0.18912636947E+03  0.12509091519E+03 0.  0.
         23    2    1    2    0    0 -0.17847236852E+02  0.37655909499E+02  0.13784956189E+03  0.17144011532E+03  0.93019998084E+02 0.  0.
          5    1    3    3  502    0  0.48881315636E+02  0.28719979268E+02  0.44777881274E+02  0.72365401117E+02  0.41800000000E+01 0.  1.
         -5    1    3    3    0  502 -0.31034078784E+02 -0.66375888767E+02  0.90811776077E+02  0.11676096835E+03  0.41800000000E+01 0.  1.
        -11    1    4    4    0    0  0.17219529682E+02 -0.84873617009E+01 -0.27223519699E+01  0.19389654751E+02  0.00000000000E+00 0.  1.
         11    1    4    4    0    0 -0.35066766535E+02  0.46143271199E+02  0.14057191386E+03  0.15205046057E+03  0.00000000000E+00 0. -1.
</event>
<event>
 8    1  0.6637272E-009  0.1360719E+03  0.7561462E-02  0.1218714E+00
         -2   -1    0    0    0  501 -0.00000000000E+00  0.00000000000E+00  0.79319470666E+03  0.79319470666E+03  0.00000000000E+00 0.  1.
          2   -1    0    0  501    0  0.00000000000E+00 -0.00000000000E+00 -0.35417893609E+02  0.35417893609E+02  0.00000000000E+00 0. -1.
         25    2    1    2    0    0 -0.62286775845E+02 -0.95535819284E+02  0.54313267708E+03  0.56890044998E+03  0.12509149396E+03 0.  0.
         23    2    1    2    0    0  0.62286775845E+02  0.95535819284E+02  0.21464413597E+03  0.25971215029E+03  0.91496233204E+02 0.  0.
          5    1    3    3  502    0 -0.76782321512E+02 -0.35124143244E+02  0.44294210373E+03  0.45093725727E+03  0.41800000000E+01 0.  1.
         -5    1    3    3    0  502  0.14495545667E+02 -0.60411676040E+02  0.10019057334E+03  0.11796319271E+03  0.41800000000E+01 0.  1.
        -11    1    4    4    0    0  0.70111114174E+02  0.71829126072E+02  0.21205841446E+03  0.23461407209E+03  0.00000000000E+00 0.  1.
         11    1    4    4    0    0 -0.78243383285E+01  0.23706693213E+02  0.25857215133E+01  0.25098078196E+02  0.00000000000E+00 0. -1.
</event>
<event>
 8    1  0.6637272E-009  0.1005320E+03  0.7561462E-02  0.1279181E+00
         -1   -1    0    0    0  501 -0.00000000000E+00  0.00000000000E+00  0.82891340918E+02  0.82891340918E+02  0.00000000000E+00 0.  1.
          1   -1    0    0  501    0  0.00000000000E+00 -0.00000000000E+00 -0.16193752389E+03  0.16193752389E+03  0.00000000000E+00 0. -1.
         25    2    1    2    0    0  0.31774998327E+02  0.13290485009E+01 -0.48033775022E+02  0.13772002758E+03  0.12509254800E+03 0.  0.
         23    2    1    2    0    0 -0.31774998327E+02 -0.13290485009E+01 -0.31012407949E+02  0.10710883723E+03  0.97463411990E+02 0.  0.
          5    1    3    3  502    0  0.60645709768E+02 -0.37428377945E+02 -0.28772351301E+01  0.71446038874E+02  0.41800000000E+01 0. -1.
         -5    1    3    3    0  502 -0.28870711441E+02  0.38757426446E+02 -0.45156539892E+02  0.66273988705E+02  0.41800000000E+01 0. -1.
        -11    1    4    4    0    0 -0.10701566613E+02  0.36405985232E+02 -0.47547486787E+02  0.60833237531E+02  0.00000000000E+00 0. -1.
         11    1    4    4    0    0 -0.21073431714E+02 -0.37735033733E+02  0.16535078838E+02  0.46275599696E+02  0.00000000000E+00 0.  1.
</event>
<event>
 8    1  0.6637272E-009  0.1120572E+03  0.7561462E-02  0.1256807E+00
          2   -1    0    0  501    0  0.00000000000E+00  0.00000000000E+00  0.34554117041E+03  0.34554117041E+03  0.00000000000E+00 0.  1.
         -2   -1    0    0    0  501 -0.00000000000E+00 -0.00000000000E+00 -0.76077841757E+02  0.76077841757E+02  0.00000000000E+00 0. -1.
         25    2    1    2    0    0  0.11732429761E+01  0.66678006315E+02  0.13955836326E+02  0.14244870801E+03  0.12509810558E+03 0.  0.
         23    2    1    2    0    0 -0.11732429761E+01 -0.66678006315E+02  0.25550749233E+03  0.27917030416E+03  0.90579506866E+02 0.  0.
          5    1    3    3  502    0 -0.37302404571E+02  0.36562967044E+01  0.47990908849E+02  0.61036363133E+02  0.41800000000E+01 0.  1.
         -5    1    3    3    0  502  0.38475647547E+02  0.63021709611E+02 -0.34035072523E+02  0.81412344875E+02  0.41800000000E+01 0.  1.
        -11    1    4    4    0    0  0.43342228019E+02 -0.46505950031E+02  0.14797839268E+03  0.16105575686E+03  0.00000000000E+00 0.  1.
         11    1    4    4    0    0 -0.44515470995E+02 -0.20172056284E+02  0.10752909965E+03  0.11811454730E+03  0.00000000000E+00 0. -1.
</event>
<event>
 8    1  0.6637272E-009  0.9669272E+02  0.7561462E-02  0.1287409E+00
          1   -1    0    0  501    0  0.00000000000E+00  0.00000000000E+00  0.27509540719E+02  0.27509540719E+02  0.00000000000E+00 0. -1.
         -1   -1    0    0    0  501 -0.00000000000E+00 -0.00000000000E+00 -0.64523985729E+03  0.64523985729E+03  0.00000000000E+00 0.  1.
         25    2    1    2    0    0 -0.75427087772E+02  0.37662795261E+01 -0.39002822158E+03  0.41650068330E+03  0.12508946848E+03 0.  0.
         23    2    1    2    0    0  0.75427087772E+02 -0.37662795261E+01 -0.22770209499E+03  0.25624871471E+03  0.90065139200E+02 0.  0.
          5    1    3    3  502    0 -0.45201175037E+02 -0.29169504759E+01 -0.38138772846E+03  0.38409077917E+03  0.41800000000E+01 0. -1.
         -5    1    3    3    0  502 -0.30225912736E+02  0.66832300020E+01 -0.86404931230E+01  0.32409904125E+02  0.41800000000E+01 0. -1.
        -11    1    4    4    0    0  0.12241258280E+02 -0.41362504525E+02 -0.99726119343E+02  0.10865543734E+03  0.00000000000E+00 0.  1.
         11    1    4    4    0    0  0.63185829492E+02  0.37596224999E+02 -0.12797597564E+03  0.14759327737E+03  0.00000000000E+00 0. -1.
</event>
<event>
 8    1  0.6637272E-009  0.1513933E+03  0.7561462E-02  0.1198771E+00
         -3   -1    0    0    0  501 -0.00000000000E+00  0.00000000000E+00  0.15190023559E+03  0.15190023559E+03  0.00000000000E+00 0.  1.
          3   -1    0    0  501    0  0.00000000000E+00 -0.00000000000E+00 -0.15915563131E+03  0.15915563131E+03  0.00000000000E+00 0. -1.
         25    2    1    2    0    0 -0.10980662824E+03 -0.97767209371E+01  0.58454522230E+01  0.16683832338E+03  0.12509107465E+03 0.  0.
         23    2    1    2    0    0  0.10980662824E+03  0.97767209371E+01 -0.13100847935E+02  0.14421754352E+03  0.92054265328E+02 0.  0.
          5    1    3    3  502    0 -0.12140268323E+03  0.25645327559E+02 -0.13060312150E+02  0.12483724794E+03  0.41800000000E+01 0.  1.
         -5    1    3    3    0  502  0.11596054988E+02 -0.35422048496E+02  0.18905764373E+02  0.42001075433E+02  0.41800000000E+01 0.  1.
        -11    1    4    4    0    0  0.28117241294E+02  0.44279214704E+02  0.80158707281E+01  0.53061118499E+02  0.00000000000E+00 0.  1.
         11    1    4    4    0    0  0.81689386948E+02 -0.34502493767E+02 -0.21116718663E+02  0.91156425024E+02  0.00000000000E+00 0. -1.
</event>
<event>
 8    1  0.6637272E-009  0.9623511E+02  0.7561462E-02  0.1288418E+00
          2   -1    0    0  501    0  0.00000000000E+00  0.00000000000E+00  0.32668649449E+03  0.32668649449E+03  0.00000000000E+00 0.  1.
         -2   -1    0    0    0  501 -0.00000000000E+00 -0.00000000000E+00 -0.38936086658E+02  0.38936086658E+02  0.00000000000E+00 0. -1.
         25    2    1    2    0    0 -0.13455998888E+02  0.34075485870E+01  0.12260209203E+03  0.17569362721E+03  0.12507718568E+03 0.  0.
         23    2    1    2    0    0  0.13455998888E+02 -0.34075485870E+01  0.16514831580E+03  0.18992895394E+03  0.92770501994E+02 0.  0.
          5    1    3    3  502    0 -0.61969611344E+02 -0.24470722772E+02  0.47433372886E+02  0.81892895091E+02  0.41800000000E+01 0. -1.
         -5    1    3    3    0  502  0.48513612456E+02  0.27878271359E+02  0.75168719148E+02  0.93800732118E+02  0.41800000000E+01 0. -1.
        -11    1    4    4    0    0 -0.25358398569E+02 -0.14531452054E+02  0.13850173082E+03  0.14155190185E+03  0.00000000000E+00 0.  1.
         11    1    4    4    0    0  0.38814397457E+02  0.11123903467E+02  0.26646584984E+02  0.48377052097E+02  0.00000000000E+00 0. -1.
</event>
<event>
 8    1  0.6637272E-009  0.1251425E+03  0.7561462E-02  0.1234847E+00
         -1   -1    0    0    0  501 -0.00000000000E+00  0.00000000000E+00  0.66322478146E+02  0.66322478146E+02  0.00000000000E+00 0.  1.
          1   -1    0    0  501    0  0.00000000000E+00 -0.00000000000E+00 -0.27343986677E+03  0.27343986677E+03  0.00000000000E+00 0. -1.
         25    2    1    2    0    0  0.99279524957E+01 -0.77314088086E+02 -0.10102194892E+03  0.17868747511E+03  0.12509095547E+03 0.  0.
         23    2    1    2    0    0 -0.99279524957E+01  0.77314088086E+02 -0.10609543970E+03  0.16107486981E+03  0.92805381850E+02 0.  0.
          5    1    3    3  502    0 -0.44721108528E+02 -0.80824337705E+02 -0.63888043004E+02  0.11239086063E+03  0.41800000000E+01 0. -1.
         -5    1    3    3    0  502  0.54649061024E+02  0.35102496196E+01 -0.37133905917E+02  0.66296614482E+02  0.41800000000E+01 0. -1.
        -11    1    4    4    0    0  0.13527031892E+02  0.78263085767E+02 -0.11158763878E+03  0.13696675624E+03  0.00000000000E+00 0.  1.
         11    1    4    4    0    0 -0.23454984387E+02 -0.94899768101E+00  0.54921990771E+01  0.24108113570E+02  0.00000000000E+00 0. -1.
</event>
<event>
 8    1  0.6637272E-009  0.1911359E+03  0.7561462E-02  0.1157441E+00
          1   -1    0    0  501    0  0.00000000000E+00  0.00000000000E+00  0.74428685146E+03  0.74428685146E+03  0.00000000000E+00 0. -1.
         -1   -1    0    0    0  501 -0.00000000000E+00 -0.00000000000E+00 -0.55627358943E+02  0.55627358943E+02  0.00000000000E+00 0.  1.
         25    2    1    2    0    0  0.11583521518E+03  0.12703322264E+03  0.37421862123E+03  0.43039822343E+03  0.12509123683E+03 0.  0.
         23    2    1    2    0    0 -0.11583521518E+03 -0.12703322264E+03  0.31444087129E+03  0.36951598697E+03  0.90076447293E+02 0.  0.
          5    1    3    3  502    0  0.13966899485E+03  0.10762115037E+03  0.34646307374E+03  0.38877226495E+03  0.41800000000E+01 0. -1.
         -5    1    3    3    0  502 -0.23833779671E+02  0.19412072272E+02  0.27755547488E+02  0.41625958483E+02  0.41800000000E+01 0. -1.
        -11    1    4    4    0    0 -0.48132304577E+02 -0.30545273258E+02  0.36700416008E+02  0.67798620911E+02  0.00000000000E+00 0.  1.
         11    1    4    4    0    0 -0.67702910606E+02 -0.96487949381E+02  0.27774045528E+03  0.30171736605E+03  0.00000000000E+00 0. -1.
</event>
<event>
 8    1  0.6637272E-009  0.1503283E+03  0.7561462E-02  0.1200070E+00
          3   -1    0    0  501    0  0.00000000000E+00  0.00000000000E+00  0.71027550991E+02  0.71027550991E+02  0.00000000000E+00 0. -1.
         -3   -1    0    0    0  501 -0.00000000000E+00 -0.00000000000E+00 -0.34647359928E+03  0.34647359928E+03  0.00000000000E+00 0.  1.
         25    2    1    2    0    0 -0.75289542587E+02  0.79006117641E+02 -0.10947636714E+03  0.19885352609E+03  0.12508864068E+03 0.  0.
         23    2    1    2    0    0  0.75289542587E+02 -0.79006117641E+02 -0.16596968115E+03  0.21864762419E+03  0.91380340623E+02 0.  0.
          5    1    3    3  502    0 -0.72763213362E+02 -0.12789508931E+02 -0.45710033010E+02  0.86976642125E+02  0.41800000000E+01 0. -1.
         -5    1    3    3    0  502 -0.25263292254E+01  0.91795626573E+02 -0.63766334130E+02  0.11187688396E+03  0.41800000000E+01 0. -1.
        -11    1    4    4    0    0  0.50786139583E+02 -0.93401024716E+02 -0.15548257654E+03  0.18835555473E+03  0.00000000000E+00 0.  1.
         11    1    4    4    0    0  0.24503403005E+02  0.14394907075E+02 -0.10487104612E+02  0.30292069451E+02  0.00000000000E+00 0. -1.
</event>
<event>
 8    1  0.6637272E-009  0.6856624E+02  0.7561462E-02  0.1365038E+00
         -2   -1    0    0    0  501 -0.00000000000E+00  0.00000000000E+00  0.56183764951E+02  0.56183764951E+02  0.00000000000E+00 0.  1.
          2   -1    0    0  501    0  0.00000000000E+00 -0.00000000000E+00 -0.24630423392E+03  0.24630423392E+03  0.00000000000E+00 0. -1.
         25    2    1    2    0    0 -0.37941447213E+02 -0.14789348014E+01 -0.73551102973E+02  0.14999936982E+03  0.12509318740E+03 0.  0.
         23    2    1    2    0    0  0.37941447213E+02  0.14789348014E+01 -0.11656936600E+03  0.15248862905E+03  0.90678686782E+02 0.  0.
          5    1    3    3  502    0 -0.59853532809E+01  0.77872915140E+01  0.34892798547E+02  0.36488986742E+02  0.41800000000E+01 0.  1.
         -5    1    3    3    0  502 -0.31956093933E+02 -0.92662263154E+01 -0.10844390152E+03  0.11351038308E+03  0.41800000000E+01 0.  1.
        -11    1    4    4    0    0 -0.10279963588E+02  0.33498460302E+02 -0.21279820985E+02  0.40995795823E+02  0.00000000000E+00 0. -1.
         11    1    4    4    0    0  0.48221410802E+02 -0.32019525500E+02 -0.95289545011E+02  0.11149283323E+03  0.00000000000E+00 0.  1.
</event>
<event>
 8    1  0.6637272E-009  0.1504806E+03  0.7561462E-02  0.1199884E+00
          1   -1    0    0  501    0  0.00000000000E+00  0.00000000000E+00  0.38400388890E+02  0.38400388890E+02  0.00000000000E+00 0. -1.
         -1   -1    0    0    0  501 -0.00000000000E+00 -0.00000000000E+00 -0.68262578958E+03  0.68262578958E+03  0.00000000000E+00 0.  1.
         25    2    1    2    0    0 -0.73539662303E+02  0.92981042935E+02 -0.38672664094E+03  0.42338936366E+03  0.12508997631E+03 0.  0.
         23    2    1    2    0    0  0.73539662303E+02 -0.92981042935E+02 -0.25749875976E+03  0.29763681481E+03  0.90711112766E+02 0.  0.
          5    1    3    3  502    0  0.23286327591E+02  0.22951059456E+02 -0.19255039124E+03  0.19535129830E+03  0.41800000000E+01 0.  1.
         -5    1    3    3    0  502 -0.96825989894E+02  0.70029983478E+02 -0.19417624970E+03  0.22803806536E+03  0.41800000000E+01 0.  1.
        -11    1    4    4    0    0  0.88151628226E+01 -0.82370907635E+02 -0.15922610861E+03  0.17948712261E+03  0.00000000000E+00 0.  1.
         11    1    4    4    0    0  0.64724499481E+02 -0.10610135300E+02 -0.98272651147E+02  0.11814969220E+03  0.00000000000E+00 0. -1.
</event>
<event>
 8    1  0.6637272E-009  0.6885882E+02  0.7561462E-02  0.1364017E+00
         -2   -1    0    0    0  501 -0.00000000000E+00  0.00000000000E+00  0.68007971982E+02  0.68007971982E+02  0.00000000000E+00 0.  1.
          2   -1    0    0  501    0  0.00000000000E+00 -0.00000000000E+00 -0.18102398234E+03  0.18102398234E+03  0.00000000000E+00 0. -1.
         25    2    1    2    0    0  0.59136385535E+01 -0.39591873714E+01 -0.91196158727E+02  0.15496798061E+03  0.12509072452E+03 0.  0.
         23    2    1    2    0    0 -0.59136385535E+01  0.39591873714E+01 -0.21819851629E+02  0.94063973710E+02  0.91221044389E+02 0.  0.
          5    1    3    3  502    0 -0.34498716199E+02 -0.31150592469E+02  0.51259971058E+01  0.46949644055E+02  0.41800000000E+01 0. -1.
         -5    1    3    3    0  502  0.40412354753E+02  0.27191405097E+02 -0.96322155833E+02  0.10801833656E+03  0.41800000000E+01 0. -1.
        -11    1    4    4    0    0  0.27115632367E+01 -0.18190363879E+02 -0.52283697080E+02  0.55424064210E+02  0.00000000000E+00 0. -1.
         11    1    4    4    0    0 -0.86252017902E+01  0.22149551250E+02  0.30463845451E+02  0.38639909500E+02  0.00000000000E+00 0.  1.
</event>
<event>
 8    1  0.6637272E-009  0.1292776E+03  0.7561462E-02  0.1228532E+00
         -1   -1    0    0    0  501 -0.00000000000E+00  0.00000000000E+00  0.31186756413E+02  0.31186756413E+02  0.00000000000E+00 0.  1.
          1   -1    0    0  501    0  0.00000000000E+00 -0.00000000000E+00 -0.59730955688E+03  0.59730955688E+03  0.00000000000E+00 0. -1.
         25    2    1    2    0    0  0.16569727940E+02 -0.79718200431E+02 -0.34787956214E+03  0.37854969913E+03  0.12510050997E+03 0.  0.
         23    2    1    2    0    0 -0.16569727940E+02  0.79718200431E+02 -0.21824323833E+03  0.24994661417E+03  0.90629197786E+02 0.  0.
          5    1    3    3  502    0 -0.44236657433E+02 -0.73640312656E+02 -0.23288588448E+03  0.24826011581E+03  0.41800000000E+01 0. -1.
         -5    1    3    3    0  502  0.60806385372E+02 -0.60778877752E+01 -0.11499367766E+03  0.13028958332E+03  0.41800000000E+01 0. -1.
        -11    1    4    4    0    0 -0.45422542845E+02  0.63876994478E+02 -0.99153714787E+02  0.12639199729E+03  0.00000000000E+00 0.  1.
         11    1    4    4    0    0  0.28852814905E+02  0.15841205953E+02 -0.11908952355E+03  0.12355461688E+03  0.00000000000E+00 0. -1.
</event>
<event>
 8    1  0.6637272E-009  0.1232144E+03  0.7561462E-02  0.1237887E+00
         -4   -1    0    0    0  501 -0.00000000000E+00  0.00000000000E+00  0.29210081982E+03  0.29210081982E+03  0.00000000000E+00 0.  1.
          4   -1    0    0  501    0  0.00000000000E+00 -0.00000000000E+00 -0.81683580121E+02  0.81683580121E+02  0.00000000000E+00 0. -1.
         25    2    1    2    0    0 -0.34434519724E+02 -0.10121465712E+03  0.14322543443E+03  0.21814833659E+03  0.12508008924E+03 0.  0.
         23    2    1    2    0    0  0.34434519724E+02  0.10121465712E+03  0.67191805266E+02  0.15563606335E+03  0.90981880364E+02 0.  0.
          5    1    3    3  502    0 -0.28487085842E+02 -0.35304557982E+01 -0.14539367974E+02  0.32447554592E+02  0.41800000000E+01 0.  1.
         -5    1    3    3    0  502 -0.59474338819E+01 -0.97684201322E+02  0.15776480240E+03  0.18570078200E+03  0.41800000000E+01 0.  1.
        -11    1    4    4    0    0  0.26863726522E+02  0.11152280503E+02 -0.15653643913E+02  0.33031344672E+02  0.00000000000E+00 0. -1.
         11    1    4    4    0    0  0.75707932015E+01  0.90062376617E+02  0.82845449179E+02  0.12260471867E+03  0.00000000000E+00 0.  1.
</event>
<event>
 8    1  0.6637272E-009  0.6537344E+02  0.7561462E-02  0.1376572E+00
         -1   -1    0    0    0  501 -0.00000000000E+00  0.00000000000E+00  0.49349799356E+02  0.49349799356E+02  0.00000000000E+00 0.  1.
          1   -1    0    0  501    0  0.00000000000E+00 -0.00000000000E+00 -0.28979380567E+03  0.28979380567E+03  0.00000000000E+00 0. -1.
         25    2    1    2    0    0 -0.12317327072E+02 -0.28222714063E+02 -0.19229616493E+03  0.23145858776E+03  0.12508806764E+03 0.  0.
         23    2    1    2    0    0  0.12317327072E+02  0.28222714063E+02 -0.48147841386E+02  0.10768501727E+03  0.91266698084E+02 0.  0.
          5    1    3    3  502    0 -0.29442117457E+02 -0.18042646559E+02 -0.20469142378E+03  0.20762568903E+03  0.41800000000E+01 0.  1.
         -5    1    3    3    0  502  0.17124790385E+02 -0.10180067505E+02  0.12395258847E+02  0.23832898733E+02  0.41800000000E+01 0.  1.
        -11    1    4    4    0    0 -0.11625726984E+02  0.44931554496E+02  0.53701123666E+01  0.46720875679E+02  0.00000000000E+00 0.  1.
         11    1    4    4    0    0  0.23943054056E+02 -0.16708840433E+02 -0.53517953753E+02  0.60964141592E+02  0.00000000000E+00 0. -1.
</event>
<event>
 8    1  0.6637272E-009  0.1023384E+03  0.7561462E-02  0.1275454E+00
         -2   -1    0    0    0  501 -0.00000000000E+00  0.00000000000E+00  0.97280475289E+02  0.97280475289E+02  0.00000000000E+00 0.  1.
          2   -1    0    0  501    0  0.00000000000E+00 -0.00000000000E+00 -0.17362335028E+03  0.17362335028E+03  0.00000000000E+00 0. -1.
         25    2    1    2    0    0 -0.51809982955E+02 -0.42483208361E+02 -0.70034056726E+02  0.15824488544E+03  0.12509027677E+03 0.  0.
         23    2    1    2    0    0  0.51809982955E+02  0.42483208361E+02 -0.63088182629E+01  0.11265894012E+03  0.90350087300E+02 0.  0.
          5    1    3    3  502    0 -0.20334588757E+02 -0.80654076589E+02 -0.69687844796E+02  0.10859301857E+03  0.41800000000E+01 0. -1.
         -5    1    3    3    0  502 -0.31475394198E+02  0.38170868228E+02 -0.34621193005E+00  0.49651866872E+02  0.41800000000E+01 0. -1.
        -11    1    4    4    0    0  0.34835353133E+02  0.11985217490E+02  0.40188774071E+02  0.54518664946E+02  0.00000000000E+00 0.  1.
         11    1    4    4    0    0  0.16974629822E+02  0.30497990871E+02 -0.46497592334E+02  0.58140275177E+02  0.00000000000E+00 0. -1.
</event>
<event>
 8    1  0.6637272E-009  0.1270265E+03  0.7561462E-02  0.1231936E+00
         -1   -1    0    0    0  501 -0.00000000000E+00  0.00000000000E+00  0.10009272774E+03  0.10009272774E+03  0.00000000000E+00 0.  1.
          1   -1    0    0  501    0  0.00000000000E+00 -0.00000000000E+00 -0.21363127883E+03  0.21363127883E+03  0.00000000000E+00 0. -1.
         25    2    1    2    0    0  0.79011224520E+02  0.20821438159E+02 -0.45838553172E+01  0.14948888798E+03  0.12509840132E+03 0.  0.
         23    2    1    2    0    0 -0.79011224520E+02 -0.20821438159E+02 -0.10895469578E+03  0.16423511858E+03  0.91791843628E+02 0.  0.
          5    1    3    3  502    0  0.16145645750E+02 -0.40541735976E+02 -0.35348743591E+02  0.56314476878E+02  0.41800000000E+01 0.  1.
         -5    1    3    3    0  502  0.62865578770E+02  0.61363174135E+02  0.30764888274E+02  0.93174411104E+02  0.41800000000E+01 0.  1.
        -11    1    4    4    0    0 -0.65381343618E+02  0.28333387248E+02 -0.55253521475E+02  0.90169022184E+02  0.00000000000E+00 0.  1.
         11    1    4    4    0    0 -0.13629880902E+02 -0.49154825407E+02 -0.53701174301E+02  0.74066096397E+02  0.00000000000E+00 0. -1.
</event>
<event>
 8    1  0.6637272E-009  0.1371398E+03  0.7561462E-02  0.1217230E+00
          2   -1    0    0  501    0  0.00000000000E+00  0.00000000000E+00  0.59944109738E+03  0.59944109738E+03  0.00000000000E+00 0. -1.
         -2   -1    0    0    0  501 -0.00000000000E+00 -0.00000000000E+00 -0.38711875864E+02  0.38711875864E+02  0.00000000000E+00 0.  1.
         25    2    1    2    0    0  0.29825869763E+02  0.98576452993E+02  0.35590238461E+03  0.39105082064E+03  0.12508931754E+03 0.  0.
         23    2    1    2    0    0 -0.29825869763E+02 -0.98576452993E+02  0.20482683691E+03  0.24710215261E+03  0.92187532303E+02 0.  0.
          5    1    3    3  502    0 -0.33439809678E+02  0.24677772023E+02  0.21962591748E+03  0.22356258483E+03  0.41800000000E+01 0. -1.
         -5    1    3    3    0  502  0.63265679441E+02  0.73898680970E+02  0.13627646712E+03  0.16748823581E+03  0.41800000000E+01 0. -1.
        -11    1    4    4    0    0  0.29843376914E+02 -0.17918612217E+02  0.77798258377E+02  0.85230703481E+02  0.00000000000E+00 0. -1.
         11    1    4    4    0    0 -0.59669246677E+02 -0.80657840776E+02  0.12702857853E+03  0.16187144912E+03  0.00000000000E+00 0.  1.
</event>
<event>
 8    1  0.6637272E-009  0.1144864E+03  0.7561462E-02  0.1252480E+00
          1   -1    0    0  501    0  0.00000000000E+00  0.00000000000E+00  0.52260812700E+03  0.52260812700E+03  0.00000000000E+00 0. -1.
         -1   -1    0    0    0  501 -0.00000000000E+00 -0.00000000000E+00 -0.33172038215E+02  0.33172038215E+02  0.00000000000E+00 0.  1.
         25    2    1    2    0    0  0.38125344532E+02  0.51672451284E+02  0.18999289188E+03  0.23636245458E+03  0.12508527833E+03 0.  0.
         23    2    1    2    0    0 -0.38125344532E+02 -0.51672451284E+02  0.29944319691E+03  0.31941771064E+03  0.90762666186E+02 0.  0.
          5    1    3    3  502    0  0.54815217188E+02 -0.21065348257E+02  0.12136498322E+03  0.13489028314E+03  0.41800000000E+01 0.  1.
         -5    1    3    3    0  502 -0.16689872657E+02  0.72737799541E+02  0.68627908651E+02  0.10147217144E+03  0.41800000000E+01 0.  1.
        -11    1    4    4    0    0 -0.34154890874E+02 -0.69314359484E+02  0.28760364136E+03  0.29780344445E+03  0.00000000000E+00 0. -1.
         11    1    4    4    0    0 -0.39704536575E+01  0.17641908200E+02  0.11839555553E+02  0.21614266188E+02  0.00000000000E+00 0.  1.
</event>
<event>
 8    1  0.6637272E-009  0.8436337E+02  0.7561462E-02  0.1317106E+00
          1   -1    0    0  501    0  0.00000000000E+00  0.00000000000E+00  0.32212745270E+03  0.32212745270E+03  0.00000000000E+00 0. -1.
         -1   -1    0    0    0  501 -0.00000000000E+00 -0.00000000000E+00 -0.39121329608E+02  0.39121329608E+02  0.00000000000E+00 0.  1.
         25    2    1    2    0    0 -0.25256362065E+02  0.12201859362E+02  0.17329773848E+03  0.21556084307E+03  0.12509037416E+03 0.  0.
         23    2    1    2    0    0  0.25256362065E+02 -0.12201859362E+02  0.10970838461E+03  0.14568793923E+03  0.91663933949E+02 0.  0.
          5    1    3    3  502    0 -0.20365954844E+02 -0.39859479892E+02  0.15274101004E+03  0.15921946741E+03  0.41800000000E+01 0.  1.
         -5    1    3    3    0  502 -0.48904072209E+01  0.52061339254E+02  0.20556728439E+02  0.56341375665E+02  0.41800000000E+01 0.  1.
        -11    1    4    4    0    0  0.56919211345E+01 -0.38286476226E+02  0.10603051967E+03  0.11287481265E+03  0.00000000000E+00 0. -1.
         11    1    4    4    0    0  0.19564440931E+02  0.26084616863E+02  0.36778649390E+01  0.32813126586E+02  0.00000000000E+00 0.  1.
</event>
<event>
 8    1  0.6637272E-009  0.1197244E+03  0.7561462E-02  0.1243552E+00
         -2   -1    0    0    0  501 -0.00000000000E+00  0.00000000000E+00  0.47278770352E+03  0.47278770352E+03  0.00000000000E+00 0.  1.
          2   -1    0    0  501    0  0.00000000000E+00 -0.00000000000E+00 -0.65836717108E+02  0.65836717108E+02  0.00000000000E+00 0. -1.
         25    2    1    2    0    0 -0.84212032879E+02 -0.96472821744E+01  0.47973216841E+02  0.15853292272E+03  0.12508605645E+03 0.  0.
         23    2    1    2    0    0  0.84212032879E+02  0.96472821744E+01  0.35897776957E+03  0.38009149790E+03  0.91759311230E+02 0.  0.
          5    1    3    3  502    0 -0.91705487609E+02  0.10768730072E+02 -0.13298436130E+02  0.93381919066E+02  0.41800000000E+01 0. -1.
         -5    1    3    3    0  502  0.74934547303E+01 -0.20416012247E+02  0.61271652971E+02  0.65151003658E+02  0.41800000000E+01 0. -1.
        -11    1    4    4    0    0  0.86093289493E+02 -0.25410270616E+02  0.25340202700E+03  0.26883140374E+03  0.00000000000E+00 0. -1.
         11    1    4    4    0    0 -0.18812566138E+01  0.35057552791E+02  0.10557574257E+03  0.11126009416E+03  0.00000000000E+00 0.  1.
</event>
<event>
 8    1  0.6637272E-009  0.1393738E+03  0.7561462E-02  0.1214174E+00
         -1   -1    0    0    0  501 -0.00000000000E+00  0.00000000000E+00  0.78120309810E+02  0.78120309810E+02  0.00000000000E+00 0.  1.
          1   -1    0    0  501    0  0.00000000000E+00 -0.00000000000E+00 -0.29879930742E+03  0.29879930742E+03  0.00000000000E+00 0. -1.
         25    2    1    2    0    0  0.10629771270E+03 -0.12789090229E+02 -0.12899723307E+03  0.20916702074E+03  0.12509113427E+03 0.  0.
         23    2    1    2    0    0 -0.10629771270E+03  0.12789090229E+02 -0.91681764539E+02  0.16775259648E+03  0.90953961559E+02 0.  0.
          5    1    3    3  502    0 -0.26272920559E+02  0.57118408876E+00 -0.49382730807E+01  0.27063842058E+02  0.41800000000E+01 0.  1.
         -5    1    3    3    0  502  0.13257063326E+03 -0.13360274318E+02 -0.12405895999E+03  0.18210317868E+03  0.41800000000E+01 0.  1.
        -11    1    4    4    0    0 -0.40770124283E+02  0.30541159982E+02  0.32488704129E+01  0.51044300818E+02  0.00000000000E+00 0.  1.
         11    1    4    4    0    0 -0.65527588422E+02 -0.17752069753E+02 -0.94930634952E+02  0.11670829567E+03  0.00000000000E+00 0. -1.
</event>
<event>
 8    1  0.6637272E-009  0.1012443E+03  0.7561462E-02  0.1277701E+00
          1   -1    0    0  501    0  0.00000000000E+00  0.00000000000E+00  0.13417812186E+04  0.13417812186E+04  0.00000000000E+00 0. -1.
         -1   -1    0    0    0  501 -0.00000000000E+00 -0.00000000000E+00 -0.11984710660E+02  0.11984710660E+02  0.00000000000E+00 0.  1.
         25    2    1    2    0    0 -0.10785211991E+02  0.45819306088E+02  0.98315840402E+03  0.99220237003E+03  0.12509742634E+03 0.  0.
         23    2    1    2    0    0  0.10785211991E+02 -0.45819306088E+02  0.34663810387E+03  0.36156355919E+03  0.91402968604E+02 0.  0.
          5    1    3    3  502    0  0.37607667486E+02  0.42000394112E+02  0.81944059642E+03  0.82138829626E+03  0.41800000000E+01 0.  1.
         -5    1    3    3    0  502 -0.48392879477E+02  0.38189119756E+01  0.16371780760E+03  0.17081407377E+03  0.41800000000E+01 0.  1.
        -11    1    4    4    0    0 -0.36438555641E+02 -0.30704384989E+02  0.11150969033E+03  0.12126392140E+03  0.00000000000E+00 0.  1.
         11    1    4    4    0    0  0.47223767632E+02 -0.15114921099E+02  0.23512841354E+03  0.24029963779E+03  0.00000000000E+00 0. -1.
</event>
<event>
 8    1  0.6637272E-009  0.1120051E+03  0.7561462E-02  0.1256901E+00
         -1   -1    0    0    0  501 -0.00000000000E+00  0.00000000000E+00  0.30201752569E+02  0.30201752569E+02  0.00000000000E+00 0.  1.
          1   -1    0    0  501    0  0.00000000000E+00 -0.00000000000E+00 -0.54880018032E+03  0.54880018032E+03  0.00000000000E+00 0. -1.
         25    2    1    2    0    0  0.19277358682E+02  0.61949102018E+02 -0.23156429476E+03  0.27106866675E+03  0.12508753608E+03 0.  0.
         23    2    1    2    0    0 -0.19277358682E+02 -0.61949102018E+02 -0.28703413299E+03  0.30793326615E+03  0.90691758724E+02 0.  0.
          5    1    3    3  502    0  0.12498430508E+02  0.86233015396E+02 -0.83300427341E+02  0.12061831248E+03  0.41800000000E+01 0.  1.
         -5    1    3    3    0  502  0.67789281743E+01 -0.24283913378E+02 -0.14826386742E+03  0.15045035427E+03  0.41800000000E+01 0.  1.
        -11    1    4    4    0    0  0.34969941687E+02 -0.10644797855E+02 -0.84169618372E+02  0.91764553068E+02  0.00000000000E+00 0.  1.
         11    1    4    4    0    0 -0.54247300369E+02 -0.51304304163E+02 -0.20286451462E+03  0.21616871308E+03  0.00000000000E+00 0. -1.
</event>
<event>
 8    1  0.6637272E-009  0.1220257E+03  0.7561462E-02  0.1239792E+00
          2   -1    0    0  501    0  0.00000000000E+00  0.00000000000E+00  0.64599577389E+02  0.64599577389E+02  0.00000000000E+00 0. -1.
         -2   -1    0    0    0  501 -0.00000000000E+00 -0.00000000000E+00 -0.24789930087E+03  0.24789930087E+03  0.00000000000E+00 0.  1.
         25    2    1    2    0    0 -0.59225570281E+02 -0.30368011159E+02 -0.11917510725E+03  0.18515027906E+03  0.12509210755E+03 0.  0.
         23    2    1    2    0    0  0.59225570281E+02  0.30368011159E+02 -0.64124616232E+02  0.12734859920E+03  0.87611728860E+02 0.  0.
          5    1    3    3  502    0 -0.94294103419E+02 -0.23830050497E+01 -0.95317070602E+02  0.13416360535E+03  0.41800000000E+01 0. -1.
         -5    1    3    3    0  502  0.35068533139E+02 -0.27985006109E+02 -0.23858036649E+02  0.50986673711E+02  0.41800000000E+01 0. -1.
        -11    1    4    4    0    0  0.17459110253E+02  0.53884505578E+02 -0.54207399504E+02  0.78401547390E+02  0.00000000000E+00 0.  1.
         11    1    4    4    0    0  0.41766460027E+02 -0.23516494419E+02 -0.99172167286E+01  0.48947051807E+02  0.00000000000E+00 0. -1.
</event>
<event>
 8    1  0.6637272E-009  0.1145315E+03  0.7561462E-02  0.1252401E+00
          2   -1    0    0  501    0  0.00000000000E+00  0.00000000000E+00  0.22007201785E+03  0.22007201785E+03  0.00000000000E+00 0. -1.
         -2   -1    0    0    0  501 -0.00000000000E+00 -0.00000000000E+00 -0.77430349311E+02  0.77430349311E+02  0.00000000000E+00 0.  1.
         25    2    1    2    0    0  0.18175588210E+02  0.50704951505E+02  0.22605007601E+02  0.13804988774E+03  0.12508173737E+03 0.  0.
         23    2    1    2    0    0 -0.18175588210E+02 -0.50704951505E+02  0.12003666094E+03  0.15945247942E+03  0.90083012327E+02 0.  0.
          5    1    3    3  502    0  0.75252452892E+01 -0.39432231713E+02 -0.98875794317E+01  0.41554384144E+02  0.41800000000E+01 0. -1.
         -5    1    3    3    0  502  0.10650342921E+02  0.90137183218E+02  0.32492587032E+02  0.96495503599E+02  0.41800000000E+01 0. -1.
        -11    1    4    4    0    0 -0.53225734781E+01  0.22702163726E+02  0.75321964103E+01  0.24504122286E+02  0.00000000000E+00 0.  1.
         11    1    4    4    0    0 -0.12853014732E+02 -0.73407115230E+02  0.11250446453E+03  0.13494835714E+03  0.00000000000E+00 0. -1.
</event>
<event>
 8    1  0.6637272E-009  0.1599402E+03  0.7561462E-02  0.1188764E+00
         -1   -1    0    0    0  501 -0.00000000000E+00  0.00000000000E+00  0.24651882960E+02  0.24651882960E+02  0.00000000000E+00 0.  1.
          1   -1    0    0  501    0  0.00000000000E+00 -0.00000000000E+00 -0.13856428479E+04  0.13856428479E+04  0.00000000000E+00 0. -1.
         25    2    1    2    0    0  0.10839239178E+03  0.10189128689E+03 -0.67784905648E+03  0.70516503989E+03  0.12509054792E+03 0.  0.
         23    2    1    2    0    0 -0.10839239178E+03 -0.10189128689E+03 -0.68314190851E+03  0.70512969102E+03  0.91620243648E+02 0.  0.
          5    1    3    3  502    0  0.27589871319E+02  0.15986985849E+02 -0.22435536456E+02  0.39212375751E+02  0.41800000000E+01 0. -1.
         -5    1    3    3    0  502  0.80802520464E+02  0.85904301045E+02 -0.65541352002E+03  0.66595266414E+03  0.41800000000E+01 0. -1.
        -11    1    4    4    0    0 -0.56165644064E+02 -0.10808856427E+01 -0.15352332849E+03  0.16347831745E+03  0.00000000000E+00 0.  1.
         11    1    4    4    0    0 -0.52226747720E+02 -0.10081040125E+03 -0.52961858002E+03  0.54165137356E+03  0.00000000000E+00 0. -1.
</event>
<event>
 8    1  0.6637272E-009  0.1751468E+03  0.7561462E-02  0.1172584E+00
         -1   -1    0    0    0  501 -0.00000000000E+00  0.00000000000E+00  0.13613948034E+03  0.13613948034E+03  0.00000000000E+00 0.  1.
          1   -1    0    0  501    0  0.00000000000E+00 -0.00000000000E+00 -0.26469680061E+03  0.26469680061E+03  0.00000000000E+00 0. -1.
         25    2    1    2    0    0  0.57661508398E+02  0.13729097809E+03 -0.10772459143E+03  0.22231945782E+03  0.12509073310E+03 0.  0.
         23    2    1    2    0    0 -0.57661508398E+02 -0.13729097809E+03 -0.20832728838E+02  0.17851682314E+03  0.96231966298E+02 0.  0.
          5    1    3    3  502    0  0.34272835231E+02  0.15564412766E+03 -0.70031013732E+02  0.17413080426E+03  0.41800000000E+01 0. -1.
         -5    1    3    3    0  502  0.23388673167E+02 -0.18353149563E+02 -0.37693577700E+02  0.48188653553E+02  0.41800000000E+01 0. -1.
        -11    1    4    4    0    0  0.12266498367E+01 -0.75412295282E+02 -0.47375088635E+02  0.89066929737E+02  0.00000000000E+00 0. -1.
         11    1    4    4    0    0 -0.58888158235E+02 -0.61878682812E+02  0.26542359797E+02  0.89449893407E+02  0.00000000000E+00 0.  1.
</event>
<event>
 8    1  0.6637272E-009  0.1012366E+03  0.7561462E-02  0.1277717E+00
         -2   -1    0    0    0  501 -0.00000000000E+00  0.00000000000E+00  0.32677150864E+02  0.32677150864E+02  0.00000000000E+00 0.  1.
          2   -1    0    0  501    0  0.00000000000E+00 -0.00000000000E+00 -0.48049913963E+03  0.48049913963E+03  0.00000000000E+00 0. -1.
         25    2    1    2    0    0 -0.42905833854E+02 -0.39792108506E+02 -0.20959395585E+03  0.25100050704E+03  0.12508919108E+03 0.  0.
         23    2    1    2    0    0  0.42905833854E+02  0.39792108506E+02 -0.23822803291E+03  0.26217578345E+03  0.92516070424E+02 0.  0.
          5    1    3    3  502    0  0.63866748824E+01  0.16438010272E+02  0.87816272951E+01  0.20139195011E+02  0.41800000000E+01 0. -1.
         -5    1    3    3    0  502 -0.49292508737E+02 -0.56230118778E+02 -0.21837558315E+03  0.23086131203E+03  0.41800000000E+01 0. -1.
        -11    1    4    4    0    0 -0.29529649650E+02  0.11258855692E+02 -0.66932281201E+02  0.74018189027E+02  0.00000000000E+00 0. -1.
         11    1    4    4    0    0  0.72435483505E+02  0.28533252814E+02 -0.17129575171E+03  0.18815759442E+03  0.00000000000E+00 0.  1.
</event>
<event>
 8    1  0.6637272E-009  0.1848462E+03  0.7561462E-02  0.1163194E+00
         -1   -1    0    0    0  501 -0.00000000000E+00  0.00000000000E+00  0.74024601363E+02  0.74024601363E+02  0.00000000000E+00 0.  1.
          1   -1    0    0  501    0  0.00000000000E+00 -0.00000000000E+00 -0.54280151979E+03  0.54280151979E+03  0.00000000000E+00 0. -1.
         25    2    1    2    0    0 -0.54674966029E+02  0.14793357487E+03 -0.15733899331E+03  0.25549591559E+03  0.12509560177E+03 0.  0.
         23    2    1    2    0    0  0.54674966029E+02 -0.14793357487E+03 -0.31143792511E+03  0.36133020556E+03  0.93232192766E+02 0.  0.
          5    1    3    3  502    0  0.23171434223E+01  0.13224323530E+03 -0.69319109424E+02  0.14938625696E+03  0.41800000000E+01 0. -1.
         -5    1    3    3    0  502 -0.56992109452E+02  0.15690339573E+02 -0.88019883891E+02  0.10610965864E+03  0.41800000000E+01 0. -1.
        -11    1    4    4    0    0 -0.14267958427E+02 -0.80181378535E+02 -0.10092806710E+03  0.12968848380E+03  0.00000000000E+00 0.  1.
         11    1    4    4    0    0  0.68942924456E+02 -0.67752196338E+02 -0.21050985801E+03  0.23164172176E+03  0.00000000000E+00 0. -1.
</event>
<event>
 8    1  0.6637272E-009  0.1637068E+03  0.7561462E-02  0.1184574E+00
          2   -1    0    0  501    0  0.00000000000E+00  0.00000000000E+00  0.29066885810E+03  0.29066885810E+03  0.00000000000E+00 0. -1.
         -2   -1    0    0    0  501 -0.00000000000E+00 -0.00000000000E+00 -0.11817401469E+03  0.11817401469E+03  0.00000000000E+00 0.  1.
         25    2    1    2    0    0  0.14771683100E+03  0.22159871233E+02  0.10575189132E+03  0.22168167150E+03  0.12509188186E+03 0.  0.
         23    2    1    2    0    0 -0.14771683100E+03 -0.22159871233E+02  0.66742952088E+02  0.18716120129E+03  0.90903088837E+02 0.  0.
          5    1    3    3  502    0  0.15477701159E+03  0.21062908874E+02  0.48181352580E+02  0.16351906489E+03  0.41800000000E+01 0. -1.
         -5    1    3    3    0  502 -0.70601805887E+01  0.10969623588E+01  0.57570538739E+02  0.58162606604E+02  0.41800000000E+01 0. -1.
        -11    1    4    4    0    0 -0.94579417187E+02 -0.45360818946E+02  0.89171488801E+01  0.10527291007E+03  0.00000000000E+00 0.  1.
         11    1    4    4    0    0 -0.53137413817E+02  0.23200947714E+02  0.57825803208E+02  0.81888291218E+02  0.00000000000E+00 0. -1.
</event>
<event>
 8    1  0.6637272E-009  0.2018692E+03  0.7561462E-02  0.1148172E+00
          2   -1    0    0  501    0  0.00000000000E+00  0.00000000000E+00  0.41537290599E+03  0.41537290599E+03  0.00000000000E+00 0. -1.
         -2   -1    0    0    0  501 -0.00000000000E+00 -0.00000000000E+00 -0.12484103073E+03  0.12484103073E+03  0.00000000000E+00 0.  1.
         25    2    1    2    0    0 -0.19412903432E+03 -0.46092318120E+02  0.15859860670E+03  0.28392150763E+03  0.12508925093E+03 0.  0.
         23    2    1    2    0    0  0.19412903432E+03  0.46092318120E+02  0.13193326856E+03  0.25629242908E+03  0.92026290259E+02 0.  0.
          5    1    3    3  502    0 -0.18785449518E+03 -0.41594228183E+02  0.85994946943E+02  0.21078898092E+03  0.41800000000E+01 0. -1.
         -5    1    3    3    0  502 -0.62745391388E+01 -0.44980899372E+01  0.72603659753E+02  0.73132526717E+02  0.41800000000E+01 0. -1.
        -11    1    4    4    0    0  0.92844956600E+02  0.43078095593E+01  0.11095019323E+03  0.14473661792E+03  0.00000000000E+00 0.  1.
         11    1    4    4    0    0  0.10128407772E+03  0.41784508560E+02  0.20983075331E+02  0.11155581117E+03  0.00000000000E+00 0. -1.
</event>
<event>
 8    1  0.6637272E-009  0.1013074E+03  0.7561462E-02  0.1277571E+00
          2   -1    0    0  501    0  0.00000000000E+00  0.00000000000E+00  0.36202381350E+03  0.36202381350E+03  0.00000000000E+00 0.  1.
         -2   -1    0    0    0  501 -0.00000000000E+00 -0.00000000000E+00 -0.37803589007E+02  0.37803589007E+02  0.00000000000E+00 0. -1.
         25    2    1    2    0    0  0.64291601978E+02  0.20162747281E+02  0.21191960631E+03  0.25514173362E+03  0.12508972074E+03 0.  0.
         23    2    1    2    0    0 -0.64291601978E+02 -0.20162747281E+02  0.11230061818E+03  0.14468566888E+03  0.61502581031E+02 0.  0.
          5    1    3    3  502    0  0.70922975287E+02  0.49937966979E+02  0.74819483403E+02  0.11462677029E+03  0.41800000000E+01 0. -1.
         -5    1    3    3    0  502 -0.66313733094E+01 -0.29775219698E+02  0.13710012291E+03  0.14051496334E+03  0.41800000000E+01 0. -1.
        -11    1    4    4    0    0 -0.45109347739E+02 -0.37855056509E+02  0.50407741027E+02  0.77516442851E+02  0.00000000000E+00 0.  1.
         11    1    4    4    0    0 -0.19182254238E+02  0.17692309228E+02  0.61892877150E+02  0.67169226029E+02  0.00000000000E+00 0. -1.
</event>
<event>
 8    1  0.6637272E-009  0.1110483E+03  0.7561462E-02  0.1258641E+00
         -2   -1    0    0    0  501 -0.00000000000E+00  0.00000000000E+00  0.33065465857E+02  0.33065465857E+02  0.00000000000E+00 0.  1.
          2   -1    0    0  501    0  0.00000000000E+00 -0.00000000000E+00 -0.39563759518E+03  0.39563759518E+03  0.00000000000E+00 0. -1.
         25    2    1    2    0    0  0.16910373026E+02  0.26306119280E+02 -0.23299551009E+03  0.26629375981E+03  0.12508991232E+03 0.  0.
         23    2    1    2    0    0 -0.16910373026E+02 -0.26306119280E+02 -0.12957661924E+03  0.16240930123E+03  0.92783124792E+02 0.  0.
          5    1    3    3  502    0  0.79167859706E+01 -0.48231228921E+02 -0.58893329167E+02  0.76647397632E+02  0.41800000000E+01 0. -1.
         -5    1    3    3    0  502  0.89935870551E+01  0.74537348202E+02 -0.17410218092E+03  0.18964636218E+03  0.41800000000E+01 0. -1.
        -11    1    4    4    0    0 -0.35198272837E+02  0.25135413830E+02 -0.54363601380E+02  0.69470199324E+02  0.00000000000E+00 0.  1.
         11    1    4    4    0    0  0.18287899811E+02 -0.51441533110E+02 -0.75213017858E+02  0.92939101909E+02  0.00000000000E+00 0. -1.
</event>
<event>
 8    1  0.6637272E-009  0.1222642E+03  0.7561462E-02  0.1239408E+00
         -1   -1    0    0    0  501 -0.00000000000E+00  0.00000000000E+00  0.61919557888E+02  0.61919557888E+02  0.00000000000E+00 0.  1.
          1   -1    0    0  501    0  0.00000000000E+00 -0.00000000000E+00 -0.29512853724E+03  0.29512853724E+03  0.00000000000E+00 0. -1.
         25    2    1    2    0    0  0.67902252880E+02  0.43781353426E+01 -0.18361109429E+03  0.23235979492E+03  0.12509259104E+03 0.  0.
         23    2    1    2    0    0 -0.67902252880E+02 -0.43781353426E+01 -0.49597885059E+02  0.12468830021E+03  0.91963786305E+02 0.  0.
          5    1    3    3  502    0  0.85359313589E+02 -0.40120544556E+02 -0.12287285895E+03  0.15495509794E+03  0.41800000000E+01 0.  1.
         -5    1    3    3    0  502 -0.17457060709E+02  0.44498679899E+02 -0.60738235338E+02  0.77404696972E+02  0.41800000000E+01 0.  1.
        -11    1    4    4    0    0 -0.73667574817E+02 -0.27251364096E+02 -0.10804353806E+02  0.79286080025E+02  0.00000000000E+00 0.  1.
         11    1    4    4    0    0  0.57653219369E+01  0.22873228753E+02 -0.38793531253E+02  0.45402220185E+02  0.00000000000E+00 0. -1.
</event>
<event>
 8    1  0.6637272E-009  0.8586589E+02  0.7561462E-02  0.1313184E+00
         -1   -1    0    0    0  501 -0.00000000000E+00  0.00000000000E+00  0.31277796209E+02  0.31277796209E+02  0.00000000000E+00 0.  1.
          1   -1    0    0  501    0  0.00000000000E+00 -0.00000000000E+00 -0.50283602588E+03  0.50283602588E+03  0.00000000000E+00 0. -1.
         25    2    1    2    0    0  0.57223374136E+02  0.24019737329E+02 -0.25336752695E+03  0.28930001428E+03  0.12509169524E+03 0.  0.
         23    2    1    2    0    0 -0.57223374136E+02 -0.24019737329E+02 -0.21819070272E+03  0.24481380781E+03  0.92060607286E+02 0.  0.
          5    1    3    3  502    0  0.33275696968E+02  0.44018080033E+02 -0.25177118470E+03  0.25778104124E+03  0.41800000000E+01 0.  1.
         -5    1    3    3    0  502  0.23947677169E+02 -0.19998342705E+02 -0.15963422561E+01  0.31518973037E+02  0.41800000000E+01 0.  1.
        -11    1    4    4    0    0 -0.35627289905E+02 -0.43224490538E+02 -0.53001550423E+02  0.77115658043E+02  0.00000000000E+00 0.  1.
         11    1    4    4    0    0 -0.21596084232E+02  0.19204753209E+02 -0.16518915229E+03  0.16769814977E+03  0.00000000000E+00 0. -1.
</event>
<event>
 8    1  0.6637272E-009  0.1688022E+03  0.7561462E-02  0.1179103E+00
          4   -1    0    0  501    0  0.00000000000E+00  0.00000000000E+00  0.11320445845E+03  0.11320445845E+03  0.00000000000E+00 0. -1.
         -4   -1    0    0    0  501 -0.00000000000E+00 -0.00000000000E+00 -0.37998127344E+03  0.37998127344E+03  0.00000000000E+00 0.  1.
         25    2    1    2    0    0  0.94401593159E+02  0.90120170837E+02  0.26896367566E+01  0.18079626952E+03  0.12508697352E+03 0.  0.
         23    2    1    2    0    0 -0.94401593159E+02 -0.90120170837E+02 -0.26946645175E+03  0.31238946238E+03  0.89116225262E+02 0.  0.
          5    1    3    3  502    0 -0.85484926522E+01 -0.24456277074E+02  0.48687000611E+01  0.26690126549E+02  0.41800000000E+01 0. -1.
         -5    1    3    3    0  502  0.10295008581E+03  0.11457644791E+03 -0.21790633045E+01  0.15410614297E+03  0.41800000000E+01 0. -1.
        -11    1    4    4    0    0 -0.84335925119E+02 -0.20320149611E+02 -0.16375386114E+03  0.18531266494E+03  0.00000000000E+00 0.  1.
         11    1    4    4    0    0 -0.10065668040E+02 -0.69800021226E+02 -0.10571259060E+03  0.12707679744E+03  0.00000000000E+00 0. -1.
</event>
<event>
 8    1  0.6637272E-009  0.1198306E+03  0.7561462E-02  0.1243377E+00
         -1   -1    0    0    0  501 -0.00000000000E+00  0.00000000000E+00  0.18667081983E+03  0.18667081983E+03  0.00000000000E+00 0.  1.
          1   -1    0    0  501    0  0.00000000000E+00 -0.00000000000E+00 -0.91461207929E+02  0.91461207929E+02  0.00000000000E+00 0. -1.
         25    2    1    2    0    0 -0.68593597484E+02  0.19531603708E+02  0.35298397732E+02  0.14825957083E+03  0.12509339832E+03 0.  0.
         23    2    1    2    0    0  0.68593597484E+02 -0.19531603708E+02  0.59911214168E+02  0.12987245692E+03  0.90503791772E+02 0.  0.
          5    1    3    3  502    0  0.31105994957E+02 -0.16910203472E+02 -0.19004506220E+01  0.35701848920E+02  0.41800000000E+01 0. -1.
         -5    1    3    3    0  502 -0.99699592442E+02  0.36441807180E+02  0.37198848354E+02  0.11255772191E+03  0.41800000000E+01 0. -1.
        -11    1    4    4    0    0  0.79881051574E+02 -0.59289432301E+01  0.72606168053E+02  0.10811008467E+03  0.00000000000E+00 0.  1.
         11    1    4    4    0    0 -0.11287454090E+02 -0.13602660478E+02 -0.12694953885E+02  0.21762372252E+02  0.00000000000E+00 0. -1.
</event>
<event>
 8    1  0.6637272E-009  0.1035111E+03  0.7561462E-02  0.1273081E+00
         -2   -1    0    0    0  501 -0.00000000000E+00  0.00000000000E+00  0.24240256754E+02  0.24240256754E+02  0.00000000000E+00 0.  1.
          2   -1    0    0  501    0  0.00000000000E+00 -0.00000000000E+00 -0.86453589234E+03  0.86453589234E+03  0.00000000000E+00 0. -1.
         25    2    1    2    0    0  0.86156680876E+01  0.15836684436E+02 -0.74572611451E+03  0.75635978239E+03  0.12509057611E+03 0.  0.
         23    2    1    2    0    0 -0.86156680876E+01 -0.15836684436E+02 -0.94569521074E+02  0.13241636671E+03  0.90915727718E+02 0.  0.
          5    1    3    3  502    0 -0.54199519298E+02  0.64064558344E+01 -0.21620882770E+03  0.22302995347E+03  0.41800000000E+01 0.  1.
         -5    1    3    3    0  502  0.62815187385E+02  0.94302286014E+01 -0.52951728682E+03  0.53332982892E+03  0.41800000000E+01 0.  1.
        -11    1    4    4    0    0  0.32965030322E+01 -0.51203761666E+02 -0.73261561590E+02  0.89442431472E+02  0.00000000000E+00 0.  1.
         11    1    4    4    0    0 -0.11912171120E+02  0.35367077230E+02 -0.21307959484E+02  0.42973935240E+02  0.00000000000E+00 0. -1.
</event>
<event>
 8    1  0.6637272E-009  0.1015699E+03  0.7561462E-02  0.1277029E+00
          4   -1    0    0  501    0  0.00000000000E+00  0.00000000000E+00  0.16311832345E+03  0.16311832345E+03  0.00000000000E+00 0.  1.
         -4   -1    0    0    0  501 -0.00000000000E+00 -0.00000000000E+00 -0.10317085549E+03  0.10317085549E+03  0.00000000000E+00 0. -1.
         25    2    1    2    0    0  0.83391174445E+01  0.68628303791E+02  0.49670508602E+02  0.15131498181E+03  0.12509867839E+03 0.  0.
         23    2    1    2    0    0 -0.83391174445E+01 -0.68628303791E+02  0.10276959355E+02  0.11497419713E+03  0.91291101158E+02 0.  0.
          5    1    3    3  502    0 -0.40031964914E+02  0.70329066161E+02 -0.11082824308E+01  0.81039721445E+02  0.41800000000E+01 0. -1.
         -5    1    3    3    0  502  0.48371082359E+02 -0.17007623694E+01  0.50778791033E+02  0.70275260369E+02  0.41800000000E+01 0. -1.
        -11    1    4    4    0    0  0.86672643497E+01 -0.31821459596E+02 -0.39055247368E+02  0.51117894217E+02  0.00000000000E+00 0. -1.
         11    1    4    4    0    0 -0.17006381794E+02 -0.36806844195E+02  0.49332206723E+02  0.63856302912E+02  0.00000000000E+00 0.  1.
</event>
<event>
 8    1  0.6637272E-009  0.1192887E+03  0.7561462E-02  0.1244275E+00
          1   -1    0    0  501    0  0.00000000000E+00  0.00000000000E+00  0.59301029177E+02  0.59301029177E+02  0.00000000000E+00 0. -1.
         -1   -1    0    0    0  501 -0.00000000000E+00 -0.00000000000E+00 -0.37737955854E+03  0.37737955854E+03  0.00000000000E+00 0.  1.
         25    2    1    2    0    0  0.28205821891E+02 -0.81732032812E+02 -0.25768407561E+03  0.29920859836E+03  0.12509599887E+03 0.  0.
         23    2    1    2    0    0 -0.28205821891E+02  0.81732032812E+02 -0.60394453751E+02  0.13747198936E+03  0.88178025823E+02 0.  0.
          5    1    3    3  502    0 -0.16171618703E+02  0.26010130735E+02 -0.88451824237E+02  0.93697629443E+02  0.41800000000E+01 0.  1.
         -5    1    3    3    0  502  0.44377440595E+02 -0.10774216355E+03 -0.16923225137E+03  0.20551096892E+03  0.41800000000E+01 0.  1.
        -11    1    4    4    0    0 -0.19145988901E+02  0.16695620621E+02  0.20952809544E+02  0.32929209932E+02  0.00000000000E+00 0. -1.
         11    1    4    4    0    0 -0.90598329904E+01  0.65036412191E+02 -0.81347263296E+02  0.10454277943E+03  0.00000000000E+00 0.  1.
</event>
<event>
 8    1  0.6637272E-009  0.2623622E+03  0.7561462E-02  0.1105732E+00
         -2   -1    0    0    0  501 -0.00000000000E+00  0.00000000000E+00  0.26829328364E+03  0.26829328364E+03  0.00000000000E+00 0.  1.
          2   -1    0    0  501    0  0.00000000000E+00 -0.00000000000E+00 -0.35710603530E+03  0.35710603530E+03  0.00000000000E+00 0. -1.
         25    2    1    2    0    0 -0.19000144820E+03 -0.16846057165E+03 -0.18425274981E+03  0.33774876093E+03  0.12508251349E+03 0.  0.
         23    2    1    2    0    0  0.19000144820E+03  0.16846057165E+03  0.95439998155E+02  0.28765055801E+03  0.95679338199E+02 0.  0.
          5    1    3    3  502    0 -0.10388472066E+03 -0.11418227962E+03 -0.17803729439E+03  0.23567854964E+03  0.41800000000E+01 0. -1.
         -5    1    3    3    0  502 -0.86116727536E+02 -0.54278292022E+02 -0.62154554163E+01  0.10207021129E+03  0.41800000000E+01 0. -1.
        -11    1    4    4    0    0  0.12317232680E+03  0.51073657331E+02  0.68522625461E+02  0.14991761325E+03  0.00000000000E+00 0. -1.
         11    1    4    4    0    0  0.66829121398E+02  0.11738691431E+03  0.26917372694E+02  0.13773294476E+03  0.00000000000E+00 0.  1.
</event>
<event>
 8    1  0.6637272E-009  0.1075708E+03  0.7561462E-02  0.1265136E+00
          1   -1    0    0  501    0  0.00000000000E+00  0.00000000000E+00  0.13912828852E+03  0.13912828852E+03  0.00000000000E+00 0. -1.
         -1   -1    0    0    0  501 -0.00000000000E+00 -0.00000000000E+00 -0.91203290530E+02  0.91203290530E+02  0.00000000000E+00 0.  1.
         25    2    1    2    0    0  0.22744619184E+02 -0.24168180222E+02  0.23715271475E+02  0.13156715203E+03  0.12508430260E+03 0.  0.
         23    2    1    2    0    0 -0.22744619184E+02  0.24168180222E+02  0.24209726515E+02  0.98764427018E+02  0.89815825717E+02 0.  0.
          5    1    3    3  502    0 -0.45087222188E+02  0.16504423295E+02  0.20289833775E+02  0.52291522712E+02  0.41800000000E+01 0.  1.
         -5    1    3    3    0  502  0.67831841372E+02 -0.40672603516E+02  0.34254377001E+01  0.79275629320E+02  0.41800000000E+01 0.  1.
        -11    1    4    4    0    0 -0.47137256868E+02 -0.75440068569E+01  0.32702864167E+02  0.57864586313E+02  0.00000000000E+00 0.  1.
         11    1    4    4    0    0  0.24392637684E+02  0.31712187079E+02 -0.84931376522E+01  0.40899840705E+02  0.00000000000E+00 0. -1.
</event>
<event>
 8    1  0.6637272E-009  0.8988841E+02  0.7561462E-02  0.1303122E+00
         -1   -1    0    0    0  501 -0.00000000000E+00  0.00000000000E+00  0.19553484211E+02  0.19553484211E+02  0.00000000000E+00 0.  1.
          1   -1    0    0  501    0  0.00000000000E+00 -0.00000000000E+00 -0.82979908023E+03  0.82979908023E+03  0.00000000000E+00 0. -1.
         25    2    1    2    0    0  0.20817663563E+02  0.53205986029E+02 -0.32946559099E+03  0.35701759219E+03  0.12509889456E+03 0.  0.
         23    2    1    2    0    0 -0.20817663563E+02 -0.53205986029E+02 -0.48078000503E+03  0.49233497225E+03  0.89331179333E+02 0.  0.
          5    1    3    3  502    0 -0.11282954440E+02  0.35468181879E+02 -0.14923927806E+02  0.40317403288E+02  0.41800000000E+01 0. -1.
         -5    1    3    3    0  502  0.32100618003E+02  0.17737804150E+02 -0.31454166319E+03  0.31670018890E+03  0.41800000000E+01 0. -1.
        -11    1    4    4    0    0 -0.46482639640E+02 -0.62695659477E+02 -0.33109848916E+03  0.34017288403E+03  0.00000000000E+00 0. -1.
         11    1    4    4    0    0  0.25664976077E+02  0.94896734485E+01 -0.14968151587E+03  0.15216208823E+03  0.00000000000E+00 0.  1.
</event>
<event>
 8    1  0.6637272E-009  0.1412027E+03  0.7561462E-02  0.1211720E+00
         -2   -1    0    0    0  501 -0.00000000000E+00  0.00000000000E+00  0.17368285096E+03  0.17368285096E+03  0.00000000000E+00 0.  1.
          2   -1    0    0  501    0  0.00000000000E+00 -0.00000000000E+00 -0.12619675639E+03  0.12619675639E+03  0.00000000000E+00 0. -1.
         25    2    1    2    0    0 -0.11775963942E+02  0.96251314420E+02 -0.27764127613E+01  0.15829535356E+03  0.12508685637E+03 0.  0.
         23    2    1    2    0    0  0.11775963942E+02 -0.96251314420E+02  0.50262507336E+02  0.14158425379E+03  0.90093242934E+02 0.  0.
          5    1    3    3  502    0  0.10411713968E+02  0.11989748020E+03 -0.18809695209E+02  0.12188144477E+03  0.41800000000E+01 0.  1.
         -5    1    3    3    0  502 -0.22187677910E+02 -0.23646165779E+02  0.16033282447E+02  0.36413908787E+02  0.41800000000E+01 0.  1.
        -11    1    4    4    0    0  0.48852961862E+02 -0.60761387060E+02  0.15218076691E+02  0.79436439360E+02  0.00000000000E+00 0.  1.
         11    1    4    4    0    0 -0.37076997920E+02 -0.35489927360E+02  0.35044430644E+02  0.62147814426E+02  0.00000000000E+00 0. -1.
</event>
<event>
 8    1  0.6637272E-009  0.2909128E+03  0.7561462E-02  0.1089874E+00
          2   -1    0    0  501    0  0.00000000000E+00  0.00000000000E+00  0.24832438622E+03  0.24832438622E+03  0.00000000000E+00 0. -1.
         -2   -1    0    0    0  501 -0.00000000000E+00 -0.00000000000E+00 -0.37152662642E+03  0.37152662642E+03  0.00000000000E+00 0.  1.
         25    2    1    2    0    0  0.22155341824E+03 -0.17756596182E+03 -0.69458339371E+02  0.31794316430E+03  0.12509119428E+03 0.  0.
         23    2    1    2    0    0 -0.22155341824E+03  0.17756596182E+03 -0.53743900830E+02  0.30190784835E+03  0.87431996940E+02 0.  0.
          5    1    3    3  502    0  0.26941655371E+02 -0.14674954645E+02  0.32063334805E+02  0.44572827224E+02  0.41800000000E+01 0. -1.
         -5    1    3    3    0  502  0.19461176286E+03 -0.16289100717E+03 -0.10152167418E+03  0.27337033707E+03  0.41800000000E+01 0. -1.
        -11    1    4    4    0    0 -0.17418391054E+03  0.86694704413E+02 -0.32760447810E+02  0.19730497562E+03  0.00000000000E+00 0. -1.
         11    1    4    4    0    0 -0.47369507694E+02  0.90871257404E+02 -0.20983453020E+02  0.10460287272E+03  0.00000000000E+00 0.  1.
</event>
<event>
 8    1  0.6637272E-009  0.1115744E+03  0.7561462E-02  0.1257682E+00
          2   -1    0    0  501    0  0.00000000000E+00  0.00000000000E+00  0.93532136285E+02  0.93532136285E+02  0.00000000000E+00 0. -1.
         -2   -1    0    0    0  501 -0.00000000000E+00 -0.00000000000E+00 -0.14749755545E+03  0.14749755545E+03  0.00000000000E+00 0.  1.
         25    2    1    2    0    0 -0.18439683790E+02 -0.39823336016E+02 -0.17160136259E+02  0.13367157746E+03  0.12509076830E+03 0.  0.
         23    2    1    2    0    0  0.18439683790E+02  0.39823336016E+02 -0.36805282910E+02  0.10735811428E+03  0.90803170773E+02 0.  0.
          5    1    3    3  502    0 -0.53168882855E+02  0.24852137697E+02 -0.40057208583E+01  0.58975224050E+02  0.41800000000E+01 0. -1.
         -5    1    3    3    0  502  0.34729199065E+02 -0.64675473713E+02 -0.13154415400E+02  0.74696353406E+02  0.41800000000E+01 0. -1.
        -11    1    4    4    0    0  0.25107157189E+02 -0.19059292854E+02 -0.36327977251E+02  0.48097275571E+02  0.00000000000E+00 0.  1.
         11    1    4    4    0    0 -0.66674733985E+01  0.58882628870E+02 -0.47730565966E+00  0.59260838712E+02  0.00000000000E+00 0. -1.
</event>
<event>
 8    1  0.6637272E-009  0.1275094E+03  0.7561462E-02  0.1231199E+00
          1   -1    0    0  501    0  0.00000000000E+00  0.00000000000E+00  0.81930808649E+03  0.81930808649E+03  0.00000000000E+00 0. -1.
         -1   -1    0    0    0  501 -0.00000000000E+00 -0.00000000000E+00 -0.22740407560E+02  0.22740407560E+02  0.00000000000E+00 0.  1.
         25    2    1    2    0    0 -0.37142355587E+02  0.74159697409E+02  0.50647101989E+03  0.52824383559E+03  0.12509772399E+03 0.  0.
         23    2    1    2    0    0  0.37142355587E+02 -0.74159697409E+02  0.29009665904E+03  0.31380465846E+03  0.86244285544E+02 0.  0.
          5    1    3    3  502    0 -0.16641537957E+02  0.10619047606E+03  0.31136831442E+03  0.32942534452E+03  0.41800000000E+01 0.  1.
         -5    1    3    3    0  502 -0.20500817630E+02 -0.32030778655E+02  0.19510270548E+03  0.19881849106E+03  0.41800000000E+01 0.  1.
        -11    1    4    4    0    0 -0.20553231844E+02 -0.30765005424E+02  0.16744105695E+03  0.17148011095E+03  0.00000000000E+00 0.  1.
         11    1    4    4    0    0  0.57695587431E+02 -0.43394691985E+02  0.12265560209E+03  0.14232454751E+03  0.00000000000E+00 0. -1.
</event>
<event>
 8    1  0.6637272E-009  0.6976116E+02  0.7561462E-02  0.1360907E+00
          2   -1    0    0  501    0  0.00000000000E+00  0.00000000000E+00  0.29595532571E+03  0.29595532571E+03  0.00000000000E+00 0. -1.
         -2   -1    0    0    0  501 -0.00000000000E+00 -0.00000000000E+00 -0.97508494878E+02  0.97508494878E+02  0.00000000000E+00 0.  1.
         25    2    1    2    0    0  0.37399649384E+02  0.44086633207E+02  0.23827558880E+03  0.27525571615E+03  0.12509231813E+03 0.  0.
         23    2    1    2    0    0 -0.37399649384E+02 -0.44086633207E+02 -0.39828757970E+02  0.11820810443E+03  0.95102371106E+02 0.  0.
          5    1    3    3  502    0  0.33899615866E+01  0.24585853196E+02 -0.75598314945E+01  0.26278878765E+02  0.41800000000E+01 0.  1.
         -5    1    3    3    0  502  0.34009687798E+02  0.19500780011E+02  0.24583542029E+03  0.24897683739E+03  0.41800000000E+01 0.  1.
        -11    1    4    4    0    0 -0.45841071034E+02 -0.21144802721E+02  0.19439637231E+02  0.54096265779E+02  0.00000000000E+00 0. -1.
         11    1    4    4    0    0  0.84414216496E+01 -0.22941830487E+02 -0.59268395201E+02  0.64111838651E+02  0.00000000000E+00 0.  1.
</event>
<event>
 8    1  0.6637272E-009  0.2168753E+03  0.7561462E-02  0.1136234E+00
          2   -1    0    0  501    0  0.00000000000E+00  0.00000000000E+00  0.29173107886E+04  0.29173107886E+04  0.00000000000E+00 0. -1.
         -2   -1    0    0    0  501 -0.00000000000E+00 -0.00000000000E+00 -0.26664596571E+02  0.26664596571E+02  0.00000000000E+00 0.  1.
         25    2    1    2    0    0 -0.19453753868E+03  0.50383016864E+02  0.23219689722E+04  0.23340031674E+04  0.12509026965E+03 0.  0.
         23    2    1    2    0    0  0.19453753868E+03 -0.50383016864E+02  0.56867721985E+03  0.60997221772E+03  0.91044075437E+02 0.  0.
          5    1    3    3  502    0 -0.42746729788E+02  0.43770275788E+02  0.12274906861E+04  0.12290215526E+04  0.41800000000E+01 0. -1.
         -5    1    3    3    0  502 -0.15179080889E+03  0.66127410757E+01  0.10944782861E+04  0.11049816149E+04  0.41800000000E+01 0. -1.
        -11    1    4    4    0    0  0.11561512143E+02  0.21044536675E+02  0.54555471845E+02  0.59605709417E+02  0.00000000000E+00 0. -1.
         11    1    4    4    0    0  0.18297602653E+03 -0.71427553539E+02  0.51412174800E+03  0.55036650830E+03  0.00000000000E+00 0.  1.
</event>
<event>
 8    1  0.6637272E-009  0.8107150E+02  0.7561462E-02  0.1326038E+00
          2   -1    0    0  501    0  0.00000000000E+00  0.00000000000E+00  0.12238587129E+03  0.12238587129E+03  0.00000000000E+00 0.  1.
         -2   -1    0    0    0  501 -0.00000000000E+00 -0.00000000000E+00 -0.13627077891E+03  0.13627077891E+03  0.00000000000E+00 0. -1.
         25    2    1    2    0    0  0.22820014000E+02 -0.33082249516E+02  0.49173292893E+02  0.14028481597E+03  0.12508648442E+03 0.  0.
         23    2    1    2    0    0 -0.22820014000E+02  0.33082249516E+02 -0.63058200516E+02  0.11837183423E+03  0.91762553450E+02 0.  0.
          5    1    3    3  502    0 -0.26102931562E+02 -0.44905652742E+02 -0.18979957906E+02  0.55458019136E+02  0.41800000000E+01 0. -1.
         -5    1    3    3    0  502  0.48922945562E+02  0.11823403227E+02  0.68153250799E+02  0.84826796832E+02  0.41800000000E+01 0. -1.
        -11    1    4    4    0    0 -0.24580052508E+02 -0.17596687475E+01  0.17739781367E+02  0.30364045487E+02  0.00000000000E+00 0.  1.
         11    1    4    4    0    0  0.17600385082E+01  0.34841918263E+02 -0.80797981883E+02  0.88007788747E+02  0.00000000000E+00 0. -1.
</event>
<event>
 8    1  0.6637272E-009  0.1191896E+03  0.7561462E-02  0.1244440E+00
         -2   -1    0    0    0  501 -0.00000000000E+00  0.00000000000E+00  0.33164339738E+03  0.33164339738E+03  0.00000000000E+00 0.  1.
          2   -1    0    0  501    0  0.00000000000E+00 -0.00000000000E+00 -0.51954310434E+02  0.51954310434E+02  0.00000000000E+00 0. -1.
         25    2    1    2    0    0  0.60499841285E+02  0.14696312538E+02  0.97106139975E+02  0.17015928773E+03  0.12509343860E+03 0.  0.
         23    2    1    2    0    0 -0.60499841285E+02 -0.14696312538E+02  0.18258294697E+03  0.21343842008E+03  0.91341196875E+02 0.  0.
          5    1    3    3  502    0  0.71215278955E+02  0.52341519218E+02  0.32019910174E+02  0.94095683420E+02  0.41800000000E+01 0.  1.
         -5    1    3    3    0  502 -0.10715437671E+02 -0.37645206680E+02  0.65086229801E+02  0.76063604307E+02  0.41800000000E+01 0.  1.
        -11    1    4    4    0    0 -0.77600859601E+02  0.12309395198E+02  0.13075041228E+03  0.15254207594E+03  0.00000000000E+00 0. -1.
         11    1    4    4    0    0  0.17101018316E+02 -0.27005707736E+02  0.51832534690E+02  0.60896344145E+02  0.00000000000E+00 0.  1.
</event>
<event>
 8    1  0.6637272E-009  0.1163240E+03  0.7561462E-02  0.1249288E+00
          2   -1    0    0  501    0  0.00000000000E+00  0.00000000000E+00  0.82359316298E+03  0.82359316298E+03  0.00000000000E+00 0. -1.
         -2   -1    0    0    0  501 -0.00000000000E+00 -0.00000000000E+00 -0.22399673923E+02  0.22399673923E+02  0.00000000000E+00 0.  1.
         25    2    1    2    0    0  0.60100486112E+02 -0.78724163402E+00  0.61292715717E+03  0.62844173003E+03  0.12508644957E+03 0.  0.
         23    2    1    2    0    0 -0.60100486112E+02  0.78724163402E+00  0.18826633189E+03  0.21755110688E+03  0.90948250120E+02 0.  0.
          5    1    3    3  502    0  0.97492450746E+01 -0.53324771806E+02  0.14474230322E+03  0.15461690014E+03  0.41800000000E+01 0. -1.
         -5    1    3    3    0  502  0.50351241038E+02  0.52537530172E+02  0.46818485395E+03  0.47382482989E+03  0.41800000000E+01 0. -1.
        -11    1    4    4    0    0 -0.13797238236E+02 -0.40850458902E+02  0.50754745676E+02  0.66597056873E+02  0.00000000000E+00 0.  1.
         11    1    4    4    0    0 -0.46303247876E+02  0.41637700536E+02  0.13751158622E+03  0.15095405001E+03  0.00000000000E+00 0. -1.
</event>
<event>
 8    1  0.6637272E-009  0.1041154E+03  0.7561462E-02  0.1271872E+00
          1   -1    0    0  501    0  0.00000000000E+00  0.00000000000E+00  0.26994989813E+03  0.26994989813E+03  0.00000000000E+00 0. -1.
         -1   -1    0    0    0  501 -0.00000000000E+00 -0.00000000000E+00 -0.61636062214E+02  0.61636062214E+02  0.00000000000E+00 0.  1.
         25    2    1    2    0    0 -0.17100040463E+02 -0.57829812992E+02  0.70464187139E+02  0.15571926181E+03  0.12508632290E+03 0.  0.
         23    2    1    2    0    0  0.17100040463E+02  0.57829812992E+02  0.13784964878E+03  0.17586669853E+03  0.91048730521E+02 0.  0.
          5    1    3    3  502    0 -0.65672492779E+02 -0.10956431314E+02  0.15298027848E+02  0.68442835644E+02  0.41800000000E+01 0.  1.
         -5    1    3    3    0  502  0.48572452316E+02 -0.46873381678E+02  0.55166159291E+02  0.87276426169E+02  0.41800000000E+01 0.  1.
        -11    1    4    4    0    0  0.30150244991E+02  0.50780376767E+02  0.14701340454E+03  0.15843176782E+03  0.00000000000E+00 0. -1.
         11    1    4    4    0    0 -0.13050204528E+02  0.70494362252E+01 -0.91637557658E+01  0.17434930716E+02  0.00000000000E+00 0.  1.
</event>
<event>
 8    1  0.6637272E-009  0.9054241E+02  0.7561462E-02  0.1301543E+00
         -2   -1    0    0    0  501 -0.00000000000E+00  0.00000000000E+00  0.20757673983E+03  0.20757673983E+03  0.00000000000E+00 0.  1.
          2   -1    0    0  501    0  0.00000000000E+00 -0.00000000000E+00 -0.83006445540E+02  0.83006445540E+02  0.00000000000E+00 0. -1.
         25    2    1    2    0    0 -0.69752299313E+02 -0.15202233524E+02  0.44596608808E+02  0.15077812797E+03  0.12509474487E+03 0.  0.
         23    2    1    2    0    0  0.69752299313E+02  0.15202233524E+02  0.79973685481E+02  0.13980505740E+03  0.89739470359E+02 0.  0.
          5    1    3    3  502    0 -0.24353492312E+02 -0.44076192993E+02  0.73782205205E+02  0.89426447885E+02  0.41800000000E+01 0.  1.
         -5    1    3    3    0  502 -0.45398807001E+02  0.28873959469E+02 -0.29185596397E+02  0.61351680088E+02  0.41800000000E+01 0.  1.
        -11    1    4    4    0    0  0.23254790287E+02 -0.80419324982E+01 -0.16909823726E+02  0.29856324088E+02  0.00000000000E+00 0. -1.
         11    1    4    4    0    0  0.46497509026E+02  0.23244166022E+02  0.96883509207E+02  0.10994873331E+03  0.00000000000E+00 0.  1.
</event>
<event>
 8    1  0.6637272E-009  0.2101036E+03  0.7561462E-02  0.1141484E+00
         -2   -1    0    0    0  501 -0.00000000000E+00  0.00000000000E+00  0.29395094899E+02  0.29395094899E+02  0.00000000000E+00 0.  1.
          2   -1    0    0  501    0  0.00000000000E+00 -0.00000000000E+00 -0.17735861225E+04  0.17735861225E+04  0.00000000000E+00 0. -1.
         25    2    1    2    0    0 -0.10748618700E+03 -0.16499556630E+03 -0.75505271528E+03  0.79027103910E+03  0.12508754971E+03 0.  0.
         23    2    1    2    0    0  0.10748618700E+03  0.16499556630E+03 -0.98913831234E+03  0.10127101783E+04  0.91708707532E+02 0.  0.
          5    1    3    3  502    0 -0.81931328225E+01 -0.99431117517E+02 -0.21227477316E+03  0.23458841889E+03  0.41800000000E+01 0.  1.
         -5    1    3    3    0  502 -0.99293054178E+02 -0.65564448782E+02 -0.54277794212E+03  0.55568262021E+03  0.41800000000E+01 0.  1.
        -11    1    4    4    0    0  0.64350605171E+02  0.13245255108E+03 -0.86318218098E+03  0.87565298848E+03  0.00000000000E+00 0. -1.
         11    1    4    4    0    0  0.43135581830E+02  0.32543015215E+02 -0.12595613136E+03  0.13705718984E+03  0.00000000000E+00 0.  1.
</event>
<event>
 8    1  0.6637272E-009  0.1655166E+03  0.7561462E-02  0.1182606E+00
         -2   -1    0    0    0  501 -0.00000000000E+00  0.00000000000E+00  0.53321660943E+03  0.53321660943E+03  0.00000000000E+00 0.  1.
          2   -1    0    0  501    0  0.00000000000E+00 -0.00000000000E+00 -0.59745408280E+02  0.59745408280E+02  0.00000000000E+00 0. -1.
         25    2    1    2    0    0 -0.13619931675E+03 -0.34451630213E+02  0.27499157499E+03  0.33317310982E+03  0.12508711395E+03 0.  0.
         23    2    1    2    0    0  0.13619931675E+03  0.34451630213E+02  0.19847962616E+03  0.25978890789E+03  0.91427271407E+02 0.  0.
          5    1    3    3  502    0  0.42623628071E+01 -0.22759038641E+02  0.12543623782E+03  0.12762391522E+03  0.41800000000E+01 0.  1.
         -5    1    3    3    0  502 -0.14046167956E+03 -0.11692591572E+02  0.14955533717E+03  0.20554919460E+03  0.41800000000E+01 0.  1.
        -11    1    4    4    0    0  0.79261268312E+02  0.64431840312E+02  0.10683560157E+03  0.14780952765E+03  0.00000000000E+00 0. -1.
         11    1    4    4    0    0  0.56938048442E+02 -0.29980210099E+02  0.91644024587E+02  0.11197938025E+03  0.00000000000E+00 0.  1.
</event>
<event>
 8    1  0.6637272E-009  0.1808171E+03  0.7561462E-02  0.1167015E+00
         -1   -1    0    0    0  501 -0.00000000000E+00  0.00000000000E+00  0.12490855871E+04  0.12490855871E+04  0.00000000000E+00 0.  1.
          1   -1    0    0  501    0  0.00000000000E+00 -0.00000000000E+00 -0.35285632035E+02  0.35285632035E+02  0.00000000000E+00 0. -1.
         25    2    1    2    0    0 -0.19007121141E+02 -0.17664663261E+03  0.56133712241E+03  0.60192314905E+03  0.12508720519E+03 0.  0.
         23    2    1    2    0    0  0.19007121141E+02  0.17664663261E+03  0.65246283262E+03  0.68244807005E+03  0.91990852248E+02 0.  0.
          5    1    3    3  502    0 -0.10347314554E+02 -0.13719726119E+03  0.53748505773E+03  0.55483133931E+03  0.41800000000E+01 0. -1.
         -5    1    3    3    0  502 -0.86598065869E+01 -0.39449371418E+02  0.23852064682E+02  0.47091809745E+02  0.41800000000E+01 0. -1.
        -11    1    4    4    0    0  0.31695871834E+02  0.82460002612E+02  0.45258653429E+03  0.46112780370E+03  0.00000000000E+00 0.  1.
         11    1    4    4    0    0 -0.12688750693E+02  0.94186629994E+02  0.19987629834E+03  0.22132026636E+03  0.00000000000E+00 0. -1.
</event>
<event>
 8    1  0.6637272E-009  0.2750382E+03  0.7561462E-02  0.1098430E+00
         -2   -1    0    0    0  501 -0.00000000000E+00  0.00000000000E+00  0.16376357765E+03  0.16376357765E+03  0.00000000000E+00 0.  1.
          2   -1    0    0  501    0  0.00000000000E+00 -0.00000000000E+00 -0.57748062965E+03  0.57748062965E+03  0.00000000000E+00 0. -1.
         25    2    1    2    0    0  0.19220435933E+03 -0.18284690839E+03 -0.34206594976E+03  0.45059109387E+03  0.12509081595E+03 0.  0.
         23    2    1    2    0    0 -0.19220435933E+03  0.18284690839E+03 -0.71651102236E+02  0.29065311342E+03  0.94709261618E+02 0.  0.
          5    1    3    3  502    0 -0.73486749537E+01 -0.30624129519E+02 -0.87458635835E+02  0.93050124742E+02  0.41800000000E+01 0. -1.
         -5    1    3    3    0  502  0.19955303429E+03 -0.15222277887E+03 -0.25460731393E+03  0.35754096913E+03  0.41800000000E+01 0. -1.
        -11    1    4    4    0    0 -0.51296379551E+02  0.30108404172E+02 -0.56914934525E+02  0.82323413005E+02  0.00000000000E+00 0. -1.
         11    1    4    4    0    0 -0.14090797978E+03  0.15273850422E+03 -0.14736167711E+02  0.20832970042E+03  0.00000000000E+00 0.  1.
</event>
<event>
 8    1  0.6637272E-009  0.7721303E+02  0.7561462E-02  0.1337152E+00
          2   -1    0    0  501    0  0.00000000000E+00  0.00000000000E+00  0.62630095815E+03  0.62630095815E+03  0.00000000000E+00 0. -1.
         -2   -1    0    0    0  501 -0.00000000000E+00 -0.00000000000E+00 -0.21986426937E+02  0.21986426937E+02  0.00000000000E+00 0.  1.
         25    2    1    2    0    0 -0.23213927206E+02 -0.50916345174E+01  0.41349114618E+03  0.43264996949E+03  0.12508499900E+03 0.  0.
         23    2    1    2    0    0  0.23213927206E+02  0.50916345174E+01  0.19082338504E+03  0.21563741560E+03  0.97576224411E+02 0.  0.
          5    1    3    3  502    0  0.23902933401E+02 -0.32532328903E+02  0.33224257501E+03  0.33471227002E+03  0.41800000000E+01 0.  1.
         -5    1    3    3    0  502 -0.47116860607E+02  0.27440694386E+02  0.81248571165E+02  0.97937699474E+02  0.41800000000E+01 0.  1.
        -11    1    4    4    0    0  0.14191187404E+02  0.29715722733E+02  0.18609911442E+03  0.18899019648E+03  0.00000000000E+00 0. -1.
         11    1    4    4    0    0  0.90227398022E+01 -0.24624088216E+02  0.47242706202E+01  0.26647219121E+02  0.00000000000E+00 0.  1.
</event>
<event>
 8    1  0.6637272E-009  0.1337629E+03  0.7561462E-02  0.1221977E+00
          1   -1    0    0  501    0  0.00000000000E+00  0.00000000000E+00  0.16413888976E+04  0.16413888976E+04  0.00000000000E+00 0. -1.
         -1   -1    0    0    0  501 -0.00000000000E+00 -0.00000000000E+00 -0.20807917503E+02  0.20807917503E+02  0.00000000000E+00 0.  1.
         25    2    1    2    0    0  0.33816510352E+02  0.10596161936E+03  0.13029070715E+04  0.13136152859E+04  0.12508741441E+03 0.  0.
         23    2    1    2    0    0 -0.33816510352E+02 -0.10596161936E+03  0.31767390855E+03  0.34858152915E+03  0.90669449889E+02 0.  0.
          5    1    3    3  502    0  0.26368023182E+02  0.77176525450E+00  0.76427638993E+03  0.76474292469E+03  0.41800000000E+01 0. -1.
         -5    1    3    3    0  502  0.74484871700E+01  0.10518985411E+03  0.53863068159E+03  0.54887236123E+03  0.41800000000E+01 0. -1.
        -11    1    4    4    0    0  0.19087948586E+02 -0.27291432993E+01  0.10086444946E+03  0.10269096927E+03  0.00000000000E+00 0. -1.
         11    1    4    4    0    0 -0.52904458938E+02 -0.10323247607E+03  0.21680945909E+03  0.24589055989E+03  0.00000000000E+00 0.  1.
</event>
<event>
 8    1  0.6637272E-009  0.1198705E+03  0.7561462E-02  0.1243311E+00
         -1   -1    0    0    0  501 -0.00000000000E+00  0.00000000000E+00  0.35003035961E+03  0.35003035961E+03  0.00000000000E+00 0.  1.
          1   -1    0    0  501    0  0.00000000000E+00 -0.00000000000E+00 -0.48436358104E+02  0.48436358104E+02  0.00000000000E+00 0. -1.
         25    2    1    2    0    0  0.12222186072E+00  0.73191003372E+02  0.16749695292E+03  0.22149563373E+03  0.12509256017E+03 0.  0.
         23    2    1    2    0    0 -0.12222186072E+00 -0.73191003372E+02  0.13409704858E+03  0.17697108399E+03  0.89329772281E+02 0.  0.
          5    1    3    3  502    0  0.37230606453E+02  0.94654676055E+02  0.11475563439E+03  0.15340128350E+03  0.41800000000E+01 0.  1.
         -5    1    3    3    0  502 -0.37108384593E+02 -0.21463672683E+02  0.52741318529E+02  0.68094350223E+02  0.41800000000E+01 0.  1.
        -11    1    4    4    0    0  0.26615944692E+02 -0.14348656329E+02  0.98810576476E+02  0.10333354960E+03  0.00000000000E+00 0.  1.
         11    1    4    4    0    0 -0.26738166552E+02 -0.58842347043E+02  0.35286472108E+02  0.73637534383E+02  0.00000000000E+00 0. -1.
</event>
<event>
 8    1  0.6637272E-009  0.9506560E+02  0.7561462E-02  0.1291028E+00
         -1   -1    0    0    0  501 -0.00000000000E+00  0.00000000000E+00  0.87106354531E+02  0.87106354531E+02  0.00000000000E+00 0.  1.
          1   -1    0    0  501    0  0.00000000000E+00 -0.00000000000E+00 -0.22498949413E+03  0.22498949413E+03  0.00000000000E+00 0. -1.
         25    2    1    2    0    0 -0.70356559042E+02  0.47739174063E+01 -0.16351089090E+02  0.14452542680E+03  0.12508958865E+03 0.  0.
         23    2    1    2    0    0  0.70356559042E+02 -0.47739174063E+01 -0.12153205050E+03  0.16757042186E+03  0.91307016675E+02 0.  0.
          5    1    3    3  502    0 -0.65676746885E+02  0.13969387889E+02 -0.65641254194E+02  0.93993752620E+02  0.41800000000E+01 0. -1.
         -5    1    3    3    0  502 -0.46798121572E+01 -0.91954704828E+01  0.49290165105E+02  0.50531674178E+02  0.41800000000E+01 0. -1.
        -11    1    4    4    0    0  0.63727229199E+02  0.34107354713E+02 -0.97546636822E+02  0.12140765109E+03  0.00000000000E+00 0. -1.
         11    1    4    4    0    0  0.66293298431E+01 -0.38881272119E+02 -0.23985413682E+02  0.46162770772E+02  0.00000000000E+00 0.  1.
</event>
<event>
 8    1  0.6637272E-009  0.1017690E+03  0.7561462E-02  0.1276619E+00
          1   -1    0    0  501    0  0.00000000000E+00  0.00000000000E+00  0.12359472414E+03  0.12359472414E+03  0.00000000000E+00 0. -1.
         -1   -1    0    0    0  501 -0.00000000000E+00 -0.00000000000E+00 -0.94963702525E+02  0.94963702525E+02  0.00000000000E+00 0.  1.
         25    2    1    2    0    0  0.40841055438E+02 -0.19972343936E+02  0.48077653474E+02  0.14151120118E+03  0.12508826070E+03 0.  0.
         23    2    1    2    0    0 -0.40841055438E+02  0.19972343936E+02 -0.19446631854E+02  0.77047225486E+02  0.59086522431E+02 0.  0.
          5    1    3    3  502    0  0.78756203249E+02 -0.40630856213E+02  0.40289767578E+02  0.97437897136E+02  0.41800000000E+01 0.  1.
         -5    1    3    3    0  502 -0.37915147810E+02  0.20658512277E+02  0.77878858962E+01  0.44073304048E+02  0.41800000000E+01 0.  1.
        -11    1    4    4    0    0 -0.47250102545E+02  0.32513821627E+02 -0.24100882575E+02  0.62213931946E+02  0.00000000000E+00 0.  1.
         11    1    4    4    0    0  0.64090471070E+01 -0.12541477690E+02  0.46542507204E+01  0.14833293540E+02  0.00000000000E+00 0. -1.
</event>
<event>
 8    1  0.6637272E-009  0.2125386E+03  0.7561462E-02  0.1139571E+00
          1   -1    0    0  501    0  0.00000000000E+00  0.00000000000E+00  0.42435362945E+03  0.42435362945E+03  0.00000000000E+00 0.  1.
         -1   -1    0    0    0  501 -0.00000000000E+00 -0.00000000000E+00 -0.11524823083E+03  0.11524823083E+03  0.00000000000E+00 0. -1.
         25    2    1    2    0    0  0.19009285884E+03 -0.44233445882E+01  0.11926144018E+03  0.25695365106E+03  0.12508807585E+03 0.  0.
         23    2    1    2    0    0 -0.19009285884E+03  0.44233445882E+01  0.18984395844E+03  0.28264820922E+03  0.87717846856E+02 0.  0.
          5    1    3    3  502    0  0.83019739805E+02  0.48424528742E+02  0.13032696674E+02  0.97080048227E+02  0.41800000000E+01 0. -1.
         -5    1    3    3    0  502  0.10707311904E+03 -0.52847873330E+02  0.10622874351E+03  0.15987360283E+03  0.41800000000E+01 0. -1.
        -11    1    4    4    0    0 -0.11581626817E+03  0.45601523894E+02  0.11374070329E+03  0.16861154925E+03  0.00000000000E+00 0.  1.
         11    1    4    4    0    0 -0.74276590668E+02 -0.41178179305E+02  0.76103255150E+02  0.11403665997E+03  0.00000000000E+00 0. -1.
</event>
<event>
 8    1  0.6637272E-009  0.1205456E+03  0.7561462E-02  0.1242200E+00
         -1   -1    0    0    0  501 -0.00000000000E+00  0.00000000000E+00  0.11722570908E+03  0.11722570908E+03  0.00000000000E+00 0.  1.
          1   -1    0    0  501    0  0.00000000000E+00 -0.00000000000E+00 -0.15234386196E+03  0.15234386196E+03  0.00000000000E+00 0. -1.
         25    2    1    2    0    0  0.57949158005E+02 -0.40436782765E+02  0.14106390046E+02  0.14435738141E+03  0.12508726959E+03 0.  0.
         23    2    1    2    0    0 -0.57949158005E+02  0.40436782765E+02 -0.49224542927E+02  0.12521218962E+03  0.90894435966E+02 0.  0.
          5    1    3    3  502    0  0.38038888762E+02 -0.84731349327E+02  0.20474424841E+02  0.95199963706E+02  0.41800000000E+01 0. -1.
         -5    1    3    3    0  502  0.19910269243E+02  0.44294566562E+02 -0.63680347955E+01  0.49157417704E+02  0.41800000000E+01 0. -1.
        -11    1    4    4    0    0 -0.54271877732E+02 -0.43429461283E+01 -0.57871794372E+02  0.79457173858E+02  0.00000000000E+00 0.  1.
         11    1    4    4    0    0 -0.36772802729E+01  0.44779728894E+02  0.86472514446E+01  0.45755015764E+02  0.00000000000E+00 0. -1.
</event>
<event>
 8    1  0.6637272E-009  0.8810207E+02  0.7561462E-02  0.1307514E+00
         -2   -1    0    0    0  501 -0.00000000000E+00  0.00000000000E+00  0.48523944278E+02  0.48523944278E+02  0.00000000000E+00 0.  1.
          2   -1    0    0  501    0  0.00000000000E+00 -0.00000000000E+00 -0.32877528602E+03  0.32877528602E+03  0.00000000000E+00 0. -1.
         25    2    1    2    0    0 -0.57998237051E+02  0.16775194426E+02 -0.19300537283E+03  0.23778945392E+03  0.12509015871E+03 0.  0.
         23    2    1    2    0    0  0.57998237051E+02 -0.16775194426E+02 -0.87245968912E+02  0.13950977637E+03  0.90586510936E+02 0.  0.
          5    1    3    3  502    0 -0.25751589107E+02 -0.11891204198E+02  0.98795644881E+01  0.30325290985E+02  0.41800000000E+01 0.  1.
         -5    1    3    3    0  502 -0.32246647943E+02  0.28666398624E+02 -0.20288493731E+03  0.20746416294E+03  0.41800000000E+01 0.  1.
        -11    1    4    4    0    0 -0.22138499017E+02  0.76234602129E+00 -0.37551717653E+02  0.43598461084E+02  0.00000000000E+00 0. -1.
         11    1    4    4    0    0  0.80136736068E+02 -0.17537540447E+02 -0.49694251259E+02  0.95911315290E+02  0.00000000000E+00 0.  1.
</event>
<event>
 8    1  0.6637272E-009  0.1024640E+03  0.7561462E-02  0.1275198E+00
          2   -1    0    0  501    0  0.00000000000E+00  0.00000000000E+00  0.16206689210E+03  0.16206689210E+03  0.00000000000E+00 0. -1.
         -2   -1    0    0    0  501 -0.00000000000E+00 -0.00000000000E+00 -0.84186289701E+02  0.84186289701E+02  0.00000000000E+00 0.  1.
         25    2    1    2    0    0 -0.33179062986E+02 -0.25122277062E+02  0.29754233354E+02  0.13514688125E+03  0.12508951228E+03 0.  0.
         23    2    1    2    0    0  0.33179062986E+02  0.25122277062E+02  0.48126369045E+02  0.11110630055E+03  0.91085034991E+02 0.  0.
          5    1    3    3  502    0 -0.70267424879E+02  0.19865261444E+02  0.20544030364E+02  0.75971502519E+02  0.41800000000E+01 0. -1.
         -5    1    3    3    0  502  0.37088361893E+02 -0.44987538506E+02  0.92102029893E+01  0.59175378730E+02  0.41800000000E+01 0. -1.
        -11    1    4    4    0    0  0.20099728459E+02 -0.18789564979E+02 -0.16351777385E+02  0.32006678364E+02  0.00000000000E+00 0.  1.
         11    1    4    4    0    0  0.13079334527E+02  0.43911842041E+02  0.64478146430E+02  0.79099622187E+02  0.00000000000E+00 0. -1.
</event>
<event>
 8    1  0.6637272E-009  0.1526414E+03  0.7561462E-02  0.1197264E+00
          2   -1    0    0  501    0  0.00000000000E+00  0.00000000000E+00  0.29713347935E+03  0.29713347935E+03  0.00000000000E+00 0.  1.
         -2   -1    0    0    0  501 -0.00000000000E+00 -0.00000000000E+00 -0.10450555565E+03  0.10450555565E+03  0.00000000000E+00 0. -1.
         25    2    1    2    0    0 -0.50796292375E+02 -0.10617097546E+03  0.17539440944E+02  0.17266385357E+03  0.12511049113E+03 0.  0.
         23    2    1    2    0    0  0.50796292375E+02  0.10617097546E+03  0.17508848276E+03  0.22897518143E+03  0.89000660487E+02 0.  0.
          5    1    3    3  502    0  0.11994882049E+02 -0.93228857035E+02 -0.22785719461E+02  0.96809908536E+02  0.41800000000E+01 0.  1.
         -5    1    3    3    0  502 -0.62791174424E+02 -0.12942118428E+02  0.40325160405E+02  0.75853945030E+02  0.41800000000E+01 0.  1.
        -11    1    4    4    0    0 -0.25103177463E+02  0.19859860202E+02  0.47176924696E+02  0.57010926933E+02  0.00000000000E+00 0. -1.
         11    1    4    4    0    0  0.75899469838E+02  0.86311115261E+02  0.12791155806E+03  0.17196425450E+03  0.00000000000E+00 0.  1.
</event>
<event>
 8    1  0.6637272E-009  0.1656490E+03  0.7561462E-02  0.1182463E+00
          1   -1    0    0  501    0  0.00000000000E+00  0.00000000000E+00  0.45716846960E+03  0.45716846960E+03  0.00000000000E+00 0. -1.
         -1   -1    0    0    0  501 -0.00000000000E+00 -0.00000000000E+00 -0.71194707320E+02  0.71194707320E+02  0.00000000000E+00 0.  1.
         25    2    1    2    0    0 -0.11133726451E+03 -0.80047954516E+02  0.26650196732E+03  0.32476934336E+03  0.12509263092E+03 0.  0.
         23    2    1    2    0    0  0.11133726451E+03  0.80047954516E+02  0.11947179497E+03  0.20359383357E+03  0.91505616129E+02 0.  0.
          5    1    3    3  502    0 -0.11957473850E+03 -0.36133918042E+02  0.12682755768E+03  0.17806313461E+03  0.41800000000E+01 0. -1.
         -5    1    3    3    0  502  0.82374739926E+01 -0.43914036474E+02  0.13967440964E+03  0.14670620875E+03  0.41800000000E+01 0. -1.
        -11    1    4    4    0    0  0.10480181566E+03  0.27316980457E+02  0.98740557961E+02  0.14655830162E+03  0.00000000000E+00 0. -1.
         11    1    4    4    0    0  0.65354488493E+01  0.52730974059E+02  0.20731237006E+02  0.57035531949E+02  0.00000000000E+00 0.  1.
</event>
<event>
 8    1  0.6637272E-009  0.1233121E+03  0.7561462E-02  0.1237731E+00
         -1   -1    0    0    0  501 -0.00000000000E+00  0.00000000000E+00  0.89495008341E+03  0.89495008341E+03  0.00000000000E+00 0.  1.
          1   -1    0    0  501    0  0.00000000000E+00 -0.00000000000E+00 -0.25519323293E+02  0.25519323293E+02  0.00000000000E+00 0. -1.
         25    2    1    2    0    0  0.57706806210E+02  0.17470665536E+02  0.72609252370E+03  0.73925210232E+03  0.12509203886E+03 0.  0.
         23    2    1    2    0    0 -0.57706806210E+02 -0.17470665536E+02  0.14333823642E+03  0.18121730438E+03  0.93051393054E+02 0.  0.
          5    1    3    3  502    0  0.14319104438E+02  0.68736169058E+02  0.42014988236E+03  0.42599658888E+03  0.41800000000E+01 0.  1.
         -5    1    3    3    0  502  0.43387701773E+02 -0.51265503522E+02  0.30594264134E+03  0.31325551345E+03  0.41800000000E+01 0.  1.
        -11    1    4    4    0    0 -0.56451326119E+02 -0.50620332946E+02  0.11410974309E+03  0.13700439335E+03  0.00000000000E+00 0.  1.
         11    1    4    4    0    0 -0.12554800917E+01  0.33149667410E+02  0.29228493328E+02  0.44212911032E+02  0.00000000000E+00 0. -1.
</event>
<event>
 8    1  0.6637272E-009  0.1210485E+03  0.7561462E-02  0.1241377E+00
         -1   -1    0    0    0  501 -0.00000000000E+00  0.00000000000E+00  0.49633370316E+02  0.49633370316E+02  0.00000000000E+00 0.  1.
          1   -1    0    0  501    0  0.00000000000E+00 -0.00000000000E+00 -0.46953093305E+03  0.46953093305E+03  0.00000000000E+00 0. -1.
         25    2    1    2    0    0  0.93717757215E+02  0.43255824659E+02 -0.27322273693E+03  0.31773019852E+03  0.12509088973E+03 0.  0.
         23    2    1    2    0    0 -0.93717757215E+02 -0.43255824659E+02 -0.14667482580E+03  0.20143410484E+03  0.91695745181E+02 0.  0.
          5    1    3    3  502    0  0.27130480406E+02  0.21116986761E+02 -0.23534402664E+03  0.23787869466E+03  0.41800000000E+01 0. -1.
         -5    1    3    3    0  502  0.66587276809E+02  0.22138837897E+02 -0.37878710288E+02  0.79851503864E+02  0.41800000000E+01 0. -1.
        -11    1    4    4    0    0 -0.11109033383E+03 -0.44676882918E+02 -0.13502714068E+03  0.18046998326E+03  0.00000000000E+00 0. -1.
         11    1    4    4    0    0  0.17372576617E+02  0.14210582592E+01 -0.11647685125E+02  0.20964121581E+02  0.00000000000E+00 0.  1.
</event>
<event>
 8    1  0.6637272E-009  0.8042412E+02  0.7561462E-02  0.1327852E+00
          1   -1    0    0  501    0  0.00000000000E+00  0.00000000000E+00  0.15401168344E+03  0.15401168344E+03  0.00000000000E+00 0. -1.
         -1   -1    0    0    0  501 -0.00000000000E+00 -0.00000000000E+00 -0.83060820422E+02  0.83060820422E+02  0.00000000000E+00 0.  1.
         25    2    1    2    0    0 -0.18229054338E+00 -0.34666075557E+02  0.33236993962E+02  0.13399874552E+03  0.12509674659E+03 0.  0.
         23    2    1    2    0    0  0.18229054338E+00  0.34666075557E+02  0.37713869056E+02  0.10307375835E+03  0.89443242986E+02 0.  0.
          5    1    3    3  502    0 -0.22449265209E+02  0.80835012389E+01  0.69457791234E+02  0.73560652959E+02  0.41800000000E+01 0.  1.
         -5    1    3    3    0  502  0.22266974665E+02 -0.42749576796E+02 -0.36220797272E+02  0.60438092557E+02  0.41800000000E+01 0.  1.
        -11    1    4    4    0    0 -0.38470650070E+02  0.35736637808E+01 -0.32045938737E+01  0.38768949064E+02  0.00000000000E+00 0.  1.
         11    1    4    4    0    0  0.38652940614E+02  0.31092411777E+02  0.40918462930E+02  0.64304809281E+02  0.00000000000E+00 0. -1.
</event>
<event>
 8    1  0.6637272E-009  0.8947607E+02  0.7561462E-02  0.1304125E+00
         -2   -1    0    0    0  501 -0.00000000000E+00  0.00000000000E+00  0.27806019742E+03  0.27806019742E+03  0.00000000000E+00 0.  1.
          2   -1    0    0  501    0  0.00000000000E+00 -0.00000000000E+00 -0.91993495644E+02  0.91993495644E+02  0.00000000000E+00 0. -1.
         25    2    1    2    0    0 -0.41115226682E+02 -0.75612668017E+02  0.18312622870E+03  0.23788856606E+03  0.12509203329E+03 0.  0.
         23    2    1    2    0    0  0.41115226682E+02  0.75612668017E+02  0.29404730707E+01  0.13216512700E+03  0.10025585761E+03 0.  0.
          5    1    3    3  502    0 -0.25434530781E+02 -0.46751198750E+02  0.19541083503E+03  0.20257210269E+03  0.41800000000E+01 0.  1.
         -5    1    3    3    0  502 -0.15680695901E+02 -0.28861469267E+02 -0.12284606329E+02  0.35316463369E+02  0.41800000000E+01 0.  1.
        -11    1    4    4    0    0  0.32960443662E+01  0.41172500795E+02  0.48473092535E+02  0.63684216491E+02  0.00000000000E+00 0.  1.
         11    1    4    4    0    0  0.37819182316E+02  0.34440167222E+02 -0.45532619464E+02  0.68480910512E+02  0.00000000000E+00 0. -1.
</event>
<event>
 8    1  0.6637272E-009  0.1666260E+03  0.7561462E-02  0.1181413E+00
          2   -1    0    0  501    0  0.00000000000E+00  0.00000000000E+00  0.89623268017E+03  0.89623268017E+03  0.00000000000E+00 0.  1.
         -2   -1    0    0    0  501 -0.00000000000E+00 -0.00000000000E+00 -0.41383429703E+02  0.41383429703E+02  0.00000000000E+00 0. -1.
         25    2    1    2    0    0 -0.11306968695E+03 -0.10336045083E+03  0.52289251789E+03  0.55904762042E+03  0.12509804044E+03 0.  0.
         23    2    1    2    0    0  0.11306968695E+03  0.10336045083E+03  0.33195673258E+03  0.37856848946E+03  0.98237935678E+02 0.  0.
          5    1    3    3  502    0 -0.12693351213E+03 -0.10386188522E+03  0.51860513969E+03  0.54393765361E+03  0.41800000000E+01 0. -1.
         -5    1    3    3    0  502  0.13863825179E+02  0.50143439553E+00  0.42873782072E+01  0.15109966808E+02  0.41800000000E+01 0. -1.
        -11    1    4    4    0    0  0.64766552655E+02  0.73265144135E+02  0.10052465049E+03  0.14024155249E+03  0.00000000000E+00 0.  1.
         11    1    4    4    0    0  0.48303134299E+02  0.30095306692E+02  0.23143208209E+03  0.23832693697E+03  0.00000000000E+00 0. -1.
</event>
<event>
 8    1  0.6637272E-009  0.2171828E+03  0.7561462E-02  0.1136001E+00
          2   -1    0    0  501    0  0.00000000000E+00  0.00000000000E+00  0.67276962933E+03  0.67276962933E+03  0.00000000000E+00 0. -1.
         -2   -1    0    0    0  501 -0.00000000000E+00 -0.00000000000E+00 -0.73195674013E+02  0.73195674013E+02  0.00000000000E+00 0.  1.
         25    2    1    2    0    0 -0.15249416891E+03 -0.11748754286E+03  0.27634471807E+03  0.35926510736E+03  0.12508884795E+03 0.  0.
         23    2    1    2    0    0  0.15249416891E+03  0.11748754286E+03  0.32322923725E+03  0.38670019598E+03  0.89454499525E+02 0.  0.
          5    1    3    3  502    0 -0.72467122896E+02  0.10711031593E+02  0.12750587634E+03  0.14711026817E+03  0.41800000000E+01 0.  1.
         -5    1    3    3    0  502 -0.80027046010E+02 -0.12819857445E+03  0.14883884173E+03  0.21215483919E+03  0.41800000000E+01 0.  1.
        -11    1    4    4    0    0  0.86812516364E+02  0.15028983091E+02  0.16534288610E+03  0.18735141663E+03  0.00000000000E+00 0.  1.
         11    1    4    4    0    0  0.65681652542E+02  0.10245855977E+03  0.15788635115E+03  0.19934877935E+03  0.00000000000E+00 0. -1.
</event>
<event>
 8    1  0.6637272E-009  0.1091056E+03  0.7561462E-02  0.1262235E+00
          4   -1    0    0  501    0  0.00000000000E+00  0.00000000000E+00  0.73371107226E+02  0.73371107226E+02  0.00000000000E+00 0.  1.
         -4   -1    0    0    0  501 -0.00000000000E+00 -0.00000000000E+00 -0.21129583155E+03  0.21129583155E+03  0.00000000000E+00 0. -1.
         25    2    1    2    0    0  0.38122048961E+02 -0.31712014732E+01 -0.12717675761E+03  0.18244946091E+03  0.12510208222E+03 0.  0.
         23    2    1    2    0    0 -0.38122048961E+02  0.31712014732E+01 -0.10747966718E+02  0.10221747787E+03  0.94178271682E+02 0.  0.
          5    1    3    3  502    0  0.29009312238E+02 -0.56499706565E+02 -0.10711137480E+03  0.12459565021E+03  0.41800000000E+01 0. -1.
         -5    1    3    3    0  502  0.91127367230E+01  0.53328505092E+02 -0.20065382804E+02  0.57853810704E+02  0.41800000000E+01 0. -1.
        -11    1    4    4    0    0  0.50380827417E+01 -0.39373903947E+02 -0.12412390666E+02  0.41590311754E+02  0.00000000000E+00 0. -1.
         11    1    4    4    0    0 -0.43160131702E+02  0.42545105420E+02  0.16644239472E+01  0.60627166112E+02  0.00000000000E+00 0.  1.
</event>
<event>
 8    1  0.6637272E-009  0.1167055E+03  0.7561462E-02  0.1248633E+00
          1   -1    0    0  501    0  0.00000000000E+00  0.00000000000E+00  0.63289529864E+03  0.63289529864E+03  0.00000000000E+00 0. -1.
         -1   -1    0    0    0  501 -0.00000000000E+00 -0.00000000000E+00 -0.26112301908E+02  0.26112301908E+02  0.00000000000E+00 0.  1.
         25    2    1    2    0    0 -0.53509269206E+02 -0.41065776387E+02  0.31023512596E+03  0.34123897538E+03  0.12509422471E+03 0.  0.
         23    2    1    2    0    0  0.53509269206E+02  0.41065776387E+02  0.29654787077E+03  0.31776862517E+03  0.92122850600E+02 0.  0.
          5    1    3    3  502    0 -0.52997888912E+02 -0.83207667684E+02  0.19741800979E+03  0.22073430902E+03  0.41800000000E+01 0. -1.
         -5    1    3    3    0  502 -0.51138029430E+00  0.42141891297E+02  0.11281711617E+03  0.12050466635E+03  0.41800000000E+01 0. -1.
        -11    1    4    4    0    0  0.55790905438E+02  0.48177692114E+01  0.26102821140E+03  0.26696734477E+03  0.00000000000E+00 0. -1.
         11    1    4    4    0    0 -0.22816362315E+01  0.36248007176E+02  0.35519659377E+02  0.50801280401E+02  0.00000000000E+00 0.  1.
</event>
<event>
 8    1  0.6637272E-009  0.1256923E+03  0.7561462E-02  0.1233991E+00
          1   -1    0    0  501    0  0.00000000000E+00  0.00000000000E+00  0.38954780032E+03  0.38954780032E+03  0.00000000000E+00 0. -1.
         -1   -1    0    0    0  501 -0.00000000000E+00 -0.00000000000E+00 -0.65842055767E+02  0.65842055767E+02  0.00000000000E+00 0.  1.
         25    2    1    2    0    0  0.10734107530E+03 -0.39869311952E+02  0.13639420435E+03  0.21762826659E+03  0.12508802883E+03 0.  0.
         23    2    1    2    0    0 -0.10734107530E+03  0.39869311952E+02  0.18731154020E+03  0.23776158950E+03  0.91286865785E+02 0.  0.
          5    1    3    3  502    0  0.20454410035E+02 -0.39860831419E+01  0.12030125006E+03  0.12216437662E+03  0.41800000000E+01 0.  1.
         -5    1    3    3    0  502  0.86886665262E+02 -0.35883228810E+02  0.16092954285E+02  0.95463889967E+02  0.41800000000E+01 0.  1.
        -11    1    4    4    0    0 -0.11684690405E+03  0.45021418395E+02  0.13414801348E+03  0.18350971805E+03  0.00000000000E+00 0.  1.
         11    1    4    4    0    0  0.95058287519E+01 -0.51521064429E+01  0.53163526726E+02  0.54251871443E+02  0.00000000000E+00 0. -1.
</event>
<event>
 8    1  0.6637272E-009  0.1050718E+03  0.7561462E-02  0.1269978E+00
          3   -1    0    0  501    0  0.00000000000E+00  0.00000000000E+00  0.70638586431E+02  0.70638586431E+02  0.00000000000E+00 0. -1.
         -3   -1    0    0    0  501 -0.00000000000E+00 -0.00000000000E+00 -0.22303669593E+03  0.22303669593E+03  0.00000000000E+00 0.  1.
         25    2    1    2    0    0  0.60831023737E+02  0.41457123990E+02 -0.44773149758E+02  0.15189215578E+03  0.12508990955E+03 0.  0.
         23    2    1    2    0    0 -0.60831023737E+02 -0.41457123990E+02 -0.10762495974E+03  0.14178312657E+03  0.55679587321E+02 0.  0.
          5    1    3    3  502    0 -0.38713094417E+01 -0.32177964914E+02  0.16100668832E+02  0.36429553931E+02  0.41800000000E+01 0. -1.
         -5    1    3    3    0  502  0.64702333179E+02  0.73635088904E+02 -0.60873818590E+02  0.11546260185E+03  0.41800000000E+01 0. -1.
        -11    1    4    4    0    0 -0.44990023673E+02 -0.44435321274E+02 -0.10856391839E+03  0.12563727307E+03  0.00000000000E+00 0.  1.
         11    1    4    4    0    0 -0.15841000064E+02  0.29781972838E+01  0.93895865652E+00  0.16145853507E+02  0.00000000000E+00 0. -1.
</event>
<event>
 8    1  0.6637272E-009  0.2186399E+03  0.7561462E-02  0.1134901E+00
         -1   -1    0    0    0  501 -0.00000000000E+00  0.00000000000E+00  0.77138530159E+02  0.77138530159E+02  0.00000000000E+00 0.  1.
          1   -1    0    0  501    0  0.00000000000E+00 -0.00000000000E+00 -0.70419978560E+03  0.70419978560E+03  0.00000000000E+00 0. -1.
         25    2    1    2    0    0  0.11339924264E+03  0.16528151614E+03 -0.24423070951E+03  0.33981411892E+03  0.12509047981E+03 0.  0.
         23    2    1    2    0    0 -0.11339924264E+03 -0.16528151614E+03 -0.38283054594E+03  0.44152419684E+03  0.90592613866E+02 0.  0.
          5    1    3    3  502    0  0.20728335877E+02  0.13726625331E+03 -0.13306614797E+03  0.19234281984E+03  0.41800000000E+01 0.  1.
         -5    1    3    3    0  502  0.92670906759E+02  0.28015262830E+02 -0.11116456154E+03  0.14747129908E+03  0.41800000000E+01 0.  1.
        -11    1    4    4    0    0 -0.43782497009E+02 -0.81898928798E+02 -0.26718426150E+03  0.28286352040E+03  0.00000000000E+00 0.  1.
         11    1    4    4    0    0 -0.69616745627E+02 -0.83382587346E+02 -0.11564628444E+03  0.15866067644E+03  0.00000000000E+00 0. -1.
</event>
<event>
 8    1  0.6637272E-009  0.7430080E+02  0.7561462E-02  0.1346050E+00
         -1   -1    0    0    0  501 -0.00000000000E+00  0.00000000000E+00  0.71142240241E+02  0.71142240241E+02  0.00000000000E+00 0.  1.
          1   -1    0    0  501    0  0.00000000000E+00 -0.00000000000E+00 -0.17298675591E+03  0.17298675591E+03  0.00000000000E+00 0. -1.
         25    2    1    2    0    0  0.11047570398E+02 -0.59001553936E+01 -0.37499279383E+02  0.13118501277E+03  0.12508577448E+03 0.  0.
         23    2    1    2    0    0 -0.11047570398E+02  0.59001553936E+01 -0.64345236284E+02  0.11294398338E+03  0.91973764210E+02 0.  0.
          5    1    3    3  502    0  0.51608388218E+02 -0.50763199917E+01 -0.64052294344E+02  0.82518867963E+02  0.41800000000E+01 0. -1.
         -5    1    3    3    0  502 -0.40560817820E+02 -0.82383540192E+00  0.26553014962E+02  0.48666144809E+02  0.41800000000E+01 0. -1.
        -11    1    4    4    0    0  0.20506821148E+02 -0.70481935707E+01  0.15142104921E+02  0.26447874917E+02  0.00000000000E+00 0.  1.
         11    1    4    4    0    0 -0.31554391545E+02  0.12948348964E+02 -0.79487341205E+02  0.86496108459E+02  0.00000000000E+00 0. -1.
</event>
<event>
 8    1  0.6637272E-009  0.1274942E+03  0.7561462E-02  0.1231222E+00
         -1   -1    0    0    0  501 -0.00000000000E+00  0.00000000000E+00  0.97258780020E+02  0.97258780020E+02  0.00000000000E+00 0.  1.
          1   -1    0    0  501    0  0.00000000000E+00 -0.00000000000E+00 -0.31323489077E+03  0.31323489077E+03  0.00000000000E+00 0. -1.
         25    2    1    2    0    0 -0.67423970927E+02  0.10397310433E+03 -0.18430545305E+03  0.25490025146E+03  0.12509692199E+03 0.  0.
         23    2    1    2    0    0  0.67423970927E+02 -0.10397310433E+03 -0.31670657698E+02  0.15559341932E+03  0.88599567148E+02 0.  0.
          5    1    3    3  502    0 -0.24770576797E+02  0.12488598095E+02 -0.14305099212E+03  0.14577587354E+03  0.41800000000E+01 0. -1.
         -5    1    3    3    0  502 -0.42653394131E+02  0.91484506233E+02 -0.41254460925E+02  0.10912437793E+03  0.41800000000E+01 0. -1.
        -11    1    4    4    0    0  0.42132383746E+02 -0.82885562539E+02  0.19251781952E+02  0.94951489435E+02  0.00000000000E+00 0.  1.
         11    1    4    4    0    0  0.25291587182E+02 -0.21087541789E+02 -0.50922439650E+02  0.60641929890E+02  0.00000000000E+00 0. -1.
</event>
<event>
 8    1  0.6637272E-009  0.1111498E+03  0.7561462E-02  0.1258455E+00
         -1   -1    0    0    0  501 -0.00000000000E+00  0.00000000000E+00  0.22373430974E+02  0.22373430974E+02  0.00000000000E+00 0.  1.
          1   -1    0    0  501    0  0.00000000000E+00 -0.00000000000E+00 -0.59161178117E+03  0.59161178117E+03  0.00000000000E+00 0. -1.
         25    2    1    2    0    0 -0.12006455119E+02 -0.20532997412E+02 -0.35561573872E+03  0.37772484443E+03  0.12509094902E+03 0.  0.
         23    2    1    2    0    0  0.12006455119E+02  0.20532997412E+02 -0.21362261148E+03  0.23626036771E+03  0.98074371122E+02 0.  0.
          5    1    3    3  502    0 -0.27839598067E+02  0.45733533986E+02 -0.10443110008E+03  0.11743051740E+03  0.41800000000E+01 0. -1.
         -5    1    3    3    0  502  0.15833142948E+02 -0.66266531398E+02 -0.25118463863E+03  0.26029432703E+03  0.41800000000E+01 0. -1.
        -11    1    4    4    0    0  0.88316641157E+01  0.60047880848E+02 -0.11658050055E+03  0.13143347897E+03  0.00000000000E+00 0.  1.
         11    1    4    4    0    0  0.31747910034E+01 -0.39514883436E+02 -0.97042110926E+02  0.10482688874E+03  0.00000000000E+00 0. -1.
</event>
<event>
 8    1  0.6637272E-009  0.1135479E+03  0.7561462E-02  0.1254137E+00
         -2   -1    0    0    0  501 -0.00000000000E+00  0.00000000000E+00  0.87256939860E+03  0.87256939860E+03  0.00000000000E+00 0.  1.
          2   -1    0    0  501    0  0.00000000000E+00 -0.00000000000E+00 -0.15622678426E+02  0.15622678426E+02  0.00000000000E+00 0. -1.
         25    2    1    2    0    0 -0.23033977230E+02 -0.36721941567E+02  0.52157192884E+03  0.53811116962E+03  0.12508912349E+03 0.  0.
         23    2    1    2    0    0  0.23033977230E+02  0.36721941567E+02  0.33537479133E+03  0.35008090741E+03  0.90561172526E+02 0.  0.
          5    1    3    3  502    0  0.20463672266E+02  0.36303557258E+02  0.25103685565E+03  0.25450674932E+03  0.41800000000E+01 0.  1.
         -5    1    3    3    0  502 -0.43497649496E+02 -0.73025498825E+02  0.27053507319E+03  0.28360442030E+03  0.41800000000E+01 0.  1.
        -11    1    4    4    0    0 -0.12458200521E+02  0.57601425916E+02  0.18417922072E+03  0.19337816933E+03  0.00000000000E+00 0.  1.
         11    1    4    4    0    0  0.35492177751E+02 -0.20879484348E+02  0.15119557062E+03  0.15670273808E+03  0.00000000000E+00 0. -1.
</event>
<event>
 8    1  0.6637272E-009  0.1398439E+03  0.7561462E-02  0.1213539E+00
          2   -1    0    0  501    0  0.00000000000E+00  0.00000000000E+00  0.46318756058E+03  0.46318756058E+03  0.00000000000E+00 0.  1.
         -2   -1    0    0    0  501 -0.00000000000E+00 -0.00000000000E+00 -0.51120215109E+02  0.51120215109E+02  0.00000000000E+00 0. -1.
         25    2    1    2    0    0 -0.95797471121E+02  0.47275993315E+02  0.25494925611E+03  0.30341134097E+03  0.12508854311E+03 0.  0.
         23    2    1    2    0    0  0.95797471121E+02 -0.47275993315E+02  0.15711808936E+03  0.21089643472E+03  0.91537080777E+02 0.  0.
          5    1    3    3  502    0 -0.11447268869E+03  0.21023481842E+02  0.24175888278E+03  0.26834830547E+03  0.41800000000E+01 0.  1.
         -5    1    3    3    0  502  0.18675217568E+02  0.26252511472E+02  0.13190373332E+02  0.35063035500E+02  0.41800000000E+01 0.  1.
        -11    1    4    4    0    0  0.47441072746E+00 -0.34568603524E+02  0.81602831069E+02  0.88624124557E+02  0.00000000000E+00 0. -1.
         11    1    4    4    0    0  0.95323060394E+02 -0.12707389791E+02  0.75515258290E+02  0.12227231016E+03  0.00000000000E+00 0.  1.
</event>
<event>
 8    1  0.6637272E-009  0.9937479E+02  0.7561462E-02  0.1281616E+00
         -2   -1    0    0    0  501 -0.00000000000E+00  0.00000000000E+00  0.24572133235E+02  0.24572133235E+02  0.00000000000E+00 0. -1.
          2   -1    0    0  501    0  0.00000000000E+00 -0.00000000000E+00 -0.53368008812E+03  0.53368008812E+03  0.00000000000E+00 0.  1.
         25    2    1    2    0    0  0.12727517407E+02 -0.13480213121E+02 -0.31125508464E+03  0.33595687214E+03  0.12507432341E+03 0.  0.
         23    2    1    2    0    0 -0.12727517407E+02  0.13480213121E+02 -0.19785287025E+03  0.22229534922E+03  0.99628099322E+02 0.  0.
          5    1    3    3  502    0  0.26456873203E+01 -0.60917650696E+02 -0.86019944847E+02  0.10552186095E+03  0.41800000000E+01 0. -1.
         -5    1    3    3    0  502  0.10081830087E+02  0.47437437575E+02 -0.22523513979E+03  0.23043501118E+03  0.41800000000E+01 0. -1.
        -11    1    4    4    0    0 -0.23296070080E+02 -0.33498041803E+02 -0.39525211897E+02  0.56807288804E+02  0.00000000000E+00 0. -1.
         11    1    4    4    0    0  0.10568552673E+02  0.46978254924E+02 -0.15832765835E+03  0.16548806042E+03  0.00000000000E+00 0.  1.
</event>
<event>
 8    1  0.6637272E-009  0.3404139E+03  0.7561462E-02  0.1066620E+00
          2   -1    0    0  501    0  0.00000000000E+00  0.00000000000E+00  0.18990714950E+04  0.18990714950E+04  0.00000000000E+00 0. -1.
         -2   -1    0    0    0  501 -0.00000000000E+00 -0.00000000000E+00 -0.73091913336E+02  0.73091913336E+02  0.00000000000E+00 0.  1.
         25    2    1    2    0    0 -0.15234088892E+03  0.29592153102E+03  0.59025590626E+03  0.68907687846E+03  0.12509040969E+03 0.  0.
         23    2    1    2    0    0  0.15234088892E+03 -0.29592153102E+03  0.12357236754E+04  0.12830865299E+04  0.92307866628E+02 0.  0.
          5    1    3    3  502    0 -0.67743390475E+02  0.72055363304E+02  0.28158495854E+03  0.29847730837E+03  0.41800000000E+01 0.  1.
         -5    1    3    3    0  502 -0.84597498440E+02  0.22386616772E+03  0.30867094772E+03  0.39059957009E+03  0.41800000000E+01 0.  1.
        -11    1    4    4    0    0  0.14583315943E+03 -0.20636400044E+03  0.98008191571E+03  0.10121333769E+04  0.00000000000E+00 0. -1.
         11    1    4    4    0    0  0.65077294810E+01 -0.89557530577E+02  0.25564175971E+03  0.27095315302E+03  0.00000000000E+00 0.  1.
</event>
<event>
 8    1  0.6637272E-009  0.1848760E+03  0.7561462E-02  0.1163166E+00
         -1   -1    0    0    0  501 -0.00000000000E+00  0.00000000000E+00  0.11097609029E+03  0.11097609029E+03  0.00000000000E+00 0.  1.
          1   -1    0    0  501    0  0.00000000000E+00 -0.00000000000E+00 -0.35131058490E+03  0.35131058490E+03  0.00000000000E+00 0. -1.
         25    2    1    2    0    0  0.13686093481E+03  0.91358460641E+02 -0.12517761545E+03  0.24164823904E+03  0.12508857746E+03 0.  0.
         23    2    1    2    0    0 -0.13686093481E+03 -0.91358460641E+02 -0.11515687916E+03  0.22063843615E+03  0.91339634767E+02 0.  0.
          5    1    3    3  502    0 -0.34975812905E+01 -0.19485820132E+02  0.44577221881E+01  0.20718927294E+02  0.41800000000E+01 0.  1.
         -5    1    3    3    0  502  0.14035851610E+03  0.11084428077E+03 -0.12963533764E+03  0.22092931174E+03  0.41800000000E+01 0.  1.
        -11    1    4    4    0    0 -0.11127017770E+03 -0.50006861987E+02 -0.12080175216E+03  0.17168227053E+03  0.00000000000E+00 0. -1.
         11    1    4    4    0    0 -0.25590757112E+02 -0.41351598654E+02  0.56448729923E+01  0.48956165616E+02  0.00000000000E+00 0.  1.
</event>
<event>
 8    1  0.6637272E-009  0.1299238E+03  0.7561462E-02  0.1227569E+00
          2   -1    0    0  501    0  0.00000000000E+00  0.00000000000E+00  0.31078791883E+03  0.31078791883E+03  0.00000000000E+00 0. -1.
         -2   -1    0    0    0  501 -0.00000000000E+00 -0.00000000000E+00 -0.67743286846E+02  0.67743286846E+02  0.00000000000E+00 0.  1.
         25    2    1    2    0    0  0.77834447896E+02 -0.51313419864E+02  0.15472756955E+03  0.21972649444E+03  0.12509133960E+03 0.  0.
         23    2    1    2    0    0 -0.77834447896E+02  0.51313419864E+02  0.88317062429E+02  0.15880471123E+03  0.93422505081E+02 0.  0.
          5    1    3    3  502    0 -0.58750898521E+01 -0.65793378262E+02  0.41539602578E+02  0.78142794206E+02  0.41800000000E+01 0.  1.
         -5    1    3    3    0  502  0.83709537748E+02  0.14479958399E+02  0.11318796697E+03  0.14158370024E+03  0.41800000000E+01 0.  1.
        -11    1    4    4    0    0 -0.11149294434E+02  0.39294013284E+02  0.80917770748E+02  0.90642219022E+02  0.00000000000E+00 0. -1.
         11    1    4    4    0    0 -0.66685153461E+02  0.12019406580E+02  0.73992916806E+01  0.68162492208E+02  0.00000000000E+00 0.  1.
</event>
<event>
 8    1  0.6637272E-009  0.1425082E+03  0.7561462E-02  0.1209993E+00
          2   -1    0    0  501    0  0.00000000000E+00  0.00000000000E+00  0.22280084341E+03  0.22280084341E+03  0.00000000000E+00 0. -1.
         -2   -1    0    0    0  501 -0.00000000000E+00 -0.00000000000E+00 -0.13515673777E+03  0.13515673777E+03  0.00000000000E+00 0.  1.
         25    2    1    2    0    0 -0.11642299261E+03 -0.56510166631E+02  0.92944742437E+01  0.18022663163E+03  0.12509012494E+03 0.  0.
         23    2    1    2    0    0  0.11642299261E+03  0.56510166631E+02  0.78349631402E+02  0.17773094954E+03  0.93284047641E+02 0.  0.
          5    1    3    3  502    0 -0.81100547708E+02 -0.54945953356E+02  0.62450184596E+02  0.11624910574E+03  0.41800000000E+01 0. -1.
         -5    1    3    3    0  502 -0.35322444900E+02 -0.15642132755E+01 -0.53155710352E+02  0.63977525897E+02  0.41800000000E+01 0. -1.
        -11    1    4    4    0    0  0.56332590319E+02  0.69924972233E+02  0.18125560751E+02  0.91604576449E+02  0.00000000000E+00 0.  1.
         11    1    4    4    0    0  0.60090402289E+02 -0.13414805602E+02  0.60224070651E+02  0.86126373094E+02  0.00000000000E+00 0. -1.
</event>
<event>
 8    1  0.6637272E-009  0.8820977E+02  0.7561462E-02  0.1307246E+00
          2   -1    0    0  501    0  0.00000000000E+00  0.00000000000E+00  0.38220938593E+03  0.38220938593E+03  0.00000000000E+00 0. -1.
         -2   -1    0    0    0  501 -0.00000000000E+00 -0.00000000000E+00 -0.34797927241E+02  0.34797927241E+02  0.00000000000E+00 0.  1.
         25    2    1    2    0    0  0.75039837221E+01  0.39899315075E+02  0.20454800148E+03  0.24317812364E+03  0.12508976694E+03 0.  0.
         23    2    1    2    0    0 -0.75039837221E+01 -0.39899315075E+02  0.14286345722E+03  0.17382918954E+03  0.90323610492E+02 0.  0.
          5    1    3    3  502    0 -0.24015007771E+02  0.66155398616E+02  0.59098354220E+02  0.91996441430E+02  0.41800000000E+01 0.  1.
         -5    1    3    3    0  502  0.31518991493E+02 -0.26256083542E+02  0.14544964726E+03  0.15118168221E+03  0.41800000000E+01 0.  1.
        -11    1    4    4    0    0  0.17864286702E+02 -0.56142800637E+00 -0.51421766743E+01  0.18598116080E+02  0.00000000000E+00 0.  1.
         11    1    4    4    0    0 -0.25368270424E+02 -0.39337887068E+02  0.14800563389E+03  0.15523107346E+03  0.00000000000E+00 0. -1.
</event>
<event>
 8    1  0.6637272E-009  0.1260040E+03  0.7561462E-02  0.1233509E+00
          1   -1    0    0  501    0  0.00000000000E+00  0.00000000000E+00  0.63986684304E+03  0.63986684304E+03  0.00000000000E+00 0. -1.
         -1   -1    0    0    0  501 -0.00000000000E+00 -0.00000000000E+00 -0.32582707945E+02  0.32582707945E+02  0.00000000000E+00 0.  1.
         25    2    1    2    0    0 -0.73962959610E+02 -0.46943725019E+02  0.28929560286E+03  0.32712878520E+03  0.12508822311E+03 0.  0.
         23    2    1    2    0    0  0.73962959610E+02  0.46943725019E+02  0.31798853223E+03  0.34532076578E+03  0.10225209990E+03 0.  0.
          5    1    3    3  502    0  0.27099125372E+02 -0.30781455442E+02  0.14095353083E+03  0.14685785933E+03  0.41800000000E+01 0.  1.
         -5    1    3    3    0  502 -0.10106208498E+03 -0.16162269578E+02  0.14834207203E+03  0.18027092587E+03  0.41800000000E+01 0.  1.
        -11    1    4    4    0    0  0.12478641979E+02  0.45150181169E+02  0.43166756782E+02  0.63699483956E+02  0.00000000000E+00 0.  1.
         11    1    4    4    0    0  0.61484317630E+02  0.17935438505E+01  0.27482177545E+03  0.28162128183E+03  0.00000000000E+00 0. -1.
</event>
<event>
 8    1  0.6637272E-009  0.9120638E+02  0.7561462E-02  0.1299956E+00
         -1   -1    0    0    0  501 -0.00000000000E+00  0.00000000000E+00  0.62637007049E+02  0.62637007049E+02  0.00000000000E+00 0.  1.
          1   -1    0    0  501    0  0.00000000000E+00 -0.00000000000E+00 -0.27869566556E+03  0.27869566556E+03  0.00000000000E+00 0. -1.
         25    2    1    2    0    0 -0.32537720674E+02  0.26780913692E+02 -0.37424191443E+02  0.13720302201E+03  0.12509267980E+03 0.  0.
         23    2    1    2    0    0  0.32537720674E+02 -0.26780913692E+02 -0.17863446706E+03  0.20412965059E+03  0.89346073355E+02 0.  0.
          5    1    3    3  502    0 -0.11392284551E+02 -0.50400955848E+02 -0.13424380489E+02  0.53551161418E+02  0.41800000000E+01 0. -1.
         -5    1    3    3    0  502 -0.21145436123E+02  0.77181869541E+02 -0.23999810955E+02  0.83651860592E+02  0.41800000000E+01 0. -1.
        -11    1    4    4    0    0  0.19075058553E+02  0.14802792655E+01  0.33922431022E+01  0.19430810553E+02  0.00000000000E+00 0.  1.
         11    1    4    4    0    0  0.13462662121E+02 -0.28261192958E+02 -0.18202671017E+03  0.18469884004E+03  0.00000000000E+00 0. -1.
</event>
<event>
 8    1  0.6637272E-009  0.1131110E+03  0.7561462E-02  0.1254915E+00
         -2   -1    0    0    0  501 -0.00000000000E+00  0.00000000000E+00  0.12654950436E+03  0.12654950436E+03  0.00000000000E+00 0.  1.
          2   -1    0    0  501    0  0.00000000000E+00 -0.00000000000E+00 -0.16636696777E+03  0.16636696777E+03  0.00000000000E+00 0. -1.
         25    2    1    2    0    0  0.61013966709E+02  0.14018579501E+02 -0.94667307741E+02  0.16890545988E+03  0.12509168844E+03 0.  0.
         23    2    1    2    0    0 -0.61013966709E+02 -0.14018579501E+02  0.54849844340E+02  0.12401101225E+03  0.91929326279E+02 0.  0.
          5    1    3    3  502    0 -0.23364824323E+02  0.33361929278E+02 -0.52987258844E+00  0.40947362623E+02  0.41800000000E+01 0. -1.
         -5    1    3    3    0  502  0.84378791032E+02 -0.19343349777E+02 -0.94137435153E+02  0.12795809726E+03  0.41800000000E+01 0. -1.
        -11    1    4    4    0    0  0.14139788540E+02 -0.18543973737E+02  0.41418971139E+02  0.47532554656E+02  0.00000000000E+00 0.  1.
         11    1    4    4    0    0 -0.75153755249E+02  0.45253942358E+01  0.13430873201E+02  0.76478457594E+02  0.00000000000E+00 0. -1.
</event>
<event>
 8    1  0.6637272E-009  0.1638379E+03  0.7561462E-02  0.1184431E+00
         -1   -1    0    0    0  501 -0.00000000000E+00  0.00000000000E+00  0.80817692435E+02  0.80817692435E+02  0.00000000000E+00 0.  1.
          1   -1    0    0  501    0  0.00000000000E+00 -0.00000000000E+00 -0.41510106692E+03  0.41510106692E+03  0.00000000000E+00 0. -1.
         25    2    1    2    0    0  0.11711364979E+03  0.81057249357E+02 -0.22640974673E+03  0.29528827870E+03  0.12509160436E+03 0.  0.
         23    2    1    2    0    0 -0.11711364979E+03 -0.81057249357E+02 -0.10787362776E+03  0.20063048066E+03  0.91268754588E+02 0.  0.
          5    1    3    3  502    0  0.94351683452E+02  0.10677891170E+02 -0.58107471738E+02  0.11140111401E+03  0.41800000000E+01 0.  1.
         -5    1    3    3    0  502  0.22761966337E+02  0.70379358187E+02 -0.16830227499E+03  0.18388716469E+03  0.41800000000E+01 0.  1.
        -11    1    4    4    0    0 -0.97945999091E+02 -0.93727424868E+02 -0.61473601061E+02  0.14885312404E+03  0.00000000000E+00 0. -1.
         11    1    4    4    0    0 -0.19167650698E+02  0.12670175511E+02 -0.46400026695E+02  0.51777356615E+02  0.00000000000E+00 0.  1.
</event>
<event>
 8    1  0.6637272E-009  0.1870580E+03  0.7561462E-02  0.1161142E+00
          2   -1    0    0  501    0  0.00000000000E+00  0.00000000000E+00  0.78412449535E+02  0.78412449535E+02  0.00000000000E+00 0. -1.
         -2   -1    0    0    0  501 -0.00000000000E+00 -0.00000000000E+00 -0.50395397349E+03  0.50395397349E+03  0.00000000000E+00 0.  1.
         25    2    1    2    0    0 -0.13586277565E+03 -0.92433025727E+02 -0.19051044917E+03  0.28097115931E+03  0.12509197844E+03 0.  0.
         23    2    1    2    0    0  0.13586277565E+03  0.92433025727E+02 -0.23503107478E+03  0.30139526371E+03  0.92719689517E+02 0.  0.
          5    1    3    3  502    0 -0.54757470789E+02  0.13342371577E+02 -0.11375515857E+02  0.57647846859E+02  0.41800000000E+01 0. -1.
         -5    1    3    3    0  502 -0.81105304856E+02 -0.10577539730E+03 -0.17913493332E+03  0.22332331245E+03  0.41800000000E+01 0. -1.
        -11    1    4    4    0    0  0.75213454949E+02  0.18540345288E+01 -0.65023955967E+02  0.99441521001E+02  0.00000000000E+00 0. -1.
         11    1    4    4    0    0  0.60649320696E+02  0.90578991198E+02 -0.17000711881E+03  0.20195374271E+03  0.00000000000E+00 0.  1.
</event>
<event>
 8    1  0.6637272E-009  0.1105462E+03  0.7561462E-02  0.1259562E+00
         -1   -1    0    0    0  501 -0.00000000000E+00  0.00000000000E+00  0.18930834158E+03  0.18930834158E+03  0.00000000000E+00 0.  1.
          1   -1    0    0  501    0  0.00000000000E+00 -0.00000000000E+00 -0.26776200932E+03  0.26776200932E+03  0.00000000000E+00 0. -1.
         25    2    1    2    0    0  0.43993660385E+02  0.43088804694E+02 -0.23094137802E+03  0.26976513054E+03  0.12508884175E+03 0.  0.
         23    2    1    2    0    0 -0.43993660385E+02 -0.43088804694E+02  0.15248771028E+03  0.18730522035E+03  0.89658555305E+02 0.  0.
          5    1    3    3  502    0  0.34295811304E+02  0.77858053357E+02 -0.88784730664E+02  0.12303771757E+03  0.41800000000E+01 0. -1.
         -5    1    3    3    0  502  0.96978490810E+01 -0.34769248663E+02 -0.14215664736E+03  0.14672741297E+03  0.41800000000E+01 0. -1.
        -11    1    4    4    0    0  0.11302037411E+02  0.15389244466E+02  0.57415482680E+01  0.19938161183E+02  0.00000000000E+00 0. -1.
         11    1    4    4    0    0 -0.55295697796E+02 -0.58478049160E+02  0.14674616202E+03  0.16736705917E+03  0.00000000000E+00 0.  1.
</event>
<event>
 8    1  0.6637272E-009  0.1060676E+03  0.7561462E-02  0.1268030E+00
          2   -1    0    0  501    0  0.00000000000E+00  0.00000000000E+00  0.10074775533E+03  0.10074775533E+03  0.00000000000E+00 0. -1.
         -2   -1    0    0    0  501 -0.00000000000E+00 -0.00000000000E+00 -0.17018664600E+03  0.17018664600E+03  0.00000000000E+00 0.  1.
         25    2    1    2    0    0 -0.14235800011E+02 -0.15108355994E+02  0.31167902413E+02  0.13057366960E+03  0.12508846721E+03 0.  0.
         23    2    1    2    0    0  0.14235800011E+02  0.15108355994E+02 -0.10060679309E+03  0.14036073174E+03  0.95647727505E+02 0.  0.
          5    1    3    3  502    0 -0.63768758031E+02  0.18457407519E+02  0.20876488189E+02  0.69716788167E+02  0.41800000000E+01 0. -1.
         -5    1    3    3    0  502  0.49532958021E+02 -0.33565763513E+02  0.10291414224E+02  0.60856881428E+02  0.41800000000E+01 0. -1.
        -11    1    4    4    0    0  0.39878559197E+01 -0.34627508675E+02 -0.76669445895E+02  0.84220967019E+02  0.00000000000E+00 0.  1.
         11    1    4    4    0    0  0.10247944091E+02  0.49735864668E+02 -0.23937347190E+02  0.56139764721E+02  0.00000000000E+00 0. -1.
</event>
<event>
 8    1  0.6637272E-009  0.1028799E+03  0.7561462E-02  0.1274354E+00
         -2   -1    0    0    0  501 -0.00000000000E+00  0.00000000000E+00  0.62777026661E+02  0.62777026661E+02  0.00000000000E+00 0.  1.
          2   -1    0    0  501    0  0.00000000000E+00 -0.00000000000E+00 -0.23904320509E+03  0.23904320509E+03  0.00000000000E+00 0. -1.
         25    2    1    2    0    0  0.62103652939E+01 -0.45993273537E+02 -0.12430605142E+03  0.18236078552E+03  0.12509800889E+03 0.  0.
         23    2    1    2    0    0 -0.62103652939E+01  0.45993273537E+02 -0.51960127011E+02  0.11945944623E+03  0.97039964175E+02 0.  0.
          5    1    3    3  502    0 -0.15821085542E+02  0.40600725517E+02 -0.45654042478E+02  0.63249424146E+02  0.41800000000E+01 0. -1.
         -5    1    3    3    0  502  0.22031450836E+02 -0.86593999054E+02 -0.78652008941E+02  0.11911136138E+03  0.41800000000E+01 0. -1.
        -11    1    4    4    0    0 -0.91094290392E+01  0.58750526353E+02  0.62658630849E+01  0.59781829048E+02  0.00000000000E+00 0.  1.
         11    1    4    4    0    0  0.28990637452E+01 -0.12757252816E+02 -0.58225990096E+02  0.59677617183E+02  0.00000000000E+00 0. -1.
</event>
<event>
 8    1  0.6637272E-009  0.1694810E+03  0.7561462E-02  0.1178390E+00
          1   -1    0    0  501    0  0.00000000000E+00  0.00000000000E+00  0.62531956953E+03  0.62531956953E+03  0.00000000000E+00 0. -1.
         -1   -1    0    0    0  501 -0.00000000000E+00 -0.00000000000E+00 -0.74683328858E+02  0.74683328858E+02  0.00000000000E+00 0.  1.
         25    2    1    2    0    0 -0.96057805495E+02 -0.12198766144E+03  0.45522573514E+03  0.49697658950E+03  0.12508864472E+03 0.  0.
         23    2    1    2    0    0  0.96057805495E+02  0.12198766144E+03  0.95410505536E+02  0.20302630889E+03  0.89489809445E+02 0.  0.
          5    1    3    3  502    0 -0.22510822386E+02 -0.61783860382E+02  0.34560090751E+03  0.35182586915E+03  0.41800000000E+01 0. -1.
         -5    1    3    3    0  502 -0.73546983109E+02 -0.60203801059E+02  0.10962482762E+03  0.14515072035E+03  0.41800000000E+01 0. -1.
        -11    1    4    4    0    0  0.39982836279E+02 -0.38508311330E+01  0.11767932479E+02  0.41856186307E+02  0.00000000000E+00 0.  1.
         11    1    4    4    0    0  0.56074969216E+02  0.12583849257E+03  0.83642573057E+02  0.16117012258E+03  0.00000000000E+00 0. -1.
</event>
<event>
 8    1  0.6637272E-009  0.8189203E+02  0.7561462E-02  0.1323766E+00
         -2   -1    0    0    0  501 -0.00000000000E+00  0.00000000000E+00  0.16814961596E+04  0.16814961596E+04  0.00000000000E+00 0.  1.
          2   -1    0    0  501    0  0.00000000000E+00 -0.00000000000E+00 -0.93345283843E+01  0.93345283843E+01  0.00000000000E+00 0. -1.
         25    2    1    2    0    0  0.60961979619E+01 -0.53213658998E+02  0.11594203475E+04  0.11673782854E+04  0.12509061461E+03 0.  0.
         23    2    1    2    0    0 -0.60961979619E+01  0.53213658998E+02  0.51274128367E+03  0.52345240255E+03  0.90718998143E+02 0.  0.
          5    1    3    3  502    0  0.34988621569E+01 -0.47607632452E+00 -0.11570701008E+01  0.55928433089E+01  0.41800000000E+01 0.  1.
         -5    1    3    3    0  502  0.25973358049E+01 -0.52737582673E+02  0.11605774176E+04  0.11617854421E+04  0.41800000000E+01 0.  1.
        -11    1    4    4    0    0  0.22479089190E+02  0.69090748851E+02  0.35119589603E+03  0.35863267896E+03  0.00000000000E+00 0. -1.
         11    1    4    4    0    0 -0.28575287152E+02 -0.15877089853E+02  0.16154538764E+03  0.16481972360E+03  0.00000000000E+00 0.  1.
</event>
<event>
 8    1  0.6637272E-009  0.1314761E+03  0.7561462E-02  0.1225282E+00
          1   -1    0    0  501    0  0.00000000000E+00  0.00000000000E+00  0.20874160027E+03  0.20874160027E+03  0.00000000000E+00 0. -1.
         -1   -1    0    0    0  501 -0.00000000000E+00 -0.00000000000E+00 -0.12122578146E+03  0.12122578146E+03  0.00000000000E+00 0.  1.
         25    2    1    2    0    0 -0.75207771264E+01  0.10142627126E+03 -0.61184265631E+01  0.16133771803E+03  0.12509425857E+03 0.  0.
         23    2    1    2    0    0  0.75207771264E+01 -0.10142627126E+03  0.93634245371E+02  0.16862966369E+03  0.96564698423E+02 0.  0.
          5    1    3    3  502    0 -0.53313881807E+02  0.10197828339E+03 -0.67415371191E+01  0.11534669912E+03  0.41800000000E+01 0.  1.
         -5    1    3    3    0  502  0.45793104680E+02 -0.55201212802E+00  0.62311055594E+00  0.45991018910E+02  0.41800000000E+01 0.  1.
        -11    1    4    4    0    0  0.38654930716E+01 -0.78924653586E+02  0.73220991172E+01  0.79357772876E+02  0.00000000000E+00 0.  1.
         11    1    4    4    0    0  0.36552840548E+01 -0.22501617673E+02  0.86312146254E+02  0.89271890819E+02  0.00000000000E+00 0. -1.
</event>
<event>
 8    1  0.6637272E-009  0.9853093E+02  0.7561462E-02  0.1283416E+00
         -2   -1    0    0    0  501 -0.00000000000E+00  0.00000000000E+00  0.24341881787E+02  0.24341881787E+02  0.00000000000E+00 0.  1.
          2   -1    0    0  501    0  0.00000000000E+00 -0.00000000000E+00 -0.60715613811E+03  0.60715613811E+03  0.00000000000E+00 0. -1.
         25    2    1    2    0    0  0.17055494566E+02  0.47287576088E+02 -0.38444118869E+03  0.40739372621E+03  0.12509043068E+03 0.  0.
         23    2    1    2    0    0 -0.17055494566E+02 -0.47287576088E+02 -0.19837306763E+03  0.22410429369E+03  0.91344708328E+02 0.  0.
          5    1    3    3  502    0 -0.24764600429E+02 -0.23117218507E+02 -0.23015646886E+03  0.23267394307E+03  0.41800000000E+01 0.  1.
         -5    1    3    3    0  502  0.41820094995E+02  0.70404794594E+02 -0.15428471983E+03  0.17471978314E+03  0.41800000000E+01 0.  1.
        -11    1    4    4    0    0 -0.35298378492E+02 -0.60146217824E+01 -0.16266700864E+03  0.16656142080E+03  0.00000000000E+00 0.  1.
         11    1    4    4    0    0  0.18242883926E+02 -0.41272954305E+02 -0.35706058990E+02  0.57542872883E+02  0.00000000000E+00 0. -1.
</event>
<event>
 8    1  0.6637272E-009  0.1107194E+03  0.7561462E-02  0.1259243E+00
          1   -1    0    0  501    0  0.00000000000E+00  0.00000000000E+00  0.84144123935E+03  0.84144123935E+03  0.00000000000E+00 0. -1.
         -1   -1    0    0    0  501 -0.00000000000E+00 -0.00000000000E+00 -0.16669704690E+02  0.16669704690E+02  0.00000000000E+00 0.  1.
         25    2    1    2    0    0  0.46446898377E+01 -0.44744297576E+02  0.52518683302E+03  0.54174899683E+03  0.12508853137E+03 0.  0.
         23    2    1    2    0    0 -0.46446898377E+01  0.44744297576E+02  0.29958470164E+03  0.31636194721E+03  0.91160643235E+02 0.  0.
          5    1    3    3  502    0 -0.21597783489E+02  0.36904080661E+02  0.24367994503E+03  0.24743840331E+03  0.41800000000E+01 0.  1.
         -5    1    3    3    0  502  0.26242473326E+02 -0.81648378237E+02  0.28150688799E+03  0.29431059352E+03  0.41800000000E+01 0.  1.
        -11    1    4    4    0    0 -0.25240174066E+02 -0.15038542929E+02  0.16585176001E+03  0.16843405373E+03  0.00000000000E+00 0. -1.
         11    1    4    4    0    0  0.20595484228E+02  0.59782840505E+02  0.13373294163E+03  0.14792789347E+03  0.00000000000E+00 0.  1.
</event>
<event>
 8    1  0.6637272E-009  0.1160703E+03  0.7561462E-02  0.1249724E+00
         -1   -1    0    0    0  501 -0.00000000000E+00  0.00000000000E+00  0.75664477888E+02  0.75664477888E+02  0.00000000000E+00 0.  1.
          1   -1    0    0  501    0  0.00000000000E+00 -0.00000000000E+00 -0.25940609708E+03  0.25940609708E+03  0.00000000000E+00 0. -1.
         25    2    1    2    0    0 -0.51192176844E+02  0.67948056940E+02 -0.12755312442E+03  0.19787784316E+03  0.12509302080E+03 0.  0.
         23    2    1    2    0    0  0.51192176844E+02 -0.67948056940E+02 -0.56188494771E+02  0.13719273181E+03  0.91799353507E+02 0.  0.
          5    1    3    3  502    0 -0.67559079048E+02  0.59403205571E+02 -0.24820650235E+02  0.93415775284E+02  0.41800000000E+01 0.  1.
         -5    1    3    3    0  502  0.16366902204E+02  0.85448513687E+01 -0.10273247418E+03  0.10446206787E+03  0.41800000000E+01 0.  1.
        -11    1    4    4    0    0  0.27750125186E+02 -0.88020074684E+02 -0.52321268495E+02  0.10609014154E+03  0.00000000000E+00 0. -1.
         11    1    4    4    0    0  0.23442051658E+02  0.20072017744E+02 -0.38672262764E+01  0.31102590267E+02  0.00000000000E+00 0.  1.
</event>
<event>
 8    1  0.6637272E-009  0.6411927E+02  0.7561462E-02  0.1381315E+00
          2   -1    0    0  501    0  0.00000000000E+00  0.00000000000E+00  0.43021074713E+02  0.43021074713E+02  0.00000000000E+00 0.  1.
         -2   -1    0    0    0  501 -0.00000000000E+00 -0.00000000000E+00 -0.30754821840E+03  0.30754821840E+03  0.00000000000E+00 0. -1.
         25    2    1    2    0    0  0.41286353355E+01 -0.37419803552E+02 -0.16168045307E+03  0.20786228541E+03  0.12509545741E+03 0.  0.
         23    2    1    2    0    0 -0.41286353355E+01  0.37419803552E+02 -0.10284669062E+03  0.14270700770E+03  0.91490769745E+02 0.  0.
          5    1    3    3  502    0 -0.18928397527E+01 -0.28369704871E+02 -0.18210066978E+03  0.18435441229E+03  0.41800000000E+01 0. -1.
         -5    1    3    3    0  502  0.60214750881E+01 -0.90500986813E+01  0.20420216708E+02  0.23507873123E+02  0.41800000000E+01 0. -1.
        -11    1    4    4    0    0  0.86787037949E+01  0.60681799474E+02 -0.98180593015E+02  0.11574553785E+03  0.00000000000E+00 0. -1.
         11    1    4    4    0    0 -0.12807339130E+02 -0.23261995922E+02 -0.46660976044E+01  0.26961469855E+02  0.00000000000E+00 0.  1.
</event>
<event>
 8    1  0.6637272E-009  0.8602743E+02  0.7561462E-02  0.1312767E+00
          2   -1    0    0  501    0  0.00000000000E+00  0.00000000000E+00  0.86267652478E+03  0.86267652478E+03  0.00000000000E+00 0. -1.
         -2   -1    0    0    0  501 -0.00000000000E+00 -0.00000000000E+00 -0.15666172703E+02  0.15666172703E+02  0.00000000000E+00 0.  1.
         25    2    1    2    0    0  0.40974082371E+02 -0.19822575873E+02  0.47761444765E+03  0.49582279953E+03  0.12511146228E+03 0.  0.
         23    2    1    2    0    0 -0.40974082371E+02  0.19822575873E+02  0.36939590443E+03  0.38251989795E+03  0.88296818620E+02 0.  0.
          5    1    3    3  502    0  0.54729149790E+02 -0.10863855025E+02  0.78778284864E+02  0.96627086000E+02  0.41800000000E+01 0.  1.
         -5    1    3    3    0  502 -0.13755067419E+02 -0.89587208485E+01  0.39883616278E+03  0.39919571353E+03  0.41800000000E+01 0.  1.
        -11    1    4    4    0    0 -0.46370989775E+02  0.50182356270E+02  0.24374012427E+03  0.25313590372E+03  0.00000000000E+00 0. -1.
         11    1    4    4    0    0  0.53969074042E+01 -0.30359780396E+02  0.12565578016E+03  0.12938399423E+03  0.00000000000E+00 0.  1.
</event>
<event>
 8    1  0.6637272E-009  0.1545892E+03  0.7561462E-02  0.1194945E+00
         -2   -1    0    0    0  501 -0.00000000000E+00  0.00000000000E+00  0.85057534008E+02  0.85057534008E+02  0.00000000000E+00 0.  1.
          2   -1    0    0  501    0  0.00000000000E+00 -0.00000000000E+00 -0.34192977325E+03  0.34192977325E+03  0.00000000000E+00 0. -1.
         25    2    1    2    0    0 -0.11344892573E+03 -0.59169570688E+02 -0.17621043155E+03  0.25114299558E+03  0.12510392157E+03 0.  0.
         23    2    1    2    0    0  0.11344892573E+03  0.59169570688E+02 -0.80661807694E+02  0.17584431169E+03  0.89683877517E+02 0.  0.
          5    1    3    3  502    0 -0.36240878029E+02  0.23549611678E+02 -0.21258274960E+01  0.43473865633E+02  0.41800000000E+01 0.  1.
         -5    1    3    3    0  502 -0.77208047705E+02 -0.82719182366E+02 -0.17408460406E+03  0.20766912994E+03  0.41800000000E+01 0.  1.
        -11    1    4    4    0    0  0.33564074196E+02 -0.20804797407E+02 -0.49601802993E+01  0.39799372612E+02  0.00000000000E+00 0.  1.
         11    1    4    4    0    0  0.79884851539E+02  0.79974368095E+02 -0.75701627394E+02  0.13604493907E+03  0.00000000000E+00 0. -1.
</event>
<event>
 8    1  0.6637272E-009  0.1089632E+03  0.7561462E-02  0.1262502E+00
         -1   -1    0    0    0  501 -0.00000000000E+00  0.00000000000E+00  0.24160000723E+02  0.24160000723E+02  0.00000000000E+00 0.  1.
          1   -1    0    0  501    0  0.00000000000E+00 -0.00000000000E+00 -0.60214019068E+03  0.60214019068E+03  0.00000000000E+00 0. -1.
         25    2    1    2    0    0 -0.18020847604E+02 -0.98789038674E+00 -0.45419959783E+03  0.47145580821E+03  0.12509027759E+03 0.  0.
         23    2    1    2    0    0  0.18020847604E+02  0.98789038674E+00 -0.12378059213E+03  0.15484438320E+03  0.91265662462E+02 0.  0.
          5    1    3    3  502    0 -0.97958799279E+01  0.61294396327E+02 -0.25831729363E+03  0.26570332868E+03  0.41800000000E+01 0.  1.
         -5    1    3    3    0  502 -0.82249676762E+01 -0.62282286713E+02 -0.19588230421E+03  0.20575247953E+03  0.41800000000E+01 0.  1.
        -11    1    4    4    0    0 -0.15695736943E+02 -0.38055274217E+02 -0.60957854520E+02  0.73555557789E+02  0.00000000000E+00 0.  1.
         11    1    4    4    0    0  0.33716584547E+02  0.39043164604E+02 -0.62822737605E+02  0.81288825407E+02  0.00000000000E+00 0. -1.
</event>
<event>
 8    1  0.6637272E-009  0.1084053E+03  0.7561462E-02  0.1263552E+00
         -2   -1    0    0    0  501 -0.00000000000E+00  0.00000000000E+00  0.47075026505E+02  0.47075026505E+02  0.00000000000E+00 0. -1.
          2   -1    0    0  501    0  0.00000000000E+00 -0.00000000000E+00 -0.32833017337E+03  0.32833017337E+03  0.00000000000E+00 0.  1.
         25    2    1    2    0    0  0.55095998692E+02  0.21589987710E+02 -0.13822152860E+03  0.19559306505E+03  0.12509899875E+03 0.  0.
         23    2    1    2    0    0 -0.55095998692E+02 -0.21589987710E+02 -0.14303361827E+03  0.17981213482E+03  0.91499132421E+02 0.  0.
          5    1    3    3  502    0 -0.21165286163E+02  0.26645201803E+02 -0.10798099204E+03  0.11329299696E+03  0.41800000000E+01 0.  1.
         -5    1    3    3    0  502  0.76261284855E+02 -0.50552140931E+01 -0.30240536557E+02  0.82300068096E+02  0.41800000000E+01 0.  1.
        -11    1    4    4    0    0 -0.77765511792E+02 -0.27621647396E+02 -0.12677997603E+03  0.15127323805E+03  0.00000000000E+00 0.  1.
         11    1    4    4    0    0  0.22669513101E+02  0.60316596854E+01 -0.16253642237E+02  0.28538896768E+02  0.00000000000E+00 0. -1.
</event>
<event>
 8    1  0.6637272E-009  0.9352060E+02  0.7561462E-02  0.1294543E+00
          3   -1    0    0  501    0  0.00000000000E+00  0.00000000000E+00  0.22181527762E+03  0.22181527762E+03  0.00000000000E+00 0. -1.
         -3   -1    0    0    0  501 -0.00000000000E+00 -0.00000000000E+00 -0.56647831532E+02  0.56647831532E+02  0.00000000000E+00 0.  1.
         25    2    1    2    0    0  0.11075553658E+02  0.24945337143E+00  0.13105168675E+03  0.18152166489E+03  0.12511131087E+03 0.  0.
         23    2    1    2    0    0 -0.11075553658E+02 -0.24945337143E+00  0.34115759332E+02  0.96941444256E+02  0.90061248402E+02 0.  0.
          5    1    3    3  502    0  0.66257730409E+01  0.62120866328E+02  0.76083549619E+02  0.98534673208E+02  0.41800000000E+01 0. -1.
         -5    1    3    3    0  502  0.44497806169E+01 -0.61871412957E+02  0.54968137135E+02  0.82986991685E+02  0.41800000000E+01 0. -1.
        -11    1    4    4    0    0 -0.36562892264E+02 -0.26347262333E+01  0.53484335316E+02  0.64841044079E+02  0.00000000000E+00 0. -1.
         11    1    4    4    0    0  0.25487338606E+02  0.23852728619E+01 -0.19368575984E+02  0.32100400177E+02  0.00000000000E+00 0.  1.
</event>
<event>
 8    1  0.6637272E-009  0.1913321E+03  0.7561462E-02  0.1157265E+00
          1   -1    0    0  501    0  0.00000000000E+00  0.00000000000E+00  0.15115111988E+03  0.15115111988E+03  0.00000000000E+00 0. -1.
         -1   -1    0    0    0  501 -0.00000000000E+00 -0.00000000000E+00 -0.31223222473E+03  0.31223222473E+03  0.00000000000E+00 0.  1.
         25    2    1    2    0    0 -0.17447504848E+03 -0.32005309633E+02 -0.14816643341E+03  0.26280524302E+03  0.12508965337E+03 0.  0.
         23    2    1    2    0    0  0.17447504848E+03  0.32005309633E+02 -0.12914671442E+02  0.20057810159E+03  0.92730273967E+02 0.  0.
          5    1    3    3  502    0 -0.33475347077E+02 -0.30053981202E+02  0.14532905234E+02  0.47460703561E+02  0.41800000000E+01 0. -1.
         -5    1    3    3    0  502 -0.14099970141E+03 -0.19513284318E+01 -0.16269933865E+03  0.21534453946E+03  0.41800000000E+01 0. -1.
        -11    1    4    4    0    0  0.95768814803E+02  0.59837651053E+02 -0.26510728311E+02  0.11599581496E+03  0.00000000000E+00 0. -1.
         11    1    4    4    0    0  0.78706233680E+02 -0.27832341419E+02  0.13596056870E+02  0.84582286629E+02  0.00000000000E+00 0.  1.
</event>
<event>
 8    1  0.6637272E-009  0.1164968E+03  0.7561462E-02  0.1248991E+00
          1   -1    0    0  501    0  0.00000000000E+00  0.00000000000E+00  0.79722192928E+02  0.79722192928E+02  0.00000000000E+00 0. -1.
         -1   -1    0    0    0  501 -0.00000000000E+00 -0.00000000000E+00 -0.24625890073E+03  0.24625890073E+03  0.00000000000E+00 0.  1.
         25    2    1    2    0    0 -0.39442630857E+02 -0.59904702018E+02 -0.14350597704E+03  0.20343863564E+03  0.12509603740E+03 0.  0.
         23    2    1    2    0    0  0.39442630857E+02  0.59904702018E+02 -0.23030730761E+02  0.12254245801E+03  0.96653737661E+02 0.  0.
          5    1    3    3  502    0 -0.47347876404E+02 -0.79986330445E+02 -0.15333673937E+03  0.17935791731E+03  0.41800000000E+01 0. -1.
         -5    1    3    3    0  502  0.79052455467E+01  0.20081628427E+02  0.98307623372E+01  0.24080718336E+02  0.41800000000E+01 0. -1.
        -11    1    4    4    0    0  0.61258815592E+02  0.81451775517E+01 -0.24183368703E+02  0.66361296905E+02  0.00000000000E+00 0.  1.
         11    1    4    4    0    0 -0.21816184735E+02  0.51759524467E+02  0.11526379415E+01  0.56181161109E+02  0.00000000000E+00 0. -1.
</event>
<event>
 8    1  0.6637272E-009  0.9833683E+02  0.7561462E-02  0.1283833E+00
          2   -1    0    0  501    0  0.00000000000E+00  0.00000000000E+00  0.37435794210E+03  0.37435794210E+03  0.00000000000E+00 0. -1.
         -2   -1    0    0    0  501 -0.00000000000E+00 -0.00000000000E+00 -0.44805499239E+02  0.44805499239E+02  0.00000000000E+00 0.  1.
         25    2    1    2    0    0  0.63209137451E+02 -0.14969566764E+02  0.14154446274E+03  0.19975381653E+03  0.12508904548E+03 0.  0.
         23    2    1    2    0    0 -0.63209137451E+02  0.14969566764E+02  0.18800798012E+03  0.21940962480E+03  0.92596435584E+02 0.  0.
          5    1    3    3  502    0 -0.26341056986E+02  0.11351110578E+02 -0.13589498639E+01  0.29017548815E+02  0.41800000000E+01 0.  1.
         -5    1    3    3    0  502  0.89550194437E+02 -0.26320677342E+02  0.14290341260E+03  0.17073626772E+03  0.41800000000E+01 0.  1.
        -11    1    4    4    0    0 -0.29959696186E+02  0.25538442818E+02  0.13759611140E+02  0.41702785948E+02  0.00000000000E+00 0.  1.
         11    1    4    4    0    0 -0.33249441265E+02 -0.10568876054E+02  0.17424836897E+03  0.17770683886E+03  0.00000000000E+00 0. -1.
</event>
<event>
 8    1  0.6637272E-009  0.1742907E+03  0.7561462E-02  0.1173446E+00
         -1   -1    0    0    0  501 -0.00000000000E+00  0.00000000000E+00  0.15213251106E+03  0.15213251106E+03  0.00000000000E+00 0.  1.
          1   -1    0    0  501    0  0.00000000000E+00 -0.00000000000E+00 -0.26020633405E+03  0.26020633405E+03  0.00000000000E+00 0. -1.
         25    2    1    2    0    0  0.95318655630E+02  0.13137297041E+03 -0.95802419718E+02  0.22620777877E+03  0.12508937640E+03 0.  0.
         23    2    1    2    0    0 -0.95318655630E+02 -0.13137297041E+03 -0.12271403267E+02  0.18613106633E+03  0.90275594997E+02 0.  0.
          5    1    3    3  502    0  0.43166393979E+02  0.50905646926E+02  0.25459895686E+02  0.71556978321E+02  0.41800000000E+01 0. -1.
         -5    1    3    3    0  502  0.52152261651E+02  0.80467323480E+02 -0.12126231540E+03  0.15465080045E+03  0.41800000000E+01 0. -1.
        -11    1    4    4    0    0 -0.80528632684E+02 -0.34293733621E+02 -0.57452189466E+01  0.87715040833E+02  0.00000000000E+00 0.  1.
         11    1    4    4    0    0 -0.14790022946E+02 -0.97079236786E+02 -0.65261843202E+01  0.98416025501E+02  0.00000000000E+00 0. -1.
</event>
<event>
 8    1  0.6637272E-009  0.1649057E+03  0.7561462E-02  0.1183267E+00
         -2   -1    0    0    0  501 -0.00000000000E+00  0.00000000000E+00  0.53365866695E+02  0.53365866695E+02  0.00000000000E+00 0.  1.
          2   -1    0    0  501    0  0.00000000000E+00 -0.00000000000E+00 -0.64762379142E+03  0.64762379142E+03  0.00000000000E+00 0. -1.
         25    2    1    2    0    0  0.38920831661E+02  0.14441123781E+03 -0.28726496721E+03  0.34718669436E+03  0.12509197661E+03 0.  0.
         23    2    1    2    0    0 -0.38920831661E+02 -0.14441123781E+03 -0.30699295752E+03  0.35380296376E+03  0.92533369422E+02 0.  0.
          5    1    3    3  502    0  0.27403685511E+02  0.31817444399E+02 -0.19946961620E+03  0.20388455541E+03  0.41800000000E+01 0.  1.
         -5    1    3    3    0  502  0.11517146150E+02  0.11259379341E+03 -0.87795351013E+02  0.14330213895E+03  0.41800000000E+01 0.  1.
        -11    1    4    4    0    0 -0.66810768205E+02 -0.80441000954E+02 -0.20634731289E+03  0.23133016863E+03  0.00000000000E+00 0.  1.
         11    1    4    4    0    0  0.27889936544E+02 -0.63970236851E+02 -0.10064564463E+03  0.12247279513E+03  0.00000000000E+00 0. -1.
</event>
<event>
 8    1  0.6637272E-009  0.1860013E+03  0.7561462E-02  0.1162118E+00
          3   -1    0    0  501    0  0.00000000000E+00  0.00000000000E+00  0.26114975836E+03  0.26114975836E+03  0.00000000000E+00 0. -1.
         -3   -1    0    0    0  501 -0.00000000000E+00 -0.00000000000E+00 -0.23040699079E+03  0.23040699079E+03  0.00000000000E+00 0.  1.
         25    2    1    2    0    0  0.10446717217E+03 -0.11462341520E+03  0.17144007320E+03  0.26284274118E+03  0.12507074205E+03 0.  0.
         23    2    1    2    0    0 -0.10446717217E+03  0.11462341520E+03 -0.14069730563E+03  0.22871400798E+03  0.91991566257E+02 0.  0.
          5    1    3    3  502    0 -0.45557700815E+01 -0.86141735681E+02  0.69996090697E+02  0.11116689606E+03  0.41800000000E+01 0. -1.
         -5    1    3    3    0  502  0.10902294225E+03 -0.28481679521E+02  0.10144398250E+03  0.15167584511E+03  0.41800000000E+01 0. -1.
        -11    1    4    4    0    0 -0.10860263482E+03  0.72556375397E+02 -0.75054953674E+02  0.15063932412E+03  0.00000000000E+00 0. -1.
         11    1    4    4    0    0  0.41354626555E+01  0.42067039806E+02 -0.65642351955E+02  0.78074683858E+02  0.00000000000E+00 0.  1.
</event>
<event>
 8    1  0.6637272E-009  0.8577448E+02  0.7561462E-02  0.1313420E+00
         -2   -1    0    0    0  501 -0.00000000000E+00  0.00000000000E+00  0.22325701777E+02  0.22325701777E+02  0.00000000000E+00 0.  1.
          2   -1    0    0  501    0  0.00000000000E+00 -0.00000000000E+00 -0.60768076029E+03  0.60768076029E+03  0.00000000000E+00 0. -1.
         25    2    1    2    0    0  0.26827706557E+02  0.36762070686E+02 -0.34127297471E+03  0.36631400184E+03  0.12509008350E+03 0.  0.
         23    2    1    2    0    0 -0.26827706557E+02 -0.36762070686E+02 -0.24408208380E+03  0.26369246023E+03  0.88805823410E+02 0.  0.
          5    1    3    3  502    0  0.41325557606E+02 -0.54010640052E+01 -0.30720314342E+03  0.31004550784E+03  0.41800000000E+01 0.  1.
         -5    1    3    3    0  502 -0.14497851049E+02  0.42163134692E+02 -0.34069831290E+02  0.56268493993E+02  0.41800000000E+01 0.  1.
        -11    1    4    4    0    0 -0.35461140013E+02  0.10384801956E+02 -0.41715967269E+02  0.55727537968E+02  0.00000000000E+00 0.  1.
         11    1    4    4    0    0  0.86334334567E+01 -0.47146872643E+02 -0.20236611653E+03  0.20796492226E+03  0.00000000000E+00 0. -1.
</event>
<event>
 8    1  0.6637272E-009  0.6304043E+02  0.7561462E-02  0.1385498E+00
         -2   -1    0    0    0  501 -0.00000000000E+00  0.00000000000E+00  0.14918319418E+03  0.14918319418E+03  0.00000000000E+00 0.  1.
          2   -1    0    0  501    0  0.00000000000E+00 -0.00000000000E+00 -0.10659975733E+03  0.10659975733E+03  0.00000000000E+00 0. -1.
         25    2    1    2    0    0 -0.89928875435E+01 -0.20603754378E+02  0.84575940168E+02  0.15266279034E+03  0.12508977248E+03 0.  0.
         23    2    1    2    0    0  0.89928875435E+01  0.20603754378E+02 -0.41992503318E+02  0.10312016117E+03  0.91460431793E+02 0.  0.
          5    1    3    3  502    0 -0.17557476561E+02  0.77442151537E+00  0.11379772748E+03  0.11522265355E+03  0.41800000000E+01 0.  1.
         -5    1    3    3    0  502  0.85645890172E+01 -0.21378175893E+02 -0.29221787310E+02  0.37440136794E+02  0.41800000000E+01 0.  1.
        -11    1    4    4    0    0 -0.37161347530E+01  0.51275146886E+02 -0.24219118415E+01  0.51466649421E+02  0.00000000000E+00 0.  1.
         11    1    4    4    0    0  0.12709022296E+02 -0.30671392508E+02 -0.39570591477E+02  0.51653511748E+02  0.00000000000E+00 0. -1.
</event>
<event>
 8    1  0.6637272E-009  0.6906438E+02  0.7561462E-02  0.1363304E+00
          1   -1    0    0  501    0  0.00000000000E+00  0.00000000000E+00  0.62462839345E+03  0.62462839345E+03  0.00000000000E+00 0. -1.
         -1   -1    0    0    0  501 -0.00000000000E+00 -0.00000000000E+00 -0.41041226136E+02  0.41041226136E+02  0.00000000000E+00 0.  1.
         25    2    1    2    0    0  0.30050344506E+02 -0.26004036010E+01  0.55296215149E+03  0.56773281959E+03  0.12507449040E+03 0.  0.
         23    2    1    2    0    0 -0.30050344506E+02  0.26004036010E+01  0.30625015827E+02  0.97936800004E+02  0.87999658504E+02 0.  0.
          5    1    3    3  502    0  0.19525183335E+02  0.33674648818E+02  0.50511831432E+03  0.50663319928E+03  0.41800000000E+01 0.  1.
         -5    1    3    3    0  502  0.10525161172E+02 -0.36275052419E+02  0.47843837173E+02  0.61099620303E+02  0.41800000000E+01 0.  1.
        -11    1    4    4    0    0 -0.80275103130E+01  0.26965180710E+02 -0.22129094653E+02  0.35794674502E+02  0.00000000000E+00 0.  1.
         11    1    4    4    0    0 -0.22022834193E+02 -0.24364777109E+02  0.52754110480E+02  0.62142125503E+02  0.00000000000E+00 0. -1.
</event>
<event>
 8    1  0.6637272E-009  0.3682568E+03  0.7561462E-02  0.1055362E+00
          2   -1    0    0  501    0  0.00000000000E+00  0.00000000000E+00  0.88844458372E+03  0.88844458372E+03  0.00000000000E+00 0. -1.
         -2   -1    0    0    0  501 -0.00000000000E+00 -0.00000000000E+00 -0.15520216868E+03  0.15520216868E+03  0.00000000000E+00 0.  1.
         25    2    1    2    0    0 -0.33489549632E+03  0.11713474913E+03  0.37826744264E+03  0.53348821688E+03  0.12509147246E+03 0.  0.
         23    2    1    2    0    0  0.33489549632E+03 -0.11713474913E+03  0.35497497240E+03  0.51015853552E+03  0.91536645273E+02 0.  0.
          5    1    3    3  502    0 -0.32519630938E+03  0.13570117695E+03  0.36888602978E+03  0.51015862673E+03  0.41800000000E+01 0.  1.
         -5    1    3    3    0  502 -0.96991869365E+01 -0.18566427821E+02  0.93814128532E+01  0.23329590146E+02  0.41800000000E+01 0.  1.
        -11    1    4    4    0    0  0.18169047291E+03 -0.10310909920E+03  0.16837293832E+03  0.26831392182E+03  0.00000000000E+00 0.  1.
         11    1    4    4    0    0  0.15320502340E+03 -0.14025649932E+02  0.18660203409E+03  0.24184461370E+03  0.00000000000E+00 0. -1.
</event>
<event>
 8    1  0.6637272E-009  0.1059461E+03  0.7561462E-02  0.1268267E+00
         -2   -1    0    0    0  501 -0.00000000000E+00  0.00000000000E+00  0.89964858841E+01  0.89964858841E+01  0.00000000000E+00 0.  1.
          2   -1    0    0  501    0  0.00000000000E+00 -0.00000000000E+00 -0.14500292304E+04  0.14500292304E+04  0.00000000000E+00 0. -1.
         25    2    1    2    0    0 -0.23731475524E+02  0.21399264847E+01 -0.98757750069E+03  0.99575291968E+03  0.12508714949E+03 0.  0.
         23    2    1    2    0    0  0.23731475524E+02 -0.21399264847E+01 -0.45345524385E+03  0.46327279663E+03  0.91827358148E+02 0.  0.
          5    1    3    3  502    0  0.20318711392E+02 -0.48540147110E+02 -0.27604709042E+03  0.28104886487E+03  0.41800000000E+01 0.  1.
         -5    1    3    3    0  502 -0.44050186916E+02  0.50680073595E+02 -0.71153041027E+03  0.71470405481E+03  0.41800000000E+01 0.  1.
        -11    1    4    4    0    0 -0.33254359669E+02  0.73485803644E+01 -0.11553520659E+03  0.12045014750E+03  0.00000000000E+00 0.  1.
         11    1    4    4    0    0  0.56985835193E+02 -0.94885068491E+01 -0.33792003726E+03  0.34282264913E+03  0.00000000000E+00 0. -1.
</event>
<event>
 8    1  0.6637272E-009  0.1038411E+03  0.7561462E-02  0.1272420E+00
         -1   -1    0    0    0  501 -0.00000000000E+00  0.00000000000E+00  0.19709859016E+02  0.19709859016E+02  0.00000000000E+00 0.  1.
          1   -1    0    0  501    0  0.00000000000E+00 -0.00000000000E+00 -0.68655637076E+03  0.68655637076E+03  0.00000000000E+00 0. -1.
         25    2    1    2    0    0 -0.37546579397E+02  0.13835198988E+02 -0.33499277549E+03  0.35981714370E+03  0.12508820456E+03 0.  0.
         23    2    1    2    0    0  0.37546579397E+02 -0.13835198988E+02 -0.33185373626E+03  0.34644908607E+03  0.91098345842E+02 0.  0.
          5    1    3    3  502    0 -0.75283049417E+02  0.90416770362E+01 -0.29437125271E+03  0.30400854638E+03  0.41800000000E+01 0. -1.
         -5    1    3    3    0  502  0.37736470020E+02  0.47935219517E+01 -0.40621522781E+02  0.55808597324E+02  0.41800000000E+01 0. -1.
        -11    1    4    4    0    0 -0.15785609158E+02  0.23544791824E+02 -0.16346211539E+03  0.16590179579E+03  0.00000000000E+00 0. -1.
         11    1    4    4    0    0  0.53332188555E+02 -0.37379990812E+02 -0.16839162087E+03  0.18054729028E+03  0.00000000000E+00 0.  1.
</event>
<event>
 8    1  0.6637272E-009  0.1872539E+03  0.7561462E-02  0.1160962E+00
          1   -1    0    0  501    0  0.00000000000E+00  0.00000000000E+00  0.43301506044E+03  0.43301506044E+03  0.00000000000E+00 0. -1.
         -1   -1    0    0    0  501 -0.00000000000E+00 -0.00000000000E+00 -0.91814717655E+02  0.91814717655E+02  0.00000000000E+00 0.  1.
         25    2    1    2    0    0 -0.14711126220E+02  0.16118574621E+03  0.12394253276E+03  0.23917444921E+03  0.12508158823E+03 0.  0.
         23    2    1    2    0    0  0.14711126220E+02 -0.16118574621E+03  0.21725781002E+03  0.28565532888E+03  0.90557986310E+02 0.  0.
          5    1    3    3  502    0  0.46295029224E+02  0.11679520205E+03  0.56218483563E+02  0.13770380985E+03  0.41800000000E+01 0. -1.
         -5    1    3    3    0  502 -0.61006155445E+02  0.44390544160E+02  0.67724049198E+02  0.10147063936E+03  0.41800000000E+01 0. -1.
        -11    1    4    4    0    0  0.32154930489E+02 -0.14778494498E+03  0.14275967415E+03  0.20797753264E+03  0.00000000000E+00 0.  1.
         11    1    4    4    0    0 -0.17443804269E+02 -0.13400801234E+02  0.74498135870E+02  0.77677796243E+02  0.00000000000E+00 0. -1.
</event>
<event>
 8    1  0.6637272E-009  0.1311561E+03  0.7561462E-02  0.1225750E+00
          2   -1    0    0  501    0  0.00000000000E+00  0.00000000000E+00  0.15311291781E+03  0.15311291781E+03  0.00000000000E+00 0. -1.
         -2   -1    0    0    0  501 -0.00000000000E+00 -0.00000000000E+00 -0.18147267756E+03  0.18147267756E+03  0.00000000000E+00 0.  1.
         25    2    1    2    0    0 -0.69671506277E+02 -0.64709904062E+02 -0.10030487234E+03  0.18641269343E+03  0.12508850621E+03 0.  0.
         23    2    1    2    0    0  0.69671506277E+02  0.64709904062E+02  0.71945112592E+02  0.14817290195E+03  0.87963737838E+02 0.  0.
          5    1    3    3  502    0 -0.72312254163E+02  0.46008748806E+01 -0.90855920291E+02  0.11628628812E+03  0.41800000000E+01 0. -1.
         -5    1    3    3    0  502  0.26407478867E+01 -0.69310778942E+02 -0.94489520465E+01  0.70126405311E+02  0.41800000000E+01 0. -1.
        -11    1    4    4    0    0  0.42419308367E+01  0.53735551307E+02  0.53445295290E+01  0.54167032847E+02  0.00000000000E+00 0.  1.
         11    1    4    4    0    0  0.65429575440E+02  0.10974352754E+02  0.66600583063E+02  0.94005869098E+02  0.00000000000E+00 0. -1.
</event>
<event>
 8    1  0.6637272E-009  0.1280853E+03  0.7561462E-02  0.1230325E+00
         -4   -1    0    0    0  501 -0.00000000000E+00  0.00000000000E+00  0.14208822673E+03  0.14208822673E+03  0.00000000000E+00 0.  1.
          4   -1    0    0  501    0  0.00000000000E+00 -0.00000000000E+00 -0.13933383861E+03  0.13933383861E+03  0.00000000000E+00 0. -1.
         25    2    1    2    0    0  0.13700757152E+02 -0.69401399954E+02 -0.54255315594E+02  0.15360866458E+03  0.12509083700E+03 0.  0.
         23    2    1    2    0    0 -0.13700757152E+02  0.69401399954E+02  0.57009703719E+02  0.12781340076E+03  0.89899355027E+02 0.  0.
          5    1    3    3  502    0 -0.33082682105E+01 -0.10347607829E+03 -0.28560663168E+02  0.10747756649E+03  0.41800000000E+01 0.  1.
         -5    1    3    3    0  502  0.17009025362E+02  0.34074678340E+02 -0.25694652426E+02  0.46131098090E+02  0.41800000000E+01 0.  1.
        -11    1    4    4    0    0  0.18557336160E+02 -0.15017379373E+02  0.92928296789E+01  0.25617437265E+02  0.00000000000E+00 0. -1.
         11    1    4    4    0    0 -0.32258093311E+02  0.84418779327E+02  0.47716874040E+02  0.10219596350E+03  0.00000000000E+00 0.  1.
</event>
<event>
 8    1  0.6637272E-009  0.2579026E+03  0.7561462E-02  0.1108410E+00
          4   -1    0    0  501    0  0.00000000000E+00  0.00000000000E+00  0.67852824393E+03  0.67852824393E+03  0.00000000000E+00 0. -1.
         -4   -1    0    0    0  501 -0.00000000000E+00 -0.00000000000E+00 -0.20748528396E+03  0.20748528396E+03  0.00000000000E+00 0.  1.
         25    2    1    2    0    0 -0.25527855263E+03 -0.14020279617E+02  0.53565986265E+03  0.60658245672E+03  0.12508829148E+03 0.  0.
         23    2    1    2    0    0  0.25527855263E+03  0.14020279617E+02 -0.64616902681E+02  0.27943107117E+03  0.92426574902E+02 0.  0.
          5    1    3    3  502    0 -0.88813757247E+01  0.16624762664E+01  0.13890238838E+03  0.13925871089E+03  0.41800000000E+01 0.  1.
         -5    1    3    3    0  502 -0.24639717691E+03 -0.15682755883E+02  0.39675747427E+03  0.46732374582E+03  0.41800000000E+01 0.  1.
        -11    1    4    4    0    0  0.75591457671E+02 -0.14535879981E+02 -0.59715008901E+02  0.97423008410E+02  0.00000000000E+00 0.  1.
         11    1    4    4    0    0  0.17968709496E+03  0.28556159598E+02 -0.49018937802E+01  0.18200806276E+03  0.00000000000E+00 0. -1.
</event>
<event>
 8    1  0.6637272E-009  0.1035847E+03  0.7561462E-02  0.1272933E+00
          1   -1    0    0  501    0  0.00000000000E+00  0.00000000000E+00  0.80210893631E+03  0.80210893631E+03  0.00000000000E+00 0. -1.
         -1   -1    0    0    0  501 -0.00000000000E+00 -0.00000000000E+00 -0.17843104375E+02  0.17843104375E+02  0.00000000000E+00 0.  1.
         25    2    1    2    0    0  0.11764709430E+02 -0.70910572180E-01  0.59868551818E+03  0.61172767334E+03  0.12509189915E+03 0.  0.
         23    2    1    2    0    0 -0.11764709430E+02  0.70910572180E-01  0.18558031375E+03  0.20822436735E+03  0.93695895787E+02 0.  0.
          5    1    3    3  502    0 -0.27257958118E+02 -0.46765650879E+02  0.40610818581E+03  0.40972106776E+03  0.41800000000E+01 0.  1.
         -5    1    3    3    0  502  0.39022667548E+02  0.46694740307E+02  0.19257733237E+03  0.20200660558E+03  0.41800000000E+01 0.  1.
        -11    1    4    4    0    0  0.37316259855E+02  0.15536953775E+02  0.58369792335E+02  0.70999527037E+02  0.00000000000E+00 0.  1.
         11    1    4    4    0    0 -0.49080969285E+02 -0.15466043203E+02  0.12721052142E+03  0.13722484031E+03  0.00000000000E+00 0. -1.
</event>
<event>
 8    1  0.6637272E-009  0.9329280E+02  0.7561462E-02  0.1295068E+00
         -2   -1    0    0    0  501 -0.00000000000E+00  0.00000000000E+00  0.50308325343E+02  0.50308325343E+02  0.00000000000E+00 0.  1.
          2   -1    0    0  501    0  0.00000000000E+00 -0.00000000000E+00 -0.26138061165E+03  0.26138061165E+03  0.00000000000E+00 0. -1.
         25    2    1    2    0    0  0.10534405904E+02 -0.31664801799E+01 -0.69296867953E+02  0.14342370014E+03  0.12508917439E+03 0.  0.
         23    2    1    2    0    0 -0.10534405904E+02  0.31664801799E+01 -0.14177541835E+03  0.16826523685E+03  0.89955102012E+02 0.  0.
          5    1    3    3  502    0  0.34191805725E+02  0.40739630218E+02 -0.76075358103E+02  0.92917864588E+02  0.41800000000E+01 0.  1.
         -5    1    3    3    0  502 -0.23657399821E+02 -0.43906110397E+02  0.67784901504E+01  0.50505835556E+02  0.41800000000E+01 0.  1.
        -11    1    4    4    0    0  0.31613210268E+01  0.41943100486E+02 -0.10494107839E+03  0.11305683333E+03  0.00000000000E+00 0. -1.
         11    1    4    4    0    0 -0.13695726931E+02 -0.38776620306E+02 -0.36834339963E+02  0.55208403518E+02  0.00000000000E+00 0.  1.
</event>
<event>
 8    1  0.6637272E-009  0.1349864E+03  0.7561462E-02  0.1220239E+00
         -3   -1    0    0    0  501 -0.00000000000E+00  0.00000000000E+00  0.17462808749E+02  0.17462808749E+02  0.00000000000E+00 0.  1.
          3   -1    0    0  501    0  0.00000000000E+00 -0.00000000000E+00 -0.16072450000E+04  0.16072450000E+04  0.00000000000E+00 0. -1.
         25    2    1    2    0    0  0.21782476467E+01 -0.11991382549E+03 -0.10840753002E+04  0.10978389355E+04  0.12508797501E+03 0.  0.
         23    2    1    2    0    0 -0.21782476467E+01  0.11991382549E+03 -0.50570689110E+03  0.52686887330E+03  0.86413422773E+02 0.  0.
          5    1    3    3  502    0 -0.94285313349E+01 -0.11093116892E+02 -0.99002195728E+01  0.18095336225E+02  0.41800000000E+01 0.  1.
         -5    1    3    3    0  502  0.11606778982E+02 -0.10882070860E+03 -0.10741750806E+04  0.10797435992E+04  0.41800000000E+01 0.  1.
        -11    1    4    4    0    0  0.39479592822E+02  0.47477065039E+02 -0.26402050578E+03  0.27114486428E+03  0.00000000000E+00 0.  1.
         11    1    4    4    0    0 -0.41657840468E+02  0.72436760450E+02 -0.24168638532E+03  0.25572400901E+03  0.00000000000E+00 0. -1.
</event>
<event>
 8    1  0.6637272E-009  0.1109854E+03  0.7561462E-02  0.1258756E+00
         -2   -1    0    0    0  501 -0.00000000000E+00  0.00000000000E+00  0.77029655695E+03  0.77029655695E+03  0.00000000000E+00 0.  1.
          2   -1    0    0  501    0  0.00000000000E+00 -0.00000000000E+00 -0.19769092565E+02  0.19769092565E+02  0.00000000000E+00 0. -1.
         25    2    1    2    0    0  0.34434390564E+02  0.79078900467E+01  0.56368350027E+03  0.57847706692E+03  0.12509343106E+03 0.  0.
         23    2    1    2    0    0 -0.34434390564E+02 -0.79078900467E+01  0.18684396411E+03  0.21158858260E+03  0.92794393048E+02 0.  0.
          5    1    3    3  502    0  0.11164532375E+02  0.65609964272E+02  0.25635919104E+03  0.26489020636E+03  0.41800000000E+01 0. -1.
         -5    1    3    3    0  502  0.23269858189E+02 -0.57702074225E+02  0.30732430924E+03  0.31358686056E+03  0.41800000000E+01 0. -1.
        -11    1    4    4    0    0 -0.32000561909E+02  0.36450139358E+02  0.13424835263E+03  0.14274196582E+03  0.00000000000E+00 0.  1.
         11    1    4    4    0    0 -0.24338286558E+01 -0.44358029405E+02  0.52595611486E+02  0.68846616781E+02  0.00000000000E+00 0. -1.
</event>
<event>
 8    1  0.6637272E-009  0.7188048E+02  0.7561462E-02  0.1353813E+00
          1   -1    0    0  501    0  0.00000000000E+00  0.00000000000E+00  0.85326238886E+02  0.85326238886E+02  0.00000000000E+00 0. -1.
         -1   -1    0    0    0  501 -0.00000000000E+00 -0.00000000000E+00 -0.16622682077E+03  0.16622682077E+03  0.00000000000E+00 0.  1.
         25    2    1    2    0    0  0.11335752372E+02 -0.13274885707E+02  0.37195797522E+01  0.12639276699E+03  0.12512623387E+03 0.  0.
         23    2    1    2    0    0 -0.11335752372E+02  0.13274885707E+02 -0.84620161634E+02  0.12516029266E+03  0.90552775948E+02 0.  0.
          5    1    3    3  502    0  0.51294618049E+02 -0.22763368439E+01  0.44518425665E+02  0.68085844152E+02  0.41800000000E+01 0. -1.
         -5    1    3    3    0  502 -0.39958865677E+02 -0.10998548864E+02 -0.40798845913E+02  0.58306922841E+02  0.41800000000E+01 0. -1.
        -11    1    4    4    0    0 -0.53790492215E+01  0.31221506495E+02 -0.97343245409E+02  0.10236905814E+03  0.00000000000E+00 0.  1.
         11    1    4    4    0    0 -0.59567031501E+01 -0.17946620787E+02  0.12723083776E+02  0.22791234518E+02  0.00000000000E+00 0. -1.
</event>
<event>
 8    1  0.6637272E-009  0.7213852E+02  0.7561462E-02  0.1352968E+00
         -4   -1    0    0    0  501 -0.00000000000E+00  0.00000000000E+00  0.46060978038E+02  0.46060978038E+02  0.00000000000E+00 0.  1.
          4   -1    0    0  501    0  0.00000000000E+00 -0.00000000000E+00 -0.39708071155E+03  0.39708071155E+03  0.00000000000E+00 0. -1.
         25    2    1    2    0    0  0.64677793746E+00  0.68370797949E+02 -0.26197582764E+03  0.29825167051E+03  0.12509092837E+03 0.  0.
         23    2    1    2    0    0 -0.64677793746E+00 -0.68370797949E+02 -0.89043905875E+02  0.14489001908E+03  0.91593210021E+02 0.  0.
          5    1    3    3  502    0  0.18173417061E+01  0.67175364622E+02 -0.44449524569E+02  0.80678776499E+02  0.41800000000E+01 0. -1.
         -5    1    3    3    0  502 -0.11705637687E+01  0.11954333277E+01 -0.21752630307E+03  0.21757289401E+03  0.41800000000E+01 0. -1.
        -11    1    4    4    0    0 -0.12203404670E+02 -0.39672601871E+02 -0.10292625047E+03  0.11098041025E+03  0.00000000000E+00 0. -1.
         11    1    4    4    0    0  0.11556626733E+02 -0.28698196078E+02  0.13882344591E+02  0.33909608829E+02  0.00000000000E+00 0.  1.
</event>
<event>
 8    1  0.6637272E-009  0.2295882E+03  0.7561462E-02  0.1126930E+00
         -1   -1    0    0    0  501 -0.00000000000E+00  0.00000000000E+00  0.41200991400E+02  0.41200991400E+02  0.00000000000E+00 0.  1.
          1   -1    0    0  501    0  0.00000000000E+00 -0.00000000000E+00 -0.13343802103E+04  0.13343802103E+04  0.00000000000E+00 0. -1.
         25    2    1    2    0    0 -0.11017969539E+02  0.20712412337E+03 -0.64913597760E+03  0.69285402413E+03  0.12508950079E+03 0.  0.
         23    2    1    2    0    0  0.11017969539E+02 -0.20712412337E+03 -0.64404324126E+03  0.68272717753E+03  0.91120273209E+02 0.  0.
          5    1    3    3  502    0  0.80511528539E+01  0.21884357927E+03 -0.59900160460E+03  0.63779128872E+03  0.41800000000E+01 0.  1.
         -5    1    3    3    0  502 -0.19069122393E+02 -0.11719455898E+02 -0.50134373001E+02  0.55062735417E+02  0.41800000000E+01 0.  1.
        -11    1    4    4    0    0 -0.16431536994E+02 -0.17207030942E+03 -0.57629016601E+03  0.60165483645E+03  0.00000000000E+00 0. -1.
         11    1    4    4    0    0  0.27449506533E+02 -0.35053813943E+02 -0.67753075252E+02  0.81072341072E+02  0.00000000000E+00 0.  1.
</event>
<event>
 8    1  0.6637272E-009  0.1131226E+03  0.7561462E-02  0.1254894E+00
          3   -1    0    0  501    0  0.00000000000E+00  0.00000000000E+00  0.19380523851E+03  0.19380523851E+03  0.00000000000E+00 0. -1.
         -3   -1    0    0    0  501 -0.00000000000E+00 -0.00000000000E+00 -0.75788177365E+02  0.75788177365E+02  0.00000000000E+00 0.  1.
         25    2    1    2    0    0  0.30988230158E+02  0.37056011161E+02  0.10038497705E+03  0.16749294171E+03  0.12507327266E+03 0.  0.
         23    2    1    2    0    0 -0.30988230158E+02 -0.37056011161E+02  0.17632084090E+02  0.10210047416E+03  0.88205431026E+02 0.  0.
          5    1    3    3  502    0  0.41480516214E+02 -0.38941375741E+02  0.47283300522E+02  0.74096200160E+02  0.41800000000E+01 0.  1.
         -5    1    3    3    0  502 -0.10492286056E+02  0.75997386901E+02  0.53101676531E+02  0.93396741554E+02  0.41800000000E+01 0.  1.
        -11    1    4    4    0    0  0.12691143547E+01  0.23616239611E+02  0.23239953952E+02  0.33157697211E+02  0.00000000000E+00 0. -1.
         11    1    4    4    0    0 -0.32257344513E+02 -0.60672250772E+02 -0.56078698625E+01  0.68942776947E+02  0.00000000000E+00 0.  1.
</event>
<event>
 8    1  0.6637272E-009  0.1919612E+03  0.7561462E-02  0.1156704E+00
         -2   -1    0    0    0  501 -0.00000000000E+00  0.00000000000E+00  0.37088486009E+02  0.37088486009E+02  0.00000000000E+00 0.  1.
          2   -1    0    0  501    0  0.00000000000E+00 -0.00000000000E+00 -0.10286411943E+04  0.10286411943E+04  0.00000000000E+00 0. -1.
         25    2    1    2    0    0  0.34634335010E+02  0.15650886741E+03 -0.46127061803E+03  0.50409444825E+03  0.12508423944E+03 0.  0.
         23    2    1    2    0    0 -0.34634335010E+02 -0.15650886741E+03 -0.53028209027E+03  0.56163523207E+03  0.92414695263E+02 0.  0.
          5    1    3    3  502    0  0.63602298023E+02  0.15718901936E+03 -0.34851301263E+03  0.38759828753E+03  0.41800000000E+01 0. -1.
         -5    1    3    3    0  502 -0.28967963012E+02 -0.68015194464E+00 -0.11275760539E+03  0.11649616072E+03  0.41800000000E+01 0. -1.
        -11    1    4    4    0    0  0.29480975502E+02 -0.79679374984E+02 -0.24255733963E+03  0.25700582430E+03  0.00000000000E+00 0.  1.
         11    1    4    4    0    0 -0.64115310512E+02 -0.76829492427E+02 -0.28772475064E+03  0.30462940778E+03  0.00000000000E+00 0. -1.
</event>
<event>
 8    1  0.6637272E-009  0.1235113E+03  0.7561462E-02  0.1237414E+00
         -1   -1    0    0    0  501 -0.00000000000E+00  0.00000000000E+00  0.68673950577E+02  0.68673950577E+02  0.00000000000E+00 0.  1.
          1   -1    0    0  501    0  0.00000000000E+00 -0.00000000000E+00 -0.31159596341E+03  0.31159596341E+03  0.00000000000E+00 0. -1.
         25    2    1    2    0    0 -0.38581410879E+02  0.75780446951E+02 -0.20267250189E+03  0.25289223207E+03  0.12508851512E+03 0.  0.
         23    2    1    2    0    0  0.38581410879E+02 -0.75780446951E+02 -0.40249510940E+02  0.12737768191E+03  0.85871120367E+02 0.  0.
          5    1    3    3  502    0 -0.44701054429E+02 -0.16967496774E+02 -0.29583208227E+02  0.56380127907E+02  0.41800000000E+01 0.  1.
         -5    1    3    3    0  502  0.61196435499E+01  0.92747943725E+02 -0.17308929367E+03  0.19651210417E+03  0.41800000000E+01 0.  1.
        -11    1    4    4    0    0  0.31784560204E+01 -0.70047398016E+02 -0.54476925576E+02  0.88794571747E+02  0.00000000000E+00 0. -1.
         11    1    4    4    0    0  0.35402954859E+02 -0.57330489341E+01  0.14227414636E+02  0.38583110165E+02  0.00000000000E+00 0.  1.
</event>
<event>
 8    1  0.6637272E-009  0.4442191E+03  0.7561462E-02  0.1029460E+00
         -1   -1    0    0    0  501 -0.00000000000E+00  0.00000000000E+00  0.15455221881E+03  0.15455221881E+03  0.00000000000E+00 0.  1.
          1   -1    0    0  501    0  0.00000000000E+00 -0.00000000000E+00 -0.13861241403E+04  0.13861241403E+04  0.00000000000E+00 0. -1.
         25    2    1    2    0    0 -0.29423603021E+02  0.44138380102E+03 -0.48510574990E+03  0.66832589799E+03  0.12508600692E+03 0.  0.
         23    2    1    2    0    0  0.29423603021E+02 -0.44138380102E+03 -0.74646617162E+03  0.87235046114E+03  0.89989852038E+02 0.  0.
          5    1    3    3  502    0  0.80664614981E+01  0.28237728171E+03 -0.38190289251E+03  0.47504661743E+03  0.41800000000E+01 0. -1.
         -5    1    3    3    0  502 -0.37490064519E+02  0.15900651931E+03 -0.10320285739E+03  0.19327928056E+03  0.41800000000E+01 0. -1.
        -11    1    4    4    0    0  0.16395230729E+02 -0.31867996393E+03 -0.60963073919E+03  0.68809545934E+03  0.00000000000E+00 0. -1.
         11    1    4    4    0    0  0.13028372291E+02 -0.12270383709E+03 -0.13683543243E+03  0.18425500180E+03  0.00000000000E+00 0.  1.
</event>
<event>
 8    1  0.6637272E-009  0.2454193E+03  0.7561462E-02  0.1116234E+00
          1   -1    0    0  501    0  0.00000000000E+00  0.00000000000E+00  0.11694392751E+04  0.11694392751E+04  0.00000000000E+00 0. -1.
         -1   -1    0    0    0  501 -0.00000000000E+00 -0.00000000000E+00 -0.62507086001E+02  0.62507086001E+02  0.00000000000E+00 0.  1.
         25    2    1    2    0    0 -0.19403363873E+03 -0.11883732535E+03  0.34709850787E+03  0.43347039915E+03  0.12509136628E+03 0.  0.
         23    2    1    2    0    0  0.19403363873E+03  0.11883732535E+03  0.75983368123E+03  0.79847596195E+03  0.91898181835E+02 0.  0.
          5    1    3    3  502    0 -0.11783367242E+03 -0.97804807787E+01  0.10991792264E+03  0.16149258274E+03  0.41800000000E+01 0. -1.
         -5    1    3    3    0  502 -0.76199966312E+02 -0.10905684457E+03  0.23718058522E+03  0.27197781641E+03  0.41800000000E+01 0. -1.
        -11    1    4    4    0    0  0.84774237946E+00  0.24349492031E+02  0.14696625386E+03  0.14897213230E+03  0.00000000000E+00 0. -1.
         11    1    4    4    0    0  0.19318589635E+03  0.94487833323E+02  0.61286742737E+03  0.64950382965E+03  0.00000000000E+00 0.  1.
</event>
<event>
 8    1  0.6637272E-009  0.1576845E+03  0.7561462E-02  0.1191336E+00
          1   -1    0    0  501    0  0.00000000000E+00  0.00000000000E+00  0.82890523734E+02  0.82890523734E+02  0.00000000000E+00 0.  1.
         -1   -1    0    0    0  501 -0.00000000000E+00 -0.00000000000E+00 -0.37696942300E+03  0.37696942300E+03  0.00000000000E+00 0. -1.
         25    2    1    2    0    0  0.89961287820E+02 -0.10042111063E+03 -0.11035479021E+03  0.21448300073E+03  0.12508934851E+03 0.  0.
         23    2    1    2    0    0 -0.89961287820E+02  0.10042111063E+03 -0.18372410906E+03  0.24537694601E+03  0.90982770996E+02 0.  0.
          5    1    3    3  502    0 -0.73194517117E+01 -0.73337068564E+02 -0.80225207096E+02  0.10902043961E+03  0.41800000000E+01 0. -1.
         -5    1    3    3    0  502  0.97280739531E+02 -0.27084042068E+02 -0.30129583116E+02  0.10546256112E+03  0.41800000000E+01 0. -1.
        -11    1    4    4    0    0 -0.12136371474E+01  0.22050826285E+02 -0.94708463887E+02  0.97249190160E+02  0.00000000000E+00 0. -1.
         11    1    4    4    0    0 -0.88747650672E+02  0.78370284347E+02 -0.89015645172E+02  0.14812775585E+03  0.00000000000E+00 0.  1.
</event>
<event>
 8    1  0.6637272E-009  0.1299278E+03  0.7561462E-02  0.1227563E+00
         -1   -1    0    0    0  501 -0.00000000000E+00  0.00000000000E+00  0.28344185060E+02  0.28344185060E+02  0.00000000000E+00 0.  1.
          1   -1    0    0  501    0  0.00000000000E+00 -0.00000000000E+00 -0.85260201666E+03  0.85260201666E+03  0.00000000000E+00 0. -1.
         25    2    1    2    0    0 -0.86629292410E+02  0.49372071578E+02 -0.59099618488E+03  0.61225948516E+03  0.12507178287E+03 0.  0.
         23    2    1    2    0    0  0.86629292410E+02 -0.49372071578E+02 -0.23326164673E+03  0.26868671657E+03  0.88539934889E+02 0.  0.
          5    1    3    3  502    0  0.29367689364E+01  0.39970523239E+02 -0.38870285459E+03  0.39078593745E+03  0.41800000000E+01 0. -1.
         -5    1    3    3    0  502 -0.89566061347E+02  0.94015483390E+01 -0.20229333029E+03  0.22147354771E+03  0.41800000000E+01 0. -1.
        -11    1    4    4    0    0  0.10257047304E+03 -0.36350065985E+02 -0.16721286621E+03  0.19950481664E+03  0.00000000000E+00 0.  1.
         11    1    4    4    0    0 -0.15941180629E+02 -0.13022005593E+02 -0.66048780522E+02  0.69181899930E+02  0.00000000000E+00 0. -1.
</event>
<event>
 7    1  0.6637272E-009  0.9906018E+02  0.7561462E-02  0.1282285E+00
          2   -1    0    0  501    0  0.00000000000E+00  0.00000000000E+00  0.10341312150E+04  0.10341312150E+04  0.00000000000E+00 0. -1.
         -2   -1    0    0    0  501 -0.00000000000E+00 -0.00000000000E+00 -0.99499818887E+01  0.99499818887E+01  0.00000000000E+00 0.  1.
         25    2    1    2    0    0 -0.57259407980E+02 -0.84891520028E+01  0.78541172841E+03  0.79741424249E+03  0.12508871055E+03 0.  0.
          5    1    3    3  502    0  0.37232147501E+02 -0.17194272452E+02  0.18511619478E+03  0.18965060976E+03  0.41800000000E+01 0. -1.
         -5    1    3    3    0  502 -0.94491555482E+02  0.87051204496E+01  0.60029553363E+03  0.60776363274E+03  0.41800000000E+01 0. -1.
        -11    1    1    2    0    0  0.49679501303E+02  0.15028215360E+02  0.20111355578E+03  0.20770306311E+03  0.00000000000E+00 0.  1.
         11    1    1    2    0    0  0.75799066768E+01 -0.65390633573E+01  0.37655948948E+02  0.38963891310E+02  0.00000000000E+00 0. -1.
</event>
<event>
 8    1  0.6637272E-009  0.1206085E+03  0.7561462E-02  0.1242097E+00
          2   -1    0    0  501    0  0.00000000000E+00  0.00000000000E+00  0.38050956063E+02  0.38050956063E+02  0.00000000000E+00 0. -1.
         -2   -1    0    0    0  501 -0.00000000000E+00 -0.00000000000E+00 -0.60320580167E+03  0.60320580167E+03  0.00000000000E+00 0.  1.
         25    2    1    2    0    0  0.95593635247E+02 -0.12725273334E+02 -0.22922356107E+03  0.27837186303E+03  0.12508947795E+03 0.  0.
         23    2    1    2    0    0 -0.95593635247E+02  0.12725273334E+02 -0.33593128454E+03  0.36288489471E+03  0.97650105956E+02 0.  0.
          5    1    3    3  502    0  0.32620126495E+02 -0.25554481634E+02 -0.14554556175E+01  0.41673671967E+02  0.41800000000E+01 0.  1.
         -5    1    3    3    0  502  0.62973508752E+02  0.12829208300E+02 -0.22776810545E+03  0.23669819106E+03  0.41800000000E+01 0.  1.
        -11    1    4    4    0    0  0.62910621259E+01  0.31020221974E+02 -0.54556137001E+02  0.63073003087E+02  0.00000000000E+00 0. -1.
         11    1    4    4    0    0 -0.10188469737E+03 -0.18294948640E+02 -0.28137514754E+03  0.29981189162E+03  0.00000000000E+00 0.  1.
</event>
<event>
 8    1  0.6637272E-009  0.1531224E+03  0.7561462E-02  0.1196688E+00
          2   -1    0    0  501    0  0.00000000000E+00  0.00000000000E+00  0.43820394495E+02  0.43820394495E+02  0.00000000000E+00 0. -1.
         -2   -1    0    0    0  501 -0.00000000000E+00 -0.00000000000E+00 -0.54730831989E+03  0.54730831989E+03  0.00000000000E+00 0.  1.
         25    2    1    2    0    0  0.87850182982E+02  0.66216057245E+02 -0.24519241785E+03  0.29642612293E+03  0.12508758409E+03 0.  0.
         23    2    1    2    0    0 -0.87850182982E+02 -0.66216057245E+02 -0.25829550754E+03  0.29470259146E+03  0.89614883293E+02 0.  0.
          5    1    3    3  502    0 -0.29306198305E+02  0.33726108959E+02 -0.69513840415E+02  0.82740256791E+02  0.41800000000E+01 0.  1.
         -5    1    3    3    0  502  0.11715638129E+03  0.32489948286E+02 -0.17567857744E+03  0.21368586614E+03  0.41800000000E+01 0.  1.
        -11    1    4    4    0    0 -0.25434318704E+02 -0.72649776001E+02 -0.16744719852E+03  0.18429177630E+03  0.00000000000E+00 0.  1.
         11    1    4    4    0    0 -0.62415864278E+02  0.64337187560E+01 -0.90848309023E+02  0.11041081515E+03  0.00000000000E+00 0. -1.
</event>
<event>
 8    1  0.6637272E-009  0.7101325E+02  0.7561462E-02  0.1356681E+00
         -1   -1    0    0    0  501 -0.00000000000E+00  0.00000000000E+00  0.59592047755E+02  0.59592047755E+02  0.00000000000E+00 0.  1.
          1   -1    0    0  501    0  0.00000000000E+00 -0.00000000000E+00 -0.24436919353E+03  0.24436919353E+03  0.00000000000E+00 0. -1.
         25    2    1    2    0    0  0.47354707068E+02 -0.27810196424E+02 -0.97860269880E+02  0.16804430304E+03  0.12508549100E+03 0.  0.
         23    2    1    2    0    0 -0.47354707068E+02  0.27810196424E+02 -0.86916875894E+02  0.13591693824E+03  0.88898793462E+02 0.  0.
          5    1    3    3  502    0  0.75300304029E+01 -0.67518135756E+01 -0.11801054398E+03  0.11851687321E+03  0.41800000000E+01 0.  1.
         -5    1    3    3    0  502  0.39824676665E+02 -0.21058382849E+02  0.20150274101E+02  0.49527429835E+02  0.41800000000E+01 0.  1.
        -11    1    4    4    0    0 -0.29961047986E+02 -0.19287890044E+02 -0.76851990845E+02  0.84710776148E+02  0.00000000000E+00 0. -1.
         11    1    4    4    0    0 -0.17393659083E+02  0.47098086468E+02 -0.10064885048E+02  0.51206162093E+02  0.00000000000E+00 0.  1.
</event>
<event>
 8    1  0.6637272E-009  0.2337821E+03  0.7561462E-02  0.1124006E+00
          2   -1    0    0  501    0  0.00000000000E+00  0.00000000000E+00  0.69911980720E+03  0.69911980720E+03  0.00000000000E+00 0. -1.
         -2   -1    0    0    0  501 -0.00000000000E+00 -0.00000000000E+00 -0.93601769624E+02  0.93601769624E+02  0.00000000000E+00 0.  1.
         25    2    1    2    0    0  0.69561335250E+02 -0.20729753116E+03  0.43461806153E+03  0.50234452504E+03  0.12508443805E+03 0.  0.
         23    2    1    2    0    0 -0.69561335250E+02  0.20729753116E+03  0.17089997605E+03  0.29037705178E+03  0.85445799216E+02 0.  0.
          5    1    3    3  502    0  0.80588482045E+02 -0.21692810199E+03  0.37384228721E+03  0.43969061052E+03  0.41800000000E+01 0. -1.
         -5    1    3    3    0  502 -0.11027146795E+02  0.96305708280E+01  0.60775774317E+02  0.62653914520E+02  0.41800000000E+01 0. -1.
        -11    1    4    4    0    0 -0.35823951659E+02  0.15154366350E+03  0.16182753618E+03  0.22458180898E+03  0.00000000000E+00 0. -1.
         11    1    4    4    0    0 -0.33737383591E+02  0.55753867660E+02  0.90724398699E+01  0.65795242805E+02  0.00000000000E+00 0.  1.
</event>
<event>
 8    1  0.6637272E-009  0.1704598E+03  0.7561462E-02  0.1177369E+00
          1   -1    0    0  501    0  0.00000000000E+00  0.00000000000E+00  0.44444879645E+03  0.44444879645E+03  0.00000000000E+00 0. -1.
         -1   -1    0    0    0  501 -0.00000000000E+00 -0.00000000000E+00 -0.89864132450E+02  0.89864132450E+02  0.00000000000E+00 0.  1.
         25    2    1    2    0    0  0.16205912340E+03  0.32461825198E+02  0.20350698594E+03  0.29047967968E+03  0.12508565629E+03 0.  0.
         23    2    1    2    0    0 -0.16205912340E+03 -0.32461825198E+02  0.15107767806E+03  0.24383324922E+03  0.96505228059E+02 0.  0.
          5    1    3    3  502    0  0.12398172979E+03  0.29171100286E+02  0.58063304351E+02  0.14004014469E+03  0.41800000000E+01 0. -1.
         -5    1    3    3    0  502  0.38077393616E+02  0.32907249116E+01  0.14544368159E+03  0.15043953499E+03  0.41800000000E+01 0. -1.
        -11    1    4    4    0    0 -0.10829491140E+03  0.67299886731E+01  0.42577979591E+02  0.11655884749E+03  0.00000000000E+00 0.  1.
         11    1    4    4    0    0 -0.53764212004E+02 -0.39191813871E+02  0.10849969847E+03  0.12727440173E+03  0.00000000000E+00 0. -1.
</event>
<event>
 8    1  0.6637272E-009  0.8473796E+02  0.7561462E-02  0.1316119E+00
          2   -1    0    0  501    0  0.00000000000E+00  0.00000000000E+00  0.58457394404E+03  0.58457394404E+03  0.00000000000E+00 0. -1.
         -2   -1    0    0    0  501 -0.00000000000E+00 -0.00000000000E+00 -0.23901844598E+02  0.23901844598E+02  0.00000000000E+00 0.  1.
         25    2    1    2    0    0 -0.12196788447E+02  0.44837538077E+02  0.31852266672E+03  0.34534533214E+03  0.12509013848E+03 0.  0.
         23    2    1    2    0    0  0.12196788447E+02 -0.44837538077E+02  0.24214943272E+03  0.26313045650E+03  0.91881025796E+02 0.  0.
          5    1    3    3  502    0  0.18148209116E+01 -0.13462382954E+02  0.26342278066E+03  0.26380591938E+03  0.41800000000E+01 0.  1.
         -5    1    3    3    0  502 -0.14011609358E+02  0.58299921030E+02  0.55099886062E+02  0.81539412759E+02  0.41800000000E+01 0.  1.
        -11    1    4    4    0    0  0.29912434097E+01 -0.69122121755E+02  0.12243382858E+03  0.14063021594E+03  0.00000000000E+00 0.  1.
         11    1    4    4    0    0  0.92055450369E+01  0.24284583678E+02  0.11971560413E+03  0.12250024056E+03  0.00000000000E+00 0. -1.
</event>
<event>
 8    1  0.6637272E-009  0.1005789E+03  0.7561462E-02  0.1279083E+00
         -4   -1    0    0    0  501 -0.00000000000E+00  0.00000000000E+00  0.41420907999E+03  0.41420907999E+03  0.00000000000E+00 0. -1.
          4   -1    0    0  501    0  0.00000000000E+00 -0.00000000000E+00 -0.41459570874E+02  0.41459570874E+02  0.00000000000E+00 0.  1.
         25    2    1    2    0    0 -0.24376779215E+02 -0.72938390730E+02  0.22265419071E+03  0.26671525275E+03  0.12509157125E+03 0.  0.
         23    2    1    2    0    0  0.24376779215E+02  0.72938390730E+02  0.15009531840E+03  0.18895339812E+03  0.85208836668E+02 0.  0.
          5    1    3    3  502    0 -0.54935941686E+02 -0.55267796918E+02  0.55344790605E+02  0.95671340078E+02  0.41800000000E+01 0.  1.
         -5    1    3    3    0  502  0.30559162472E+02 -0.17670593811E+02  0.16730940011E+03  0.17104391267E+03  0.41800000000E+01 0.  1.
        -11    1    4    4    0    0  0.62683994710E+01  0.68686455612E+02  0.45295109262E+02  0.82515264888E+02  0.00000000000E+00 0.  1.
         11    1    4    4    0    0  0.18108379744E+02  0.42519351178E+01  0.10480020914E+03  0.10643813323E+03  0.00000000000E+00 0. -1.
</event>
<event>
 8    1  0.6637272E-009  0.1000199E+03  0.7561462E-02  0.1280254E+00
          2   -1    0    0  501    0  0.00000000000E+00  0.00000000000E+00  0.97399836277E+03  0.97399836277E+03  0.00000000000E+00 0. -1.
         -2   -1    0    0    0  501 -0.00000000000E+00 -0.00000000000E+00 -0.16865193483E+02  0.16865193483E+02  0.00000000000E+00 0.  1.
         25    2    1    2    0    0  0.48905962780E+02 -0.35133155282E+02  0.66700017309E+03  0.68129519065E+03  0.12509106323E+03 0.  0.
         23    2    1    2    0    0 -0.48905962780E+02  0.35133155282E+02  0.29013299620E+03  0.30956836560E+03  0.89606281624E+02 0.  0.
          5    1    3    3  502    0  0.68387483481E+02  0.18227503262E+01  0.58662075123E+03  0.59061116522E+03  0.41800000000E+01 0.  1.
         -5    1    3    3    0  502 -0.19481520701E+02 -0.36955905608E+02  0.80379421866E+02  0.90684025427E+02  0.41800000000E+01 0.  1.
        -11    1    4    4    0    0  0.11511281931E+02  0.25970621970E+02  0.26170488538E+02  0.38624827346E+02  0.00000000000E+00 0.  1.
         11    1    4    4    0    0 -0.60417244711E+02  0.91625333114E+01  0.26396250766E+03  0.27094353826E+03  0.00000000000E+00 0. -1.
</event>
<event>
 8    1  0.6637272E-009  0.2126369E+03  0.7561462E-02  0.1139495E+00
          2   -1    0    0  501    0  0.00000000000E+00  0.00000000000E+00  0.22188909110E+04  0.22188909110E+04  0.00000000000E+00 0.  1.
         -2   -1    0    0    0  501 -0.00000000000E+00 -0.00000000000E+00 -0.22052829158E+02  0.22052829158E+02  0.00000000000E+00 0. -1.
         25    2    1    2    0    0  0.16306985500E+03 -0.91740651740E+02  0.13720344255E+04  0.13903717830E+04  0.12508839069E+03 0.  0.
         23    2    1    2    0    0 -0.16306985500E+03  0.91740651740E+02  0.82480365635E+03  0.85057195714E+03  0.90351856398E+02 0.  0.
          5    1    3    3  502    0  0.16383793197E+02 -0.66533005104E+02  0.61613316171E+03  0.61994565472E+03  0.41800000000E+01 0.  1.
         -5    1    3    3    0  502  0.14668606180E+03 -0.25207646635E+02  0.75590126376E+03  0.77042612828E+03  0.41800000000E+01 0.  1.
        -11    1    4    4    0    0 -0.64921707765E+02  0.88201995856E+02  0.42583008811E+03  0.43968816695E+03  0.00000000000E+00 0. -1.
         11    1    4    4    0    0 -0.98148147233E+02  0.35386558831E+01  0.39897356823E+03  0.41088379019E+03  0.00000000000E+00 0.  1.
</event>
<event>
 8    1  0.6637272E-009  0.8525828E+02  0.7561462E-02  0.1314758E+00
         -2   -1    0    0    0  501 -0.00000000000E+00  0.00000000000E+00  0.19180074948E+03  0.19180074948E+03  0.00000000000E+00 0.  1.
          2   -1    0    0  501    0  0.00000000000E+00 -0.00000000000E+00 -0.73996207502E+02  0.73996207502E+02  0.00000000000E+00 0. -1.
         25    2    1    2    0    0  0.21297815453E+01 -0.50693797291E+02  0.64861721233E+02  0.14976797049E+03  0.12509598335E+03 0.  0.
         23    2    1    2    0    0 -0.21297815453E+01  0.50693797291E+02  0.52942820743E+02  0.11602898649E+03  0.89918776590E+02 0.  0.
          5    1    3    3  502    0  0.26037795757E+02 -0.64501536654E+02 -0.95070507335E+01  0.70329733771E+02  0.41800000000E+01 0.  1.
         -5    1    3    3    0  502 -0.23908014212E+02  0.13807739364E+02  0.74368771967E+02  0.79438236723E+02  0.41800000000E+01 0.  1.
        -11    1    4    4    0    0 -0.21145748227E+02  0.27402384686E+01 -0.18280661318E+02  0.28086191503E+02  0.00000000000E+00 0. -1.
         11    1    4    4    0    0  0.19015966681E+02  0.47953558822E+02  0.71223482061E+02  0.87942794983E+02  0.00000000000E+00 0.  1.
</event>
<event>
 8    1  0.6637272E-009  0.2432227E+03  0.7561462E-02  0.1117664E+00
         -2   -1    0    0    0  501 -0.00000000000E+00  0.00000000000E+00  0.58271258255E+02  0.58271258255E+02  0.00000000000E+00 0.  1.
          2   -1    0    0  501    0  0.00000000000E+00 -0.00000000000E+00 -0.16247248423E+04  0.16247248423E+04  0.00000000000E+00 0. -1.
         25    2    1    2    0    0  0.21151030066E+03  0.87974660894E+02 -0.12740982249E+04  0.13005576297E+04  0.12509081964E+03 0.  0.
         23    2    1    2    0    0 -0.21151030066E+03 -0.87974660894E+02 -0.29235535909E+03  0.38243847083E+03  0.91166768823E+02 0.  0.
          5    1    3    3  502    0  0.19986363603E+01  0.24311117913E+02 -0.34948289783E+03  0.35035809292E+03  0.41800000000E+01 0.  1.
         -5    1    3    3    0  502  0.20951166430E+03  0.63663542981E+02 -0.92461532708E+03  0.95019953676E+03  0.41800000000E+01 0.  1.
        -11    1    4    4    0    0 -0.17116265111E+02 -0.38442413359E+02 -0.79494624238E+02  0.89945433230E+02  0.00000000000E+00 0.  1.
         11    1    4    4    0    0 -0.19439403555E+03 -0.49532247535E+02 -0.21286073485E+03  0.29249303760E+03  0.00000000000E+00 0. -1.
</event>
<event>
 8    1  0.6637272E-009  0.8602376E+02  0.7561462E-02  0.1312777E+00
          1   -1    0    0  501    0  0.00000000000E+00  0.00000000000E+00  0.34257242105E+02  0.34257242105E+02  0.00000000000E+00 0. -1.
         -1   -1    0    0    0  501 -0.00000000000E+00 -0.00000000000E+00 -0.37669110362E+03  0.37669110362E+03  0.00000000000E+00 0.  1.
         25    2    1    2    0    0 -0.16722047958E+02 -0.28786326304E+02 -0.20491806451E+03  0.24237905513E+03  0.12509162137E+03 0.  0.
         23    2    1    2    0    0  0.16722047958E+02  0.28786326304E+02 -0.13751579701E+03  0.16856929059E+03  0.91633682854E+02 0.  0.
          5    1    3    3  502    0  0.11253317540E+02  0.42137120420E+02 -0.12215008779E+03  0.12977014456E+03  0.41800000000E+01 0. -1.
         -5    1    3    3    0  502 -0.27975365498E+02 -0.70923446725E+02 -0.82767976719E+02  0.11260891057E+03  0.41800000000E+01 0. -1.
        -11    1    4    4    0    0 -0.10082154016E+02  0.22041622630E+02 -0.13879933448E+03  0.14089974525E+03  0.00000000000E+00 0.  1.
         11    1    4    4    0    0  0.26804201973E+02  0.67447036746E+01  0.12835374744E+01  0.27669545344E+02  0.00000000000E+00 0. -1.
</event>
<event>
 8    1  0.6637272E-009  0.1441564E+03  0.7561462E-02  0.1207843E+00
         -1   -1    0    0    0  501 -0.00000000000E+00  0.00000000000E+00  0.69796826185E+03  0.69796826185E+03  0.00000000000E+00 0.  1.
          1   -1    0    0  501    0  0.00000000000E+00 -0.00000000000E+00 -0.46212304675E+02  0.46212304675E+02  0.00000000000E+00 0. -1.
         25    2    1    2    0    0  0.11639196329E+03  0.82157736431E+02  0.33636473911E+03  0.38611512304E+03  0.12508664096E+03 0.  0.
         23    2    1    2    0    0 -0.11639196329E+03 -0.82157736431E+02  0.31539121806E+03  0.35806544349E+03  0.91881764310E+02 0.  0.
          5    1    3    3  502    0  0.37149519129E+02  0.10270648327E+02  0.23664032834E+03  0.23979510084E+03  0.41800000000E+01 0. -1.
         -5    1    3    3    0  502  0.79242444163E+02  0.71887088104E+02  0.99724410767E+02  0.14632002220E+03  0.41800000000E+01 0. -1.
        -11    1    4    4    0    0 -0.97290119981E+02 -0.68227767581E+02  0.31239840034E+03  0.33423518105E+03  0.00000000000E+00 0.  1.
         11    1    4    4    0    0 -0.19101843311E+02 -0.13929968850E+02  0.29928177259E+01  0.23830262440E+02  0.00000000000E+00 0. -1.
</event>
<event>
 8    1  0.6637272E-009  0.1072928E+03  0.7561462E-02  0.1265667E+00
         -3   -1    0    0    0  501 -0.00000000000E+00  0.00000000000E+00  0.19042565986E+02  0.19042565986E+02  0.00000000000E+00 0.  1.
          3   -1    0    0  501    0  0.00000000000E+00 -0.00000000000E+00 -0.65195893839E+03  0.65195893839E+03  0.00000000000E+00 0. -1.
         25    2    1    2    0    0  0.22770162851E+02  0.11951747535E+02 -0.41504195228E+03  0.43423912205E+03  0.12506985401E+03 0.  0.
         23    2    1    2    0    0 -0.22770162851E+02 -0.11951747535E+02 -0.21787442012E+03  0.23676238232E+03  0.89027176490E+02 0.  0.
          5    1    3    3  502    0  0.39101544057E-01  0.67196948792E+02 -0.20090158498E+03  0.21188287025E+03  0.41800000000E+01 0. -1.
         -5    1    3    3    0  502  0.22731061307E+02 -0.55245201258E+02 -0.21414036730E+03  0.22235625180E+03  0.41800000000E+01 0. -1.
        -11    1    4    4    0    0 -0.30996240490E+02 -0.44260273934E+02 -0.93436293432E+02  0.10793553494E+03  0.00000000000E+00 0.  1.
         11    1    4    4    0    0  0.82260776382E+01  0.32308526399E+02 -0.12443812669E+03  0.12882684738E+03  0.00000000000E+00 0. -1.
</event>
<event>
 8    1  0.6637272E-009  0.3042681E+03  0.7561462E-02  0.1083126E+00
          1   -1    0    0  501    0  0.00000000000E+00  0.00000000000E+00  0.32936025456E+03  0.32936025456E+03  0.00000000000E+00 0. -1.
         -1   -1    0    0    0  501 -0.00000000000E+00 -0.00000000000E+00 -0.33530908586E+03  0.33530908586E+03  0.00000000000E+00 0.  1.
         25    2    1    2    0    0  0.91594956631E+02 -0.28597772086E+03  0.88139119812E+02  0.33702992683E+03  0.12509106374E+03 0.  0.
         23    2    1    2    0    0 -0.91594956631E+02  0.28597772086E+03 -0.94087951116E+02  0.32763941360E+03  0.91225818117E+02 0.  0.
          5    1    3    3  502    0  0.10232088815E+03 -0.24179145583E+03  0.31786995938E+02  0.26450058180E+03  0.41800000000E+01 0.  1.
         -5    1    3    3    0  502 -0.10725931521E+02 -0.44186265031E+02  0.56352123874E+02  0.72529345023E+02  0.41800000000E+01 0.  1.
        -11    1    4    4    0    0 -0.36110199375E+02  0.11503525931E+03 -0.85319397107E+02  0.14770395021E+03  0.00000000000E+00 0.  1.
         11    1    4    4    0    0 -0.55484757256E+02  0.17094246154E+03 -0.87685540095E+01  0.17993546339E+03  0.00000000000E+00 0. -1.
</event>
<event>
 8    1  0.6637272E-009  0.1389815E+03  0.7561462E-02  0.1214706E+00
          2   -1    0    0  501    0  0.00000000000E+00  0.00000000000E+00  0.81173646614E+03  0.81173646614E+03  0.00000000000E+00 0. -1.
         -2   -1    0    0    0  501 -0.00000000000E+00 -0.00000000000E+00 -0.25914405462E+02  0.25914405462E+02  0.00000000000E+00 0.  1.
         25    2    1    2    0    0 -0.86011974722E+02  0.33364423833E+02  0.49618391780E+03  0.51995887558E+03  0.12508999735E+03 0.  0.
         23    2    1    2    0    0  0.86011974722E+02 -0.33364423833E+02  0.28963814288E+03  0.31769199602E+03  0.92340164352E+02 0.  0.
          5    1    3    3  502    0 -0.11615459230E+03  0.11659082599E+02  0.34571127858E+03  0.36491311850E+03  0.41800000000E+01 0. -1.
         -5    1    3    3    0  502  0.30142617583E+02  0.21705341234E+02  0.15047263922E+03  0.15504575708E+03  0.41800000000E+01 0.  1.
        -11    1    4    4    0    0  0.81172097585E+02 -0.57295065893E+02  0.18235282644E+03  0.20766363984E+03  0.00000000000E+00 0.  1.
         11    1    4    4    0    0  0.48398771368E+01  0.23930642060E+02  0.10728531644E+03  0.11002835618E+03  0.00000000000E+00 0. -1.
</event>
<event>
 8    1  0.6637272E-009  0.9790714E+02  0.7561462E-02  0.1284760E+00
          2   -1    0    0  501    0  0.00000000000E+00  0.00000000000E+00  0.10516215218E+04  0.10516215218E+04  0.00000000000E+00 0. -1.
         -2   -1    0    0    0  501 -0.00000000000E+00 -0.00000000000E+00 -0.17400322733E+02  0.17400322733E+02  0.00000000000E+00 0.  1.
         25    2    1    2    0    0 -0.88747919566E+01  0.74269511502E+02  0.45611486330E+03  0.47883520905E+03  0.12509063370E+03 0.  0.
         23    2    1    2    0    0  0.88747919566E+01 -0.74269511502E+02  0.57810633574E+03  0.59018663545E+03  0.92296299853E+02 0.  0.
          5    1    3    3  502    0 -0.13308532634E+02  0.44493465463E+02  0.44347312301E+03  0.44591778249E+03  0.41800000000E+01 0.  1.
         -5    1    3    3    0  502  0.44337406778E+01  0.29776046039E+02  0.12641740287E+02  0.32917426564E+02  0.41800000000E+01 0.  1.
        -11    1    4    4    0    0 -0.33842359059E+02 -0.85363518305E+00  0.16772401517E+03  0.17110633894E+03  0.00000000000E+00 0. -1.
         11    1    4    4    0    0  0.42717151015E+02 -0.73415876319E+02  0.41038232057E+03  0.41908029651E+03  0.00000000000E+00 0.  1.
</event>
<event>
 8    1  0.6637272E-009  0.7597704E+02  0.7561462E-02  0.1340872E+00
         -2   -1    0    0    0  501 -0.00000000000E+00  0.00000000000E+00  0.79030620931E+02  0.79030620931E+02  0.00000000000E+00 0.  1.
          2   -1    0    0  501    0  0.00000000000E+00 -0.00000000000E+00 -0.21234413288E+03  0.21234413288E+03  0.00000000000E+00 0. -1.
         25    2    1    2    0    0 -0.13084207578E+01  0.44482445315E+02 -0.12699079177E+02  0.13337623333E+03  0.12509017986E+03 0.  0.
         23    2    1    2    0    0  0.13084207578E+01 -0.44482445315E+02 -0.12061443277E+03  0.15799852049E+03  0.91843841256E+02 0.  0.
          5    1    3    3  502    0  0.46236339307E+02  0.10763638321E+02  0.34024800227E+02  0.58556079214E+02  0.41800000000E+01 0. -1.
         -5    1    3    3    0  502 -0.47544760065E+02  0.33718806993E+02 -0.46723879404E+02  0.74820154111E+02  0.41800000000E+01 0. -1.
        -11    1    4    4    0    0 -0.42225191947E+01 -0.31018182673E+02 -0.13437174496E+03  0.13797000822E+03  0.00000000000E+00 0. -1.
         11    1    4    4    0    0  0.55309399525E+01 -0.13464262642E+02  0.13757312183E+02  0.20028512270E+02  0.00000000000E+00 0.  1.
</event>
<event>
 8    1  0.6637272E-009  0.8313221E+02  0.7561462E-02  0.1320391E+00
          1   -1    0    0  501    0  0.00000000000E+00  0.00000000000E+00  0.32223957880E+03  0.32223957880E+03  0.00000000000E+00 0. -1.
         -1   -1    0    0    0  501 -0.00000000000E+00 -0.00000000000E+00 -0.43551279735E+02  0.43551279735E+02  0.00000000000E+00 0.  1.
         25    2    1    2    0    0  0.11162603332E+02  0.24119689220E+02  0.95549341303E+02  0.15964092405E+03  0.12509670215E+03 0.  0.
         23    2    1    2    0    0 -0.11162603332E+02 -0.24119689220E+02  0.18313895776E+03  0.20614993448E+03  0.90838067546E+02 0.  0.
          5    1    3    3  502    0 -0.49831962098E+02  0.12477268065E+02  0.80541530956E+02  0.95620694798E+02  0.41800000000E+01 0.  1.
         -5    1    3    3    0  502  0.60994565430E+02  0.11642421155E+02  0.15007810346E+02  0.64020229254E+02  0.41800000000E+01 0.  1.
        -11    1    4    4    0    0  0.10054862953E+02  0.87741716010E+01 -0.47970076947E+01  0.14180889927E+02  0.00000000000E+00 0.  1.
         11    1    4    4    0    0 -0.21217466285E+02 -0.32893860821E+02  0.18793596546E+03  0.19196904455E+03  0.00000000000E+00 0. -1.
</event>
<event>
 8    1  0.6637272E-009  0.2640494E+03  0.7561462E-02  0.1104734E+00
          1   -1    0    0  501    0  0.00000000000E+00  0.00000000000E+00  0.24575623908E+03  0.24575623908E+03  0.00000000000E+00 0. -1.
         -1   -1    0    0    0  501 -0.00000000000E+00 -0.00000000000E+00 -0.31387090729E+03  0.31387090729E+03  0.00000000000E+00 0.  1.
         25    2    1    2    0    0  0.10317652190E+03  0.22801345805E+03  0.26843118164E+02  0.28107479278E+03  0.12508778686E+03 0.  0.
         23    2    1    2    0    0 -0.10317652190E+03 -0.22801345805E+03 -0.94957786378E+02  0.27855235359E+03  0.77064263919E+02 0.  0.
          5    1    3    3  502    0  0.58944184189E+02  0.29073476950E+02 -0.25498707631E+02  0.70621104512E+02  0.41800000000E+01 0. -1.
         -5    1    3    3    0  502  0.44232337713E+02  0.19893998110E+03  0.52341825795E+02  0.21045368827E+03  0.41800000000E+01 0. -1.
        -11    1    4    4    0    0 -0.49281034999E+02 -0.42043399844E+02 -0.44090808299E+02  0.78359857436E+02  0.00000000000E+00 0.  1.
         11    1    4    4    0    0 -0.53895486904E+02 -0.18597005820E+03 -0.50866978079E+02  0.20019249615E+03  0.00000000000E+00 0. -1.
</event>
<event>
 8    1  0.6637272E-009  0.1712272E+03  0.7561462E-02  0.1176574E+00
          2   -1    0    0  501    0  0.00000000000E+00  0.00000000000E+00  0.18488791407E+02  0.18488791407E+02  0.00000000000E+00 0. -1.
         -2   -1    0    0    0  501 -0.00000000000E+00 -0.00000000000E+00 -0.19892708277E+04  0.19892708277E+04  0.00000000000E+00 0.  1.
         25    2    1    2    0    0  0.70472304856E+02 -0.14074993732E+03 -0.10814873793E+04  0.11000177603E+04  0.12508889138E+03 0.  0.
         23    2    1    2    0    0 -0.70472304856E+02  0.14074993732E+03 -0.88929465697E+03  0.90774185880E+03  0.91506309588E+02 0.  0.
          5    1    3    3  502    0  0.51650893720E+02 -0.52132763344E+02 -0.81925691326E+03  0.82254787226E+03  0.41800000000E+01 0.  1.
         -5    1    3    3    0  502  0.18821411136E+02 -0.88617173979E+02 -0.26223046609E+03  0.27746988807E+03  0.41800000000E+01 0.  1.
        -11    1    4    4    0    0  0.11978738543E+02  0.65642999651E+02 -0.24795090554E+03  0.25677255526E+03  0.00000000000E+00 0. -1.
         11    1    4    4    0    0 -0.82451043399E+02  0.75106937673E+02 -0.64134375143E+03  0.65096930353E+03  0.00000000000E+00 0.  1.
</event>
<event>
 8    1  0.6637272E-009  0.9070932E+02  0.7561462E-02  0.1301143E+00
          2   -1    0    0  501    0  0.00000000000E+00  0.00000000000E+00  0.72088340772E+03  0.72088340772E+03  0.00000000000E+00 0. -1.
         -2   -1    0    0    0  501 -0.00000000000E+00 -0.00000000000E+00 -0.23746317106E+02  0.23746317106E+02  0.00000000000E+00 0.  1.
         25    2    1    2    0    0 -0.94696738033E+01 -0.32936624471E+02  0.56916849599E+03  0.58375941575E+03  0.12509109759E+03 0.  0.
         23    2    1    2    0    0  0.94696738033E+01  0.32936624471E+02  0.12796859463E+03  0.16087030908E+03  0.91262254949E+02 0.  0.
          5    1    3    3  502    0 -0.47570885845E+02 -0.53180927076E+02  0.20671443604E+03  0.21872249690E+03  0.41800000000E+01 0. -1.
         -5    1    3    3    0  502  0.38101212042E+02  0.20244302605E+02  0.36245405995E+03  0.36503691885E+03  0.41800000000E+01 0. -1.
        -11    1    4    4    0    0 -0.23990959284E+02  0.97994155360E+01 -0.69922099489E+00  0.25924574870E+02  0.00000000000E+00 0.  1.
         11    1    4    4    0    0  0.33460633087E+02  0.23137208935E+02  0.12866781562E+03  0.13494573421E+03  0.00000000000E+00 0. -1.
</event>
<event>
 8    1  0.6637272E-009  0.1340231E+03  0.7561462E-02  0.1221605E+00
         -3   -1    0    0    0  501 -0.00000000000E+00  0.00000000000E+00  0.27925321933E+03  0.27925321933E+03  0.00000000000E+00 0.  1.
          3   -1    0    0  501    0  0.00000000000E+00 -0.00000000000E+00 -0.12990313032E+03  0.12990313032E+03  0.00000000000E+00 0. -1.
         25    2    1    2    0    0  0.83492971293E+02  0.10779018833E+02  0.21980538708E+03  0.26655010921E+03  0.12508912434E+03 0.  0.
         23    2    1    2    0    0 -0.83492971293E+02 -0.10779018833E+02 -0.70455298066E+02  0.14260624044E+03  0.91023773180E+02 0.  0.
          5    1    3    3  502    0  0.86712167235E+02 -0.42891549946E+02  0.14324951966E+03  0.17290628180E+03  0.41800000000E+01 0. -1.
         -5    1    3    3    0  502 -0.32191959426E+01  0.53670568780E+02  0.76555867420E+02  0.93643827410E+02  0.41800000000E+01 0. -1.
        -11    1    4    4    0    0 -0.69292945781E+02 -0.43362990339E+02 -0.26187863629E+02  0.85835106265E+02  0.00000000000E+00 0.  1.
         11    1    4    4    0    0 -0.14200025512E+02  0.32583971506E+02 -0.44267434438E+02  0.56771134173E+02  0.00000000000E+00 0. -1.
</event>
<event>
 8    1  0.6637272E-009  0.1110023E+03  0.7561462E-02  0.1258725E+00
          2   -1    0    0  501    0  0.00000000000E+00  0.00000000000E+00  0.40201217297E+03  0.40201217297E+03  0.00000000000E+00 0. -1.
         -2   -1    0    0    0  501 -0.00000000000E+00 -0.00000000000E+00 -0.31097864566E+02  0.31097864566E+02  0.00000000000E+00 0.  1.
         25    2    1    2    0    0 -0.26266544471E+02 -0.11169836131E+02  0.21149094471E+03  0.24736777281E+03  0.12509076199E+03 0.  0.
         23    2    1    2    0    0  0.26266544471E+02  0.11169836131E+02  0.15942336369E+03  0.18574226472E+03  0.90937799701E+02 0.  0.
          5    1    3    3  502    0 -0.56160482721E+02 -0.52586907139E+02  0.12588277766E+03  0.14759176377E+03  0.41800000000E+01 0. -1.
         -5    1    3    3    0  502  0.29893938250E+02  0.41417071008E+02  0.85608167051E+02  0.99776009044E+02  0.41800000000E+01 0. -1.
        -11    1    4    4    0    0  0.41885287037E+02 -0.28773257354E+02  0.69303148692E+02  0.85937209796E+02  0.00000000000E+00 0.  1.
         11    1    4    4    0    0 -0.15618742566E+02  0.39943093485E+02  0.90120215002E+02  0.99805054925E+02  0.00000000000E+00 0. -1.
</event>
<event>
 8    1  0.6637272E-009  0.1944687E+03  0.7561462E-02  0.1154491E+00
         -2   -1    0    0    0  501 -0.00000000000E+00  0.00000000000E+00  0.23277022057E+03  0.23277022057E+03  0.00000000000E+00 0.  1.
          2   -1    0    0  501    0  0.00000000000E+00 -0.00000000000E+00 -0.19715842924E+03  0.19715842924E+03  0.00000000000E+00 0. -1.
         25    2    1    2    0    0 -0.16606082269E+03 -0.79340967812E+02  0.96087269365E+01  0.22273707379E+03  0.12509312691E+03 0.  0.
         23    2    1    2    0    0  0.16606082269E+03  0.79340967812E+02  0.26003064399E+02  0.20719157603E+03  0.91547822542E+02 0.  0.
          5    1    3    3  502    0 -0.20587284521E+02 -0.23861239824E+02 -0.47236181412E+02  0.56937898488E+02  0.41800000000E+01 0.  1.
         -5    1    3    3    0  502 -0.14547353817E+03 -0.55479727989E+02  0.56844908348E+02  0.16579917530E+03  0.41800000000E+01 0.  1.
        -11    1    4    4    0    0  0.50815885423E+02 -0.14426773050E+02  0.25410087004E+02  0.58617902671E+02  0.00000000000E+00 0.  1.
         11    1    4    4    0    0  0.11524493727E+03  0.93767740862E+02  0.59297739426E+00  0.14857367336E+03  0.00000000000E+00 0. -1.
</event>
<event>
 8    1  0.6637272E-009  0.8990368E+02  0.7561462E-02  0.1303085E+00
          3   -1    0    0  501    0  0.00000000000E+00  0.00000000000E+00  0.50726595666E+02  0.50726595666E+02  0.00000000000E+00 0. -1.
         -3   -1    0    0    0  501 -0.00000000000E+00 -0.00000000000E+00 -0.37897903651E+03  0.37897903651E+03  0.00000000000E+00 0.  1.
         25    2    1    2    0    0  0.54341990074E+02  0.19876777143E+01 -0.28412760643E+03  0.31516960373E+03  0.12508548929E+03 0.  0.
         23    2    1    2    0    0 -0.54341990074E+02 -0.19876777143E+01 -0.44124834405E+02  0.11453602844E+03  0.90633868123E+02 0.  0.
          5    1    3    3  502    0  0.26377516915E+02  0.53385946873E+02 -0.22131400776E+03  0.22922302492E+03  0.41800000000E+01 0. -1.
         -5    1    3    3    0  502  0.27964473159E+02 -0.51398269159E+02 -0.62813598675E+02  0.85946578816E+02  0.41800000000E+01 0. -1.
        -11    1    4    4    0    0 -0.23304751370E+02 -0.15088406967E+02  0.25177613944E+02  0.37479110250E+02  0.00000000000E+00 0. -1.
         11    1    4    4    0    0 -0.31037238704E+02  0.13100729252E+02 -0.69302448349E+02  0.77056918187E+02  0.00000000000E+00 0.  1.
</event>
<event>
 8    1  0.6637272E-009  0.1988738E+03  0.7561462E-02  0.1150693E+00
          2   -1    0    0  501    0  0.00000000000E+00  0.00000000000E+00  0.28915467312E+03  0.28915467312E+03  0.00000000000E+00 0.  1.
         -2   -1    0    0    0  501 -0.00000000000E+00 -0.00000000000E+00 -0.18583372386E+03  0.18583372386E+03  0.00000000000E+00 0. -1.
         25    2    1    2    0    0 -0.16621346724E+02 -0.18174258021E+03  0.14713820657E+03  0.26571528137E+03  0.12509326238E+03 0.  0.
         23    2    1    2    0    0  0.16621346724E+02  0.18174258021E+03 -0.43817257306E+02  0.20927311562E+03  0.92567004140E+02 0.  0.
          5    1    3    3  502    0  0.76431305461E+01 -0.16131868081E+03  0.16344154988E+03  0.22981024095E+03  0.41800000000E+01 0.  1.
         -5    1    3    3    0  502 -0.24264477270E+02 -0.20423899403E+02 -0.16303343309E+02  0.35905040413E+02  0.41800000000E+01 0.  1.
        -11    1    4    4    0    0 -0.37705335163E+02  0.59620811779E+02 -0.87091419321E+01  0.71078707432E+02  0.00000000000E+00 0. -1.
         11    1    4    4    0    0  0.54326681888E+02  0.12212176843E+03 -0.35108115374E+02  0.13819440819E+03  0.00000000000E+00 0.  1.
</event>
<event>
 8    1  0.6637272E-009  0.1176017E+03  0.7561462E-02  0.1247107E+00
         -1   -1    0    0    0  501 -0.00000000000E+00  0.00000000000E+00  0.32211054124E+03  0.32211054124E+03  0.00000000000E+00 0.  1.
          1   -1    0    0  501    0  0.00000000000E+00 -0.00000000000E+00 -0.52912084705E+02  0.52912084705E+02  0.00000000000E+00 0. -1.
         25    2    1    2    0    0  0.44174876438E+02  0.56958439035E+02  0.16414061925E+03  0.21859727244E+03  0.12508773379E+03 0.  0.
         23    2    1    2    0    0 -0.44174876438E+02 -0.56958439035E+02  0.10505783729E+03  0.15642535350E+03  0.90752733059E+02 0.  0.
          5    1    3    3  502    0  0.79804923710E+02  0.58203745345E+02  0.80197700165E+02  0.12730139564E+03  0.41800000000E+01 0.  1.
         -5    1    3    3    0  502 -0.35630047272E+02 -0.12453063105E+01  0.83942919082E+02  0.91295876799E+02  0.41800000000E+01 0.  1.
        -11    1    4    4    0    0 -0.59685332449E+02 -0.24592279111E+02  0.25982239798E+02  0.69585888558E+02  0.00000000000E+00 0. -1.
         11    1    4    4    0    0  0.15510456011E+02 -0.32366159924E+02  0.79075597489E+02  0.86839464946E+02  0.00000000000E+00 0.  1.
</event>
<event>
 8    1  0.6637272E-009  0.1055174E+03  0.7561462E-02  0.1269103E+00
         -2   -1    0    0    0  501 -0.00000000000E+00  0.00000000000E+00  0.21064819475E+03  0.21064819475E+03  0.00000000000E+00 0.  1.
          2   -1    0    0  501    0  0.00000000000E+00 -0.00000000000E+00 -0.70830264850E+02  0.70830264850E+02  0.00000000000E+00 0. -1.
         25    2    1    2    0    0 -0.32913548231E+02  0.12277499623E+02  0.29388405302E+02  0.13321029852E+03  0.12508903473E+03 0.  0.
         23    2    1    2    0    0  0.32913548231E+02 -0.12277499623E+02  0.11042952459E+03  0.14826816108E+03  0.92491778192E+02 0.  0.
          5    1    3    3  502    0  0.43160153522E+02  0.15243585042E+02  0.33464624593E+02  0.56855248097E+02  0.41800000000E+01 0.  1.
         -5    1    3    3    0  502 -0.76073701753E+02 -0.29660854189E+01 -0.40762192913E+01  0.76355050421E+02  0.41800000000E+01 0.  1.
        -11    1    4    4    0    0  0.19021175135E+02 -0.47389753031E+02  0.94234998552E+02  0.10718128917E+03  0.00000000000E+00 0.  1.
         11    1    4    4    0    0  0.13892373096E+02  0.35112253407E+02  0.16194526043E+02  0.41086871910E+02  0.00000000000E+00 0. -1.
</event>
<event>
 8    1  0.6637272E-009  0.1081689E+03  0.7561462E-02  0.1263999E+00
         -2   -1    0    0    0  501 -0.00000000000E+00  0.00000000000E+00  0.19498131497E+02  0.19498131497E+02  0.00000000000E+00 0.  1.
          2   -1    0    0  501    0  0.00000000000E+00 -0.00000000000E+00 -0.11771353951E+04  0.11771353951E+04  0.00000000000E+00 0. -1.
         25    2    1    2    0    0 -0.51729744752E+02 -0.74901641013E+02 -0.85818979507E+03  0.87202344049E+03  0.12509569967E+03 0.  0.
         23    2    1    2    0    0  0.51729744752E+02  0.74901641013E+02 -0.29944746852E+03  0.32461008610E+03  0.86120260534E+02 0.  0.
          5    1    3    3  502    0 -0.14262232800E+02 -0.76962017812E+02 -0.79162589968E+03  0.79549707788E+03  0.41800000000E+01 0.  1.
         -5    1    3    3    0  502 -0.37467511952E+02  0.20603767994E+01 -0.66563895391E+02  0.76526362609E+02  0.41800000000E+01 0.  1.
        -11    1    4    4    0    0  0.21300698920E+02  0.22356386122E+01 -0.82621958865E+01  0.22956082752E+02  0.00000000000E+00 0.  1.
         11    1    4    4    0    0  0.30429045832E+02  0.72666002401E+02 -0.29118527263E+03  0.30165400335E+03  0.00000000000E+00 0. -1.
</event>
<event>
 8    1  0.6637272E-009  0.1075769E+03  0.7561462E-02  0.1265124E+00
          1   -1    0    0  501    0  0.00000000000E+00  0.00000000000E+00  0.18574836101E+03  0.18574836101E+03  0.00000000000E+00 0. -1.
         -1   -1    0    0    0  501 -0.00000000000E+00 -0.00000000000E+00 -0.68374054152E+02  0.68374054152E+02  0.00000000000E+00 0.  1.
         25    2    1    2    0    0 -0.26831806370E+02 -0.15654049147E+01  0.79835067047E+02  0.15080929085E+03  0.12508959969E+03 0.  0.
         23    2    1    2    0    0  0.26831806370E+02  0.15654049147E+01  0.37539239814E+02  0.10331312431E+03  0.92422999321E+02 0.  0.
          5    1    3    3  502    0 -0.77237537778E+02 -0.65909561218E+00  0.48872211726E+02  0.91498836758E+02  0.41800000000E+01 0.  1.
         -5    1    3    3    0  502  0.50405731408E+02 -0.90630930251E+00  0.30962855321E+02  0.59310454095E+02  0.41800000000E+01 0.  1.
        -11    1    4    4    0    0  0.16563024053E+02 -0.40582685328E+02 -0.30046752457E+01  0.43935363746E+02  0.00000000000E+00 0.  1.
         11    1    4    4    0    0  0.10268782317E+02  0.42148090242E+02  0.40543915059E+02  0.59377760565E+02  0.00000000000E+00 0. -1.
</event>
<event>
 8    1  0.6637272E-009  0.1608001E+03  0.7561462E-02  0.1187796E+00
          2   -1    0    0  501    0  0.00000000000E+00  0.00000000000E+00  0.13377652060E+04  0.13377652060E+04  0.00000000000E+00 0. -1.
         -2   -1    0    0    0  501 -0.00000000000E+00 -0.00000000000E+00 -0.30554236053E+02  0.30554236053E+02  0.00000000000E+00 0.  1.
         25    2    1    2    0    0 -0.13300845640E+02  0.15839664752E+03  0.89160769554E+03  0.91426371613E+03  0.12508976555E+03 0.  0.
         23    2    1    2    0    0  0.13300845640E+02 -0.15839664752E+03  0.41560327445E+03  0.45405572596E+03  0.90410785364E+02 0.  0.
          5    1    3    3  502    0 -0.23537783436E+02  0.80965464774E+02  0.72846038233E+03  0.73333582672E+03  0.41800000000E+01 0. -1.
         -5    1    3    3    0  502  0.10236937795E+02  0.77431182743E+02  0.16314731321E+03  0.18092788941E+03  0.41800000000E+01 0. -1.
        -11    1    4    4    0    0  0.82811404727E+01 -0.10766207287E+03  0.15746896132E+03  0.19093499680E+03  0.00000000000E+00 0.  1.
         11    1    4    4    0    0  0.50197051676E+01 -0.50734574646E+02  0.25813431312E+03  0.26312072917E+03  0.00000000000E+00 0. -1.
</event>
<event>
 7    1  0.6637272E-009  0.1191506E+03  0.7561462E-02  0.1244505E+00
         -2   -1    0    0    0  501 -0.00000000000E+00  0.00000000000E+00  0.75691710583E+02  0.75691710583E+02  0.00000000000E+00 0.  1.
          2   -1    0    0  501    0  0.00000000000E+00 -0.00000000000E+00 -0.53710766326E+03  0.53710766326E+03  0.00000000000E+00 0. -1.
         23    2    1    2    0    0 -0.62982656091E+02 -0.27723799371E+02  0.19941631337E+02  0.11076805663E+03  0.84477628340E+02 0.  0.
          5    1    1    2  502    0 -0.80334916136E+01 -0.35108926798E+02 -0.59905242558E+02  0.70023454745E+02  0.41800000000E+01 0.  1.
         -5    1    1    2    0  502  0.71016147704E+02  0.62832726169E+02 -0.42145234145E+03  0.43200786246E+03  0.41800000000E+01 0.  1.
        -11    1    3    3    0    0  0.70575381320E+01 -0.35923554989E+02  0.16524490224E+02  0.40166770155E+02  0.00000000000E+00 0.  1.
         11    1    3    3    0    0 -0.70040194223E+02  0.81997556180E+01  0.34171411138E+01  0.70601286478E+02  0.00000000000E+00 0. -1.
</event>
<event>
 7    1  0.6637272E-009  0.9091830E+02  0.7561462E-02  0.1300643E+00
         -2   -1    0    0    0  501 -0.00000000000E+00  0.00000000000E+00  0.18218767255E+02  0.18218767255E+02  0.00000000000E+00 0.  1.
          2   -1    0    0  501    0  0.00000000000E+00 -0.00000000000E+00 -0.82150367575E+03  0.82150367575E+03  0.00000000000E+00 0. -1.
         23    2    1    2    0    0 -0.27141066075E+02  0.48197441242E+02 -0.32072838631E+03  0.33817346861E+03  0.91842072471E+02 0.  0.
          5    1    1    2  502    0  0.38031047498E+02  0.77428462588E+01 -0.42144102432E+02  0.57444843213E+02  0.41800000000E+01 0.  1.
         -5    1    1    2    0  502 -0.10889981423E+02 -0.55940287501E+02 -0.44041241975E+03  0.44410413118E+03  0.41800000000E+01 0.  1.
        -11    1    3    3    0    0  0.13261921681E+01  0.56098387378E+02 -0.29063355804E+03  0.29600110289E+03  0.00000000000E+00 0. -1.
         11    1    3    3    0    0 -0.28467258243E+02 -0.79009461354E+01 -0.30094828262E+02  0.42172365713E+02  0.00000000000E+00 0.  1.
</event>
<event>
 8    1  0.6637272E-009  0.7363592E+02  0.7561462E-02  0.1348148E+00
         -2   -1    0    0    0  501 -0.00000000000E+00  0.00000000000E+00  0.19488161370E+03  0.19488161370E+03  0.00000000000E+00 0.  1.
          2   -1    0    0  501    0  0.00000000000E+00 -0.00000000000E+00 -0.89119630227E+02  0.89119630227E+02  0.00000000000E+00 0. -1.
         25    2    1    2    0    0  0.16100515322E+02  0.81519569438E+01 -0.19653223405E+02  0.12790265047E+03  0.12508859984E+03 0.  0.
         23    2    1    2    0    0 -0.16100515322E+02 -0.81519569438E+01  0.12541520687E+03  0.15609859346E+03  0.91170805464E+02 0.  0.
          5    1    3    3  502    0 -0.84195031988E+01 -0.33718713397E+02 -0.56752828983E+02  0.66679799526E+02  0.41800000000E+01 0.  1.
         -5    1    3    3    0  502  0.24520018521E+02  0.41870670341E+02  0.37099605578E+02  0.61222850939E+02  0.41800000000E+01 0.  1.
        -11    1    4    4    0    0 -0.25723210753E+02  0.20784720108E+02  0.12081416011E+03  0.12525873001E+03  0.00000000000E+00 0.  1.
         11    1    4    4    0    0  0.96226954310E+01 -0.28936677052E+02  0.46010467669E+01  0.30839863449E+02  0.00000000000E+00 0. -1.
</event>
<event>
 8    1  0.6637272E-009  0.1192672E+03  0.7561462E-02  0.1244311E+00
         -1   -1    0    0    0  501 -0.00000000000E+00  0.00000000000E+00  0.12206725487E+04  0.12206725487E+04  0.00000000000E+00 0.  1.
          1   -1    0    0  501    0  0.00000000000E+00 -0.00000000000E+00 -0.20021295020E+02  0.20021295020E+02  0.00000000000E+00 0. -1.
         25    2    1    2    0    0  0.81031101414E+02 -0.61066391182E+02  0.83713664030E+03  0.85249436444E+03  0.12511492055E+03 0.  0.
         23    2    1    2    0    0 -0.81031101414E+02  0.61066391182E+02  0.36351461335E+03  0.38819947925E+03  0.90889042469E+02 0.  0.
          5    1    3    3  502    0  0.42453672792E+02 -0.38491629094E+02  0.11116576740E+03  0.12513680548E+03  0.41800000000E+01 0.  1.
         -5    1    3    3    0  502  0.38577428623E+02 -0.22574762088E+02  0.72597087290E+03  0.72735755896E+03  0.41800000000E+01 0.  1.
        -11    1    4    4    0    0 -0.10125925021E+03  0.53995999549E+02  0.30301122917E+03  0.32401359342E+03  0.00000000000E+00 0.  1.
         11    1    4    4    0    0  0.20228148799E+02  0.70703916335E+01  0.60503384185E+02  0.64185885828E+02  0.00000000000E+00 0. -1.
</event>
<event>
 8    1  0.6637272E-009  0.1518705E+03  0.7561462E-02  0.1198193E+00
          2   -1    0    0  501    0  0.00000000000E+00  0.00000000000E+00  0.19534708847E+03  0.19534708847E+03  0.00000000000E+00 0. -1.
         -2   -1    0    0    0  501 -0.00000000000E+00 -0.00000000000E+00 -0.19453818434E+03  0.19453818434E+03  0.00000000000E+00 0.  1.
         25    2    1    2    0    0  0.84870229986E+01 -0.12232290859E+03  0.10612016167E+03  0.20480236247E+03  0.12509034910E+03 0.  0.
         23    2    1    2    0    0 -0.84870229986E+01  0.12232290859E+03 -0.10531125755E+03  0.18508291033E+03  0.90168171805E+02 0.  0.
          5    1    3    3  502    0  0.65593994827E+02 -0.48431351706E+02  0.47286676657E+02  0.94348662814E+02  0.41800000000E+01 0.  1.
         -5    1    3    3    0  502 -0.57106971828E+02 -0.73891556879E+02  0.58833485018E+02  0.11045369966E+03  0.41800000000E+01 0.  1.
        -11    1    4    4    0    0 -0.22773889921E+02  0.50655649697E+02 -0.96680181909E+02  0.11149754474E+03  0.00000000000E+00 0.  1.
         11    1    4    4    0    0  0.14286866922E+02  0.71667258889E+02 -0.86310756368E+01  0.73585365595E+02  0.00000000000E+00 0. -1.
</event>
<event>
 8    1  0.6637272E-009  0.9743799E+02  0.7561462E-02  0.1285778E+00
          2   -1    0    0  501    0  0.00000000000E+00  0.00000000000E+00  0.31379515838E+03  0.31379515838E+03  0.00000000000E+00 0.  1.
         -2   -1    0    0    0  501 -0.00000000000E+00 -0.00000000000E+00 -0.41868207733E+02  0.41868207733E+02  0.00000000000E+00 0. -1.
         25    2    1    2    0    0 -0.69612457588E+01  0.25185072894E+02  0.19584497715E+03  0.23385564988E+03  0.12510181082E+03 0.  0.
         23    2    1    2    0    0  0.69612457588E+01 -0.25185072894E+02  0.76081973499E+02  0.12180771623E+03  0.91465327868E+02 0.  0.
          5    1    3    3  502    0  0.35269479759E+02  0.43047745771E+02  0.33461485790E+02  0.65070638922E+02  0.41800000000E+01 0. -1.
         -5    1    3    3    0  502 -0.42230725518E+02 -0.17862672876E+02  0.16238349136E+03  0.16878501096E+03  0.41800000000E+01 0. -1.
        -11    1    4    4    0    0  0.44592929821E+02 -0.31861010186E+02  0.31997241994E+02  0.63462405054E+02  0.00000000000E+00 0. -1.
         11    1    4    4    0    0 -0.37631684062E+02  0.66759372912E+01  0.44084731506E+02  0.58345311174E+02  0.00000000000E+00 0.  1.
</event>
<event>
 8    1  0.6637272E-009  0.2659223E+03  0.7561462E-02  0.1103636E+00
         -1   -1    0    0    0  501 -0.00000000000E+00  0.00000000000E+00  0.13290294841E+03  0.13290294841E+03  0.00000000000E+00 0.  1.
          1   -1    0    0  501    0  0.00000000000E+00 -0.00000000000E+00 -0.56112253700E+03  0.56112253700E+03  0.00000000000E+00 0. -1.
         25    2    1    2    0    0  0.20833933774E+03 -0.13668336816E+03 -0.19274778436E+03  0.33895282177E+03  0.12509869794E+03 0.  0.
         23    2    1    2    0    0 -0.20833933774E+03  0.13668336816E+03 -0.23547180423E+03  0.35507266364E+03  0.92422957637E+02 0.  0.
          5    1    3    3  502    0  0.17496341533E+02 -0.75978788489E+02 -0.62607827343E+02  0.10008052114E+03  0.41800000000E+01 0. -1.
         -5    1    3    3    0  502  0.19084299621E+03 -0.60704579674E+02 -0.13013995702E+03  0.23887230063E+03  0.41800000000E+01 0. -1.
        -11    1    4    4    0    0 -0.81610601850E+02  0.27315997459E+02 -0.13420730023E+03  0.15943040327E+03  0.00000000000E+00 0. -1.
         11    1    4    4    0    0 -0.12672873589E+03  0.10936737070E+03 -0.10126450400E+03  0.19564226038E+03  0.00000000000E+00 0.  1.
</event>
<event>
 7    1  0.2113187E-008  0.8318568E+02  0.7561462E-02  0.1320247E+00
          2   -1    0    0  501    0  0.00000000000E+00  0.00000000000E+00  0.71919068268E+02  0.71919068268E+02  0.00000000000E+00 0.  1.
         -2   -1    0    0    0  501 -0.00000000000E+00 -0.00000000000E+00 -0.10118263466E+03  0.10118263466E+03  0.00000000000E+00 0. -1.
         25    2    1    2    0    0  0.27049091041E+02 -0.27321235142E+02 -0.18097056521E+02  0.13211348906E+03  0.12509343436E+03 0.  0.
          5    1    3    3  502    0 -0.24470393413E+02 -0.60919128895E+02 -0.24357806044E+02  0.70147812043E+02  0.41800000000E+01 0. -1.
         -5    1    3    3    0  502  0.51519484455E+02  0.33597893753E+02  0.62607495229E+01  0.61965677013E+02  0.41800000000E+01 0. -1.
        -11    1    1    2    0    0 -0.21841798550E+02  0.18173717999E+02 -0.51898886048E+01  0.28883959797E+02  0.00000000000E+00 0.  1.
         11    1    1    2    0    0 -0.52072924917E+01  0.91475171428E+01 -0.59766212686E+01  0.12104254077E+02  0.00000000000E+00 0. -1.
</event>
<event>
 8    1  0.6637272E-009  0.1045667E+03  0.7561462E-02  0.1270976E+00
          2   -1    0    0  501    0  0.00000000000E+00  0.00000000000E+00  0.21852455450E+03  0.21852455450E+03  0.00000000000E+00 0. -1.
         -2   -1    0    0    0  501 -0.00000000000E+00 -0.00000000000E+00 -0.52430950474E+02  0.52430950474E+02  0.00000000000E+00 0.  1.
         25    2    1    2    0    0 -0.84165353452E+00  0.34373361254E+02  0.10708610424E+03  0.16820872793E+03  0.12507800001E+03 0.  0.
         23    2    1    2    0    0  0.84165353452E+00 -0.34373361254E+02  0.59007499785E+02  0.10274677704E+03  0.76764437185E+02 0.  0.
          5    1    3    3  502    0 -0.60966634408E+02  0.46382731166E+01  0.39597138180E+02  0.72964716409E+02  0.41800000000E+01 0.  1.
         -5    1    3    3    0  502  0.60124980874E+02  0.29735088137E+02  0.67488966059E+02  0.95244011525E+02  0.41800000000E+01 0.  1.
        -11    1    4    4    0    0 -0.25359616205E+02 -0.45567912125E+02  0.51475937455E+02  0.73275622730E+02  0.00000000000E+00 0. -1.
         11    1    4    4    0    0  0.26201269740E+02  0.11194550871E+02  0.75315623296E+01  0.29471154309E+02  0.00000000000E+00 0.  1.
</event>
<event>
 8    1  0.6637272E-009  0.1139752E+03  0.7561462E-02  0.1253381E+00
          3   -1    0    0  501    0  0.00000000000E+00  0.00000000000E+00  0.91653105301E+02  0.91653105301E+02  0.00000000000E+00 0.  1.
         -3   -1    0    0    0  501 -0.00000000000E+00 -0.00000000000E+00 -0.19173263353E+03  0.19173263353E+03  0.00000000000E+00 0. -1.
         25    2    1    2    0    0  0.53080474407E+02  0.18067633252E+02  0.30654862327E+01  0.13711635550E+03  0.12509005398E+03 0.  0.
         23    2    1    2    0    0 -0.53080474407E+02 -0.18067633252E+02 -0.10314501446E+03  0.14626938333E+03  0.87245987624E+02 0.  0.
          5    1    3    3  502    0  0.90768581371E+02  0.16105759704E+02  0.21732967526E+02  0.94805723125E+02  0.41800000000E+01 0. -1.
         -5    1    3    3    0  502 -0.37688106964E+02  0.19618735482E+01 -0.18667481293E+02  0.42310632378E+02  0.41800000000E+01 0. -1.
        -11    1    4    4    0    0 -0.20510639427E+02 -0.48790030771E+02 -0.79852279178E+02  0.95799477672E+02  0.00000000000E+00 0. -1.
         11    1    4    4    0    0 -0.32569834980E+02  0.30722397519E+02 -0.23292735282E+02  0.50469905655E+02  0.00000000000E+00 0.  1.
</event>
<event>
 8    1  0.6637272E-009  0.8506515E+02  0.7561462E-02  0.1315262E+00
          1   -1    0    0  501    0  0.00000000000E+00  0.00000000000E+00  0.17393728058E+03  0.17393728058E+03  0.00000000000E+00 0. -1.
         -1   -1    0    0    0  501 -0.00000000000E+00 -0.00000000000E+00 -0.71139064639E+02  0.71139064639E+02  0.00000000000E+00 0.  1.
         25    2    1    2    0    0  0.23718718364E+01  0.24068126303E+02  0.63934532372E+02  0.14254279175E+03  0.12508366228E+03 0.  0.
         23    2    1    2    0    0 -0.23718718364E+01 -0.24068126303E+02  0.38863683567E+02  0.10253355347E+03  0.91748804936E+02 0.  0.
          5    1    3    3  502    0 -0.69320545507E+00  0.52364467484E+02  0.89681517788E+02  0.10393635082E+03  0.41800000000E+01 0. -1.
         -5    1    3    3    0  502  0.30650772915E+01 -0.28296341181E+02 -0.25746985416E+02  0.38606440927E+02  0.41800000000E+01 0. -1.
        -11    1    4    4    0    0 -0.34958363721E+02 -0.39520244676E+02  0.40373285655E+02  0.66437482853E+02  0.00000000000E+00 0. -1.
         11    1    4    4    0    0  0.32586491885E+02  0.15452118373E+02 -0.15096020881E+01  0.36096070618E+02  0.00000000000E+00 0.  1.
</event>
<event>
 8    1  0.6637272E-009  0.7450370E+02  0.7561462E-02  0.1345415E+00
          1   -1    0    0  501    0  0.00000000000E+00  0.00000000000E+00  0.20633053584E+03  0.20633053584E+03  0.00000000000E+00 0. -1.
         -1   -1    0    0    0  501 -0.00000000000E+00 -0.00000000000E+00 -0.61127720418E+02  0.61127720418E+02  0.00000000000E+00 0.  1.
         25    2    1    2    0    0  0.20665575939E+01 -0.20054257107E+02  0.79058364967E+02  0.14934280508E+03  0.12508638803E+03 0.  0.
         23    2    1    2    0    0 -0.20665575939E+01  0.20054257107E+02  0.66144450451E+02  0.11811545117E+03  0.95758694602E+02 0.  0.
          5    1    3    3  502    0  0.44771754445E+02  0.18935814980E+02 -0.29839320354E+01  0.48882014437E+02  0.41800000000E+01 0. -1.
         -5    1    3    3    0  502 -0.42705196851E+02 -0.38990072086E+02  0.82042297003E+02  0.10046079064E+03  0.41800000000E+01 0. -1.
        -11    1    4    4    0    0 -0.19281642842E+02  0.65665397801E+01 -0.20413375643E+02  0.28837598730E+02  0.00000000000E+00 0.  1.
         11    1    4    4    0    0  0.17215085248E+02  0.13487717327E+02  0.86557826094E+02  0.89277852443E+02  0.00000000000E+00 0. -1.
</event>
<event>
 8    1  0.6637272E-009  0.2597396E+03  0.7561462E-02  0.1107300E+00
         -1   -1    0    0    0  501 -0.00000000000E+00  0.00000000000E+00  0.35748157721E+03  0.35748157721E+03  0.00000000000E+00 0.  1.
          1   -1    0    0  501    0  0.00000000000E+00 -0.00000000000E+00 -0.26582710577E+03  0.26582710577E+03  0.00000000000E+00 0. -1.
         25    2    1    2    0    0  0.18260758992E+03  0.18095841295E+03  0.17887650411E+03  0.33724708395E+03  0.12508921935E+03 0.  0.
         23    2    1    2    0    0 -0.18260758992E+03 -0.18095841295E+03 -0.87222032669E+02  0.28606159903E+03  0.90178025854E+02 0.  0.
          5    1    3    3  502    0  0.10126245669E+03  0.10330990203E+03  0.25399296862E+02  0.14693405893E+03  0.41800000000E+01 0. -1.
         -5    1    3    3    0  502  0.81345133224E+02  0.77648510918E+02  0.15347720725E+03  0.19031302502E+03  0.41800000000E+01 0. -1.
        -11    1    4    4    0    0 -0.66936259546E+02 -0.33621849820E+02 -0.61635961328E+02  0.97004553276E+02  0.00000000000E+00 0. -1.
         11    1    4    4    0    0 -0.11567133037E+03 -0.14733656313E+03 -0.25586071341E+02  0.18905704576E+03  0.00000000000E+00 0.  1.
</event>
<event>
 8    1  0.6637272E-009  0.7676578E+02  0.7561462E-02  0.1338489E+00
         -1   -1    0    0    0  501 -0.00000000000E+00  0.00000000000E+00  0.30085407452E+03  0.30085407452E+03  0.00000000000E+00 0.  1.
          1   -1    0    0  501    0  0.00000000000E+00 -0.00000000000E+00 -0.62126866272E+02  0.62126866272E+02  0.00000000000E+00 0. -1.
         25    2    1    2    0    0  0.55745439289E+02 -0.16590628768E+02  0.52062065275E+02  0.14744797875E+03  0.12509054654E+03 0.  0.
         23    2    1    2    0    0 -0.55745439289E+02  0.16590628768E+02  0.18666514297E+03  0.21553296203E+03  0.90707106439E+02 0.  0.
          5    1    3    3  502    0  0.54168001613E+02 -0.76345781101E+01 -0.31517348864E+02  0.63271437956E+02  0.41800000000E+01 0. -1.
         -5    1    3    3    0  502  0.15774376762E+01 -0.89560506578E+01  0.83579414139E+02  0.84176540799E+02  0.41800000000E+01 0. -1.
        -11    1    4    4    0    0  0.61465955381E+01  0.25410047872E+02  0.97587256190E+01  0.27904908086E+02  0.00000000000E+00 0. -1.
         11    1    4    4    0    0 -0.61892034827E+02 -0.88194191039E+01  0.17690641735E+03  0.18762805395E+03  0.00000000000E+00 0.  1.
</event>
<event>
 8    1  0.6637272E-009  0.1216082E+03  0.7561462E-02  0.1240467E+00
          2   -1    0    0  501    0  0.00000000000E+00  0.00000000000E+00  0.10355920058E+04  0.10355920058E+04  0.00000000000E+00 0. -1.
         -2   -1    0    0    0  501 -0.00000000000E+00 -0.00000000000E+00 -0.16569060093E+02  0.16569060093E+02  0.00000000000E+00 0.  1.
         25    2    1    2    0    0 -0.64289942813E+02 -0.33809499265E+02  0.55030024721E+03  0.56899338720E+03  0.12508730396E+03 0.  0.
         23    2    1    2    0    0  0.64289942813E+02  0.33809499265E+02  0.46872269846E+03  0.48316767865E+03  0.92053020900E+02 0.  0.
          5    1    3    3  502    0 -0.95182907658E+02 -0.35895650726E+02  0.49603798265E+03  0.50637874786E+03  0.41800000000E+01 0.  1.
         -5    1    3    3    0  502  0.30892964846E+02  0.20861514611E+01  0.54262264560E+02  0.62614639343E+02  0.41800000000E+01 0.  1.
        -11    1    4    4    0    0  0.62140981714E+01  0.49590273362E+02  0.29767992369E+03  0.30184623104E+03  0.00000000000E+00 0. -1.
         11    1    4    4    0    0  0.58075844641E+02 -0.15780774097E+02  0.17104277477E+03  0.18132144761E+03  0.00000000000E+00 0.  1.
</event>
<event>
 8    1  0.6637272E-009  0.1278679E+03  0.7561462E-02  0.1230654E+00
          1   -1    0    0  501    0  0.00000000000E+00  0.00000000000E+00  0.47962808562E+02  0.47962808562E+02  0.00000000000E+00 0.  1.
         -1   -1    0    0    0  501 -0.00000000000E+00 -0.00000000000E+00 -0.53189864721E+03  0.53189864721E+03  0.00000000000E+00 0. -1.
         25    2    1    2    0    0 -0.31934369454E+02 -0.88312746791E+02 -0.38595015741E+03  0.41644194634E+03  0.12508966973E+03 0.  0.
         23    2    1    2    0    0  0.31934369454E+02  0.88312746791E+02 -0.97985681247E+02  0.16341950943E+03  0.91026354074E+02 0.  0.
          5    1    3    3  502    0  0.12447608511E+02 -0.95128405158E+02 -0.33456655671E+03  0.34807558043E+03  0.41800000000E+01 0.  1.
         -5    1    3    3    0  502 -0.44381977965E+02  0.68156583671E+01 -0.51383600696E+02  0.68366365908E+02  0.41800000000E+01 0.  1.
        -11    1    4    4    0    0  0.52227069963E+02  0.69510268136E+02 -0.33365876134E+02  0.93126934360E+02  0.00000000000E+00 0.  1.
         11    1    4    4    0    0 -0.20292700509E+02  0.18802478656E+02 -0.64619805114E+02  0.70292575074E+02  0.00000000000E+00 0. -1.
</event>
<event>
 8    1  0.6637272E-009  0.1290498E+03  0.7561462E-02  0.1228872E+00
          2   -1    0    0  501    0  0.00000000000E+00  0.00000000000E+00  0.15250222964E+03  0.15250222964E+03  0.00000000000E+00 0. -1.
         -2   -1    0    0    0  501 -0.00000000000E+00 -0.00000000000E+00 -0.15613263998E+03  0.15613263998E+03  0.00000000000E+00 0.  1.
         25    2    1    2    0    0 -0.92112365122E+02 -0.36272895870E+02  0.49142429121E+02  0.16692580076E+03  0.12509529902E+03 0.  0.
         23    2    1    2    0    0  0.92112365122E+02  0.36272895870E+02 -0.52772839458E+02  0.14170906885E+03  0.86579886970E+02 0.  0.
          5    1    3    3  502    0 -0.92441722823E+02 -0.61178625019E+02  0.72502195505E+02  0.13252296794E+03  0.41800000000E+01 0. -1.
         -5    1    3    3    0  502  0.32935770072E+00  0.24905729149E+02 -0.23359766384E+02  0.34402832826E+02  0.41800000000E+01 0. -1.
        -11    1    4    4    0    0  0.28359674341E+02  0.49269121418E+02  0.16689087813E+01  0.56872688617E+02  0.00000000000E+00 0. -1.
         11    1    4    4    0    0  0.63752690781E+02 -0.12996225548E+02 -0.54441748239E+02  0.84836380237E+02  0.00000000000E+00 0.  1.
</event>
<event>
 8    1  0.6637272E-009  0.9213515E+02  0.7561462E-02  0.1297762E+00
         -1   -1    0    0    0  501 -0.00000000000E+00  0.00000000000E+00  0.24886160231E+02  0.24886160231E+02  0.00000000000E+00 0.  1.
          1   -1    0    0  501    0  0.00000000000E+00 -0.00000000000E+00 -0.59257204287E+03  0.59257204287E+03  0.00000000000E+00 0. -1.
         25    2    1    2    0    0  0.16164051528E+02  0.42020418259E+02 -0.24155811940E+03  0.27572640525E+03  0.12509090051E+03 0.  0.
         23    2    1    2    0    0 -0.16164051528E+02 -0.42020418259E+02 -0.32612776323E+03  0.34173179785E+03  0.91620475859E+02 0.  0.
          5    1    3    3  502    0  0.38419821435E+02  0.53043232235E+02 -0.24179167703E+03  0.25054012582E+03  0.41800000000E+01 0.  1.
         -5    1    3    3    0  502 -0.22255769907E+02 -0.11022813975E+02  0.23355763149E+00  0.25186279425E+02  0.41800000000E+01 0.  1.
        -11    1    4    4    0    0  0.33319011620E+02 -0.11158085714E+02 -0.62210605310E+02  0.71448014845E+02  0.00000000000E+00 0.  1.
         11    1    4    4    0    0 -0.49483063149E+02 -0.30862332545E+02 -0.26391715792E+03  0.27028378300E+03  0.00000000000E+00 0. -1.
</event>
<event>
 8    1  0.6637272E-009  0.6210967E+02  0.7561462E-02  0.1389186E+00
         -2   -1    0    0    0  501 -0.00000000000E+00  0.00000000000E+00  0.40921540672E+02  0.40921540672E+02  0.00000000000E+00 0.  1.
          2   -1    0    0  501    0  0.00000000000E+00 -0.00000000000E+00 -0.48262285900E+03  0.48262285900E+03  0.00000000000E+00 0. -1.
         25    2    1    2    0    0  0.33039180049E+02 -0.23454704789E+02 -0.38507079108E+03  0.40690403527E+03  0.12509863782E+03 0.  0.
         23    2    1    2    0    0 -0.33039180049E+02  0.23454704789E+02 -0.56630527248E+02  0.11664036440E+03  0.93574822443E+02 0.  0.
          5    1    3    3  502    0  0.23918878039E+02 -0.60264069468E+01 -0.40390403612E+01  0.25341991918E+02  0.41800000000E+01 0. -1.
         -5    1    3    3    0  502  0.91203020097E+01 -0.17428297842E+02 -0.38103175072E+03  0.38156204336E+03  0.41800000000E+01 0. -1.
        -11    1    4    4    0    0 -0.77094960390E+01  0.45111689973E+02 -0.67530317107E+02  0.81577231076E+02  0.00000000000E+00 0.  1.
         11    1    4    4    0    0 -0.25329684010E+02 -0.21656985184E+02  0.10899789860E+02  0.35063133321E+02  0.00000000000E+00 0. -1.
</event>
<event>
 8    1  0.6637272E-009  0.7763468E+02  0.7561462E-02  0.1335901E+00
          2   -1    0    0  501    0  0.00000000000E+00  0.00000000000E+00  0.32418924166E+02  0.32418924166E+02  0.00000000000E+00 0. -1.
         -2   -1    0    0    0  501 -0.00000000000E+00 -0.00000000000E+00 -0.44524282086E+03  0.44524282086E+03  0.00000000000E+00 0.  1.
         25    2    1    2    0    0  0.42596291639E+01 -0.12044983675E+00 -0.33570624054E+03  0.35828150563E+03  0.12509515733E+03 0.  0.
         23    2    1    2    0    0 -0.42596291639E+01  0.12044983675E+00 -0.77117656156E+02  0.11938023940E+03  0.91029389322E+02 0.  0.
          5    1    3    3  502    0  0.17766286068E+02  0.40271881945E+02 -0.40406121665E+02  0.59896514623E+02  0.41800000000E+01 0. -1.
         -5    1    3    3    0  502 -0.13506656904E+02 -0.40392331781E+02 -0.29530011888E+03  0.29838499100E+03  0.41800000000E+01 0. -1.
        -11    1    4    4    0    0 -0.26231109270E+02  0.24181043363E+02 -0.15767830988E-01  0.35676241398E+02  0.00000000000E+00 0. -1.
         11    1    4    4    0    0  0.21971480106E+02 -0.24060593526E+02 -0.77101888325E+02  0.83703998006E+02  0.00000000000E+00 0.  1.
</event>
<event>
 8    1  0.6637272E-009  0.1335883E+03  0.7561462E-02  0.1222226E+00
         -4   -1    0    0    0  501 -0.00000000000E+00  0.00000000000E+00  0.35159273446E+03  0.35159273446E+03  0.00000000000E+00 0.  1.
          4   -1    0    0  501    0  0.00000000000E+00 -0.00000000000E+00 -0.54450462919E+02  0.54450462919E+02  0.00000000000E+00 0. -1.
         25    2    1    2    0    0  0.38686390363E+02 -0.76212312063E+02  0.13284283585E+03  0.20149255327E+03  0.12508827555E+03 0.  0.
         23    2    1    2    0    0 -0.38686390363E+02  0.76212312063E+02  0.16429943569E+03  0.20455064410E+03  0.86843008500E+02 0.  0.
          5    1    3    3  502    0  0.59741712544E+02  0.85799931351E+01  0.33589638036E+02  0.69198444225E+02  0.41800000000E+01 0.  1.
         -5    1    3    3    0  502 -0.21055322180E+02 -0.84792305198E+02  0.99253197813E+02  0.13229410905E+03  0.41800000000E+01 0.  1.
        -11    1    4    4    0    0 -0.64184718536E+02  0.42660666572E+02  0.84914519449E+02  0.11467382517E+03  0.00000000000E+00 0. -1.
         11    1    4    4    0    0  0.25498328173E+02  0.33551645491E+02  0.79384916241E+02  0.89876818932E+02  0.00000000000E+00 0.  1.
</event>
<event>
 8    1  0.6637272E-009  0.1312660E+03  0.7561462E-02  0.1225589E+00
          4   -1    0    0  501    0  0.00000000000E+00  0.00000000000E+00  0.54594528070E+02  0.54594528070E+02  0.00000000000E+00 0. -1.
         -4   -1    0    0    0  501 -0.00000000000E+00 -0.00000000000E+00 -0.40565449741E+03  0.40565449741E+03  0.00000000000E+00 0.  1.
         25    2    1    2    0    0  0.10789904563E+02  0.82871272740E+02 -0.28418622463E+03  0.32155381453E+03  0.12510385879E+03 0.  0.
         23    2    1    2    0    0 -0.10789904563E+02 -0.82871272740E+02 -0.66873744714E+02  0.13869521095E+03  0.88205407560E+02 0.  0.
          5    1    3    3  502    0  0.63440423085E+02  0.32982879971E+02 -0.95582377508E+02  0.11944044936E+03  0.41800000000E+01 0.  1.
         -5    1    3    3    0  502 -0.52650518522E+02  0.49888392770E+02 -0.18860384712E+03  0.20211336518E+03  0.41800000000E+01 0.  1.
        -11    1    4    4    0    0 -0.42997347719E+02 -0.72729435683E+02 -0.32537058450E+02  0.90537301143E+02  0.00000000000E+00 0. -1.
         11    1    4    4    0    0  0.32207443156E+02 -0.10141837057E+02 -0.34336686264E+02  0.48157909809E+02  0.00000000000E+00 0.  1.
</event>
<event>
 8    1  0.6637272E-009  0.1440708E+03  0.7561462E-02  0.1207954E+00
          1   -1    0    0  501    0  0.00000000000E+00  0.00000000000E+00  0.10893114692E+04  0.10893114692E+04  0.00000000000E+00 0. -1.
         -1   -1    0    0    0  501 -0.00000000000E+00 -0.00000000000E+00 -0.21484602996E+02  0.21484602996E+02  0.00000000000E+00 0.  1.
         25    2    1    2    0    0  0.93851663426E+02  0.38341986954E+02  0.67160855670E+03  0.69065098476E+03  0.12514985672E+03 0.  0.
         23    2    1    2    0    0 -0.93851663426E+02 -0.38341986954E+02  0.39621830952E+03  0.42014508745E+03  0.96201367002E+02 0.  0.
          5    1    3    3  502    0  0.91388624075E+02 -0.17141360736E+02  0.53648723481E+03  0.54450136122E+03  0.41800000000E+01 0.  1.
         -5    1    3    3    0  502  0.24630393511E+01  0.55483347689E+02  0.13512132189E+03  0.14614962355E+03  0.41800000000E+01 0.  1.
        -11    1    4    4    0    0 -0.96548962143E+02  0.42984955957E+01  0.25985677186E+03  0.27724667904E+03  0.00000000000E+00 0.  1.
         11    1    4    4    0    0  0.26972987170E+01 -0.42640482549E+02  0.13636153766E+03  0.14289840841E+03  0.00000000000E+00 0. -1.
</event>
<event>
 8    1  0.6637272E-009  0.1303746E+03  0.7561462E-02  0.1226901E+00
          2   -1    0    0  501    0  0.00000000000E+00  0.00000000000E+00  0.89073889544E+03  0.89073889544E+03  0.00000000000E+00 0. -1.
         -2   -1    0    0    0  501 -0.00000000000E+00 -0.00000000000E+00 -0.31084831386E+02  0.31084831386E+02  0.00000000000E+00 0.  1.
         25    2    1    2    0    0 -0.12251703882E+03  0.11956745036E+02  0.54128946916E+03  0.56902959194E+03  0.12508796318E+03 0.  0.
         23    2    1    2    0    0  0.12251703882E+03 -0.11956745036E+02  0.31836459490E+03  0.35279413488E+03  0.89186869944E+02 0.  0.
          5    1    3    3  502    0 -0.32488810971E+02 -0.14867085397E+02  0.23955155894E+02  0.43218919010E+02  0.41800000000E+01 0. -1.
         -5    1    3    3    0  502 -0.90028227852E+02  0.26823830433E+02  0.51733431326E+03  0.52581067293E+03  0.41800000000E+01 0. -1.
        -11    1    4    4    0    0  0.74274621071E+02 -0.28775843403E+02  0.96524272457E+02  0.12514672857E+03  0.00000000000E+00 0.  1.
         11    1    4    4    0    0  0.48242417752E+02  0.16819098367E+02  0.22184032244E+03  0.22764740631E+03  0.00000000000E+00 0. -1.
</event>
<event>
 8    1  0.6637272E-009  0.9360338E+02  0.7561462E-02  0.1294353E+00
          2   -1    0    0  501    0  0.00000000000E+00  0.00000000000E+00  0.52036951714E+03  0.52036951714E+03  0.00000000000E+00 0. -1.
         -2   -1    0    0    0  501 -0.00000000000E+00 -0.00000000000E+00 -0.23581729122E+02  0.23581729122E+02  0.00000000000E+00 0.  1.
         25    2    1    2    0    0  0.19545484461E+01 -0.17899403609E+02  0.31833597843E+03  0.34249789757E+03  0.12507120279E+03 0.  0.
         23    2    1    2    0    0 -0.19545484461E+01  0.17899403609E+02  0.17845180959E+03  0.20145334870E+03  0.91728918260E+02 0.  0.
          5    1    3    3  502    0 -0.53936273806E+01  0.39099252235E+02  0.33638161192E+02  0.52027310425E+02  0.41800000000E+01 0. -1.
         -5    1    3    3    0  502  0.73481758267E+01 -0.56998655845E+02  0.28469781724E+03  0.29047058714E+03  0.41800000000E+01 0. -1.
        -11    1    4    4    0    0  0.70136922683E+01 -0.35276758487E+02  0.45627555735E+02  0.58099185975E+02  0.00000000000E+00 0.  1.
         11    1    4    4    0    0 -0.89682407144E+01  0.53176162097E+02  0.13282425386E+03  0.14335416272E+03  0.00000000000E+00 0. -1.
</event>
<event>
 8    1  0.6637272E-009  0.2265227E+03  0.7561462E-02  0.1129111E+00
         -2   -1    0    0    0  501 -0.00000000000E+00  0.00000000000E+00  0.65290944640E+02  0.65290944640E+02  0.00000000000E+00 0.  1.
          2   -1    0    0  501    0  0.00000000000E+00 -0.00000000000E+00 -0.86240918573E+03  0.86240918573E+03  0.00000000000E+00 0. -1.
         25    2    1    2    0    0 -0.12662604653E+03 -0.16805420583E+03 -0.39653795088E+03  0.46601146007E+03  0.12509181696E+03 0.  0.
         23    2    1    2    0    0  0.12662604653E+03  0.16805420583E+03 -0.40058029021E+03  0.46168867030E+03  0.91735966898E+02 0.  0.
          5    1    3    3  502    0 -0.84022671714E+01  0.13462493343E+02 -0.28701765828E+01  0.16659745924E+02  0.41800000000E+01 0.  1.
         -5    1    3    3    0  502 -0.11822377936E+03 -0.18151669917E+03 -0.39366777430E+03  0.44935171414E+03  0.41800000000E+01 0.  1.
        -11    1    4    4    0    0  0.67143547384E+02  0.13768814170E+03 -0.33365894447E+03  0.36714380227E+03  0.00000000000E+00 0.  1.
         11    1    4    4    0    0  0.59482499148E+02  0.30366064132E+02 -0.66921345741E+02  0.94544868034E+02  0.00000000000E+00 0. -1.
</event>
<event>
 8    1  0.6637272E-009  0.1103080E+03  0.7561462E-02  0.1260001E+00
         -1   -1    0    0    0  501 -0.00000000000E+00  0.00000000000E+00  0.87272593725E+02  0.87272593725E+02  0.00000000000E+00 0.  1.
          1   -1    0    0  501    0  0.00000000000E+00 -0.00000000000E+00 -0.22693909658E+03  0.22693909658E+03  0.00000000000E+00 0. -1.
         25    2    1    2    0    0  0.35538807001E+02  0.66536618880E+02 -0.13048806563E+03  0.19586714163E+03  0.12508666373E+03 0.  0.
         23    2    1    2    0    0 -0.35538807001E+02 -0.66536618880E+02 -0.91784372310E+01  0.11834454868E+03  0.90725189654E+02 0.  0.
          5    1    3    3  502    0  0.74360322848E+02  0.17808513099E+02 -0.10117335707E+03  0.12688625352E+03  0.41800000000E+01 0. -1.
         -5    1    3    3    0  502 -0.38821515847E+02  0.48728105781E+02 -0.29314708561E+02  0.68980888104E+02  0.41800000000E+01 0. -1.
        -11    1    4    4    0    0 -0.26025320264E+02 -0.16841594442E+02  0.38085037507E+02  0.49106279437E+02  0.00000000000E+00 0.  1.
         11    1    4    4    0    0 -0.95134867372E+01 -0.49695024438E+02 -0.47263474738E+02  0.69238269246E+02  0.00000000000E+00 0. -1.
</event>
<event>
 8    1  0.6637272E-009  0.1404156E+03  0.7561462E-02  0.1212771E+00
          1   -1    0    0  501    0  0.00000000000E+00  0.00000000000E+00  0.89456310079E+03  0.89456310079E+03  0.00000000000E+00 0. -1.
         -1   -1    0    0    0  501 -0.00000000000E+00 -0.00000000000E+00 -0.28757396315E+02  0.28757396315E+02  0.00000000000E+00 0.  1.
         25    2    1    2    0    0 -0.99219532123E+02  0.43156823166E+02  0.34049390588E+03  0.37853786240E+03  0.12509111235E+03 0.  0.
         23    2    1    2    0    0  0.99219532123E+02 -0.43156823166E+02  0.52531179860E+03  0.54478263470E+03  0.95543740712E+02 0.  0.
          5    1    3    3  502    0 -0.10973778593E+03  0.52733009317E+02  0.17993118620E+03  0.21729209856E+03  0.41800000000E+01 0. -1.
         -5    1    3    3    0  502  0.10518253802E+02 -0.95761861507E+01  0.16056271968E+03  0.16124576383E+03  0.41800000000E+01 0. -1.
        -11    1    4    4    0    0 -0.13655738222E+02 -0.26867262147E+02  0.12066068780E+03  0.12436772307E+03  0.00000000000E+00 0.  1.
         11    1    4    4    0    0  0.11287527034E+03 -0.16289561020E+02  0.40465111080E+03  0.42041491164E+03  0.00000000000E+00 0. -1.
</event>
<event>
 8    1  0.6637272E-009  0.8059669E+02  0.7561462E-02  0.1327367E+00
         -3   -1    0    0    0  501 -0.00000000000E+00  0.00000000000E+00  0.62495954417E+02  0.62495954417E+02  0.00000000000E+00 0.  1.
          3   -1    0    0  501    0  0.00000000000E+00 -0.00000000000E+00 -0.23358178644E+03  0.23358178644E+03  0.00000000000E+00 0. -1.
         25    2    1    2    0    0 -0.14011710983E+02 -0.80616948900E+01 -0.34316900009E+02  0.13074792895E+03  0.12512414766E+03 0.  0.
         23    2    1    2    0    0  0.14011710983E+02  0.80616948900E+01 -0.13676893202E+03  0.16532981191E+03  0.91470689145E+02 0.  0.
          5    1    3    3  502    0  0.23878882465E+02 -0.25201049165E+02  0.35210888019E+02  0.49624318050E+02  0.41800000000E+01 0.  1.
         -5    1    3    3    0  502 -0.37890593448E+02  0.17139354275E+02 -0.69527788028E+02  0.81123610897E+02  0.41800000000E+01 0.  1.
        -11    1    4    4    0    0 -0.25818901583E+02  0.29493947664E+02 -0.29954030929E+02  0.49333078119E+02  0.00000000000E+00 0.  1.
         11    1    4    4    0    0  0.39830612566E+02 -0.21432252774E+02 -0.10681490109E+03  0.11599673379E+03  0.00000000000E+00 0. -1.
</event>
<event>
 8    1  0.6637272E-009  0.8907849E+02  0.7561462E-02  0.1305099E+00
         -3   -1    0    0    0  501 -0.00000000000E+00  0.00000000000E+00  0.97833457709E+03  0.97833457709E+03  0.00000000000E+00 0.  1.
          3   -1    0    0  501    0  0.00000000000E+00 -0.00000000000E+00 -0.12568527812E+02  0.12568527812E+02  0.00000000000E+00 0. -1.
         25    2    1    2    0    0  0.85679266664E+01  0.93274542763E+01  0.67204774726E+03  0.68370782310E+03  0.12509117472E+03 0.  0.
         23    2    1    2    0    0 -0.85679266664E+01 -0.93274542763E+01  0.29371830201E+03  0.30719528180E+03  0.89095956439E+02 0.  0.
          5    1    3    3  502    0 -0.42800019625E+02  0.76217068715E+01  0.54278472165E+03  0.54453894126E+03  0.41800000000E+01 0.  1.
         -5    1    3    3    0  502  0.51367946291E+02  0.17057474049E+01  0.12926302561E+03  0.13916888183E+03  0.41800000000E+01 0.  1.
        -11    1    4    4    0    0  0.73048062929E+01 -0.44095937379E+02  0.97057314489E+02  0.10685473403E+03  0.00000000000E+00 0. -1.
         11    1    4    4    0    0 -0.15872732959E+02  0.34768483103E+02  0.19666098752E+03  0.20034054778E+03  0.00000000000E+00 0.  1.
</event>
<event>
 8    1  0.6637272E-009  0.9359610E+02  0.7561462E-02  0.1294370E+00
          2   -1    0    0  501    0  0.00000000000E+00  0.00000000000E+00  0.20014217695E+03  0.20014217695E+03  0.00000000000E+00 0. -1.
         -2   -1    0    0    0  501 -0.00000000000E+00 -0.00000000000E+00 -0.10444781840E+03  0.10444781840E+03  0.00000000000E+00 0.  1.
         25    2    1    2    0    0 -0.88560447767E+01 -0.91764317988E+02  0.78229429129E+02  0.17397293478E+03  0.12509044276E+03 0.  0.
         23    2    1    2    0    0  0.88560447767E+01  0.91764317988E+02  0.17464929427E+02  0.13061706057E+03  0.90866237770E+02 0.  0.
          5    1    3    3  502    0 -0.12697667484E+02 -0.34021629812E+02 -0.32532699946E+02  0.48934149838E+02  0.41800000000E+01 0. -1.
         -5    1    3    3    0  502  0.38416227069E+01 -0.57742688177E+02  0.11076212908E+03  0.12503878494E+03  0.41800000000E+01 0. -1.
        -11    1    4    4    0    0 -0.18288375974E+01  0.15733921994E+02 -0.34462275239E+02  0.37928213284E+02  0.00000000000E+00 0.  1.
         11    1    4    4    0    0  0.10684882374E+02  0.76030395994E+02  0.51927204666E+02  0.92688847284E+02  0.00000000000E+00 0. -1.
</event>
<event>
 8    1  0.6637272E-009  0.1125163E+03  0.7561462E-02  0.1255980E+00
          4   -1    0    0  501    0  0.00000000000E+00  0.00000000000E+00  0.11870437386E+03  0.11870437386E+03  0.00000000000E+00 0.  1.
         -4   -1    0    0    0  501 -0.00000000000E+00 -0.00000000000E+00 -0.12139259930E+03  0.12139259930E+03  0.00000000000E+00 0. -1.
         25    2    1    2    0    0  0.34303755039E+02  0.88608018745E+01 -0.39198067960E+02  0.13579053189E+03  0.12508924254E+03 0.  0.
         23    2    1    2    0    0 -0.34303755039E+02 -0.88608018745E+01  0.36509842522E+02  0.10430644128E+03  0.91058243291E+02 0.  0.
          5    1    3    3  502    0  0.54016990497E+02 -0.45918148868E+02 -0.28101099663E+02  0.76377063704E+02  0.41800000000E+01 0.  1.
         -5    1    3    3    0  502 -0.19713235458E+02  0.54778950742E+02 -0.11096968297E+02  0.59413468187E+02  0.41800000000E+01 0.  1.
        -11    1    4    4    0    0 -0.38280251325E+02 -0.45118670505E+02  0.12036720942E+02  0.60381741616E+02  0.00000000000E+00 0.  1.
         11    1    4    4    0    0  0.39764962861E+01  0.36257868630E+02  0.24473121581E+02  0.43924699660E+02  0.00000000000E+00 0. -1.
</event>
<event>
 8    1  0.6637272E-009  0.9847965E+02  0.7561462E-02  0.1283526E+00
         -1   -1    0    0    0  501 -0.00000000000E+00  0.00000000000E+00  0.14363741417E+03  0.14363741417E+03  0.00000000000E+00 0.  1.
          1   -1    0    0  501    0  0.00000000000E+00 -0.00000000000E+00 -0.11109071214E+03  0.11109071214E+03  0.00000000000E+00 0. -1.
         25    2    1    2    0    0 -0.49219106267E+01 -0.46600022561E+02 -0.26164932305E+02  0.13611532332E+03  0.12508793009E+03 0.  0.
         23    2    1    2    0    0  0.49219106267E+01  0.46600022561E+02  0.58711634336E+02  0.11861280298E+03  0.91794083241E+02 0.  0.
          5    1    3    3  502    0  0.42317458184E+02  0.32472221940E+00  0.27374103664E+02  0.50573576728E+02  0.41800000000E+01 0.  1.
         -5    1    3    3    0  502 -0.47239368810E+02 -0.46924744780E+02 -0.53539035969E+02  0.85541746596E+02  0.41800000000E+01 0.  1.
        -11    1    4    4    0    0 -0.32902822493E+02  0.35268722828E+02  0.45510163330E+00  0.48235730070E+02  0.00000000000E+00 0. -1.
         11    1    4    4    0    0  0.37824733120E+02  0.11331299733E+02  0.58256532703E+02  0.70377072913E+02  0.00000000000E+00 0.  1.
</event>
<event>
 8    1  0.6637272E-009  0.1217961E+03  0.7561462E-02  0.1240163E+00
         -1   -1    0    0    0  501 -0.00000000000E+00  0.00000000000E+00  0.76273914967E+02  0.76273914967E+02  0.00000000000E+00 0.  1.
          1   -1    0    0  501    0  0.00000000000E+00 -0.00000000000E+00 -0.25558032189E+03  0.25558032189E+03  0.00000000000E+00 0. -1.
         25    2    1    2    0    0  0.67052042935E+02  0.10702057720E+02 -0.16305593348E+03  0.21644291894E+03  0.12509911757E+03 0.  0.
         23    2    1    2    0    0 -0.67052042935E+02 -0.10702057720E+02 -0.16250473447E+02  0.11541131791E+03  0.91897681768E+02 0.  0.
          5    1    3    3  502    0 -0.21940541372E+02  0.34526771032E+02 -0.89448461857E+02  0.98447879623E+02  0.41800000000E+01 0.  1.
         -5    1    3    3    0  502  0.88992584307E+02 -0.23824713313E+02 -0.73607471619E+02  0.11799503932E+03  0.41800000000E+01 0.  1.
        -11    1    4    4    0    0  0.31707758968E+01  0.29274088581E+02  0.89382415474E+01  0.30772036722E+02  0.00000000000E+00 0.  1.
         11    1    4    4    0    0 -0.70222818832E+02 -0.39976146301E+02 -0.25188714995E+02  0.84639281193E+02  0.00000000000E+00 0. -1.
</event>
<event>
 8    1  0.6637272E-009  0.2036173E+03  0.7561462E-02  0.1146723E+00
         -3   -1    0    0    0  501 -0.00000000000E+00  0.00000000000E+00  0.13686171305E+03  0.13686171305E+03  0.00000000000E+00 0.  1.
          3   -1    0    0  501    0  0.00000000000E+00 -0.00000000000E+00 -0.36500543848E+03  0.36500543848E+03  0.00000000000E+00 0. -1.
         25    2    1    2    0    0 -0.15681896226E+03 -0.11168705648E+03 -0.16391376556E+03  0.28210144798E+03  0.12508924374E+03 0.  0.
         23    2    1    2    0    0  0.15681896226E+03  0.11168705648E+03 -0.64229959868E+02  0.21976570356E+03  0.84292889400E+02 0.  0.
          5    1    3    3  502    0 -0.11245036451E+03 -0.10138032571E+03 -0.17849134421E+03  0.23409333027E+03  0.41800000000E+01 0. -1.
         -5    1    3    3    0  502 -0.44368597753E+02 -0.10306730772E+02  0.14577578658E+02  0.48008117702E+02  0.41800000000E+01 0. -1.
        -11    1    4    4    0    0  0.19323061799E+02  0.60178256753E+02 -0.23001712659E+02  0.67259810351E+02  0.00000000000E+00 0.  1.
         11    1    4    4    0    0  0.13749590047E+03  0.51508799728E+02 -0.41228247209E+02  0.15250589321E+03  0.00000000000E+00 0. -1.
</event>
<event>
 8    1  0.6637272E-009  0.1337504E+03  0.7561462E-02  0.1221995E+00
          1   -1    0    0  501    0  0.00000000000E+00  0.00000000000E+00  0.74583829002E+02  0.74583829002E+02  0.00000000000E+00 0. -1.
         -1   -1    0    0    0  501 -0.00000000000E+00 -0.00000000000E+00 -0.29881507386E+03  0.29881507386E+03  0.00000000000E+00 0.  1.
         25    2    1    2    0    0  0.82356548903E+02 -0.59454040763E+02 -0.13203798932E+03  0.20832359098E+03  0.12508918349E+03 0.  0.
         23    2    1    2    0    0 -0.82356548903E+02  0.59454040763E+02 -0.92193255536E+02  0.16507531188E+03  0.91830703549E+02 0.  0.
          5    1    3    3  502    0  0.11493141798E+03 -0.41855416341E+02 -0.11256800229E+03  0.16628329517E+03  0.41800000000E+01 0.  1.
         -5    1    3    3    0  502 -0.32574869073E+02 -0.17598624421E+02 -0.19469987033E+02  0.42040295809E+02  0.41800000000E+01 0.  1.
        -11    1    4    4    0    0 -0.66022569469E+02  0.26631070699E+02 -0.60417302321E+01  0.71447156067E+02  0.00000000000E+00 0. -1.
         11    1    4    4    0    0 -0.16333979434E+02  0.32822970064E+02 -0.86151525304E+02  0.93628155809E+02  0.00000000000E+00 0.  1.
</event>
<event>
 8    1  0.6637272E-009  0.1409372E+03  0.7561462E-02  0.1212073E+00
         -1   -1    0    0    0  501 -0.00000000000E+00  0.00000000000E+00  0.26697206638E+03  0.26697206638E+03  0.00000000000E+00 0.  1.
          1   -1    0    0  501    0  0.00000000000E+00 -0.00000000000E+00 -0.95270347037E+02  0.95270347037E+02  0.00000000000E+00 0. -1.
         25    2    1    2    0    0 -0.25420283071E+02 -0.96393690254E+02  0.16194501418E+03  0.22762260703E+03  0.12509168358E+03 0.  0.
         23    2    1    2    0    0  0.25420283071E+02  0.96393690254E+02  0.97567051652E+01  0.13461980639E+03  0.89940895396E+02 0.  0.
          5    1    3    3  502    0 -0.34760741491E+02  0.13370644231E+02  0.80751857324E+01  0.38337505145E+02  0.41800000000E+01 0.  1.
         -5    1    3    3    0  502  0.93404584197E+01 -0.10976433448E+03  0.15386982844E+03  0.18928510188E+03  0.41800000000E+01 0.  1.
        -11    1    4    4    0    0  0.27132676081E+02  0.11363565506E+03  0.66700315879E+01  0.11702022702E+03  0.00000000000E+00 0.  1.
         11    1    4    4    0    0 -0.17123930104E+01 -0.17241964803E+02  0.30866735773E+01  0.17599579366E+02  0.00000000000E+00 0. -1.
</event>
<event>
 8    1  0.6637272E-009  0.1641075E+03  0.7561462E-02  0.1184136E+00
         -2   -1    0    0    0  501 -0.00000000000E+00  0.00000000000E+00  0.56002237149E+02  0.56002237149E+02  0.00000000000E+00 0.  1.
          2   -1    0    0  501    0  0.00000000000E+00 -0.00000000000E+00 -0.50820411247E+03  0.50820411247E+03  0.00000000000E+00 0. -1.
         25    2    1    2    0    0  0.10525043840E+01 -0.12336831790E+03 -0.30170724350E+03  0.34913510121E+03  0.12508880240E+03 0.  0.
         23    2    1    2    0    0 -0.10525043840E+01  0.12336831790E+03 -0.15049463182E+03  0.21507124841E+03  0.91575968797E+02 0.  0.
          5    1    3    3  502    0  0.41354636110E+02 -0.12727750726E+03 -0.24685599978E+03  0.28082935532E+03  0.41800000000E+01 0.  1.
         -5    1    3    3    0  502 -0.40302131726E+02  0.39091893646E+01 -0.54851243726E+02  0.68305745889E+02  0.41800000000E+01 0.  1.
        -11    1    4    4    0    0 -0.13486333277E+02 -0.11773974448E+02 -0.16199292744E+02  0.24143834513E+02  0.00000000000E+00 0.  1.
         11    1    4    4    0    0  0.12433828893E+02  0.13514229235E+03 -0.13429533907E+03  0.19092741390E+03  0.00000000000E+00 0. -1.
</event>
<event>
 8    1  0.6637272E-009  0.1218749E+03  0.7561462E-02  0.1240036E+00
         -1   -1    0    0    0  501 -0.00000000000E+00  0.00000000000E+00  0.84695864865E+02  0.84695864865E+02  0.00000000000E+00 0.  1.
          1   -1    0    0  501    0  0.00000000000E+00 -0.00000000000E+00 -0.31594913276E+03  0.31594913276E+03  0.00000000000E+00 0. -1.
         25    2    1    2    0    0  0.26936553643E+02 -0.75230709086E+02 -0.93520754649E+01  0.14872309322E+03  0.12508341069E+03 0.  0.
         23    2    1    2    0    0 -0.26936553643E+02  0.75230709086E+02 -0.22190119243E+03  0.25192190441E+03  0.88539647653E+02 0.  0.
          5    1    3    3  502    0 -0.21843088169E+02 -0.81719135190E+02 -0.36664855962E+02  0.92287169313E+02  0.41800000000E+01 0.  1.
         -5    1    3    3    0  502  0.48779641812E+02  0.64884261042E+01  0.27312780498E+02  0.56435923906E+02  0.41800000000E+01 0.  1.
        -11    1    4    4    0    0  0.26305487242E+02  0.20842442646E+02 -0.12079358377E+03  0.12536935811E+03  0.00000000000E+00 0. -1.
         11    1    4    4    0    0 -0.53242040885E+02  0.54388266440E+02 -0.10110760867E+03  0.12655254630E+03  0.00000000000E+00 0.  1.
</event>
<event>
 8    1  0.6637272E-009  0.7905815E+02  0.7561462E-02  0.1331746E+00
          2   -1    0    0  501    0  0.00000000000E+00  0.00000000000E+00  0.57884906913E+03  0.57884906913E+03  0.00000000000E+00 0. -1.
         -2   -1    0    0    0  501 -0.00000000000E+00 -0.00000000000E+00 -0.21940393626E+02  0.21940393626E+02  0.00000000000E+00 0.  1.
         25    2    1    2    0    0  0.26628270765E+02 -0.97341587236E+01  0.35032154194E+03  0.37306322010E+03  0.12508862778E+03 0.  0.
         23    2    1    2    0    0 -0.26628270765E+02  0.97341587236E+01  0.20658713357E+03  0.22772624265E+03  0.91526931480E+02 0.  0.
          5    1    3    3  502    0  0.37396260418E+02  0.10761435112E+02  0.24033009777E+02  0.45927624997E+02  0.41800000000E+01 0.  1.
         -5    1    3    3    0  502 -0.10767989653E+02 -0.20495593836E+02  0.32628853216E+03  0.32713559511E+03  0.41800000000E+01 0.  1.
        -11    1    4    4    0    0 -0.13216818017E+02 -0.40946657431E+02  0.10308619131E+03  0.11170530817E+03  0.00000000000E+00 0.  1.
         11    1    4    4    0    0 -0.13411452748E+02  0.50680816155E+02  0.10350094226E+03  0.11602093449E+03  0.00000000000E+00 0. -1.
</event>
<event>
 8    1  0.6637272E-009  0.9811452E+02  0.7561462E-02  0.1284312E+00
         -1   -1    0    0    0  501 -0.00000000000E+00  0.00000000000E+00  0.93912604228E+02  0.93912604228E+02  0.00000000000E+00 0.  1.
          1   -1    0    0  501    0  0.00000000000E+00 -0.00000000000E+00 -0.26706045962E+03  0.26706045962E+03  0.00000000000E+00 0. -1.
         25    2    1    2    0    0  0.28639798622E+02 -0.28427471914E+02 -0.21543175996E+03  0.25236398089E+03  0.12509347077E+03 0.  0.
         23    2    1    2    0    0 -0.28639798622E+02  0.28427471914E+02  0.42283904567E+02  0.10860908295E+03  0.91540401407E+02 0.  0.
          5    1    3    3  502    0  0.23586576745E+02 -0.75470044862E+02 -0.16540737952E+03  0.18338246338E+03  0.41800000000E+01 0. -1.
         -5    1    3    3    0  502  0.50532218769E+01  0.47042572948E+02 -0.50024380436E+02  0.68981517517E+02  0.41800000000E+01 0. -1.
        -11    1    4    4    0    0 -0.43815810801E+02  0.87157750753E+01 -0.14210550532E+02  0.46879950488E+02  0.00000000000E+00 0. -1.
         11    1    4    4    0    0  0.15176012179E+02  0.19711696839E+02  0.56494455099E+02  0.61729132465E+02  0.00000000000E+00 0.  1.
</event>
<event>
 8    1  0.6637272E-009  0.8715755E+02  0.7561462E-02  0.1309885E+00
          2   -1    0    0  501    0  0.00000000000E+00  0.00000000000E+00  0.18219417698E+03  0.18219417698E+03  0.00000000000E+00 0.  1.
         -2   -1    0    0    0  501 -0.00000000000E+00 -0.00000000000E+00 -0.78820938087E+02  0.78820938087E+02  0.00000000000E+00 0. -1.
         25    2    1    2    0    0 -0.37415853042E+01  0.41738534215E+02  0.26038010891E+02  0.13446693438E+03  0.12508906319E+03 0.  0.
         23    2    1    2    0    0  0.37415853042E+01 -0.41738534215E+02  0.77335228006E+02  0.12654818069E+03  0.90981315924E+02 0.  0.
          5    1    3    3  502    0 -0.27866121438E+02  0.61953373137E+02  0.57995198910E+02  0.89418435816E+02  0.41800000000E+01 0. -1.
         -5    1    3    3    0  502  0.24124536134E+02 -0.20214838922E+02 -0.31957188020E+02  0.45048498559E+02  0.41800000000E+01 0. -1.
        -11    1    4    4    0    0 -0.28457720359E+02 -0.26481389169E+02 -0.26728096627E+01  0.38964724199E+02  0.00000000000E+00 0. -1.
         11    1    4    4    0    0  0.32199305664E+02 -0.15257145046E+02  0.80008037668E+02  0.87583456496E+02  0.00000000000E+00 0.  1.
</event>
<event>
 8    1  0.6637272E-009  0.6694211E+02  0.7561462E-02  0.1370811E+00
         -2   -1    0    0    0  501 -0.00000000000E+00  0.00000000000E+00  0.60223061080E+02  0.60223061080E+02  0.00000000000E+00 0.  1.
          2   -1    0    0  501    0  0.00000000000E+00 -0.00000000000E+00 -0.21972395948E+03  0.21972395948E+03  0.00000000000E+00 0. -1.
         25    2    1    2    0    0  0.34545748607E+02 -0.34748397394E+00 -0.11392811028E+03  0.17268634540E+03  0.12508968815E+03 0.  0.
         23    2    1    2    0    0 -0.34545748607E+02  0.34748397394E+00 -0.45572788115E+02  0.10726067516E+03  0.90743836856E+02 0.  0.
          5    1    3    3  502    0 -0.28696865404E+02 -0.13277219732E+02  0.95475253121E+01  0.33292976548E+02  0.41800000000E+01 0.  1.
         -5    1    3    3    0  502  0.63242614011E+02  0.12929735758E+02 -0.12347563560E+03  0.13939336885E+03  0.41800000000E+01 0.  1.
        -11    1    4    4    0    0 -0.26359272156E+02  0.63970629865E+01 -0.73068827393E+02  0.77940921088E+02  0.00000000000E+00 0. -1.
         11    1    4    4    0    0 -0.81864764515E+01 -0.60495790126E+01  0.27496039278E+02  0.29319754073E+02  0.00000000000E+00 0.  1.
</event>
<event>
 8    1  0.6637272E-009  0.7663592E+02  0.7561462E-02  0.1338879E+00
          2   -1    0    0  501    0  0.00000000000E+00  0.00000000000E+00  0.42284313793E+03  0.42284313793E+03  0.00000000000E+00 0. -1.
         -2   -1    0    0    0  501 -0.00000000000E+00 -0.00000000000E+00 -0.29564243217E+02  0.29564243217E+02  0.00000000000E+00 0.  1.
         25    2    1    2    0    0 -0.90497403716E+01  0.15226631476E+02  0.27735186882E+03  0.30477203335E+03  0.12509270588E+03 0.  0.
         23    2    1    2    0    0  0.90497403716E+01 -0.15226631476E+02  0.11592702590E+03  0.14763534780E+03  0.89684850900E+02 0.  0.
          5    1    3    3  502    0  0.47139568270E+02  0.30438491338E+02  0.72527291464E+02  0.91794994736E+02  0.41800000000E+01 0. -1.
         -5    1    3    3    0  502 -0.56189308641E+02 -0.15211859863E+02  0.20482457735E+03  0.21297703861E+03  0.41800000000E+01 0. -1.
        -11    1    4    4    0    0 -0.13094460158E+02 -0.80155351524E+01 -0.10809689657E+02  0.18776663204E+02  0.00000000000E+00 0.  1.
         11    1    4    4    0    0  0.22144200530E+02 -0.72110963233E+01  0.12673671555E+03  0.12885868460E+03  0.00000000000E+00 0. -1.
</event>
<event>
 8    1  0.6637272E-009  0.8718769E+02  0.7561462E-02  0.1309809E+00
         -1   -1    0    0    0  501 -0.00000000000E+00  0.00000000000E+00  0.60803063990E+02  0.60803063990E+02  0.00000000000E+00 0.  1.
          1   -1    0    0  501    0  0.00000000000E+00 -0.00000000000E+00 -0.28994736030E+03  0.28994736030E+03  0.00000000000E+00 0. -1.
         25    2    1    2    0    0 -0.14294805536E+01  0.78037289994E+02 -0.13188152846E+03  0.19781862568E+03  0.12509040359E+03 0.  0.
         23    2    1    2    0    0  0.14294805536E+01 -0.78037289994E+02 -0.97262767846E+02  0.15293179861E+03  0.88522465925E+02 0.  0.
          5    1    3    3  502    0  0.20727823587E+02  0.60284778433E+02 -0.15057649430E+03  0.16356848785E+03  0.41800000000E+01 0.  1.
         -5    1    3    3    0  502 -0.22157304140E+02  0.17752511560E+02  0.18694965839E+02  0.34250137827E+02  0.41800000000E+01 0.  1.
        -11    1    4    4    0    0  0.12659206250E+02 -0.50277080179E+02 -0.10905193986E+03  0.12074918584E+03  0.00000000000E+00 0. -1.
         11    1    4    4    0    0 -0.11229725696E+02 -0.27760209814E+02  0.11789172012E+02  0.32182612773E+02  0.00000000000E+00 0.  1.
</event>
<event>
 8    1  0.6637272E-009  0.2183920E+03  0.7561462E-02  0.1135088E+00
         -1   -1    0    0    0  501 -0.00000000000E+00  0.00000000000E+00  0.37127095726E+03  0.37127095726E+03  0.00000000000E+00 0.  1.
          1   -1    0    0  501    0  0.00000000000E+00 -0.00000000000E+00 -0.17423241589E+03  0.17423241589E+03  0.00000000000E+00 0. -1.
         25    2    1    2    0    0  0.13645916993E+03 -0.15530678779E+03 -0.64618325883E+01  0.24172697395E+03  0.12509544862E+03 0.  0.
         23    2    1    2    0    0 -0.13645916993E+03  0.15530678779E+03  0.20350037396E+03  0.30377639919E+03  0.90146520258E+02 0.  0.
          5    1    3    3  502    0  0.17753908255E+02  0.12268793725E+02  0.25704173960E+02  0.33821613160E+02  0.41800000000E+01 0.  1.
         -5    1    3    3    0  502  0.11870526167E+03 -0.16757558151E+03 -0.32166006548E+02  0.20790536079E+03  0.41800000000E+01 0.  1.
        -11    1    4    4    0    0 -0.84253310012E+02  0.70717922699E+02  0.16254829905E+03  0.19626918852E+03  0.00000000000E+00 0.  1.
         11    1    4    4    0    0 -0.52205859914E+02  0.84588865091E+02  0.40952074908E+02  0.10750721067E+03  0.00000000000E+00 0. -1.
</event>
<event>
 8    1  0.6637272E-009  0.2212219E+03  0.7561462E-02  0.1132975E+00
         -2   -1    0    0    0  501 -0.00000000000E+00  0.00000000000E+00  0.31794541889E+02  0.31794541889E+02  0.00000000000E+00 0.  1.
          2   -1    0    0  501    0  0.00000000000E+00 -0.00000000000E+00 -0.18785167496E+04  0.18785167496E+04  0.00000000000E+00 0. -1.
         25    2    1    2    0    0  0.21481985944E+03 -0.41990249137E+02 -0.96832243403E+03  0.10006028495E+04  0.12508786182E+03 0.  0.
         23    2    1    2    0    0 -0.21481985944E+03  0.41990249137E+02 -0.87839977368E+03  0.90970844197E+03  0.89847281366E+02 0.  0.
          5    1    3    3  502    0  0.34075726416E+02 -0.18607473824E+02 -0.43968735318E+03  0.44141798124E+03  0.41800000000E+01 0.  1.
         -5    1    3    3    0  502  0.18074413302E+03 -0.23382775313E+02 -0.52863508085E+03  0.55918486828E+03  0.41800000000E+01 0.  1.
        -11    1    4    4    0    0 -0.79446210951E+02  0.30988833889E+02 -0.19328623636E+03  0.21126186932E+03  0.00000000000E+00 0.  1.
         11    1    4    4    0    0 -0.13537364849E+03  0.11001415247E+02 -0.68511353731E+03  0.69844657266E+03  0.00000000000E+00 0. -1.
</event>
<event>
 8    1  0.6637272E-009  0.8831764E+02  0.7561462E-02  0.1306978E+00
          2   -1    0    0  501    0  0.00000000000E+00  0.00000000000E+00  0.17562565248E+03  0.17562565248E+03  0.00000000000E+00 0. -1.
         -2   -1    0    0    0  501 -0.00000000000E+00 -0.00000000000E+00 -0.75917303059E+02  0.75917303059E+02  0.00000000000E+00 0.  1.
         25    2    1    2    0    0  0.14636910184E+02 -0.21185554035E+02  0.33576516513E+02  0.13205102028E+03  0.12508805961E+03 0.  0.
         23    2    1    2    0    0 -0.14636910184E+02  0.21185554035E+02  0.66131832904E+02  0.11949193526E+03  0.96134470552E+02 0.  0.
          5    1    3    3  502    0  0.16887623156E+02  0.25758552466E+02 -0.36266203773E+02  0.47764053190E+02  0.41800000000E+01 0. -1.
         -5    1    3    3    0  502 -0.22507129718E+01 -0.46944106501E+02  0.69842720286E+02  0.84286967089E+02  0.41800000000E+01 0. -1.
        -11    1    4    4    0    0 -0.49252811525E+02 -0.11698561178E+02  0.24939294315E+02  0.56432828900E+02  0.00000000000E+00 0.  1.
         11    1    4    4    0    0  0.34615901340E+02  0.32884115213E+02  0.41192538590E+02  0.63059106356E+02  0.00000000000E+00 0. -1.
</event>
<event>
 8    1  0.6637272E-009  0.1073097E+03  0.7561462E-02  0.1265635E+00
          2   -1    0    0  501    0  0.00000000000E+00  0.00000000000E+00  0.18120512412E+03  0.18120512412E+03  0.00000000000E+00 0. -1.
         -2   -1    0    0    0  501 -0.00000000000E+00 -0.00000000000E+00 -0.98314858221E+02  0.98314858221E+02  0.00000000000E+00 0.  1.
         25    2    1    2    0    0 -0.86335252857E+01 -0.50992665489E+02 -0.15471552646E+02  0.13624410339E+03  0.12509315359E+03 0.  0.
         23    2    1    2    0    0  0.86335252857E+01  0.50992665489E+02  0.98361818544E+02  0.14327587895E+03  0.90433071659E+02 0.  0.
          5    1    3    3  502    0  0.18830778130E+02 -0.73877753011E+02  0.26620184369E+02  0.80861778429E+02  0.41800000000E+01 0.  1.
         -5    1    3    3    0  502 -0.27464303416E+02  0.22885087522E+02 -0.42091737015E+02  0.55382324960E+02  0.41800000000E+01 0.  1.
        -11    1    4    4    0    0 -0.19974701463E+02  0.66706121334E+02  0.53576282832E+02  0.87858485100E+02  0.00000000000E+00 0.  1.
         11    1    4    4    0    0  0.28608226749E+02 -0.15713455846E+02  0.44785535712E+02  0.55417393852E+02  0.00000000000E+00 0. -1.
</event>
<event>
 8    1  0.6637272E-009  0.1168505E+03  0.7561462E-02  0.1248385E+00
         -4   -1    0    0    0  501 -0.00000000000E+00  0.00000000000E+00  0.61083078710E+03  0.61083078710E+03  0.00000000000E+00 0.  1.
          4   -1    0    0  501    0  0.00000000000E+00 -0.00000000000E+00 -0.32427910184E+02  0.32427910184E+02  0.00000000000E+00 0. -1.
         25    2    1    2    0    0 -0.71888337198E+02 -0.43995102461E+02  0.39066059290E+03  0.41876825175E+03  0.12509055825E+03 0.  0.
         23    2    1    2    0    0  0.71888337198E+02  0.43995102461E+02  0.18774228402E+03  0.22449044553E+03  0.89695556538E+02 0.  0.
          5    1    3    3  502    0  0.25238661362E+02  0.16164799014E+02  0.14049408667E+03  0.14371621879E+03  0.41800000000E+01 0.  1.
         -5    1    3    3    0  502 -0.97126998560E+02 -0.60159901475E+02  0.25016650623E+03  0.27505203295E+03  0.41800000000E+01 0.  1.
        -11    1    4    4    0    0  0.36509024483E+02  0.56551282472E+01  0.86351608176E+01  0.37940154804E+02  0.00000000000E+00 0. -1.
         11    1    4    4    0    0  0.35379312715E+02  0.38339974214E+02  0.17910712320E+03  0.18655029073E+03  0.00000000000E+00 0.  1.
</event>
<event>
 8    1  0.6637272E-009  0.8401722E+02  0.7561462E-02  0.1318023E+00
         -1   -1    0    0    0  501 -0.00000000000E+00  0.00000000000E+00  0.33933842288E+02  0.33933842288E+02  0.00000000000E+00 0.  1.
          1   -1    0    0  501    0  0.00000000000E+00 -0.00000000000E+00 -0.42363158238E+03  0.42363158238E+03  0.00000000000E+00 0. -1.
         25    2    1    2    0    0  0.43251056126E+01  0.15435399344E+01 -0.31751415808E+03  0.34129636248E+03  0.12508747901E+03 0.  0.
         23    2    1    2    0    0 -0.43251056126E+01 -0.15435399344E+01 -0.72183582013E+02  0.11626906219E+03  0.91032610951E+02 0.  0.
          5    1    3    3  502    0  0.44389515459E+02 -0.66023317665E+01 -0.28594017882E+03  0.28947068613E+03  0.41800000000E+01 0.  1.
         -5    1    3    3    0  502 -0.40064409846E+02  0.81458717009E+01 -0.31573979259E+02  0.51825676343E+02  0.41800000000E+01 0.  1.
        -11    1    4    4    0    0  0.35735311023E+02 -0.16162821996E+02 -0.60416889746E+02  0.72030895006E+02  0.00000000000E+00 0.  1.
         11    1    4    4    0    0 -0.40060416636E+02  0.14619282061E+02 -0.11766692268E+02  0.44238167186E+02  0.00000000000E+00 0. -1.
</event>
<event>
 8    1  0.6637272E-009  0.1083999E+03  0.7561462E-02  0.1263562E+00
         -4   -1    0    0    0  501 -0.00000000000E+00  0.00000000000E+00  0.17544968656E+02  0.17544968656E+02  0.00000000000E+00 0.  1.
          4   -1    0    0  501    0  0.00000000000E+00 -0.00000000000E+00 -0.68529927742E+03  0.68529927742E+03  0.00000000000E+00 0. -1.
         25    2    1    2    0    0 -0.11250530470E+02 -0.39867264450E+01 -0.43709052335E+03  0.45479505130E+03  0.12509174497E+03 0.  0.
         23    2    1    2    0    0  0.11250530470E+02  0.39867264450E+01 -0.23066378541E+03  0.24804919477E+03  0.90444196631E+02 0.  0.
          5    1    3    3  502    0  0.53945364378E+02 -0.21055861431E+02 -0.19413872472E+03  0.20263456880E+03  0.41800000000E+01 0. -1.
         -5    1    3    3    0  502 -0.65195894848E+02  0.17069134986E+02 -0.24295179863E+03  0.25216048249E+03  0.41800000000E+01 0. -1.
        -11    1    4    4    0    0 -0.30828117554E+02  0.28950535592E+02 -0.10501046706E+03  0.11320646861E+03  0.00000000000E+00 0.  1.
         11    1    4    4    0    0  0.42078648024E+02 -0.24963809147E+02 -0.12565331835E+03  0.13484272616E+03  0.00000000000E+00 0. -1.
</event>
<event>
 8    1  0.6637272E-009  0.6772705E+02  0.7561462E-02  0.1367997E+00
         -1   -1    0    0    0  501 -0.00000000000E+00  0.00000000000E+00  0.84092836648E+03  0.84092836648E+03  0.00000000000E+00 0.  1.
          1   -1    0    0  501    0  0.00000000000E+00 -0.00000000000E+00 -0.18352400300E+02  0.18352400300E+02  0.00000000000E+00 0. -1.
         25    2    1    2    0    0 -0.45018990365E+02 -0.12829148138E+02  0.58826706519E+03  0.60323763562E+03  0.12508480527E+03 0.  0.
         23    2    1    2    0    0  0.45018990365E+02  0.12829148138E+02  0.23430890099E+03  0.25604313116E+03  0.92011561197E+02 0.  0.
          5    1    3    3  502    0 -0.14396860728E+02 -0.10201733168E+02  0.56283431847E+03  0.56312635120E+03  0.41800000000E+01 0.  1.
         -5    1    3    3    0  502 -0.30622129637E+02 -0.26274149695E+01  0.25432746714E+02  0.40111284426E+02  0.41800000000E+01 0.  1.
        -11    1    4    4    0    0 -0.15363128087E+02  0.20302767771E+02  0.17590464995E+02  0.30945961651E+02  0.00000000000E+00 0. -1.
         11    1    4    4    0    0  0.60382118452E+02 -0.74736196327E+01  0.21671843600E+03  0.22509716951E+03  0.00000000000E+00 0.  1.
</event>
<event>
 8    1  0.6637272E-009  0.1176512E+03  0.7561462E-02  0.1247023E+00
         -1   -1    0    0    0  501 -0.00000000000E+00  0.00000000000E+00  0.56145898856E+02  0.56145898856E+02  0.00000000000E+00 0.  1.
          1   -1    0    0  501    0  0.00000000000E+00 -0.00000000000E+00 -0.31764725815E+03  0.31764725815E+03  0.00000000000E+00 0. -1.
         25    2    1    2    0    0  0.67723182881E+02  0.44784735119E+02 -0.16819365597E+03  0.22479665618E+03  0.12510926713E+03 0.  0.
         23    2    1    2    0    0 -0.67723182881E+02 -0.44784735119E+02 -0.93307703322E+02  0.14899650083E+03  0.83075434154E+02 0.  0.
          5    1    3    3  502    0  0.76778264569E+02  0.37069154853E+01 -0.16539547794E+03  0.18243294564E+03  0.41800000000E+01 0.  1.
         -5    1    3    3    0  502 -0.90550816878E+01  0.41077819633E+02 -0.27981780310E+01  0.42363710537E+02  0.41800000000E+01 0.  1.
        -11    1    4    4    0    0 -0.52249891733E+02  0.14947681353E+02 -0.40435851407E+02  0.67738780938E+02  0.00000000000E+00 0.  1.
         11    1    4    4    0    0 -0.15473291148E+02 -0.59732416471E+02 -0.52871851915E+02  0.81257719888E+02  0.00000000000E+00 0. -1.
</event>
<event>
 8    1  0.6637272E-009  0.8166647E+02  0.7561462E-02  0.1324388E+00
         -3   -1    0    0    0  501 -0.00000000000E+00  0.00000000000E+00  0.25721996651E+02  0.25721996651E+02  0.00000000000E+00 0.  1.
          3   -1    0    0  501    0  0.00000000000E+00 -0.00000000000E+00 -0.55580543597E+03  0.55580543597E+03  0.00000000000E+00 0. -1.
         25    2    1    2    0    0  0.15831606590E+02  0.39727893708E+02 -0.24405092535E+03  0.27755319837E+03  0.12508388567E+03 0.  0.
         23    2    1    2    0    0 -0.15831606590E+02 -0.39727893708E+02 -0.28603251397E+03  0.30397423425E+03  0.93577725646E+02 0.  0.
          5    1    3    3  502    0  0.25212229808E+02  0.62570965236E+02 -0.24328161583E+03  0.25249593902E+03  0.41800000000E+01 0. -1.
         -5    1    3    3    0  502 -0.93806232180E+01 -0.22843071528E+02 -0.76930952227E+00  0.25057259346E+02  0.41800000000E+01 0. -1.
        -11    1    4    4    0    0 -0.20160011496E+02  0.87864817883E+01 -0.10864851941E+02  0.24529030422E+02  0.00000000000E+00 0.  1.
         11    1    4    4    0    0  0.43284049060E+01 -0.48514375496E+02 -0.27516766203E+03  0.27944520383E+03  0.00000000000E+00 0. -1.
</event>
<event>
 8    1  0.6637272E-009  0.2136058E+03  0.7561462E-02  0.1138742E+00
          2   -1    0    0  501    0  0.00000000000E+00  0.00000000000E+00  0.14549831386E+04  0.14549831386E+04  0.00000000000E+00 0. -1.
         -2   -1    0    0    0  501 -0.00000000000E+00 -0.00000000000E+00 -0.34045299919E+02  0.34045299919E+02  0.00000000000E+00 0.  1.
         25    2    1    2    0    0  0.14415721000E+03 -0.12119127439E+03  0.92875694936E+03  0.95587963120E+03  0.12509105552E+03 0.  0.
         23    2    1    2    0    0 -0.14415721000E+03  0.12119127439E+03  0.49218088936E+03  0.53314880736E+03  0.80851696053E+02 0.  0.
          5    1    3    3  502    0  0.61104943279E+02 -0.12785324419E+03  0.54259741147E+03  0.56081163458E+03  0.41800000000E+01 0. -1.
         -5    1    3    3    0  502  0.83052266725E+02  0.66619698079E+01  0.38615953789E+03  0.39506799662E+03  0.41800000000E+01 0. -1.
        -11    1    4    4    0    0 -0.33986794992E+02  0.75414347286E+02  0.15858882740E+03  0.17886543038E+03  0.00000000000E+00 0. -1.
         11    1    4    4    0    0 -0.11017041501E+03  0.45776927101E+02  0.33359206196E+03  0.35428337698E+03  0.00000000000E+00 0.  1.
</event>
<event>
 8    1  0.6637272E-009  0.1623888E+03  0.7561462E-02  0.1186026E+00
         -1   -1    0    0    0  501 -0.00000000000E+00  0.00000000000E+00  0.13429538955E+04  0.13429538955E+04  0.00000000000E+00 0.  1.
          1   -1    0    0  501    0  0.00000000000E+00 -0.00000000000E+00 -0.26642347100E+02  0.26642347100E+02  0.00000000000E+00 0. -1.
         25    2    1    2    0    0 -0.15368019710E+03  0.54679758871E+01  0.65262641569E+03  0.68206736524E+03  0.12508857072E+03 0.  0.
         23    2    1    2    0    0  0.15368019710E+03 -0.54679758871E+01  0.66368513269E+03  0.68752887734E+03  0.92576995431E+02 0.  0.
          5    1    3    3  502    0 -0.12862338621E+03  0.24962294201E+02  0.62836455383E+03  0.64189296345E+03  0.41800000000E+01 0.  1.
         -5    1    3    3    0  502 -0.25056810886E+02 -0.19494318314E+02  0.24261861859E+02  0.40174401790E+02  0.41800000000E+01 0.  1.
        -11    1    4    4    0    0  0.29697530679E+02  0.19050895125E+02  0.51454194607E+02  0.62389214422E+02  0.00000000000E+00 0. -1.
         11    1    4    4    0    0  0.12398266642E+03 -0.24518871013E+02  0.61223093809E+03  0.62513966292E+03  0.00000000000E+00 0.  1.
</event>
<event>
 7    1  0.6637272E-009  0.1301749E+03  0.7561462E-02  0.1227196E+00
         -1   -1    0    0    0  501 -0.00000000000E+00  0.00000000000E+00  0.36165259675E+02  0.36165259675E+02  0.00000000000E+00 0.  1.
          1   -1    0    0  501    0  0.00000000000E+00 -0.00000000000E+00 -0.53396469641E+03  0.53396469641E+03  0.00000000000E+00 0. -1.
         23    2    1    2    0    0  0.64335723287E+02  0.43211752212E+02 -0.30237359090E+03  0.32556645172E+03  0.92506135968E+02 0.  0.
          5    1    1    2  502    0  0.36267331755E+02 -0.49196950386E+01 -0.31824348681E+02  0.48680430574E+02  0.41800000000E+01 0. -1.
         -5    1    1    2    0  502 -0.10060305504E+03 -0.38292057174E+02 -0.16360149715E+03  0.19588307379E+03  0.41800000000E+01 0. -1.
        -11    1    3    3    0    0  0.49550958374E+02  0.69660699216E+02 -0.25832428365E+03  0.27210171998E+03  0.00000000000E+00 0. -1.
         11    1    3    3    0    0  0.14784764913E+02 -0.26448947004E+02 -0.44049307250E+02  0.53464731743E+02  0.00000000000E+00 0.  1.
</event>
<event>
 8    1  0.6637272E-009  0.8924078E+02  0.7561462E-02  0.1304701E+00
         -1   -1    0    0    0  501 -0.00000000000E+00  0.00000000000E+00  0.29742864048E+02  0.29742864048E+02  0.00000000000E+00 0.  1.
          1   -1    0    0  501    0  0.00000000000E+00 -0.00000000000E+00 -0.10827195899E+04  0.10827195899E+04  0.00000000000E+00 0. -1.
         25    2    1    2    0    0  0.41800516023E+02  0.45900325049E+02 -0.95512292050E+03  0.96527766307E+03  0.12508817126E+03 0.  0.
         23    2    1    2    0    0 -0.41800516023E+02 -0.45900325049E+02 -0.97853805367E+02  0.14718479089E+03  0.90740688032E+02 0.  0.
          5    1    3    3  502    0  0.33324661948E+02  0.53293537879E+02 -0.95023614405E+03  0.95232186583E+03  0.41800000000E+01 0. -1.
         -5    1    3    3    0  502  0.84758540750E+01 -0.73932128302E+01 -0.48867764489E+01  0.12955797247E+02  0.41800000000E+01 0. -1.
        -11    1    4    4    0    0 -0.49758762462E+02 -0.65545531195E+02 -0.95176904125E+02  0.12582048394E+03  0.00000000000E+00 0.  1.
         11    1    4    4    0    0  0.79582464390E+01  0.19645206146E+02 -0.26769012418E+01  0.21364306943E+02  0.00000000000E+00 0. -1.
</event>
<event>
 8    1  0.6637272E-009  0.1418409E+03  0.7561462E-02  0.1210873E+00
          1   -1    0    0  501    0  0.00000000000E+00  0.00000000000E+00  0.96227128439E+03  0.96227128439E+03  0.00000000000E+00 0.  1.
         -1   -1    0    0    0  501 -0.00000000000E+00 -0.00000000000E+00 -0.34489450970E+02  0.34489450970E+02  0.00000000000E+00 0. -1.
         25    2    1    2    0    0 -0.19148540905E+02  0.98815660921E+02  0.77502628151E+03  0.79148377083E+03  0.12509844518E+03 0.  0.
         23    2    1    2    0    0  0.19148540905E+02 -0.98815660921E+02  0.15275555191E+03  0.20527696454E+03  0.93129866678E+02 0.  0.
          5    1    3    3  502    0 -0.55143074756E+02  0.10599328262E+03  0.50590782464E+03  0.51984183564E+03  0.41800000000E+01 0.  1.
         -5    1    3    3    0  502  0.35994533851E+02 -0.71776216994E+01  0.26911845688E+03  0.27164193519E+03  0.41800000000E+01 0.  1.
        -11    1    4    4    0    0  0.49041053256E+02 -0.71455466539E+02  0.13634332850E+03  0.16155621879E+03  0.00000000000E+00 0.  1.
         11    1    4    4    0    0 -0.29892512351E+02 -0.27360194382E+02  0.16412223407E+02  0.43720745744E+02  0.00000000000E+00 0. -1.
</event>
<event>
 8    1  0.6637272E-009  0.1463611E+03  0.7561462E-02  0.1205017E+00
         -2   -1    0    0    0  501 -0.00000000000E+00  0.00000000000E+00  0.59460215274E+02  0.59460215274E+02  0.00000000000E+00 0. -1.
          2   -1    0    0  501    0  0.00000000000E+00 -0.00000000000E+00 -0.47585955208E+03  0.47585955208E+03  0.00000000000E+00 0.  1.
         25    2    1    2    0    0  0.11350712956E+03 -0.51565462773E+02 -0.17480216206E+03  0.24848825574E+03  0.12509097477E+03 0.  0.
         23    2    1    2    0    0 -0.11350712956E+03  0.51565462773E+02 -0.24159717474E+03  0.28683151161E+03  0.91434434418E+02 0.  0.
          5    1    3    3  502    0  0.61525788305E+02  0.28783614746E+02 -0.28865398209E+02  0.73922951228E+02  0.41800000000E+01 0.  1.
         -5    1    3    3    0  502  0.51981341255E+02 -0.80349077519E+02 -0.14593676385E+03  0.17456530452E+03  0.41800000000E+01 0.  1.
        -11    1    4    4    0    0 -0.66282542235E+02  0.12193423417E+02 -0.20380968775E+03  0.21466355955E+03  0.00000000000E+00 0. -1.
         11    1    4    4    0    0 -0.47224587324E+02  0.39372039356E+02 -0.37787486997E+02  0.72167952060E+02  0.00000000000E+00 0.  1.
</event>
<event>
 8    1  0.6637272E-009  0.7813148E+02  0.7561462E-02  0.1334439E+00
         -2   -1    0    0    0  501 -0.00000000000E+00  0.00000000000E+00  0.55557112987E+02  0.55557112987E+02  0.00000000000E+00 0.  1.
          2   -1    0    0  501    0  0.00000000000E+00 -0.00000000000E+00 -0.26967883811E+03  0.26967883811E+03  0.00000000000E+00 0. -1.
         25    2    1    2    0    0 -0.43594447114E+01  0.43558749087E+02 -0.70347347058E+02  0.15004304258E+03  0.12509115080E+03 0.  0.
         23    2    1    2    0    0  0.43594447114E+01 -0.43558749087E+02 -0.14377437807E+03  0.17519290852E+03  0.90028406778E+02 0.  0.
          5    1    3    3  502    0  0.33055028202E+02  0.47904710252E+02 -0.90070686663E+02  0.10732053461E+03  0.41800000000E+01 0. -1.
         -5    1    3    3    0  502 -0.37414472913E+02 -0.43459611653E+01  0.19723339604E+02  0.42722507966E+02  0.41800000000E+01 0. -1.
        -11    1    4    4    0    0  0.22757191054E+02 -0.21725832506E+02 -0.14322154342E+03  0.14663666677E+03  0.00000000000E+00 0. -1.
         11    1    4    4    0    0 -0.18397746343E+02 -0.21832916581E+02 -0.55283465391E+00  0.28556241753E+02  0.00000000000E+00 0.  1.
</event>
<event>
 8    1  0.6637272E-009  0.1871743E+03  0.7561462E-02  0.1161035E+00
         -1   -1    0    0    0  501 -0.00000000000E+00  0.00000000000E+00  0.34931166070E+03  0.34931166070E+03  0.00000000000E+00 0.  1.
          1   -1    0    0  501    0  0.00000000000E+00 -0.00000000000E+00 -0.16499456838E+03  0.16499456838E+03  0.00000000000E+00 0. -1.
         25    2    1    2    0    0 -0.17349699092E+03 -0.40463994636E+02 -0.32854961564E+02  0.22014717362E+03  0.12508712496E+03 0.  0.
         23    2    1    2    0    0  0.17349699092E+03  0.40463994636E+02  0.21717205388E+03  0.29415905546E+03  0.87334461719E+02 0.  0.
          5    1    3    3  502    0 -0.34500691890E+02 -0.84469126208E+01 -0.64711505287E+02  0.73937131336E+02  0.41800000000E+01 0.  1.
         -5    1    3    3    0  502 -0.13899629903E+03 -0.32017082015E+02  0.31856543723E+02  0.14621004228E+03  0.41800000000E+01 0.  1.
        -11    1    4    4    0    0 -0.93134756637E+00 -0.13321497526E+02  0.49618453185E+01  0.14246038523E+02  0.00000000000E+00 0. -1.
         11    1    4    4    0    0  0.17442833849E+03  0.53785492162E+02  0.21221020856E+03  0.27991301694E+03  0.00000000000E+00 0.  1.
</event>
<event>
 8    1  0.6637272E-009  0.1340345E+03  0.7561462E-02  0.1221589E+00
          4   -1    0    0  501    0  0.00000000000E+00  0.00000000000E+00  0.54703194571E+02  0.54703194571E+02  0.00000000000E+00 0.  1.
         -4   -1    0    0    0  501 -0.00000000000E+00 -0.00000000000E+00 -0.56235491327E+03  0.56235491327E+03  0.00000000000E+00 0. -1.
         25    2    1    2    0    0  0.72581137066E+01  0.85665899715E+02 -0.83984576315E+02  0.17346829002E+03  0.12508601839E+03 0.  0.
         23    2    1    2    0    0 -0.72581137066E+01 -0.85665899715E+02 -0.42366714238E+03  0.44358981782E+03  0.99432149474E+02 0.  0.
          5    1    3    3  502    0 -0.85506770053E+01  0.10850357861E+03 -0.93770890730E+02  0.14372401677E+03  0.41800000000E+01 0. -1.
         -5    1    3    3    0  502  0.15808790712E+02 -0.22837678898E+02  0.97863144148E+01  0.29744273248E+02  0.41800000000E+01 0. -1.
        -11    1    4    4    0    0  0.37099788217E+02 -0.77548330632E+02 -0.26137132749E+03  0.27514561364E+03  0.00000000000E+00 0.  1.
         11    1    4    4    0    0 -0.44357901924E+02 -0.81175690831E+01 -0.16229581489E+03  0.16844420418E+03  0.00000000000E+00 0. -1.
</event>
<event>
 8    1  0.6637272E-009  0.8991285E+02  0.7561462E-02  0.1303063E+00
         -3   -1    0    0    0  501 -0.00000000000E+00  0.00000000000E+00  0.26948148479E+03  0.26948148479E+03  0.00000000000E+00 0.  1.
          3   -1    0    0  501    0  0.00000000000E+00 -0.00000000000E+00 -0.51898182400E+02  0.51898182400E+02  0.00000000000E+00 0. -1.
         25    2    1    2    0    0 -0.40515390072E+02 -0.23537998572E+02  0.10811028650E+03  0.17183403499E+03  0.12507424725E+03 0.  0.
         23    2    1    2    0    0  0.40515390072E+02  0.23537998572E+02  0.10947301589E+03  0.14954563220E+03  0.90465577388E+02 0.  0.
          5    1    3    3  502    0 -0.40565982250E+02  0.44474795945E+02  0.74449857404E+02  0.95832458268E+02  0.41800000000E+01 0.  1.
         -5    1    3    3    0  502  0.50592178338E-01 -0.68012794516E+02  0.33660429094E+02  0.76001576722E+02  0.41800000000E+01 0.  1.
        -11    1    4    4    0    0  0.11301890165E+02  0.18528348202E+02  0.11697475453E+03  0.11897111248E+03  0.00000000000E+00 0.  1.
         11    1    4    4    0    0  0.29213499906E+02  0.50096503695E+01 -0.75017386329E+01  0.30574519720E+02  0.00000000000E+00 0. -1.
</event>
<event>
 8    1  0.6637272E-009  0.1072005E+03  0.7561462E-02  0.1265844E+00
          1   -1    0    0  501    0  0.00000000000E+00  0.00000000000E+00  0.24339232570E+03  0.24339232570E+03  0.00000000000E+00 0.  1.
         -1   -1    0    0    0  501 -0.00000000000E+00 -0.00000000000E+00 -0.49508716945E+02  0.49508716945E+02  0.00000000000E+00 0. -1.
         25    2    1    2    0    0 -0.13143724285E+02 -0.16007722644E+02  0.11191901309E+03  0.16912186161E+03  0.12508930375E+03 0.  0.
         23    2    1    2    0    0  0.13143724285E+02  0.16007722644E+02  0.81964595668E+02  0.12377918103E+03  0.90410652255E+02 0.  0.
          5    1    3    3  502    0  0.54792598827E+02  0.24933404051E+01  0.37420479836E+02  0.66529770357E+02  0.41800000000E+01 0. -1.
         -5    1    3    3    0  502 -0.67936323112E+02 -0.18501063049E+02  0.74498533252E+02  0.10259209126E+03  0.41800000000E+01 0. -1.
        -11    1    4    4    0    0  0.20880301147E+02  0.49900919305E+02  0.31807846211E+02  0.62752113941E+02  0.00000000000E+00 0. -1.
         11    1    4    4    0    0 -0.77365768619E+01 -0.33893196661E+02  0.50156749457E+02  0.61027067089E+02  0.00000000000E+00 0.  1.
</event>
<event>
 8    1  0.6637272E-009  0.1042768E+03  0.7561462E-02  0.1271551E+00
          2   -1    0    0  501    0  0.00000000000E+00  0.00000000000E+00  0.15091167768E+04  0.15091167768E+04  0.00000000000E+00 0. -1.
         -2   -1    0    0    0  501 -0.00000000000E+00 -0.00000000000E+00 -0.93038787330E+01  0.93038787330E+01  0.00000000000E+00 0.  1.
         25    2    1    2    0    0  0.10877177824E+01  0.19024649383E+02  0.11257936402E+04  0.11328824185E+04  0.12509249932E+03 0.  0.
         23    2    1    2    0    0 -0.10877177824E+01 -0.19024649383E+02  0.37401925781E+03  0.38553823699E+03  0.91576233570E+02 0.  0.
          5    1    3    3  502    0 -0.51045555674E+02  0.33023139800E+02  0.82556055594E+03  0.82780666852E+03  0.41800000000E+01 0.  1.
         -5    1    3    3    0  502  0.52133273457E+02 -0.13998490416E+02  0.30023308430E+03  0.30507575000E+03  0.41800000000E+01 0.  1.
        -11    1    4    4    0    0  0.39964711782E+02 -0.31145649553E+02  0.19552960932E+03  0.20198776645E+03  0.00000000000E+00 0. -1.
         11    1    4    4    0    0 -0.41052429564E+02  0.12121000170E+02  0.17848964850E+03  0.18355047055E+03  0.00000000000E+00 0.  1.
</event>
<event>
 7    1  0.6637272E-009  0.1402303E+03  0.7561462E-02  0.1213019E+00
          1   -1    0    0  501    0  0.00000000000E+00  0.00000000000E+00  0.10761524921E+03  0.10761524921E+03  0.00000000000E+00 0. -1.
         -1   -1    0    0    0  501 -0.00000000000E+00 -0.00000000000E+00 -0.19880773273E+03  0.19880773273E+03  0.00000000000E+00 0.  1.
         23    2    1    2    0    0 -0.84254891777E+02  0.57810278735E+02 -0.49297445451E+02  0.13963561320E+03  0.81406088403E+02 0.  0.
          5    1    1    2  502    0  0.25393391393E+02  0.34679384943E+02  0.11618926498E+02  0.44720866712E+02  0.41800000000E+01 0. -1.
         -5    1    1    2    0  502  0.58861500384E+02 -0.92489663678E+02 -0.53513964566E+02  0.12206650203E+03  0.41800000000E+01 0. -1.
        -11    1    3    3    0    0 -0.57607473554E+02 -0.64796777587E+01 -0.37517590140E+02  0.69051986235E+02  0.00000000000E+00 0. -1.
         11    1    3    3    0    0 -0.26647418223E+02  0.64289956493E+02 -0.11779855311E+02  0.70583626961E+02  0.00000000000E+00 0.  1.
</event>
<event>
 8    1  0.6637272E-009  0.1392282E+03  0.7561462E-02  0.1214371E+00
          2   -1    0    0  501    0  0.00000000000E+00  0.00000000000E+00  0.14026655768E+04  0.14026655768E+04  0.00000000000E+00 0.  1.
         -2   -1    0    0    0  501 -0.00000000000E+00 -0.00000000000E+00 -0.16789263526E+02  0.16789263526E+02  0.00000000000E+00 0. -1.
         25    2    1    2    0    0 -0.42672878238E+02  0.96864164423E+02  0.83871221810E+03  0.85456971041E+03  0.12509022451E+03 0.  0.
         23    2    1    2    0    0  0.42672878238E+02 -0.96864164423E+02  0.54716409520E+03  0.56488512995E+03  0.92211832593E+02 0.  0.
          5    1    3    3  502    0 -0.52947135133E+02 -0.84377386780E+01  0.38056608131E+03  0.38434699061E+03  0.41800000000E+01 0.  1.
         -5    1    3    3    0  502  0.10274256896E+02  0.10530190310E+03  0.45814613680E+03  0.47022271980E+03  0.41800000000E+01 0.  1.
        -11    1    4    4    0    0  0.53510810616E+02 -0.92984815780E+02  0.54155649208E+03  0.55208062539E+03  0.00000000000E+00 0.  1.
         11    1    4    4    0    0 -0.10837932378E+02 -0.38793486432E+01  0.56076031220E+01  0.12804504555E+02  0.00000000000E+00 0. -1.
</event>
<event>
 8    1  0.6637272E-009  0.1231882E+03  0.7561462E-02  0.1237928E+00
         -1   -1    0    0    0  501 -0.00000000000E+00  0.00000000000E+00  0.35419315528E+02  0.35419315528E+02  0.00000000000E+00 0.  1.
          1   -1    0    0  501    0  0.00000000000E+00 -0.00000000000E+00 -0.64768868404E+03  0.64768868404E+03  0.00000000000E+00 0. -1.
         25    2    1    2    0    0 -0.40029676583E+01 -0.92102252566E+02 -0.22981297993E+03  0.27741716164E+03  0.12508967644E+03 0.  0.
         23    2    1    2    0    0  0.40029676583E+01  0.92102252566E+02 -0.38245638858E+03  0.40569083793E+03  0.99062193244E+02 0.  0.
          5    1    3    3  502    0  0.35943352051E+02 -0.10658020941E+02 -0.15569662840E+03  0.16020121867E+03  0.41800000000E+01 0.  1.
         -5    1    3    3    0  502 -0.39946319710E+02 -0.81444231625E+02 -0.74116351523E+02  0.11721594297E+03  0.41800000000E+01 0.  1.
        -11    1    4    4    0    0 -0.34169842555E+02  0.33116443629E+02 -0.65021933492E+02  0.80573747672E+02  0.00000000000E+00 0.  1.
         11    1    4    4    0    0  0.38172810213E+02  0.58985808937E+02 -0.31743445509E+03  0.32511709025E+03  0.00000000000E+00 0. -1.
</event>
<event>
 8    1  0.6637272E-009  0.1945544E+03  0.7561462E-02  0.1154417E+00
          2   -1    0    0  501    0  0.00000000000E+00  0.00000000000E+00  0.11698343844E+04  0.11698343844E+04  0.00000000000E+00 0. -1.
         -2   -1    0    0    0  501 -0.00000000000E+00 -0.00000000000E+00 -0.35628592827E+02  0.35628592827E+02  0.00000000000E+00 0.  1.
         25    2    1    2    0    0 -0.10907548587E+03 -0.13392312847E+03  0.60598832981E+03  0.64241924453E+03  0.12509102256E+03 0.  0.
         23    2    1    2    0    0  0.10907548587E+03  0.13392312847E+03  0.52821746174E+03  0.56304373267E+03  0.90397411767E+02 0.  0.
          5    1    3    3  502    0 -0.46966216091E+02 -0.12606585344E+03  0.28279084301E+03  0.31318773627E+03  0.41800000000E+01 0. -1.
         -5    1    3    3    0  502 -0.62109269781E+02 -0.78572750335E+01  0.32319748679E+03  0.32923150826E+03  0.41800000000E+01 0. -1.
        -11    1    4    4    0    0  0.10576963658E+03  0.67953766811E+02  0.29542977329E+03  0.32106647504E+03  0.00000000000E+00 0.  1.
         11    1    4    4    0    0  0.33058492880E+01  0.65969361660E+02  0.23278768845E+03  0.24197725763E+03  0.00000000000E+00 0. -1.
</event>
<event>
 8    1  0.6637272E-009  0.1073826E+03  0.7561462E-02  0.1265495E+00
         -1   -1    0    0    0  501 -0.00000000000E+00  0.00000000000E+00  0.75358535392E+02  0.75358535392E+02  0.00000000000E+00 0.  1.
          1   -1    0    0  501    0  0.00000000000E+00 -0.00000000000E+00 -0.20483506965E+03  0.20483506965E+03  0.00000000000E+00 0. -1.
         25    2    1    2    0    0 -0.77133614931E+01 -0.53052897699E+02 -0.39252573963E+02  0.14164032451E+03  0.12508841299E+03 0.  0.
         23    2    1    2    0    0  0.77133614931E+01  0.53052897699E+02 -0.90223960297E+02  0.13855328053E+03  0.90457407848E+02 0.  0.
          5    1    3    3  502    0  0.67096745149E+01 -0.83232163183E+02  0.75669406921E+01  0.83948458661E+02  0.41800000000E+01 0. -1.
         -5    1    3    3    0  502 -0.14423036008E+02  0.30179265483E+02 -0.46819514655E+02  0.57691865851E+02  0.41800000000E+01 0. -1.
        -11    1    4    4    0    0  0.44723314828E+02  0.29759701499E+02 -0.23178226463E+02  0.58506793661E+02  0.00000000000E+00 0.  1.
         11    1    4    4    0    0 -0.37009953335E+02  0.23293196200E+02 -0.67045733834E+02  0.80046486871E+02  0.00000000000E+00 0. -1.
</event>
<event>
 8    1  0.6637272E-009  0.8825102E+02  0.7561462E-02  0.1307143E+00
         -1   -1    0    0    0  501 -0.00000000000E+00  0.00000000000E+00  0.55526552203E+02  0.55526552203E+02  0.00000000000E+00 0.  1.
          1   -1    0    0  501    0  0.00000000000E+00 -0.00000000000E+00 -0.26353202727E+03  0.26353202727E+03  0.00000000000E+00 0. -1.
         25    2    1    2    0    0  0.48327816076E+02  0.20683815983E+02 -0.14504378612E+03  0.19861696387E+03  0.12509036890E+03 0.  0.
         23    2    1    2    0    0 -0.48327816076E+02 -0.20683815983E+02 -0.62961688941E+02  0.12044161560E+03  0.88196431019E+02 0.  0.
          5    1    3    3  502    0  0.54988229008E+02 -0.18368881421E+02 -0.11492488285E+02  0.59250914095E+02  0.41800000000E+01 0. -1.
         -5    1    3    3    0  502 -0.66604129320E+01  0.39052697403E+02 -0.13355129784E+03  0.13936604977E+03  0.41800000000E+01 0. -1.
        -11    1    4    4    0    0 -0.58120960723E+02 -0.29663413551E+02 -0.10215717893E+02  0.66047899822E+02  0.00000000000E+00 0.  1.
         11    1    4    4    0    0  0.97931446474E+01  0.89795975680E+01 -0.52745971049E+02  0.54393715781E+02  0.00000000000E+00 0. -1.
</event>
<event>
 8    1  0.6637272E-009  0.2284750E+03  0.7561462E-02  0.1127718E+00
          2   -1    0    0  501    0  0.00000000000E+00  0.00000000000E+00  0.55637387849E+03  0.55637387849E+03  0.00000000000E+00 0. -1.
         -2   -1    0    0    0  501 -0.00000000000E+00 -0.00000000000E+00 -0.12303706115E+03  0.12303706115E+03  0.00000000000E+00 0.  1.
         25    2    1    2    0    0 -0.19954449343E+03  0.41284616503E+02  0.38265323640E+03  0.45121309526E+03  0.12508930244E+03 0.  0.
         23    2    1    2    0    0  0.19954449343E+03 -0.41284616503E+02  0.50683580932E+02  0.22819784438E+03  0.89347671402E+02 0.  0.
          5    1    3    3  502    0 -0.14736888692E+03 -0.29760426124E+02  0.22753415729E+03  0.27274995312E+03  0.41800000000E+01 0. -1.
         -5    1    3    3    0  502 -0.52175606517E+02  0.71045042627E+02  0.15511907911E+03  0.17846314214E+03  0.41800000000E+01 0. -1.
        -11    1    4    4    0    0  0.62695542780E+02 -0.51412227449E+02 -0.22705308998E+01  0.81111673182E+02  0.00000000000E+00 0.  1.
         11    1    4    4    0    0  0.13684895065E+03  0.10127610946E+02  0.52954111831E+02  0.14708617120E+03  0.00000000000E+00 0. -1.
</event>
<event>
 8    1  0.6637272E-009  0.1251656E+03  0.7561462E-02  0.1234811E+00
          2   -1    0    0  501    0  0.00000000000E+00  0.00000000000E+00  0.96499805991E+02  0.96499805991E+02  0.00000000000E+00 0. -1.
         -2   -1    0    0    0  501 -0.00000000000E+00 -0.00000000000E+00 -0.26377334544E+03  0.26377334544E+03  0.00000000000E+00 0.  1.
         25    2    1    2    0    0  0.10224418846E+03  0.36324651172E+02 -0.13756226590E+03  0.21527794363E+03  0.12509141320E+03 0.  0.
         23    2    1    2    0    0 -0.10224418846E+03 -0.36324651172E+02 -0.29711273547E+02  0.14499520780E+03  0.91474019006E+02 0.  0.
          5    1    3    3  502    0 -0.16142481858E+02 -0.26395953897E+01  0.11877108733E+02  0.20641833645E+02  0.41800000000E+01 0. -1.
         -5    1    3    3    0  502  0.11838667032E+03  0.38964246562E+02 -0.14943937464E+03  0.19463610999E+03  0.41800000000E+01 0. -1.
        -11    1    4    4    0    0 -0.30909390998E+02 -0.14533470975E+02 -0.56264978519E+02  0.65820665738E+02  0.00000000000E+00 0.  1.
         11    1    4    4    0    0 -0.71334797461E+02 -0.21791180197E+02  0.26553704972E+02  0.79174542063E+02  0.00000000000E+00 0. -1.
</event>
<event>
 8    1  0.6637272E-009  0.1419352E+03  0.7561462E-02  0.1210748E+00
         -2   -1    0    0    0  501 -0.00000000000E+00  0.00000000000E+00  0.11692780717E+03  0.11692780717E+03  0.00000000000E+00 0.  1.
          2   -1    0    0  501    0  0.00000000000E+00 -0.00000000000E+00 -0.20065366044E+03  0.20065366044E+03  0.00000000000E+00 0. -1.
         25    2    1    2    0    0 -0.93130823111E+02 -0.59771482923E+02 -0.64423783273E+02  0.17900834517E+03  0.12509030100E+03 0.  0.
         23    2    1    2    0    0  0.93130823111E+02  0.59771482923E+02 -0.19302069995E+02  0.13857312244E+03  0.81141604453E+02 0.  0.
          5    1    3    3  502    0 -0.11707396191E+03 -0.72242412531E+02 -0.63755347605E+02  0.15168221871E+03  0.41800000000E+01 0.  1.
         -5    1    3    3    0  502  0.23943138800E+02  0.12470929607E+02 -0.66843566809E+00  0.27326126456E+02  0.41800000000E+01 0.  1.
        -11    1    4    4    0    0  0.13746517621E+02 -0.67817151757E+01  0.22199668622E+02  0.26977466419E+02  0.00000000000E+00 0.  1.
         11    1    4    4    0    0  0.79384305489E+02  0.66553198099E+02 -0.41501738617E+02  0.11159565602E+03  0.00000000000E+00 0. -1.
</event>
<event>
 8    1  0.6637272E-009  0.1456936E+03  0.7561462E-02  0.1205867E+00
          2   -1    0    0  501    0  0.00000000000E+00  0.00000000000E+00  0.23497544087E+03  0.23497544087E+03  0.00000000000E+00 0.  1.
         -2   -1    0    0    0  501 -0.00000000000E+00 -0.00000000000E+00 -0.95724913522E+02  0.95724913522E+02  0.00000000000E+00 0. -1.
         25    2    1    2    0    0  0.11136080040E+02  0.99197488961E+02  0.93185782512E+02  0.18517879815E+03  0.12507375075E+03 0.  0.
         23    2    1    2    0    0 -0.11136080040E+02 -0.99197488961E+02  0.46064744832E+02  0.14552155624E+03  0.95343633869E+02 0.  0.
          5    1    3    3  502    0 -0.54446004967E+02  0.49746317707E+02  0.64534963652E+02  0.98088212930E+02  0.41800000000E+01 0. -1.
         -5    1    3    3    0  502  0.65582085007E+02  0.49451171254E+02  0.28650818860E+02  0.87090585218E+02  0.41800000000E+01 0. -1.
        -11    1    4    4    0    0  0.38801828879E+02 -0.26153191252E+02  0.24085381690E+01  0.46854801175E+02  0.00000000000E+00 0. -1.
         11    1    4    4    0    0 -0.49937908919E+02 -0.73044297710E+02  0.43656206663E+02  0.98666755066E+02  0.00000000000E+00 0.  1.
</event>
<event>
 8    1  0.6637272E-009  0.1348305E+03  0.7561462E-02  0.1220459E+00
         -2   -1    0    0    0  501 -0.00000000000E+00  0.00000000000E+00  0.28310920841E+02  0.28310920841E+02  0.00000000000E+00 0.  1.
          2   -1    0    0  501    0  0.00000000000E+00 -0.00000000000E+00 -0.82618049559E+03  0.82618049559E+03  0.00000000000E+00 0. -1.
         25    2    1    2    0    0  0.25047976267E+02  0.89523548525E+02 -0.27940269508E+03  0.31992862736E+03  0.12508634510E+03 0.  0.
         23    2    1    2    0    0 -0.25047976267E+02 -0.89523548525E+02 -0.51846687967E+03  0.53456278907E+03  0.91146054714E+02 0.  0.
          5    1    3    3  502    0  0.16966245449E+02 -0.21733692599E+02 -0.12379101277E+02  0.30511005015E+02  0.41800000000E+01 0.  1.
         -5    1    3    3    0  502  0.80817308175E+01  0.11125724112E+03 -0.26702359380E+03  0.28941762235E+03  0.41800000000E+01 0.  1.
        -11    1    4    4    0    0  0.21189129432E+02  0.76536315736E+01 -0.95171471132E+02  0.97801667674E+02  0.00000000000E+00 0.  1.
         11    1    4    4    0    0 -0.46237105699E+02 -0.97177180098E+02 -0.42329540854E+03  0.43676112140E+03  0.00000000000E+00 0. -1.
</event>
<event>
 8    1  0.6637272E-009  0.2370756E+03  0.7561462E-02  0.1121756E+00
         -1   -1    0    0    0  501 -0.00000000000E+00  0.00000000000E+00  0.11874892358E+03  0.11874892358E+03  0.00000000000E+00 0.  1.
          1   -1    0    0  501    0  0.00000000000E+00 -0.00000000000E+00 -0.48924551716E+03  0.48924551716E+03  0.00000000000E+00 0. -1.
         25    2    1    2    0    0  0.44775320833E+02 -0.20929934801E+03 -0.17719173337E+03  0.30472295172E+03  0.12509244781E+03 0.  0.
         23    2    1    2    0    0 -0.44775320833E+02  0.20929934801E+03 -0.19330486021E+03  0.30327148902E+03  0.93785823246E+02 0.  0.
          5    1    3    3  502    0  0.44480454136E+02 -0.22469003621E+03 -0.17568989199E+03  0.28870146124E+03  0.41800000000E+01 0. -1.
         -5    1    3    3    0  502  0.29486669701E+00  0.15390688202E+02 -0.15018413708E+01  0.16021490480E+02  0.41800000000E+01 0. -1.
        -11    1    4    4    0    0 -0.53247423837E+02  0.62663729871E+02 -0.41760887379E+02  0.92227994131E+02  0.00000000000E+00 0. -1.
         11    1    4    4    0    0  0.84721030046E+01  0.14663561814E+03 -0.15154397283E+03  0.21104349489E+03  0.00000000000E+00 0.  1.
</event>
<event>
 8    1  0.6637272E-009  0.1349337E+03  0.7561462E-02  0.1220313E+00
          2   -1    0    0  501    0  0.00000000000E+00  0.00000000000E+00  0.56322376074E+03  0.56322376074E+03  0.00000000000E+00 0. -1.
         -2   -1    0    0    0  501 -0.00000000000E+00 -0.00000000000E+00 -0.46997754926E+02  0.46997754926E+02  0.00000000000E+00 0.  1.
         25    2    1    2    0    0 -0.97336422857E+02  0.52204837293E+00  0.13384148827E+03  0.20745160673E+03  0.12509185986E+03 0.  0.
         23    2    1    2    0    0  0.97336422857E+02 -0.52204837293E+00  0.38238451754E+03  0.40276990893E+03  0.80814779196E+02 0.  0.
          5    1    3    3  502    0 -0.71926209936E+02 -0.49448173820E+02  0.35792113553E+02  0.94430129527E+02  0.41800000000E+01 0.  1.
         -5    1    3    3    0  502 -0.25410212921E+02  0.49970222193E+02  0.98049374714E+02  0.11302147720E+03  0.41800000000E+01 0.  1.
        -11    1    4    4    0    0  0.32836182395E+02  0.38719542192E+02  0.14158658338E+03  0.15041335850E+03  0.00000000000E+00 0. -1.
         11    1    4    4    0    0  0.64500240462E+02 -0.39241590565E+02  0.24079793416E+03  0.25235655043E+03  0.00000000000E+00 0.  1.
</event>
<event>
 8    1  0.6637272E-009  0.2080997E+03  0.7561462E-02  0.1143080E+00
         -2   -1    0    0    0  501 -0.00000000000E+00  0.00000000000E+00  0.58046932230E+02  0.58046932230E+02  0.00000000000E+00 0.  1.
          2   -1    0    0  501    0  0.00000000000E+00 -0.00000000000E+00 -0.10614208487E+04  0.10614208487E+04  0.00000000000E+00 0. -1.
         25    2    1    2    0    0 -0.19019927052E+03 -0.46548588807E+02 -0.27687289326E+03  0.36145427395E+03  0.12509220404E+03 0.  0.
         23    2    1    2    0    0  0.19019927052E+03  0.46548588807E+02 -0.72650102318E+03  0.75801350695E+03  0.91859710470E+02 0.  0.
          5    1    3    3  502    0 -0.46666761139E+02  0.29299954980E+02 -0.13478809473E+03  0.14567627411E+03  0.41800000000E+01 0.  1.
         -5    1    3    3    0  502 -0.14353250938E+03 -0.75848543787E+02 -0.14208479853E+03  0.21577799984E+03  0.41800000000E+01 0.  1.
        -11    1    4    4    0    0  0.90638902617E+02  0.39076523581E+02 -0.21115675982E+03  0.23308702791E+03  0.00000000000E+00 0.  1.
         11    1    4    4    0    0  0.99560367901E+02  0.74720652261E+01 -0.51534426336E+03  0.52492647904E+03  0.00000000000E+00 0. -1.
</event>
<event>
 7    1  0.6637272E-009  0.8727909E+02  0.7561462E-02  0.1309578E+00
          2   -1    0    0  501    0  0.00000000000E+00  0.00000000000E+00  0.15137819394E+04  0.15137819394E+04  0.00000000000E+00 0. -1.
         -2   -1    0    0    0  501 -0.00000000000E+00 -0.00000000000E+00 -0.84344112420E+01  0.84344112420E+01  0.00000000000E+00 0.  1.
         25    2    1    2    0    0 -0.25899949154E+02 -0.62480510052E+02  0.11830271122E+04  0.11915439344E+04  0.12509667422E+03 0.  0.
          5    1    3    3  502    0 -0.10624635308E+02  0.16821372173E+02  0.79108622237E+03  0.79134741110E+03  0.41800000000E+01 0.  1.
         -5    1    3    3    0  502 -0.15275313846E+02 -0.79301882224E+02  0.39194088986E+03  0.40019652333E+03  0.41800000000E+01 0.  1.
        -11    1    1    2    0    0  0.24307284335E+00  0.37665620949E+02  0.14643772195E+03  0.15120437988E+03  0.00000000000E+00 0. -1.
         11    1    1    2    0    0  0.25656876310E+02  0.24814889102E+02  0.17588269398E+03  0.17946803633E+03  0.00000000000E+00 0.  1.
</event>
<event>
 8    1  0.6637272E-009  0.1974955E+03  0.7561462E-02  0.1151869E+00
         -2   -1    0    0    0  501 -0.00000000000E+00  0.00000000000E+00  0.28570050786E+02  0.28570050786E+02  0.00000000000E+00 0.  1.
          2   -1    0    0  501    0  0.00000000000E+00 -0.00000000000E+00 -0.18603039733E+04  0.18603039733E+04  0.00000000000E+00 0. -1.
         25    2    1    2    0    0 -0.51876259956E+02  0.16002510780E+03 -0.14040353364E+04  0.14195991514E+04  0.12508934065E+03 0.  0.
         23    2    1    2    0    0  0.51876259956E+02 -0.16002510780E+03 -0.42769858606E+03  0.46927487270E+03  0.94834825628E+02 0.  0.
          5    1    3    3  502    0  0.41349884909E+02  0.41473030577E+02 -0.40679187336E+03  0.41100720904E+03  0.41800000000E+01 0. -1.
         -5    1    3    3    0  502 -0.93226144865E+02  0.11855207722E+03 -0.99724346308E+03  0.10085919423E+04  0.41800000000E+01 0. -1.
        -11    1    4    4    0    0 -0.27786080402E+01 -0.11376343061E+03 -0.32276247197E+03  0.34223595971E+03  0.00000000000E+00 0. -1.
         11    1    4    4    0    0  0.54654867996E+02 -0.46261677190E+02 -0.10493611410E+03  0.12703891299E+03  0.00000000000E+00 0.  1.
</event>
<event>
 8    1  0.6637272E-009  0.1427031E+03  0.7561462E-02  0.1209737E+00
         -1   -1    0    0    0  501 -0.00000000000E+00  0.00000000000E+00  0.20645995302E+03  0.20645995302E+03  0.00000000000E+00 0.  1.
          1   -1    0    0  501    0  0.00000000000E+00 -0.00000000000E+00 -0.12258693664E+03  0.12258693664E+03  0.00000000000E+00 0. -1.
         25    2    1    2    0    0 -0.37178582361E+02 -0.10823982132E+03  0.20367346548E+02  0.17076499960E+03  0.12509096841E+03 0.  0.
         23    2    1    2    0    0  0.37178582361E+02  0.10823982132E+03  0.63505669831E+02  0.15828189006E+03  0.89006071225E+02 0.  0.
          5    1    3    3  502    0 -0.66987584317E+02 -0.50461505410E+02 -0.29200123200E+02  0.88903428369E+02  0.41800000000E+01 0. -1.
         -5    1    3    3    0  502  0.29809001956E+02 -0.57778315909E+02  0.49567469748E+02  0.81861571229E+02  0.41800000000E+01 0. -1.
        -11    1    4    4    0    0  0.44140169771E+02  0.21198249740E+02  0.49893636310E+02  0.69907762972E+02  0.00000000000E+00 0.  1.
         11    1    4    4    0    0 -0.69615874108E+01  0.87041571579E+02  0.13612033521E+02  0.88374127089E+02  0.00000000000E+00 0. -1.
</event>
<event>
 8    1  0.6637272E-009  0.1363250E+03  0.7561462E-02  0.1218361E+00
         -2   -1    0    0    0  501 -0.00000000000E+00  0.00000000000E+00  0.93725170721E+02  0.93725170721E+02  0.00000000000E+00 0. -1.
          2   -1    0    0  501    0  0.00000000000E+00 -0.00000000000E+00 -0.25369592354E+03  0.25369592354E+03  0.00000000000E+00 0.  1.
         25    2    1    2    0    0 -0.91953889614E+02 -0.41395429485E+02 -0.41368123136E+02  0.16591536707E+03  0.12508991974E+03 0.  0.
         23    2    1    2    0    0  0.91953889614E+02  0.41395429485E+02 -0.11860262968E+03  0.18150572718E+03  0.93320125570E+02 0.  0.
          5    1    3    3  502    0  0.17311925821E+02 -0.20747449497E+02 -0.47130876832E+02  0.54488084819E+02  0.41800000000E+01 0.  1.
         -5    1    3    3    0  502 -0.10926581544E+03 -0.20647979988E+02  0.57627536959E+01  0.11142728225E+03  0.41800000000E+01 0.  1.
        -11    1    4    4    0    0  0.92176073175E+02 -0.45576105634E+00 -0.61908705069E+02  0.11103748893E+03  0.00000000000E+00 0.  1.
         11    1    4    4    0    0 -0.22218356029E+00  0.41851190542E+02 -0.56693924609E+02  0.70468238256E+02  0.00000000000E+00 0. -1.
</event>
<event>
 8    1  0.6637272E-009  0.3629047E+03  0.7561462E-02  0.1057440E+00
          2   -1    0    0  501    0  0.00000000000E+00  0.00000000000E+00  0.11017267952E+04  0.11017267952E+04  0.00000000000E+00 0. -1.
         -2   -1    0    0    0  501 -0.00000000000E+00 -0.00000000000E+00 -0.12001594684E+03  0.12001594684E+03  0.00000000000E+00 0.  1.
         25    2    1    2    0    0 -0.25042979456E+03  0.23936519447E+03  0.47856987557E+03  0.60389333461E+03  0.12508899012E+03 0.  0.
         23    2    1    2    0    0  0.25042979456E+03 -0.23936519447E+03  0.50314097282E+03  0.61784940745E+03  0.92608171543E+02 0.  0.
          5    1    3    3  502    0 -0.21220502043E+02  0.93264615957E+02  0.10837779632E+03  0.14460918861E+03  0.41800000000E+01 0. -1.
         -5    1    3    3    0  502 -0.22920929252E+03  0.14610057852E+03  0.37019207925E+03  0.45928414599E+03  0.41800000000E+01 0. -1.
        -11    1    4    4    0    0  0.21701875525E+02 -0.70915428419E+02  0.11577094316E+03  0.13748774734E+03  0.00000000000E+00 0.  1.
         11    1    4    4    0    0  0.22872791903E+03 -0.16844976606E+03  0.38737002966E+03  0.48036166011E+03  0.00000000000E+00 0. -1.
</event>
<event>
 8    1  0.6637272E-009  0.1225928E+03  0.7561462E-02  0.1238880E+00
         -1   -1    0    0    0  501 -0.00000000000E+00  0.00000000000E+00  0.96042126050E+02  0.96042126050E+02  0.00000000000E+00 0.  1.
          1   -1    0    0  501    0  0.00000000000E+00 -0.00000000000E+00 -0.18420131168E+03  0.18420131168E+03  0.00000000000E+00 0. -1.
         25    2    1    2    0    0  0.40341480481E+02  0.39893600952E+02  0.46990181387E+01  0.13743731451E+03  0.12509196698E+03 0.  0.
         23    2    1    2    0    0 -0.40341480481E+02 -0.39893600952E+02 -0.92858203769E+02  0.14280612322E+03  0.92477069471E+02 0.  0.
          5    1    3    3  502    0 -0.38810885064E+02  0.42275031269E+02 -0.39072463571E+01  0.57673235061E+02  0.41800000000E+01 0.  1.
         -5    1    3    3    0  502  0.79152365545E+02 -0.23814303175E+01  0.86062644957E+01  0.79764079448E+02  0.41800000000E+01 0.  1.
        -11    1    4    4    0    0 -0.36632510182E+02 -0.69470822391E+02 -0.70580663290E+02  0.10559245236E+03  0.00000000000E+00 0.  1.
         11    1    4    4    0    0 -0.37089702981E+01  0.29577221440E+02 -0.22277540479E+02  0.37213670856E+02  0.00000000000E+00 0. -1.
</event>
<event>
 8    1  0.6637272E-009  0.1361065E+03  0.7561462E-02  0.1218666E+00
          1   -1    0    0  501    0  0.00000000000E+00  0.00000000000E+00  0.14511571120E+03  0.14511571120E+03  0.00000000000E+00 0. -1.
         -1   -1    0    0    0  501 -0.00000000000E+00 -0.00000000000E+00 -0.14149047635E+03  0.14149047635E+03  0.00000000000E+00 0.  1.
         25    2    1    2    0    0 -0.94512082476E+02 -0.16021998516E+02 -0.23992993390E+02  0.15941173870E+03  0.12508877062E+03 0.  0.
         23    2    1    2    0    0  0.94512082476E+02  0.16021998516E+02  0.27618228240E+02  0.12719444884E+03  0.78907687288E+02 0.  0.
          5    1    3    3  502    0  0.66142728343E+01  0.37640773359E+02 -0.23096051099E+02  0.44849486068E+02  0.41800000000E+01 0.  1.
         -5    1    3    3    0  502 -0.10112635531E+03 -0.53662771875E+02 -0.89694229102E+00  0.11456225264E+03  0.41800000000E+01 0.  1.
        -11    1    4    4    0    0  0.93709556112E+02 -0.90303796112E+01  0.35959784361E+02  0.10077765007E+03  0.00000000000E+00 0.  1.
         11    1    4    4    0    0  0.80252636395E+00  0.25052378128E+02 -0.83415561216E+01  0.26416798764E+02  0.00000000000E+00 0. -1.
</event>
<event>
 8    1  0.6637272E-009  0.8762173E+02  0.7561462E-02  0.1308715E+00
          1   -1    0    0  501    0  0.00000000000E+00  0.00000000000E+00  0.11339203827E+03  0.11339203827E+03  0.00000000000E+00 0. -1.
         -1   -1    0    0    0  501 -0.00000000000E+00 -0.00000000000E+00 -0.13062122755E+03  0.13062122755E+03  0.00000000000E+00 0.  1.
         25    2    1    2    0    0 -0.36884225719E+02 -0.42192977058E+01 -0.51782009908E+02  0.14039497531E+03  0.12510445220E+03 0.  0.
         23    2    1    2    0    0  0.36884225719E+02  0.42192977058E+01  0.34552820624E+02  0.10361829052E+03  0.90358199054E+02 0.  0.
          5    1    3    3  502    0  0.24134384302E+02  0.16339457234E+01 -0.71716067066E+02  0.75801088117E+02  0.41800000000E+01 0. -1.
         -5    1    3    3    0  502 -0.61018610021E+02 -0.58532434292E+01  0.19934057158E+02  0.64593887190E+02  0.41800000000E+01 0. -1.
        -11    1    4    4    0    0  0.11292640490E+02 -0.38133288395E+02  0.36660464388E+02  0.54089380309E+02  0.00000000000E+00 0. -1.
         11    1    4    4    0    0  0.25591585229E+02  0.42352586101E+02 -0.21076437641E+01  0.49528910206E+02  0.00000000000E+00 0.  1.
</event>
<event>
 8    1  0.6637272E-009  0.1033320E+03  0.7561462E-02  0.1273441E+00
         -2   -1    0    0    0  501 -0.00000000000E+00  0.00000000000E+00  0.94915087397E+02  0.94915087397E+02  0.00000000000E+00 0.  1.
          2   -1    0    0  501    0  0.00000000000E+00 -0.00000000000E+00 -0.13339719534E+03  0.13339719534E+03  0.00000000000E+00 0. -1.
         25    2    1    2    0    0 -0.11856887293E+00 -0.80454483009E+01 -0.43503745052E+02  0.13268382599E+03  0.12509068130E+03 0.  0.
         23    2    1    2    0    0  0.11856887293E+00  0.80454483009E+01  0.50216371123E+01  0.95628456743E+02  0.95156931449E+02 0.  0.
          5    1    3    3  502    0  0.57244295291E+02 -0.28135157827E+02 -0.16322894718E+02  0.65972765148E+02  0.41800000000E+01 0. -1.
         -5    1    3    3    0  502 -0.57362864164E+02  0.20089709526E+02 -0.27180850334E+02  0.66711060843E+02  0.41800000000E+01 0. -1.
        -11    1    4    4    0    0 -0.37989248609E+02 -0.10535953314E+02  0.27088548108E+02  0.47832820957E+02  0.00000000000E+00 0.  1.
         11    1    4    4    0    0  0.38107817482E+02  0.18581401615E+02 -0.22066910996E+02  0.47795635785E+02  0.00000000000E+00 0. -1.
</event>
<event>
 8    1  0.6637272E-009  0.8453199E+02  0.7561462E-02  0.1316661E+00
          3   -1    0    0  501    0  0.00000000000E+00  0.00000000000E+00  0.64569746175E+02  0.64569746175E+02  0.00000000000E+00 0. -1.
         -3   -1    0    0    0  501 -0.00000000000E+00 -0.00000000000E+00 -0.18930668672E+03  0.18930668672E+03  0.00000000000E+00 0.  1.
         25    2    1    2    0    0 -0.36388031055E+02  0.16890619704E+02 -0.41509804601E+02  0.13777452365E+03  0.12509745662E+03 0.  0.
         23    2    1    2    0    0  0.36388031055E+02 -0.16890619704E+02 -0.83227135943E+02  0.11610190924E+03  0.70310136778E+02 0.  0.
          5    1    3    3  502    0  0.29158237885E+02  0.12417896563E+02 -0.61213308980E+02  0.69057574442E+02  0.41800000000E+01 0.  1.
         -5    1    3    3    0  502 -0.65546268940E+02  0.44727231414E+01  0.19703504378E+02  0.68716949212E+02  0.41800000000E+01 0.  1.
        -11    1    4    4    0    0 -0.13803087841E+02 -0.15912473856E+02 -0.54115810858E+02  0.58071103339E+02  0.00000000000E+00 0.  1.
         11    1    4    4    0    0  0.50191118896E+02 -0.97814584826E+00 -0.29111325086E+02  0.58030805901E+02  0.00000000000E+00 0. -1.
</event>
<event>
 8    1  0.6637272E-009  0.9741038E+02  0.7561462E-02  0.1285838E+00
          1   -1    0    0  501    0  0.00000000000E+00  0.00000000000E+00  0.28729706712E+03  0.28729706712E+03  0.00000000000E+00 0. -1.
         -1   -1    0    0    0  501 -0.00000000000E+00 -0.00000000000E+00 -0.47583722561E+02  0.47583722561E+02  0.00000000000E+00 0.  1.
         25    2    1    2    0    0  0.35235179955E+02 -0.26357704710E+02  0.13093671016E+03  0.18635684023E+03  0.12509277888E+03 0.  0.
         23    2    1    2    0    0 -0.35235179955E+02  0.26357704710E+02  0.10877663440E+03  0.14852394946E+03  0.91053615343E+02 0.  0.
          5    1    3    3  502    0  0.61131815533E+02 -0.62195395425E+02  0.96675972097E+02  0.13026542927E+03  0.41800000000E+01 0. -1.
         -5    1    3    3    0  502 -0.25896635578E+02  0.35837690715E+02  0.34260738066E+02  0.56091410955E+02  0.41800000000E+01 0. -1.
        -11    1    4    4    0    0 -0.24276934525E+02 -0.91464982167E+01 -0.70497372184E+01  0.26883578155E+02  0.00000000000E+00 0.  1.
         11    1    4    4    0    0 -0.10958245430E+02  0.35504202927E+02  0.11582637162E+03  0.12164037130E+03  0.00000000000E+00 0. -1.
</event>
<event>
 8    1  0.6637272E-009  0.1614685E+03  0.7561462E-02  0.1187049E+00
         -2   -1    0    0    0  501 -0.00000000000E+00  0.00000000000E+00  0.44035165821E+02  0.44035165821E+02  0.00000000000E+00 0.  1.
          2   -1    0    0  501    0  0.00000000000E+00 -0.00000000000E+00 -0.82815476938E+03  0.82815476938E+03  0.00000000000E+00 0. -1.
         25    2    1    2    0    0  0.11500063479E+03 -0.10077576696E+03 -0.33455884517E+03  0.38853234711E+03  0.12508742008E+03 0.  0.
         23    2    1    2    0    0 -0.11500063479E+03  0.10077576696E+03 -0.44956075839E+03  0.48365758809E+03  0.91863408511E+02 0.  0.
          5    1    3    3  502    0  0.93236994678E+02 -0.88102165044E+02 -0.33912354909E+03  0.36259810067E+03  0.41800000000E+01 0. -1.
         -5    1    3    3    0  502  0.21763640115E+02 -0.12673601914E+02  0.45647039222E+01  0.25934246440E+02  0.41800000000E+01 0. -1.
        -11    1    4    4    0    0 -0.86488697944E+02  0.28012624042E+02 -0.31696570455E+03  0.32974575029E+03  0.00000000000E+00 0. -1.
         11    1    4    4    0    0 -0.28511936849E+02  0.72763142917E+02 -0.13259505385E+03  0.15391183780E+03  0.00000000000E+00 0.  1.
</event>
<event>
 8    1  0.6637272E-009  0.1051458E+03  0.7561462E-02  0.1269833E+00
         -3   -1    0    0    0  501 -0.00000000000E+00  0.00000000000E+00  0.79957128272E+02  0.79957128272E+02  0.00000000000E+00 0.  1.
          3   -1    0    0  501    0  0.00000000000E+00 -0.00000000000E+00 -0.15326644732E+03  0.15326644732E+03  0.00000000000E+00 0. -1.
         25    2    1    2    0    0  0.20337421887E+01  0.28937327502E+02 -0.44097350789E+02  0.13577070419E+03  0.12509037828E+03 0.  0.
         23    2    1    2    0    0 -0.20337421887E+01 -0.28937327502E+02 -0.29211968254E+02  0.97452871401E+02  0.88330164863E+02 0.  0.
          5    1    3    3  502    0  0.39214018279E+02 -0.32086609837E+02 -0.38874525881E+02  0.63999929085E+02  0.41800000000E+01 0.  1.
         -5    1    3    3    0  502 -0.37180276091E+02  0.61023937339E+02 -0.52228249084E+01  0.71770775101E+02  0.41800000000E+01 0.  1.
        -11    1    4    4    0    0 -0.68735913638E+00  0.29454847944E+02  0.48189105059E+01  0.29854353593E+02  0.00000000000E+00 0.  1.
         11    1    4    4    0    0 -0.13463830523E+01 -0.58392175446E+02 -0.34030878760E+02  0.67598517808E+02  0.00000000000E+00 0. -1.
</event>
<event>
 8    1  0.6637272E-009  0.2070436E+03  0.7561462E-02  0.1143929E+00
         -2   -1    0    0    0  501 -0.00000000000E+00  0.00000000000E+00  0.37374360757E+03  0.37374360757E+03  0.00000000000E+00 0.  1.
          2   -1    0    0  501    0  0.00000000000E+00 -0.00000000000E+00 -0.13286162969E+03  0.13286162969E+03  0.00000000000E+00 0. -1.
         25    2    1    2    0    0  0.12345320793E+03  0.15142350077E+03  0.12481227655E+03  0.26342607476E+03  0.12508165875E+03 0.  0.
         23    2    1    2    0    0 -0.12345320793E+03 -0.15142350077E+03  0.11606970133E+03  0.24317916250E+03  0.86568807185E+02 0.  0.
          5    1    3    3  502    0 -0.10801079683E+02  0.16292900565E+01 -0.14557114807E+02  0.18673507970E+02  0.41800000000E+01 0.  1.
         -5    1    3    3    0  502  0.13425428761E+03  0.14979421071E+03  0.13936939135E+03  0.24475256679E+03  0.41800000000E+01 0.  1.
        -11    1    4    4    0    0 -0.59833147052E+02 -0.37216213484E+02  0.81930624851E+02  0.10806331163E+03  0.00000000000E+00 0.  1.
         11    1    4    4    0    0 -0.63620060877E+02 -0.11420728728E+03  0.34139076477E+02  0.13511585087E+03  0.00000000000E+00 0. -1.
</event>
<event>
 8    1  0.6637272E-009  0.9113303E+02  0.7561462E-02  0.1300131E+00
         -3   -1    0    0    0  501 -0.00000000000E+00  0.00000000000E+00  0.86551782519E+03  0.86551782519E+03  0.00000000000E+00 0.  1.
          3   -1    0    0  501    0  0.00000000000E+00 -0.00000000000E+00 -0.19059267531E+02  0.19059267531E+02  0.00000000000E+00 0. -1.
         25    2    1    2    0    0  0.10251643435E+02  0.25669738729E+02  0.69097861391E+03  0.70275326061E+03  0.12508664492E+03 0.  0.
         23    2    1    2    0    0 -0.10251643435E+02 -0.25669738729E+02  0.15547994375E+03  0.18182383211E+03  0.90121370027E+02 0.  0.
          5    1    3    3  502    0 -0.42461008246E+02 -0.27206204352E+02  0.35243302935E+03  0.35604722630E+03  0.41800000000E+01 0.  1.
         -5    1    3    3    0  502  0.52712651681E+02  0.52875943081E+02  0.33854558456E+03  0.34670603431E+03  0.41800000000E+01 0.  1.
        -11    1    4    4    0    0  0.19574302170E+02 -0.16724009274E+02  0.26817791400E+01  0.25885087039E+02  0.00000000000E+00 0. -1.
         11    1    4    4    0    0 -0.29825945605E+02 -0.89457294545E+01  0.15279816461E+03  0.15593874507E+03  0.00000000000E+00 0.  1.
</event>
<event>
 8    1  0.6637272E-009  0.9961694E+02  0.7561462E-02  0.1281104E+00
         -2   -1    0    0    0  501 -0.00000000000E+00  0.00000000000E+00  0.53030901432E+02  0.53030901432E+02  0.00000000000E+00 0.  1.
          2   -1    0    0  501    0  0.00000000000E+00 -0.00000000000E+00 -0.34763763170E+03  0.34763763170E+03  0.00000000000E+00 0. -1.
         25    2    1    2    0    0  0.21789551228E+01  0.45019228148E+02 -0.26117163680E+03  0.29306914793E+03  0.12508965926E+03 0.  0.
         23    2    1    2    0    0 -0.21789551228E+01 -0.45019228148E+02 -0.33435093472E+02  0.10759938520E+03  0.91805465368E+02 0.  0.
          5    1    3    3  502    0 -0.19704154225E+02  0.84061648623E+02 -0.19217801778E+03  0.21072369915E+03  0.41800000000E+01 0.  1.
         -5    1    3    3    0  502  0.21883109348E+02 -0.39042420475E+02 -0.68993619016E+02  0.82345448789E+02  0.41800000000E+01 0.  1.
        -11    1    4    4    0    0  0.75998577016E+01  0.96616953221E+01  0.24454059585E+02  0.27369823232E+02  0.00000000000E+00 0.  1.
         11    1    4    4    0    0 -0.97788128244E+01 -0.54680923470E+02 -0.57889153057E+02  0.80229561967E+02  0.00000000000E+00 0. -1.
</event>
<event>
 8    1  0.6637272E-009  0.8900327E+02  0.7561462E-02  0.1305284E+00
          1   -1    0    0  501    0  0.00000000000E+00  0.00000000000E+00  0.39478749545E+03  0.39478749545E+03  0.00000000000E+00 0. -1.
         -1   -1    0    0    0  501 -0.00000000000E+00 -0.00000000000E+00 -0.42594890285E+02  0.42594890285E+02  0.00000000000E+00 0.  1.
         25    2    1    2    0    0 -0.49918287434E+02  0.44705313385E+02  0.23691254299E+03  0.27616222588E+03  0.12509045331E+03 0.  0.
         23    2    1    2    0    0  0.49918287434E+02 -0.44705313385E+02  0.11528006217E+03  0.16122015985E+03  0.90620343986E+02 0.  0.
          5    1    3    3  502    0 -0.68495240281E-01 -0.14284937252E+02 -0.96594822093E+01  0.17743791039E+02  0.41800000000E+01 0. -1.
         -5    1    3    3    0  502 -0.49849792193E+02  0.58990250638E+02  0.24657202520E+03  0.25841843484E+03  0.41800000000E+01 0. -1.
        -11    1    4    4    0    0  0.43932529020E+02 -0.57080879342E+02  0.12508006300E+03  0.14433750743E+03  0.00000000000E+00 0. -1.
         11    1    4    4    0    0  0.59857584141E+01  0.12375565956E+02 -0.98000008280E+01  0.16882652421E+02  0.00000000000E+00 0.  1.
</event>
<event>
 8    1  0.6637272E-009  0.6577064E+02  0.7561462E-02  0.1375096E+00
          2   -1    0    0  501    0  0.00000000000E+00  0.00000000000E+00  0.43752483319E+02  0.43752483319E+02  0.00000000000E+00 0. -1.
         -2   -1    0    0    0  501 -0.00000000000E+00 -0.00000000000E+00 -0.35333513554E+03  0.35333513554E+03  0.00000000000E+00 0.  1.
         25    2    1    2    0    0  0.12950823676E+02 -0.36179896340E+02 -0.24794331023E+03  0.28035576685E+03  0.12508701846E+03 0.  0.
         23    2    1    2    0    0 -0.12950823676E+02  0.36179896340E+02 -0.61639341992E+02  0.11673185201E+03  0.91379472851E+02 0.  0.
          5    1    3    3  502    0  0.27177439898E+02 -0.33831744633E+02 -0.13795729306E+02  0.45727395852E+02  0.41800000000E+01 0. -1.
         -5    1    3    3    0  502 -0.14226616222E+02 -0.23481517066E+01 -0.23414758093E+03  0.23462837100E+03  0.41800000000E+01 0. -1.
        -11    1    4    4    0    0 -0.16192048903E+02 -0.14747494352E+02  0.13628784364E+02  0.25795635301E+02  0.00000000000E+00 0. -1.
         11    1    4    4    0    0  0.32412252264E+01  0.50927390691E+02 -0.75268126356E+02  0.90936216706E+02  0.00000000000E+00 0.  1.
</event>
<event>
 8    1  0.6637272E-009  0.1286993E+03  0.7561462E-02  0.1229399E+00
          2   -1    0    0  501    0  0.00000000000E+00  0.00000000000E+00  0.10201285863E+04  0.10201285863E+04  0.00000000000E+00 0. -1.
         -2   -1    0    0    0  501 -0.00000000000E+00 -0.00000000000E+00 -0.22109344111E+02  0.22109344111E+02  0.00000000000E+00 0.  1.
         25    2    1    2    0    0 -0.66832441089E+02  0.51978211205E+02  0.33330174912E+03  0.36593148681E+03  0.12508991746E+03 0.  0.
         23    2    1    2    0    0  0.66832441089E+02 -0.51978211205E+02  0.66471749305E+03  0.67630644358E+03  0.91502734611E+02 0.  0.
          5    1    3    3  502    0 -0.25321360020E+02 -0.30923410839E+02  0.34222259695E+02  0.52783179800E+02  0.41800000000E+01 0. -1.
         -5    1    3    3    0  502 -0.41511081069E+02  0.82901622045E+02  0.29907948942E+03  0.31314830701E+03  0.41800000000E+01 0. -1.
        -11    1    4    4    0    0 -0.77730055723E+01 -0.49134022290E+02  0.28742349217E+03  0.29169647857E+03  0.00000000000E+00 0. -1.
         11    1    4    4    0    0  0.74605446661E+02 -0.28441889149E+01  0.37729400088E+03  0.38460996501E+03  0.00000000000E+00 0.  1.
</event>
<event>
 8    1  0.6637272E-009  0.9900516E+02  0.7561462E-02  0.1282402E+00
          1   -1    0    0  501    0  0.00000000000E+00  0.00000000000E+00  0.27077341935E+03  0.27077341935E+03  0.00000000000E+00 0. -1.
         -1   -1    0    0    0  501 -0.00000000000E+00 -0.00000000000E+00 -0.71490428198E+02  0.71490428198E+02  0.00000000000E+00 0.  1.
         25    2    1    2    0    0 -0.64978152177E+02  0.34251530036E+02  0.16748756641E+03  0.22157040197E+03  0.12508409394E+03 0.  0.
         23    2    1    2    0    0  0.64978152177E+02 -0.34251530036E+02  0.31795424733E+02  0.12069344557E+03  0.90336212006E+02 0.  0.
          5    1    3    3  502    0 -0.23837066896E+02  0.64388611856E+02  0.15398362273E+03  0.16864912559E+03  0.41800000000E+01 0. -1.
         -5    1    3    3    0  502 -0.41141085281E+02 -0.30137081820E+02  0.13503943688E+02  0.52921276382E+02  0.41800000000E+01 0. -1.
        -11    1    4    4    0    0  0.73468450629E+01 -0.15993468505E+02  0.53608864560E+02  0.56424086404E+02  0.00000000000E+00 0. -1.
         11    1    4    4    0    0  0.57631307114E+02 -0.18258061531E+02 -0.21813439826E+02  0.64269359166E+02  0.00000000000E+00 0.  1.
</event>
<event>
 8    1  0.6637272E-009  0.1128884E+03  0.7561462E-02  0.1255313E+00
          1   -1    0    0  501    0  0.00000000000E+00  0.00000000000E+00  0.20633363837E+03  0.20633363837E+03  0.00000000000E+00 0. -1.
         -1   -1    0    0    0  501 -0.00000000000E+00 -0.00000000000E+00 -0.83388241253E+02  0.83388241253E+02  0.00000000000E+00 0.  1.
         25    2    1    2    0    0  0.28325084312E+02  0.42457016034E+02  0.12622548447E+03  0.18489039279E+03  0.12508667317E+03 0.  0.
         23    2    1    2    0    0 -0.28325084312E+02 -0.42457016034E+02 -0.32800873522E+01  0.10483148684E+03  0.91509415075E+02 0.  0.
          5    1    3    3  502    0 -0.34978718680E+02  0.45551047517E+02  0.19689619130E+02  0.60856899296E+02  0.41800000000E+01 0.  1.
         -5    1    3    3    0  502  0.63303802992E+02 -0.30940314837E+01  0.10653586534E+03  0.12403349349E+03  0.41800000000E+01 0.  1.
        -11    1    4    4    0    0 -0.44473638941E+01 -0.68902472689E+02 -0.43770616135E+01  0.69184452420E+02  0.00000000000E+00 0. -1.
         11    1    4    4    0    0 -0.23877720418E+02  0.26445456656E+02  0.10969742613E+01  0.35647034415E+02  0.00000000000E+00 0.  1.
</event>
<event>
 8    1  0.6637272E-009  0.1336914E+03  0.7561462E-02  0.1222079E+00
         -2   -1    0    0    0  501 -0.00000000000E+00  0.00000000000E+00  0.58287479206E+02  0.58287479206E+02  0.00000000000E+00 0.  1.
          2   -1    0    0  501    0  0.00000000000E+00 -0.00000000000E+00 -0.44519589179E+03  0.44519589179E+03  0.00000000000E+00 0. -1.
         25    2    1    2    0    0  0.61635246106E+02  0.10198457487E+03 -0.19322208318E+03  0.25919440694E+03  0.12508880879E+03 0.  0.
         23    2    1    2    0    0 -0.61635246106E+02 -0.10198457487E+03 -0.19368632941E+03  0.24428896406E+03  0.89235344399E+02 0.  0.
          5    1    3    3  502    0  0.33070473671E+02  0.66211725722E+02 -0.15642508900E+02  0.75761529397E+02  0.41800000000E+01 0.  1.
         -5    1    3    3    0  502  0.28564772436E+02  0.35772849150E+02 -0.17757957428E+03  0.18343287754E+03  0.41800000000E+01 0.  1.
        -11    1    4    4    0    0 -0.72190946012E+02 -0.36385190718E+02 -0.88409873887E+02  0.11979866690E+03  0.00000000000E+00 0.  1.
         11    1    4    4    0    0  0.10555699905E+02 -0.65599384154E+02 -0.10527645552E+03  0.12449029717E+03  0.00000000000E+00 0. -1.
</event>
<event>
 8    1  0.6637272E-009  0.1105825E+03  0.7561462E-02  0.1259495E+00
         -2   -1    0    0    0  501 -0.00000000000E+00  0.00000000000E+00  0.83528722035E+02  0.83528722035E+02  0.00000000000E+00 0.  1.
          2   -1    0    0  501    0  0.00000000000E+00 -0.00000000000E+00 -0.25541810430E+03  0.25541810430E+03  0.00000000000E+00 0. -1.
         25    2    1    2    0    0 -0.35614606888E+01  0.91686470501E+02 -0.12632615086E+03  0.20006625082E+03  0.12509642461E+03 0.  0.
         23    2    1    2    0    0  0.35614606888E+01 -0.91686470501E+02 -0.45563231406E+02  0.13888057552E+03  0.93769469045E+02 0.  0.
          5    1    3    3  502    0  0.33019287737E+01  0.95460960285E+02 -0.14825366117E+03  0.17640951823E+03  0.41800000000E+01 0. -1.
         -5    1    3    3    0  502 -0.68633894625E+01 -0.37744897842E+01  0.21927510313E+02  0.23656732584E+02  0.41800000000E+01 0. -1.
        -11    1    4    4    0    0 -0.34259845345E+02 -0.40851825570E+02 -0.52887222484E+02  0.75097716061E+02  0.00000000000E+00 0. -1.
         11    1    4    4    0    0  0.37821306033E+02 -0.50834644931E+02  0.73239910780E+01  0.63782859458E+02  0.00000000000E+00 0.  1.
</event>
<event>
 8    1  0.6637272E-009  0.1452698E+03  0.7561462E-02  0.1206409E+00
         -1   -1    0    0    0  501 -0.00000000000E+00  0.00000000000E+00  0.32815136097E+03  0.32815136097E+03  0.00000000000E+00 0.  1.
          1   -1    0    0  501    0  0.00000000000E+00 -0.00000000000E+00 -0.79661526965E+02  0.79661526965E+02  0.00000000000E+00 0. -1.
         25    2    1    2    0    0 -0.92170472848E+02  0.61980709744E+02  0.18749660745E+03  0.25127426956E+03  0.12508707485E+03 0.  0.
         23    2    1    2    0    0  0.92170472848E+02 -0.61980709744E+02  0.60993226561E+02  0.15653861838E+03  0.91908437650E+02 0.  0.
          5    1    3    3  502    0 -0.17789671617E+02 -0.27847581008E+02  0.36385226039E+01  0.33506289424E+02  0.41800000000E+01 0.  1.
         -5    1    3    3    0  502 -0.74380801231E+02  0.89828290752E+02  0.18385808484E+03  0.21776798014E+03  0.41800000000E+01 0.  1.
        -11    1    4    4    0    0  0.60432773632E+02 -0.82848198942E+02  0.59428747266E+02  0.11852307876E+03  0.00000000000E+00 0.  1.
         11    1    4    4    0    0  0.31737699216E+02  0.20867489198E+02  0.15644792949E+01  0.38015539617E+02  0.00000000000E+00 0. -1.
</event>
<event>
 8    1  0.6637272E-009  0.9394453E+02  0.7561462E-02  0.1293571E+00
          3   -1    0    0  501    0  0.00000000000E+00  0.00000000000E+00  0.52928500435E+03  0.52928500435E+03  0.00000000000E+00 0. -1.
         -3   -1    0    0    0  501 -0.00000000000E+00 -0.00000000000E+00 -0.37286264082E+02  0.37286264082E+02  0.00000000000E+00 0.  1.
         25    2    1    2    0    0  0.45419433234E+02  0.72622162868E+02  0.32898161951E+03  0.36224145289E+03  0.12511219269E+03 0.  0.
         23    2    1    2    0    0 -0.45419433234E+02 -0.72622162868E+02  0.16301712076E+03  0.20432981554E+03  0.88539191349E+02 0.  0.
          5    1    3    3  502    0  0.25110790777E+02 -0.53818007364E+00  0.25459848203E+03  0.25586852269E+03  0.41800000000E+01 0.  1.
         -5    1    3    3    0  502  0.20308642457E+02  0.73160342941E+02  0.74383137478E+02  0.10637293020E+03  0.41800000000E+01 0.  1.
        -11    1    4    4    0    0 -0.21275151509E+02 -0.44473516767E+02  0.15965414875E+03  0.16709270773E+03  0.00000000000E+00 0. -1.
         11    1    4    4    0    0 -0.24144281725E+02 -0.28148646101E+02  0.33629720113E+01  0.37237107810E+02  0.00000000000E+00 0.  1.
</event>
<event>
 8    1  0.6637272E-009  0.1512790E+03  0.7561462E-02  0.1198910E+00
         -2   -1    0    0    0  501 -0.00000000000E+00  0.00000000000E+00  0.25754404905E+02  0.25754404905E+02  0.00000000000E+00 0.  1.
          2   -1    0    0  501    0  0.00000000000E+00 -0.00000000000E+00 -0.14201240320E+04  0.14201240320E+04  0.00000000000E+00 0. -1.
         25    2    1    2    0    0 -0.12770873187E+03  0.67529574770E+02 -0.95299419920E+03  0.97196422927E+03  0.12508699213E+03 0.  0.
         23    2    1    2    0    0  0.12770873187E+03 -0.67529574770E+02 -0.44137542788E+03  0.47391420762E+03  0.94406801595E+02 0.  0.
          5    1    3    3  502    0  0.49319903747E+01 -0.37084920587E+01 -0.32312829484E+00  0.74601779000E+01  0.41800000000E+01 0. -1.
         -5    1    3    3    0  502 -0.13264072224E+03  0.71238066828E+02 -0.95267107091E+03  0.96450405137E+03  0.41800000000E+01 0. -1.
        -11    1    4    4    0    0  0.32812485438E+02 -0.18621873149E+02 -0.28020555383E+02  0.46995583667E+02  0.00000000000E+00 0.  1.
         11    1    4    4    0    0  0.94896246428E+02 -0.48907701621E+02 -0.41335487249E+03  0.42691862395E+03  0.00000000000E+00 0. -1.
</event>
<event>
 8    1  0.6637272E-009  0.1412577E+03  0.7561462E-02  0.1211647E+00
         -1   -1    0    0    0  501 -0.00000000000E+00  0.00000000000E+00  0.37410736852E+03  0.37410736852E+03  0.00000000000E+00 0.  1.
          1   -1    0    0  501    0  0.00000000000E+00 -0.00000000000E+00 -0.63795032798E+02  0.63795032798E+02  0.00000000000E+00 0. -1.
         25    2    1    2    0    0  0.63203818242E+02 -0.83563169509E+02  0.11481829352E+03  0.19950906516E+03  0.12507238150E+03 0.  0.
         23    2    1    2    0    0 -0.63203818242E+02  0.83563169509E+02  0.19549404220E+03  0.23839333616E+03  0.87383844341E+02 0.  0.
          5    1    3    3  502    0  0.60244073087E+02 -0.10728070033E+03  0.12287965958E+03  0.17394073744E+03  0.41800000000E+01 0. -1.
         -5    1    3    3    0  502  0.29597451549E+01  0.23717530818E+02 -0.80613660528E+01  0.25568327715E+02  0.41800000000E+01 0. -1.
        -11    1    4    4    0    0  0.11579854295E+02  0.53172299425E+02  0.95122195407E+02  0.10958840500E+03  0.00000000000E+00 0.  1.
         11    1    4    4    0    0 -0.74783672537E+02  0.30390870084E+02  0.10037184679E+03  0.12880493116E+03  0.00000000000E+00 0. -1.
</event>
<event>
 8    1  0.6637272E-009  0.1154502E+03  0.7561462E-02  0.1250797E+00
         -2   -1    0    0    0  501 -0.00000000000E+00  0.00000000000E+00  0.34892896011E+02  0.34892896011E+02  0.00000000000E+00 0.  1.
          2   -1    0    0  501    0  0.00000000000E+00 -0.00000000000E+00 -0.41698534601E+03  0.41698534601E+03  0.00000000000E+00 0. -1.
         25    2    1    2    0    0  0.84616536584E+01 -0.39755313883E+02 -0.25871541404E+03  0.29022929130E+03  0.12508913424E+03 0.  0.
         23    2    1    2    0    0 -0.84616536584E+01  0.39755313883E+02 -0.12337703596E+03  0.16164895072E+03  0.96210216199E+02 0.  0.
          5    1    3    3  502    0 -0.12863065500E+02 -0.80523688569E+02 -0.19606407251E+03  0.21238671287E+03  0.41800000000E+01 0. -1.
         -5    1    3    3    0  502  0.21324719158E+02  0.40768374686E+02 -0.62651341525E+02  0.77842578430E+02  0.41800000000E+01 0. -1.
        -11    1    4    4    0    0  0.45187851177E+01 -0.30891943693E+02 -0.50145164453E+02  0.59070035738E+02  0.00000000000E+00 0. -1.
         11    1    4    4    0    0 -0.12980438776E+02  0.70647257576E+02 -0.73231871508E+02  0.10257891498E+03  0.00000000000E+00 0.  1.
</event>
<event>
 8    1  0.6637272E-009  0.1157987E+03  0.7561462E-02  0.1250193E+00
          3   -1    0    0  501    0  0.00000000000E+00  0.00000000000E+00  0.29787545551E+03  0.29787545551E+03  0.00000000000E+00 0. -1.
         -3   -1    0    0    0  501 -0.00000000000E+00 -0.00000000000E+00 -0.76873291888E+02  0.76873291888E+02  0.00000000000E+00 0.  1.
         25    2    1    2    0    0 -0.54382407578E+02  0.73568106324E+02  0.54788306418E+02  0.16437466906E+03  0.12509021059E+03 0.  0.
         23    2    1    2    0    0  0.54382407578E+02 -0.73568106324E+02  0.16621385720E+03  0.21037407834E+03  0.90887259771E+02 0.  0.
          5    1    3    3  502    0 -0.67215245703E+02  0.37576532335E+01  0.63626455638E+02  0.92724362871E+02  0.41800000000E+01 0. -1.
         -5    1    3    3    0  502  0.12832838125E+02  0.69810453091E+02 -0.88381492202E+01  0.71650306187E+02  0.41800000000E+01 0. -1.
        -11    1    4    4    0    0  0.18409651679E+02 -0.12783197574E+02 -0.68629253501E+01  0.23439819955E+02  0.00000000000E+00 0.  1.
         11    1    4    4    0    0  0.35972755899E+02 -0.60784908750E+02  0.17307678255E+03  0.18693425838E+03  0.00000000000E+00 0. -1.
</event>
<event>
 8    1  0.6637272E-009  0.9456226E+02  0.7561462E-02  0.1292165E+00
         -2   -1    0    0    0  501 -0.00000000000E+00  0.00000000000E+00  0.13707114195E+03  0.13707114195E+03  0.00000000000E+00 0.  1.
          2   -1    0    0  501    0  0.00000000000E+00 -0.00000000000E+00 -0.14792540345E+03  0.14792540345E+03  0.00000000000E+00 0. -1.
         25    2    1    2    0    0 -0.42311069159E+02 -0.39400079542E+02  0.71619044999E+02  0.15530511129E+03  0.12509115535E+03 0.  0.
         23    2    1    2    0    0  0.42311069159E+02  0.39400079542E+02 -0.82473306501E+02  0.12969143411E+03  0.81703298310E+02 0.  0.
          5    1    3    3  502    0 -0.70908042814E+02  0.97865563674E+01  0.11840819718E+02  0.72673273168E+02  0.41800000000E+01 0.  1.
         -5    1    3    3    0  502  0.28596973655E+02 -0.49186635909E+02  0.59778225281E+02  0.82631838126E+02  0.41800000000E+01 0.  1.
        -11    1    4    4    0    0  0.24201096235E+02  0.10754007147E+02  0.12183149243E+02  0.29150829391E+02  0.00000000000E+00 0.  1.
         11    1    4    4    0    0  0.18109972924E+02  0.28646072395E+02 -0.94656455744E+02  0.10054060472E+03  0.00000000000E+00 0. -1.
</event>
<event>
 8    1  0.6637272E-009  0.1440633E+03  0.7561462E-02  0.1207964E+00
          1   -1    0    0  501    0  0.00000000000E+00  0.00000000000E+00  0.95511936658E+03  0.95511936658E+03  0.00000000000E+00 0. -1.
         -1   -1    0    0    0  501 -0.00000000000E+00 -0.00000000000E+00 -0.39615008178E+02  0.39615008178E+02  0.00000000000E+00 0.  1.
         25    2    1    2    0    0  0.55709638096E+02 -0.12137596181E+03  0.71195529301E+03  0.73509421796E+03  0.12508989628E+03 0.  0.
         23    2    1    2    0    0 -0.55709638096E+02  0.12137596181E+03  0.20354906539E+03  0.25964015680E+03  0.90250213959E+02 0.  0.
          5    1    3    3  502    0 -0.16753061943E+02 -0.47776324964E+02  0.45944596407E+03  0.46224593953E+03  0.41800000000E+01 0. -1.
         -5    1    3    3    0  502  0.72462700038E+02 -0.73599636842E+02  0.25250932894E+03  0.27284827843E+03  0.41800000000E+01 0. -1.
        -11    1    4    4    0    0 -0.33988812891E+02  0.61574294987E+02  0.33155383900E+02  0.77755467245E+02  0.00000000000E+00 0.  1.
         11    1    4    4    0    0 -0.21720825205E+02  0.59801666818E+02  0.17039368149E+03  0.18188468956E+03  0.00000000000E+00 0. -1.
</event>
<event>
 8    1  0.6637272E-009  0.9129307E+02  0.7561462E-02  0.1299750E+00
          2   -1    0    0  501    0  0.00000000000E+00  0.00000000000E+00  0.51740051216E+03  0.51740051216E+03  0.00000000000E+00 0. -1.
         -2   -1    0    0    0  501 -0.00000000000E+00 -0.00000000000E+00 -0.30715741033E+02  0.30715741033E+02  0.00000000000E+00 0.  1.
         25    2    1    2    0    0 -0.20562290031E+01  0.71293306082E+01  0.13361847698E+03  0.18318391525E+03  0.12508954386E+03 0.  0.
         23    2    1    2    0    0  0.20562290031E+01 -0.71293306082E+01  0.35306629415E+03  0.36493233795E+03  0.92004063949E+02 0.  0.
          5    1    3    3  502    0  0.15146719920E+02 -0.42104998744E+02  0.61053269276E+01  0.45354177982E+02  0.41800000000E+01 0. -1.
         -5    1    3    3    0  502 -0.17202948923E+02  0.49234329352E+02  0.12751315005E+03  0.13782973726E+03  0.41800000000E+01 0. -1.
        -11    1    4    4    0    0  0.39226158052E+02  0.15079638585E+02  0.10468732787E+03  0.11280746249E+03  0.00000000000E+00 0. -1.
         11    1    4    4    0    0 -0.37169929049E+02 -0.22208969193E+02  0.24837896628E+03  0.25212487546E+03  0.00000000000E+00 0.  1.
</event>
<event>
 8    1  0.6637272E-009  0.1157736E+03  0.7561462E-02  0.1250237E+00
         -2   -1    0    0    0  501 -0.00000000000E+00  0.00000000000E+00  0.45480414333E+02  0.45480414333E+02  0.00000000000E+00 0.  1.
          2   -1    0    0  501    0  0.00000000000E+00 -0.00000000000E+00 -0.33796983502E+03  0.33796983502E+03  0.00000000000E+00 0. -1.
         25    2    1    2    0    0  0.35637115041E+02 -0.47078511103E+02 -0.17877304768E+03  0.22605338569E+03  0.12511570817E+03 0.  0.
         23    2    1    2    0    0 -0.35637115041E+02  0.47078511103E+02 -0.11371637300E+03  0.15739686365E+03  0.91410989619E+02 0.  0.
          5    1    3    3  502    0  0.21872408307E+02 -0.83773943814E+02 -0.16092500205E+03  0.18278622648E+03  0.41800000000E+01 0.  1.
         -5    1    3    3    0  502  0.13764706735E+02  0.36695432711E+02 -0.17848045628E+02  0.43267159210E+02  0.41800000000E+01 0.  1.
        -11    1    4    4    0    0 -0.62310865409E+02  0.48161713718E+02 -0.66142227655E+02  0.10284448889E+03  0.00000000000E+00 0.  1.
         11    1    4    4    0    0  0.26673750368E+02 -0.10832026156E+01 -0.47574145348E+02  0.54552374762E+02  0.00000000000E+00 0. -1.
</event>
<event>
 8    1  0.6637272E-009  0.7336088E+02  0.7561462E-02  0.1349023E+00
          2   -1    0    0  501    0  0.00000000000E+00  0.00000000000E+00  0.15804770546E+03  0.15804770546E+03  0.00000000000E+00 0. -1.
         -2   -1    0    0    0  501 -0.00000000000E+00 -0.00000000000E+00 -0.11179629849E+03  0.11179629849E+03  0.00000000000E+00 0.  1.
         25    2    1    2    0    0  0.37295850748E+02  0.49146552619E+01 -0.42290220211E+02  0.13730898129E+03  0.12510059672E+03 0.  0.
         23    2    1    2    0    0 -0.37295850748E+02 -0.49146552619E+01  0.88541627178E+02  0.13253502265E+03  0.91163469478E+02 0.  0.
          5    1    3    3  502    0  0.30419434729E+02 -0.92059210421E+01  0.41228230476E+02  0.52223848763E+02  0.41800000000E+01 0. -1.
         -5    1    3    3    0  502  0.68764160187E+01  0.14120576304E+02 -0.83518450687E+02  0.85085132530E+02  0.41800000000E+01 0. -1.
        -11    1    4    4    0    0 -0.44798670363E+02 -0.41499878638E+02  0.59057444431E+02  0.84952589931E+02  0.00000000000E+00 0. -1.
         11    1    4    4    0    0  0.75028196150E+01  0.36585223376E+02  0.29484182747E+02  0.47582432723E+02  0.00000000000E+00 0.  1.
</event>
<event>
 8    1  0.6637272E-009  0.1104046E+03  0.7561462E-02  0.1259822E+00
         -3   -1    0    0    0  501 -0.00000000000E+00  0.00000000000E+00  0.13923776184E+03  0.13923776184E+03  0.00000000000E+00 0.  1.
          3   -1    0    0  501    0  0.00000000000E+00 -0.00000000000E+00 -0.11291148546E+03  0.11291148546E+03  0.00000000000E+00 0. -1.
         25    2    1    2    0    0 -0.25543614019E+02  0.48539541212E+02 -0.36799760395E+02  0.14145946487E+03  0.12509194441E+03 0.  0.
         23    2    1    2    0    0  0.25543614019E+02 -0.48539541212E+02  0.63126036780E+02  0.11068978243E+03  0.72517364384E+02 0.  0.
          5    1    3    3  502    0 -0.49935094563E+02  0.77427520870E+02 -0.44886244764E+02  0.10257086344E+03  0.41800000000E+01 0.  1.
         -5    1    3    3    0  502  0.24391480544E+02 -0.28887979658E+02  0.80864843691E+01  0.38888601432E+02  0.41800000000E+01 0.  1.
        -11    1    4    4    0    0 -0.16883066646E+02 -0.44889267170E+02  0.28360599326E+02  0.55717213144E+02  0.00000000000E+00 0.  1.
         11    1    4    4    0    0  0.42426680665E+02 -0.36502740416E+01  0.34765437454E+02  0.54972569289E+02  0.00000000000E+00 0. -1.
</event>
<event>
 8    1  0.6637272E-009  0.9970714E+02  0.7561462E-02  0.1280913E+00
          2   -1    0    0  501    0  0.00000000000E+00  0.00000000000E+00  0.49040813062E+02  0.49040813062E+02  0.00000000000E+00 0. -1.
         -2   -1    0    0    0  501 -0.00000000000E+00 -0.00000000000E+00 -0.29761939790E+03  0.29761939790E+03  0.00000000000E+00 0.  1.
         25    2    1    2    0    0  0.47605609801E+02 -0.32573464559E+02 -0.15285323848E+03  0.20576456927E+03  0.12509045037E+03 0.  0.
         23    2    1    2    0    0 -0.47605609801E+02  0.32573464559E+02 -0.95725346360E+02  0.14089564169E+03  0.85795776323E+02 0.  0.
          5    1    3    3  502    0  0.32558164099E+02 -0.76948924554E+02 -0.64382299542E+02  0.10556383819E+03  0.41800000000E+01 0.  1.
         -5    1    3    3    0  502  0.15047445703E+02  0.44375459995E+02 -0.88470938934E+02  0.10020073107E+03  0.41800000000E+01 0.  1.
        -11    1    4    4    0    0 -0.49115545118E+02  0.15399949952E+02 -0.87297078902E+01  0.52208265922E+02  0.00000000000E+00 0. -1.
         11    1    4    4    0    0  0.15099353165E+01  0.17173514607E+02 -0.86995638470E+02  0.88687375772E+02  0.00000000000E+00 0.  1.
</event>
<event>
 8    1  0.6637272E-009  0.1141491E+03  0.7561462E-02  0.1253074E+00
         -4   -1    0    0    0  501 -0.00000000000E+00  0.00000000000E+00  0.43849144617E+02  0.43849144617E+02  0.00000000000E+00 0.  1.
          4   -1    0    0  501    0  0.00000000000E+00 -0.00000000000E+00 -0.11413242085E+04  0.11413242085E+04  0.00000000000E+00 0. -1.
         25    2    1    2    0    0 -0.75790861502E+02 -0.58011630071E+02 -0.10169527033E+04  0.10290527752E+04  0.12508880624E+03 0.  0.
         23    2    1    2    0    0  0.75790861502E+02  0.58011630071E+02 -0.80522360571E+02  0.15612057793E+03  0.93702616767E+02 0.  0.
          5    1    3    3  502    0 -0.62894840429E+02 -0.41789492621E+02 -0.99737800079E+03  0.10002412067E+04  0.41800000000E+01 0. -1.
         -5    1    3    3    0  502 -0.12896021073E+02 -0.16222137450E+02 -0.19574702559E+02  0.28811568566E+02  0.41800000000E+01 0. -1.
        -11    1    4    4    0    0  0.78262095689E+02  0.49589395064E+01 -0.33834814805E+02  0.85406916556E+02  0.00000000000E+00 0.  1.
         11    1    4    4    0    0 -0.24712341874E+01  0.53052690564E+02 -0.46687545766E+02  0.70713661369E+02  0.00000000000E+00 0. -1.
</event>
<event>
 8    1  0.6637272E-009  0.1270796E+03  0.7561462E-02  0.1231855E+00
          2   -1    0    0  501    0  0.00000000000E+00  0.00000000000E+00  0.14878540811E+03  0.14878540811E+03  0.00000000000E+00 0. -1.
         -2   -1    0    0    0  501 -0.00000000000E+00 -0.00000000000E+00 -0.18118639244E+03  0.18118639244E+03  0.00000000000E+00 0.  1.
         25    2    1    2    0    0 -0.84815357610E+02  0.85324181472E+02  0.40184455812E+01  0.17360249775E+03  0.12509124066E+03 0.  0.
         23    2    1    2    0    0  0.84815357610E+02 -0.85324181472E+02 -0.36419429911E+02  0.15636930281E+03  0.93011414111E+02 0.  0.
          5    1    3    3  502    0  0.62465817010E+01  0.77477086085E+01  0.45620385359E+02  0.46880046202E+02  0.41800000000E+01 0. -1.
         -5    1    3    3    0  502 -0.91061939311E+02  0.77576472864E+02 -0.41601939777E+02  0.12672245155E+03  0.41800000000E+01 0. -1.
        -11    1    4    4    0    0  0.35521948080E+02 -0.16906238862E+02 -0.57292352842E+02  0.69498513667E+02  0.00000000000E+00 0.  1.
         11    1    4    4    0    0  0.49293409529E+02 -0.68417942610E+02  0.20872922931E+02  0.86870789140E+02  0.00000000000E+00 0. -1.
</event>
<event>
 8    1  0.6637272E-009  0.1340975E+03  0.7561462E-02  0.1221499E+00
          1   -1    0    0  501    0  0.00000000000E+00  0.00000000000E+00  0.77094461737E+03  0.77094461737E+03  0.00000000000E+00 0. -1.
         -1   -1    0    0    0  501 -0.00000000000E+00 -0.00000000000E+00 -0.35438376486E+02  0.35438376486E+02  0.00000000000E+00 0.  1.
         25    2    1    2    0    0  0.59759270035E+02 -0.83111856875E+02  0.56203723077E+03  0.58481756724E+03  0.12508791738E+03 0.  0.
         23    2    1    2    0    0 -0.59759270035E+02  0.83111856875E+02  0.17346901011E+03  0.22156542661E+03  0.92309206975E+02 0.  0.
          5    1    3    3  502    0  0.20139241868E+02 -0.10783298637E+03  0.45328693185E+03  0.46639045552E+03  0.41800000000E+01 0.  1.
         -5    1    3    3    0  502  0.39620028166E+02  0.24721129498E+02  0.10875029892E+03  0.11842711172E+03  0.41800000000E+01 0.  1.
        -11    1    4    4    0    0  0.18360580205E+01  0.30413630879E+02  0.42090944578E+00  0.30471908655E+02  0.00000000000E+00 0.  1.
         11    1    4    4    0    0 -0.61595328055E+02  0.52698225997E+02  0.17304810066E+03  0.19109351796E+03  0.00000000000E+00 0. -1.
</event>
<event>
 8    1  0.6637272E-009  0.2391150E+03  0.7561462E-02  0.1120384E+00
         -2   -1    0    0    0  501 -0.00000000000E+00  0.00000000000E+00  0.25781822434E+02  0.25781822434E+02  0.00000000000E+00 0. -1.
          2   -1    0    0  501    0  0.00000000000E+00 -0.00000000000E+00 -0.29968702632E+04  0.29968702632E+04  0.00000000000E+00 0.  1.
         25    2    1    2    0    0  0.91830601237E+02  0.21208607609E+03 -0.21127909555E+04  0.21290721216E+04  0.12509642104E+03 0.  0.
         23    2    1    2    0    0 -0.91830601237E+02 -0.21208607609E+03 -0.85829748525E+03  0.89357996397E+03  0.91636323705E+02 0.  0.
          5    1    3    3  502    0  0.54221092158E+02  0.18096056238E+03 -0.11833966211E+04  0.11983871191E+04  0.41800000000E+01 0. -1.
         -5    1    3    3    0  502  0.37609509078E+02  0.31125513711E+02 -0.92939433443E+03  0.93068500259E+03  0.41800000000E+01 0. -1.
        -11    1    4    4    0    0 -0.95686188016E+02 -0.14903355348E+03 -0.72121584043E+03  0.74264334315E+03  0.00000000000E+00 0.  1.
         11    1    4    4    0    0  0.38555867799E+01 -0.63052522607E+02 -0.13708164482E+03  0.15093662082E+03  0.00000000000E+00 0. -1.
</event>
<event>
 8    1  0.6637272E-009  0.1245392E+03  0.7561462E-02  0.1235791E+00
          2   -1    0    0  501    0  0.00000000000E+00  0.00000000000E+00  0.55621583945E+03  0.55621583945E+03  0.00000000000E+00 0. -1.
         -2   -1    0    0    0  501 -0.00000000000E+00 -0.00000000000E+00 -0.37135578817E+02  0.37135578817E+02  0.00000000000E+00 0.  1.
         25    2    1    2    0    0 -0.53352851123E+02  0.34210751943E+02  0.13950812248E+03  0.19780845910E+03  0.12509503580E+03 0.  0.
         23    2    1    2    0    0  0.53352851123E+02 -0.34210751943E+02  0.37957213815E+03  0.39554295916E+03  0.91445733721E+02 0.  0.
          5    1    3    3  502    0 -0.13066862152E+02  0.78090227097E+02  0.92364612851E+02  0.12172723837E+03  0.41800000000E+01 0.  1.
         -5    1    3    3    0  502 -0.40285988971E+02 -0.43879475154E+02  0.47143509634E+02  0.76081220730E+02  0.41800000000E+01 0.  1.
        -11    1    4    4    0    0  0.78309637385E+02 -0.18105911396E+02  0.30092565887E+03  0.31147467875E+03  0.00000000000E+00 0. -1.
         11    1    4    4    0    0 -0.24956786261E+02 -0.16104840547E+02  0.78646479271E+02  0.84068280411E+02  0.00000000000E+00 0.  1.
</event>
<event>
 8    1  0.6637272E-009  0.1272649E+03  0.7561462E-02  0.1231572E+00
          1   -1    0    0  501    0  0.00000000000E+00  0.00000000000E+00  0.95668486067E+03  0.95668486067E+03  0.00000000000E+00 0. -1.
         -1   -1    0    0    0  501 -0.00000000000E+00 -0.00000000000E+00 -0.18141577680E+02  0.18141577680E+02  0.00000000000E+00 0.  1.
         25    2    1    2    0    0  0.30474750028E+02 -0.66089552826E+02  0.50723096184E+03  0.52747431396E+03  0.12509741748E+03 0.  0.
         23    2    1    2    0    0 -0.30474750028E+02  0.66089552826E+02  0.43131232115E+03  0.44735212439E+03  0.93792672605E+02 0.  0.
          5    1    3    3  502    0 -0.18801156982E+02  0.25930542845E+02  0.59339944668E+02  0.67561660646E+02  0.41800000000E+01 0. -1.
         -5    1    3    3    0  502  0.49275907010E+02 -0.92020095671E+02  0.44789101717E+03  0.45991265332E+03  0.41800000000E+01 0. -1.
        -11    1    4    4    0    0 -0.27446864258E+02  0.89778609942E+02  0.36465148555E+03  0.37654247447E+03  0.00000000000E+00 0. -1.
         11    1    4    4    0    0 -0.30278857701E+01 -0.23689057116E+02  0.66660835599E+02  0.70809649922E+02  0.00000000000E+00 0.  1.
</event>
<event>
 8    1  0.6637272E-009  0.1086491E+03  0.7561462E-02  0.1263092E+00
         -1   -1    0    0    0  501 -0.00000000000E+00  0.00000000000E+00  0.80705041017E+02  0.80705041017E+02  0.00000000000E+00 0.  1.
          1   -1    0    0  501    0  0.00000000000E+00 -0.00000000000E+00 -0.16516035501E+03  0.16516035501E+03  0.00000000000E+00 0. -1.
         25    2    1    2    0    0 -0.94969990269E+01 -0.65741937320E+01 -0.76410415656E+01  0.12579874860E+03  0.12503410182E+03 0.  0.
         23    2    1    2    0    0  0.94969990269E+01  0.65741937320E+01 -0.76814272424E+02  0.12006664743E+03  0.91554106202E+02 0.  0.
          5    1    3    3  502    0  0.38201721384E+02 -0.48259853627E+02  0.11864887615E+01  0.61703039993E+02  0.41800000000E+01 0.  1.
         -5    1    3    3    0  502 -0.47698720411E+02  0.41685659895E+02 -0.88275303270E+01  0.64095708604E+02  0.41800000000E+01 0.  1.
        -11    1    4    4    0    0 -0.20805223774E+02 -0.34975597644E+02 -0.37439330853E+02  0.55297859467E+02  0.00000000000E+00 0. -1.
         11    1    4    4    0    0  0.30302222801E+02  0.41549791376E+02 -0.39374941570E+02  0.64768787960E+02  0.00000000000E+00 0.  1.
</event>
<event>
 8    1  0.6637272E-009  0.9154740E+02  0.7561462E-02  0.1299147E+00
          1   -1    0    0  501    0  0.00000000000E+00  0.00000000000E+00  0.43665302831E+02  0.43665302831E+02  0.00000000000E+00 0. -1.
         -1   -1    0    0    0  501 -0.00000000000E+00 -0.00000000000E+00 -0.35862730720E+03  0.35862730720E+03  0.00000000000E+00 0.  1.
         25    2    1    2    0    0  0.33327259343E+02 -0.34474294022E+02 -0.11182188919E+03  0.17449946854E+03  0.12508695557E+03 0.  0.
         23    2    1    2    0    0 -0.33327259343E+02  0.34474294022E+02 -0.20314011518E+03  0.22779314150E+03  0.91239387083E+02 0.  0.
          5    1    3    3  502    0  0.60781612987E+02 -0.22001392006E+02 -0.12541805258E+03  0.14115815966E+03  0.41800000000E+01 0.  1.
         -5    1    3    3    0  502 -0.27454353644E+02 -0.12472902016E+02  0.13596163382E+02  0.33341308874E+02  0.41800000000E+01 0.  1.
        -11    1    4    4    0    0 -0.31453757216E+02 -0.17414600104E+02 -0.14695886796E+03  0.15129281547E+03  0.00000000000E+00 0.  1.
         11    1    4    4    0    0 -0.18735021270E+01  0.51888894126E+02 -0.56181247217E+02  0.76500326030E+02  0.00000000000E+00 0. -1.
</event>
<event>
 8    1  0.6637272E-009  0.1086974E+03  0.7561462E-02  0.1263001E+00
         -2   -1    0    0    0  501 -0.00000000000E+00  0.00000000000E+00  0.15727439867E+02  0.15727439867E+02  0.00000000000E+00 0. -1.
          2   -1    0    0  501    0  0.00000000000E+00 -0.00000000000E+00 -0.85015446024E+03  0.85015446024E+03  0.00000000000E+00 0.  1.
         25    2    1    2    0    0  0.11109323221E+02  0.51948877102E+01 -0.61285052932E+03  0.62560742288E+03  0.12509385420E+03 0.  0.
         23    2    1    2    0    0 -0.11109323221E+02 -0.51948877102E+01 -0.22157649105E+03  0.24027447722E+03  0.92115574670E+02 0.  0.
          5    1    3    3  502    0 -0.47213143735E+02  0.35339752593E+02 -0.25540530356E+03  0.26215896044E+03  0.41800000000E+01 0.  1.
         -5    1    3    3    0  502  0.58322466956E+02 -0.30144864883E+02 -0.35744522576E+03  0.36344846244E+03  0.41800000000E+01 0.  1.
        -11    1    4    4    0    0  0.27261547308E+02 -0.34668506214E+02 -0.94030453445E+02  0.10385963345E+03  0.00000000000E+00 0.  1.
         11    1    4    4    0    0 -0.38370870529E+02  0.29473618504E+02 -0.12754603760E+03  0.13641484377E+03  0.00000000000E+00 0. -1.
</event>
<event>
 8    1  0.6637272E-009  0.2387472E+03  0.7561462E-02  0.1120630E+00
         -1   -1    0    0    0  501 -0.00000000000E+00  0.00000000000E+00  0.35661214651E+03  0.35661214651E+03  0.00000000000E+00 0.  1.
          1   -1    0    0  501    0  0.00000000000E+00 -0.00000000000E+00 -0.17267247314E+03  0.17267247314E+03  0.00000000000E+00 0. -1.
         25    2    1    2    0    0 -0.21823463040E+03  0.39121718136E+02  0.12113855967E+03  0.28191920853E+03  0.12508807604E+03 0.  0.
         23    2    1    2    0    0  0.21823463040E+03 -0.39121718136E+02  0.62801113692E+02  0.24736541112E+03  0.89937778504E+02 0.  0.
          5    1    3    3  502    0 -0.22203014902E+03  0.25530869960E+02  0.78668226340E+02  0.23697125275E+03  0.41800000000E+01 0.  1.
         -5    1    3    3    0  502  0.37955186240E+01  0.13590848176E+02  0.42470333329E+02  0.44947955781E+02  0.41800000000E+01 0.  1.
        -11    1    4    4    0    0  0.16360298727E+03  0.12503419716E+02  0.41756733155E+02  0.16931006382E+03  0.00000000000E+00 0.  1.
         11    1    4    4    0    0  0.54631643125E+02 -0.51625137852E+02  0.21044380537E+02  0.78055347292E+02  0.00000000000E+00 0. -1.
</event>
<event>
 7    1  0.6637272E-009  0.1331637E+03  0.7561462E-02  0.1222835E+00
         -4   -1    0    0    0  501 -0.00000000000E+00  0.00000000000E+00  0.11511018781E+03  0.11511018781E+03  0.00000000000E+00 0.  1.
          4   -1    0    0  501    0  0.00000000000E+00 -0.00000000000E+00 -0.25180078240E+03  0.25180078240E+03  0.00000000000E+00 0. -1.
         25    2    1    2    0    0  0.24545909334E+02 -0.11465719884E+03 -0.17098605430E+03  0.24214234915E+03  0.12509161273E+03 0.  0.
          5    1    3    3  502    0 -0.59026128472E+01 -0.11574117979E+03 -0.17621240353E+03  0.21094820476E+03  0.41800000000E+01 0.  1.
         -5    1    3    3    0  502  0.30448522181E+02  0.10839809419E+01  0.52263492276E+01  0.31194144385E+02  0.41800000000E+01 0.  1.
        -11    1    1    2    0    0 -0.22129258876E+02  0.47448743737E+02  0.10263781310E+02  0.53351968918E+02  0.00000000000E+00 0.  1.
         11    1    1    2    0    0 -0.24166504579E+01  0.67208455106E+02  0.24031678399E+02  0.71416652147E+02  0.00000000000E+00 0. -1.
</event>
<event>
 7    1  0.6637272E-009  0.1287458E+03  0.7561462E-02  0.1229329E+00
          2   -1    0    0  501    0  0.00000000000E+00  0.00000000000E+00  0.26163529074E+03  0.26163529074E+03  0.00000000000E+00 0.  1.
         -2   -1    0    0    0  501 -0.00000000000E+00 -0.00000000000E+00 -0.68889320479E+02  0.68889320479E+02  0.00000000000E+00 0. -1.
         23    2    1    2    0    0 -0.43870951052E+02  0.57055059046E+02  0.39856312807E+02  0.12020726824E+03  0.87643148945E+02 0.  0.
          5    1    1    2  502    0  0.73459236770E+02  0.65046936049E+01  0.71317551430E+02  0.10267539164E+03  0.41800000000E+01 0. -1.
         -5    1    1    2    0  502 -0.29588285717E+02 -0.63559752650E+02  0.81572106021E+02  0.10764195135E+03  0.41800000000E+01 0. -1.
        -11    1    3    3    0    0 -0.58746324270E+02  0.46643615260E+01  0.21681542111E+02  0.62793121853E+02  0.00000000000E+00 0.  1.
         11    1    3    3    0    0  0.14875373218E+02  0.52390697520E+02  0.18174770697E+02  0.57414146383E+02  0.00000000000E+00 0. -1.
</event>
<event>
 8    1  0.6637272E-009  0.1121276E+03  0.7561462E-02  0.1256680E+00
         -2   -1    0    0    0  501 -0.00000000000E+00  0.00000000000E+00  0.23383256740E+02  0.23383256740E+02  0.00000000000E+00 0. -1.
          2   -1    0    0  501    0  0.00000000000E+00 -0.00000000000E+00 -0.63999994218E+03  0.63999994218E+03  0.00000000000E+00 0.  1.
         25    2    1    2    0    0 -0.38300207003E+02  0.24530411814E+02 -0.25542303234E+03  0.28802201870E+03  0.12508841213E+03 0.  0.
         23    2    1    2    0    0  0.38300207003E+02 -0.24530411814E+02 -0.36119365310E+03  0.37536118022E+03  0.91468648249E+02 0.  0.
          5    1    3    3  502    0  0.39585970546E+02  0.27059997360E+02 -0.55824362233E+02  0.73709730293E+02  0.41800000000E+01 0.  1.
         -5    1    3    3    0  502 -0.77886177548E+02 -0.25295855461E+01 -0.19959867010E+03  0.21431228841E+03  0.41800000000E+01 0.  1.
        -11    1    4    4    0    0  0.42043926835E+02 -0.53965814394E+02 -0.19782483257E+03  0.20931952916E+03  0.00000000000E+00 0. -1.
         11    1    4    4    0    0 -0.37437198328E+01  0.29435402580E+02 -0.16336882053E+03  0.16604165106E+03  0.00000000000E+00 0.  1.
</event>
<event>
 8    1  0.6637272E-009  0.1319096E+03  0.7561462E-02  0.1224649E+00
          2   -1    0    0  501    0  0.00000000000E+00  0.00000000000E+00  0.17998699249E+03  0.17998699249E+03  0.00000000000E+00 0.  1.
         -2   -1    0    0    0  501 -0.00000000000E+00 -0.00000000000E+00 -0.12578561800E+03  0.12578561800E+03  0.00000000000E+00 0. -1.
         25    2    1    2    0    0 -0.95944468414E+02  0.10905171398E+02  0.67956691123E+02  0.17201618956E+03  0.12508874378E+03 0.  0.
         23    2    1    2    0    0  0.95944468414E+02 -0.10905171398E+02 -0.13755316631E+02  0.13375642092E+03  0.91527633092E+02 0.  0.
          5    1    3    3  502    0 -0.63935882564E+02 -0.49448997797E+02  0.85485343273E+01  0.81385197066E+02  0.41800000000E+01 0.  1.
         -5    1    3    3    0  502 -0.32008585850E+02  0.60354169195E+02  0.59408156796E+02  0.90630992498E+02  0.41800000000E+01 0.  1.
        -11    1    4    4    0    0  0.95725569329E+02 -0.26118584089E+02 -0.37064117500E+02  0.10592126257E+03  0.00000000000E+00 0.  1.
         11    1    4    4    0    0  0.21889908527E+00  0.15213412691E+02  0.23308800869E+02  0.27835158352E+02  0.00000000000E+00 0. -1.
</event>
<event>
 8    1  0.6637272E-009  0.1054517E+03  0.7561462E-02  0.1269232E+00
          2   -1    0    0  501    0  0.00000000000E+00  0.00000000000E+00  0.10197648229E+04  0.10197648229E+04  0.00000000000E+00 0. -1.
         -2   -1    0    0    0  501 -0.00000000000E+00 -0.00000000000E+00 -0.19054293043E+02  0.19054293043E+02  0.00000000000E+00 0.  1.
         25    2    1    2    0    0 -0.23093876744E+02 -0.27008162276E+01  0.85570878573E+03  0.86511630203E+03  0.12509224000E+03 0.  0.
         23    2    1    2    0    0  0.23093876744E+02  0.27008162276E+01  0.14500174409E+03  0.17370281387E+03  0.92771440696E+02 0.  0.
          5    1    3    3  502    0 -0.35754219025E+02  0.52380345071E+02  0.30838826676E+03  0.31486959238E+03  0.41800000000E+01 0. -1.
         -5    1    3    3    0  502  0.12660342281E+02 -0.55081161299E+02  0.54732051897E+03  0.55024670965E+03  0.41800000000E+01 0. -1.
        -11    1    4    4    0    0  0.52187506846E+02 -0.17737271885E+02  0.11360113263E+03  0.12626703457E+03  0.00000000000E+00 0.  1.
         11    1    4    4    0    0 -0.29093630102E+02  0.20438088113E+02  0.31400611454E+02  0.47435779301E+02  0.00000000000E+00 0. -1.
</event>
<event>
 8    1  0.6637272E-009  0.1075928E+03  0.7561462E-02  0.1265094E+00
         -2   -1    0    0    0  501 -0.00000000000E+00  0.00000000000E+00  0.45043833236E+02  0.45043833236E+02  0.00000000000E+00 0.  1.
          2   -1    0    0  501    0  0.00000000000E+00 -0.00000000000E+00 -0.38594923639E+03  0.38594923639E+03  0.00000000000E+00 0. -1.
         25    2    1    2    0    0  0.67221285580E+02  0.66436401107E+01 -0.23531996234E+03  0.27492813137E+03  0.12508858283E+03 0.  0.
         23    2    1    2    0    0 -0.67221285580E+02 -0.66436401107E+01 -0.10558544082E+03  0.15606493826E+03  0.92979247423E+02 0.  0.
          5    1    3    3  502    0 -0.16498770050E+02  0.67993121838E+01  0.61422223416E+01  0.19329753092E+02  0.41800000000E+01 0. -1.
         -5    1    3    3    0  502  0.83720055630E+02 -0.15567207310E+00 -0.24146218468E+03  0.25559837828E+03  0.41800000000E+01 0. -1.
        -11    1    4    4    0    0  0.34463476500E+01 -0.36250702061E+02 -0.21415951964E+02  0.42244925264E+02  0.00000000000E+00 0.  1.
         11    1    4    4    0    0 -0.70667633230E+02  0.29607061950E+02 -0.84169488855E+02  0.11382001299E+03  0.00000000000E+00 0. -1.
</event>
<event>
 8    1  0.6637272E-009  0.1071791E+03  0.7561462E-02  0.1265885E+00
          1   -1    0    0  501    0  0.00000000000E+00  0.00000000000E+00  0.19509942573E+03  0.19509942573E+03  0.00000000000E+00 0. -1.
         -1   -1    0    0    0  501 -0.00000000000E+00 -0.00000000000E+00 -0.82714300619E+02  0.82714300619E+02  0.00000000000E+00 0.  1.
         25    2    1    2    0    0 -0.28809875616E+02 -0.25754785106E+02  0.72068329534E+01  0.13112104649E+03  0.12508985771E+03 0.  0.
         23    2    1    2    0    0  0.28809875616E+02  0.25754785106E+02  0.10517829216E+03  0.14669267986E+03  0.94672864617E+02 0.  0.
          5    1    3    3  502    0  0.44910860298E+02 -0.13312407217E+02  0.26248441869E+02  0.53857763221E+02  0.41800000000E+01 0. -1.
         -5    1    3    3    0  502 -0.73720735913E+02 -0.12442377888E+02 -0.19041608915E+02  0.77263283267E+02  0.41800000000E+01 0. -1.
        -11    1    4    4    0    0  0.36781417680E+02  0.52747032726E+02  0.98719697070E+02  0.11781638569E+03  0.00000000000E+00 0. -1.
         11    1    4    4    0    0 -0.79715420644E+01 -0.26992247621E+02  0.64585950898E+01  0.28876294171E+02  0.00000000000E+00 0.  1.
</event>
<event>
 8    1  0.6637272E-009  0.7712208E+02  0.7561462E-02  0.1337423E+00
         -1   -1    0    0    0  501 -0.00000000000E+00  0.00000000000E+00  0.43623302500E+03  0.43623302500E+03  0.00000000000E+00 0.  1.
          1   -1    0    0  501    0  0.00000000000E+00 -0.00000000000E+00 -0.33359510601E+02  0.33359510601E+02  0.00000000000E+00 0. -1.
         25    2    1    2    0    0  0.26649400365E+02 -0.26149646434E+02  0.15323018710E+03  0.20129883907E+03  0.12509091823E+03 0.  0.
         23    2    1    2    0    0 -0.26649400365E+02  0.26149646434E+02  0.24964332729E+03  0.26829369653E+03  0.90916017201E+02 0.  0.
          5    1    3    3  502    0  0.52446213179E+02 -0.27457448650E+01  0.15738839879E+03  0.16597206050E+03  0.41800000000E+01 0.  1.
         -5    1    3    3    0  502 -0.25796812814E+02 -0.23403901570E+02 -0.41582116894E+01  0.35326778575E+02  0.41800000000E+01 0.  1.
        -11    1    4    4    0    0 -0.42622372001E+02  0.27048535564E+02  0.24696670157E+03  0.25207308773E+03  0.00000000000E+00 0.  1.
         11    1    4    4    0    0  0.15972971636E+02 -0.89888912952E+00  0.26766257246E+01  0.16220608799E+02  0.00000000000E+00 0. -1.
</event>
<event>
 8    1  0.6637272E-009  0.9775831E+02  0.7561462E-02  0.1285082E+00
         -2   -1    0    0    0  501 -0.00000000000E+00  0.00000000000E+00  0.27663095455E+02  0.27663095455E+02  0.00000000000E+00 0.  1.
          2   -1    0    0  501    0  0.00000000000E+00 -0.00000000000E+00 -0.43808939088E+03  0.43808939088E+03  0.00000000000E+00 0. -1.
         25    2    1    2    0    0 -0.79600879551E+01  0.18383793269E+02 -0.24421942857E+03  0.27512236769E+03  0.12509141080E+03 0.  0.
         23    2    1    2    0    0  0.79600879551E+01 -0.18383793269E+02 -0.16620686686E+03  0.19063011865E+03  0.91180001591E+02 0.  0.
          5    1    3    3  502    0 -0.51036693838E+02  0.49161720214E+02 -0.11158440793E+03  0.13225041152E+03  0.41800000000E+01 0.  1.
         -5    1    3    3    0  502  0.43076605883E+02 -0.30777926944E+02 -0.13263502064E+03  0.14287195617E+03  0.41800000000E+01 0.  1.
        -11    1    4    4    0    0 -0.57394200708E+01  0.25143829878E+02 -0.96145968426E+01  0.27524418180E+02  0.00000000000E+00 0.  1.
         11    1    4    4    0    0  0.13699508026E+02 -0.43527623147E+02 -0.15659227001E+03  0.16310570047E+03  0.00000000000E+00 0. -1.
</event>
<event>
 8    1  0.6637272E-009  0.1170387E+03  0.7561462E-02  0.1248064E+00
         -2   -1    0    0    0  501 -0.00000000000E+00  0.00000000000E+00  0.27552398965E+02  0.27552398965E+02  0.00000000000E+00 0.  1.
          2   -1    0    0  501    0  0.00000000000E+00 -0.00000000000E+00 -0.59645047899E+03  0.59645047899E+03  0.00000000000E+00 0. -1.
         25    2    1    2    0    0 -0.56166895670E+02 -0.33407644399E+02 -0.34792036465E+03  0.37545554183E+03  0.12508993915E+03 0.  0.
         23    2    1    2    0    0  0.56166895670E+02  0.33407644399E+02 -0.22097771538E+03  0.24854733613E+03  0.93133435086E+02 0.  0.
          5    1    3    3  502    0 -0.77294360578E+02  0.52168839458E+01 -0.11731560409E+03  0.14064870216E+03  0.41800000000E+01 0.  1.
         -5    1    3    3    0  502  0.21127464907E+02 -0.38624528345E+02 -0.23060476056E+03  0.23480683967E+03  0.41800000000E+01 0.  1.
        -11    1    4    4    0    0 -0.78140728752E+01 -0.24660167920E+02 -0.69527132338E+02  0.74183594870E+02  0.00000000000E+00 0.  1.
         11    1    4    4    0    0  0.63980968545E+02  0.58067812319E+02 -0.15145058304E+03  0.17436374126E+03  0.00000000000E+00 0. -1.
</event>
<event>
 8    1  0.6637272E-009  0.1054939E+03  0.7561462E-02  0.1269150E+00
         -2   -1    0    0    0  501 -0.00000000000E+00  0.00000000000E+00  0.23839273373E+02  0.23839273373E+02  0.00000000000E+00 0.  1.
          2   -1    0    0  501    0  0.00000000000E+00 -0.00000000000E+00 -0.55248189656E+03  0.55248189656E+03  0.00000000000E+00 0. -1.
         25    2    1    2    0    0 -0.91287827537E+00  0.94032038961E+01 -0.39145772061E+03  0.41106654319E+03  0.12508917745E+03 0.  0.
         23    2    1    2    0    0  0.91287827537E+00 -0.94032038961E+01 -0.13718490257E+03  0.16525462674E+03  0.91652280795E+02 0.  0.
          5    1    3    3  502    0 -0.51555204743E+02 -0.25111630671E+02 -0.12454984228E+03  0.13718115302E+03  0.41800000000E+01 0.  1.
         -5    1    3    3    0  502  0.50642326468E+02  0.34514834567E+02 -0.26690787833E+03  0.27388539017E+03  0.41800000000E+01 0.  1.
        -11    1    4    4    0    0 -0.28361959204E+02  0.31097537628E+02 -0.66069894506E+02  0.78337018941E+02  0.00000000000E+00 0. -1.
         11    1    4    4    0    0  0.29274837479E+02 -0.40500741524E+02 -0.71115008068E+02  0.86917607802E+02  0.00000000000E+00 0.  1.
</event>
<event>
 8    1  0.6637272E-009  0.8119233E+02  0.7561462E-02  0.1325701E+00
          1   -1    0    0  501    0  0.00000000000E+00  0.00000000000E+00  0.86708409756E+03  0.86708409756E+03  0.00000000000E+00 0. -1.
         -1   -1    0    0    0  501 -0.00000000000E+00 -0.00000000000E+00 -0.20344327615E+02  0.20344327615E+02  0.00000000000E+00 0.  1.
         25    2    1    2    0    0 -0.33131816296E+02  0.60716094229E+02  0.58091316437E+03  0.59824052764E+03  0.12508981984E+03 0.  0.
         23    2    1    2    0    0  0.33131816296E+02 -0.60716094229E+02  0.26582660558E+03  0.28918789754E+03  0.90452719680E+02 0.  0.
          5    1    3    3  502    0  0.97622673758E+01  0.27015787730E+02  0.21411573494E+02  0.36070521628E+02  0.41800000000E+01 0.  1.
         -5    1    3    3    0  502 -0.42894083672E+02  0.33700306498E+02  0.55950159087E+03  0.56217000601E+03  0.41800000000E+01 0.  1.
        -11    1    4    4    0    0 -0.45614061628E+01 -0.29085761428E+02  0.14002707912E+02  0.32601591570E+02  0.00000000000E+00 0.  1.
         11    1    4    4    0    0  0.37693222459E+02 -0.31630332801E+02  0.25182389767E+03  0.25658630597E+03  0.00000000000E+00 0. -1.
</event>
<event>
 8    1  0.6637272E-009  0.1423232E+03  0.7561462E-02  0.1210237E+00
          1   -1    0    0  501    0  0.00000000000E+00  0.00000000000E+00  0.47428367089E+03  0.47428367089E+03  0.00000000000E+00 0. -1.
         -1   -1    0    0    0  501 -0.00000000000E+00 -0.00000000000E+00 -0.56877141175E+02  0.56877141175E+02  0.00000000000E+00 0.  1.
         25    2    1    2    0    0 -0.76906084445E+02  0.87584661884E+02  0.28948496638E+03  0.33621694980E+03  0.12511863470E+03 0.  0.
         23    2    1    2    0    0  0.76906084445E+02 -0.87584661884E+02  0.12792156333E+03  0.19494386227E+03  0.89741652798E+02 0.  0.
          5    1    3    3  502    0 -0.89534364866E+01 -0.30346934788E+02  0.82475297605E+02  0.88434990762E+02  0.41800000000E+01 0.  1.
         -5    1    3    3    0  502 -0.67952647959E+02  0.11793159667E+03  0.20700966877E+03  0.24778195903E+03  0.41800000000E+01 0.  1.
        -11    1    4    4    0    0  0.65282198733E+02 -0.74002067306E+02  0.42111682835E+02  0.10729149672E+03  0.00000000000E+00 0.  1.
         11    1    4    4    0    0  0.11623885712E+02 -0.13582594577E+02  0.85809880499E+02  0.87652365546E+02  0.00000000000E+00 0. -1.
</event>
<event>
 8    1  0.6637272E-009  0.9606856E+02  0.7561462E-02  0.1288787E+00
         -3   -1    0    0    0  501 -0.00000000000E+00  0.00000000000E+00  0.27421733348E+03  0.27421733348E+03  0.00000000000E+00 0.  1.
          3   -1    0    0  501    0  0.00000000000E+00 -0.00000000000E+00 -0.77913875117E+02  0.77913875117E+02  0.00000000000E+00 0. -1.
         25    2    1    2    0    0 -0.32749409967E+01 -0.30986841169E+02 -0.44173691575E+01  0.12896002972E+03  0.12506105130E+03 0.  0.
         23    2    1    2    0    0  0.32749409967E+01  0.30986841169E+02  0.20072082752E+03  0.22317117887E+03  0.92442495179E+02 0.  0.
          5    1    3    3  502    0  0.40382418478E+02 -0.45612289255E+02 -0.37907844522E+02  0.71872788520E+02  0.41800000000E+01 0. -1.
         -5    1    3    3    0  502 -0.43657359475E+02  0.14625448086E+02  0.33490475365E+02  0.57087241203E+02  0.41800000000E+01 0. -1.
        -11    1    4    4    0    0  0.41085984989E+02  0.18096691906E+02  0.15979002880E+03  0.16597711205E+03  0.00000000000E+00 0.  1.
         11    1    4    4    0    0 -0.37811043993E+02  0.12890149264E+02  0.40930798719E+02  0.57194066822E+02  0.00000000000E+00 0. -1.
</event>
<event>
 8    1  0.6637272E-009  0.1271324E+03  0.7561462E-02  0.1231774E+00
         -1   -1    0    0    0  501 -0.00000000000E+00  0.00000000000E+00  0.18759998920E+03  0.18759998920E+03  0.00000000000E+00 0.  1.
          1   -1    0    0  501    0  0.00000000000E+00 -0.00000000000E+00 -0.18833743732E+03  0.18833743732E+03  0.00000000000E+00 0. -1.
         25    2    1    2    0    0  0.76703493080E+02 -0.16361754120E+02  0.13092941862E+03  0.19733486242E+03  0.12508957758E+03 0.  0.
         23    2    1    2    0    0 -0.76703493080E+02  0.16361754120E+02 -0.13166686674E+03  0.17860256410E+03  0.91714662187E+02 0.  0.
          5    1    3    3  502    0  0.80257031023E+02 -0.56231552796E+02  0.57761769118E+02  0.11382913920E+03  0.41800000000E+01 0. -1.
         -5    1    3    3    0  502 -0.35535379431E+01  0.39869798675E+02  0.73167649498E+02  0.83505723225E+02  0.41800000000E+01 0. -1.
        -11    1    4    4    0    0  0.18964457108E+02  0.57973646458E+00 -0.43875401008E+02  0.47802066288E+02  0.00000000000E+00 0.  1.
         11    1    4    4    0    0 -0.95667950188E+02  0.15782017656E+02 -0.87791465728E+02  0.13080049782E+03  0.00000000000E+00 0. -1.
</event>
<event>
 8    1  0.6637272E-009  0.9256200E+02  0.7561462E-02  0.1296763E+00
          3   -1    0    0  501    0  0.00000000000E+00  0.00000000000E+00  0.97870503570E+02  0.97870503570E+02  0.00000000000E+00 0. -1.
         -3   -1    0    0    0  501 -0.00000000000E+00 -0.00000000000E+00 -0.23844769513E+03  0.23844769513E+03  0.00000000000E+00 0.  1.
         25    2    1    2    0    0  0.79022771579E+01 -0.35729412731E+02 -0.18498247020E+03  0.22628480518E+03  0.12508901573E+03 0.  0.
         23    2    1    2    0    0 -0.79022771579E+01  0.35729412731E+02  0.44405278645E+02  0.11003339351E+03  0.93789562310E+02 0.  0.
          5    1    3    3  502    0  0.56706116566E+02 -0.38890607329E+02 -0.15274481165E+03  0.16756047529E+03  0.41800000000E+01 0.  1.
         -5    1    3    3    0  502 -0.48803839408E+02  0.31611945980E+01 -0.32237658556E+02  0.58724329893E+02  0.41800000000E+01 0.  1.
        -11    1    4    4    0    0 -0.29165308745E+02  0.35425393733E+02  0.65569728015E+02  0.80031012659E+02  0.00000000000E+00 0. -1.
         11    1    4    4    0    0  0.21263031587E+02  0.30401899835E+00 -0.21164449370E+02  0.30002380855E+02  0.00000000000E+00 0.  1.
</event>
<event>
 8    1  0.6637272E-009  0.1099179E+03  0.7561462E-02  0.1260722E+00
         -1   -1    0    0    0  501 -0.00000000000E+00  0.00000000000E+00  0.18412754144E+03  0.18412754144E+03  0.00000000000E+00 0.  1.
          1   -1    0    0  501    0  0.00000000000E+00 -0.00000000000E+00 -0.10426619526E+03  0.10426619526E+03  0.00000000000E+00 0. -1.
         25    2    1    2    0    0  0.52645284350E+02 -0.67213247981E+02  0.41737589961E+02  0.15709524534E+03  0.12509093902E+03 0.  0.
         23    2    1    2    0    0 -0.52645284350E+02  0.67213247981E+02  0.38123756219E+02  0.13129849136E+03  0.92177689148E+02 0.  0.
          5    1    3    3  502    0  0.88655583067E+01  0.22556800361E+02  0.51083108771E+02  0.56695359319E+02  0.41800000000E+01 0. -1.
         -5    1    3    3    0  502  0.43779726043E+02 -0.89770048342E+02 -0.93455188100E+01  0.10039988602E+03  0.41800000000E+01 0. -1.
        -11    1    4    4    0    0 -0.59307094277E+02  0.52824081785E+02 -0.10539182841E+02  0.80117347828E+02  0.00000000000E+00 0. -1.
         11    1    4    4    0    0  0.66618099276E+01  0.14389166196E+02  0.48662939059E+02  0.51181143532E+02  0.00000000000E+00 0.  1.
</event>
<event>
 8    1  0.6637272E-009  0.5568310E+02  0.7561462E-02  0.1416896E+00
          1   -1    0    0  501    0  0.00000000000E+00  0.00000000000E+00  0.88078856107E+02  0.88078856107E+02  0.00000000000E+00 0. -1.
         -1   -1    0    0    0  501 -0.00000000000E+00 -0.00000000000E+00 -0.17920361839E+03  0.17920361839E+03  0.00000000000E+00 0.  1.
         25    2    1    2    0    0 -0.17061659147E+02 -0.14636570867E+02 -0.12420147738E+03  0.17770505653E+03  0.12509096976E+03 0.  0.
         23    2    1    2    0    0  0.17061659147E+02  0.14636570867E+02  0.33076715093E+02  0.89577417967E+02  0.80154321834E+02 0.  0.
          5    1    3    3  502    0 -0.18987864495E+02 -0.12808839253E+02  0.21635983772E+02  0.31783542201E+02  0.41800000000E+01 0.  1.
         -5    1    3    3    0  502  0.19262053478E+01 -0.18277316141E+01 -0.14583746115E+03  0.14592151433E+03  0.41800000000E+01 0.  1.
        -11    1    4    4    0    0 -0.67790412673E+01 -0.30951901740E+02  0.10328486627E+02  0.33326464827E+02  0.00000000000E+00 0.  1.
         11    1    4    4    0    0  0.23840700414E+02  0.45588472607E+02  0.22748228465E+02  0.56250953140E+02  0.00000000000E+00 0. -1.
</event>
<event>
 8    1  0.6637272E-009  0.1098754E+03  0.7561462E-02  0.1260801E+00
          2   -1    0    0  501    0  0.00000000000E+00  0.00000000000E+00  0.75966073895E+03  0.75966073895E+03  0.00000000000E+00 0. -1.
         -2   -1    0    0    0  501 -0.00000000000E+00 -0.00000000000E+00 -0.18930270605E+02  0.18930270605E+02  0.00000000000E+00 0.  1.
         25    2    1    2    0    0 -0.41854364488E+02  0.37015537081E+02  0.40010977699E+03  0.42290690764E+03  0.12506190894E+03 0.  0.
         23    2    1    2    0    0  0.41854364488E+02 -0.37015537081E+02  0.34062069135E+03  0.35568410192E+03  0.85829989920E+02 0.  0.
          5    1    3    3  502    0 -0.24669477629E+02 -0.35643784902E+02  0.26435515904E+03  0.26791824320E+03  0.41800000000E+01 0.  1.
         -5    1    3    3    0  502 -0.17184886859E+02  0.72659321983E+02  0.13575461795E+03  0.15498866443E+03  0.41800000000E+01 0.  1.
        -11    1    4    4    0    0  0.56772041606E+02 -0.54320584228E+02  0.24134659958E+03  0.25381483745E+03  0.00000000000E+00 0.  1.
         11    1    4    4    0    0 -0.14917677118E+02  0.17305047147E+02  0.99274091770E+02  0.10186926447E+03  0.00000000000E+00 0. -1.
</event>
<event>
 8    1  0.6637272E-009  0.1329639E+03  0.7561462E-02  0.1223123E+00
         -1   -1    0    0    0  501 -0.00000000000E+00  0.00000000000E+00  0.19636445053E+03  0.19636445053E+03  0.00000000000E+00 0.  1.
          1   -1    0    0  501    0  0.00000000000E+00 -0.00000000000E+00 -0.12157207295E+03  0.12157207295E+03  0.00000000000E+00 0. -1.
         25    2    1    2    0    0 -0.10266756376E+03  0.18698778572E+02  0.64251039166E+01  0.16303032929E+03  0.12508930145E+03 0.  0.
         23    2    1    2    0    0  0.10266756376E+03 -0.18698778572E+02  0.68367273669E+02  0.15490619419E+03  0.91823591312E+02 0.  0.
          5    1    3    3  502    0  0.10916447416E+01  0.52204096179E+02 -0.79151704379E+01  0.52977180646E+02  0.41800000000E+01 0. -1.
         -5    1    3    3    0  502 -0.10375920850E+03 -0.33505317607E+02  0.14340274354E+02  0.11005314864E+03  0.41800000000E+01 0. -1.
        -11    1    4    4    0    0  0.85539637775E+02 -0.17058989727E+02  0.91278846988E+02  0.12625318479E+03  0.00000000000E+00 0.  1.
         11    1    4    4    0    0  0.17127925986E+02 -0.16397888457E+01 -0.22911573319E+02  0.28653009406E+02  0.00000000000E+00 0. -1.
</event>
<event>
 8    1  0.6637272E-009  0.2821638E+03  0.7561462E-02  0.1094513E+00
         -2   -1    0    0    0  501 -0.00000000000E+00  0.00000000000E+00  0.64718114036E+02  0.64718114036E+02  0.00000000000E+00 0.  1.
          2   -1    0    0  501    0  0.00000000000E+00 -0.00000000000E+00 -0.21162969956E+04  0.21162969956E+04  0.00000000000E+00 0. -1.
         25    2    1    2    0    0  0.98959294301E+02  0.24674259932E+03 -0.17299529786E+04  0.17547249603E+04  0.12509007164E+03 0.  0.
         23    2    1    2    0    0 -0.98959294301E+02 -0.24674259932E+03 -0.32162590301E+03  0.42629014934E+03  0.87207899248E+02 0.  0.
          5    1    3    3  502    0  0.11780428765E+03  0.13345564040E+03 -0.11145488764E+04  0.11286828290E+04  0.41800000000E+01 0.  1.
         -5    1    3    3    0  502 -0.18844993347E+02  0.11328695892E+03 -0.61540410216E+03  0.62604213133E+03  0.41800000000E+01 0.  1.
        -11    1    4    4    0    0 -0.28102343451E+01 -0.70722941704E+02 -0.42437849189E+02  0.82526377262E+02  0.00000000000E+00 0. -1.
         11    1    4    4    0    0 -0.96149059956E+02 -0.17601965762E+03 -0.27918805382E+03  0.34376377208E+03  0.00000000000E+00 0.  1.
</event>
<event>
 8    1  0.6637272E-009  0.1301449E+03  0.7561462E-02  0.1227241E+00
         -1   -1    0    0    0  501 -0.00000000000E+00  0.00000000000E+00  0.36791918833E+03  0.36791918833E+03  0.00000000000E+00 0.  1.
          1   -1    0    0  501    0  0.00000000000E+00 -0.00000000000E+00 -0.63483585991E+02  0.63483585991E+02  0.00000000000E+00 0. -1.
         25    2    1    2    0    0  0.47946797991E+02  0.63922213899E+02  0.87199662535E+02  0.17214873572E+03  0.12508581532E+03 0.  0.
         23    2    1    2    0    0 -0.47946797991E+02 -0.63922213899E+02  0.21723593981E+03  0.25925403861E+03  0.11677438984E+03 0.  0.
          5    1    3    3  502    0  0.73865680175E+02  0.30700799509E+02  0.56970478250E+01  0.80303216325E+02  0.41800000000E+01 0. -1.
         -5    1    3    3    0  502 -0.25918882184E+02  0.33221414390E+02  0.81502614710E+02  0.91845519391E+02  0.41800000000E+01 0. -1.
        -11    1    4    4    0    0 -0.75997287173E+00  0.31439313066E+02  0.27755482299E+02  0.41944901508E+02  0.00000000000E+00 0. -1.
         11    1    4    4    0    0 -0.47186825119E+02 -0.95361526965E+02  0.18948045751E+03  0.21730913710E+03  0.00000000000E+00 0.  1.
</event>
<event>
 8    1  0.6637272E-009  0.6874739E+02  0.7561462E-02  0.1364405E+00
          1   -1    0    0  501    0  0.00000000000E+00  0.00000000000E+00  0.60570606819E+03  0.60570606819E+03  0.00000000000E+00 0. -1.
         -1   -1    0    0    0  501 -0.00000000000E+00 -0.00000000000E+00 -0.21962396862E+02  0.21962396862E+02  0.00000000000E+00 0.  1.
         25    2    1    2    0    0 -0.13414765614E+02 -0.36029279189E+02  0.29842912079E+03  0.32586199032E+03  0.12509209290E+03 0.  0.
         23    2    1    2    0    0  0.13414765614E+02  0.36029279189E+02  0.28531455054E+03  0.30180647473E+03  0.90579746880E+02 0.  0.
          5    1    3    3  502    0 -0.53275701873E+01 -0.20751377750E+02 -0.46030738875E+01  0.22308369995E+02  0.41800000000E+01 0. -1.
         -5    1    3    3    0  502 -0.80871954270E+01 -0.15277901440E+02  0.30303219468E+03  0.30355362033E+03  0.41800000000E+01 0. -1.
        -11    1    4    4    0    0  0.37433843517E+02 -0.15897069982E+02  0.13405938869E+03  0.14009257357E+03  0.00000000000E+00 0.  1.
         11    1    4    4    0    0 -0.24019077903E+02  0.51926349172E+02  0.15125516185E+03  0.16171390116E+03  0.00000000000E+00 0. -1.
</event>
<event>
 7    1  0.6637272E-009  0.8676821E+02  0.7561462E-02  0.1310872E+00
         -1   -1    0    0    0  501 -0.00000000000E+00  0.00000000000E+00  0.50231672871E+02  0.50231672871E+02  0.00000000000E+00 0.  1.
          1   -1    0    0  501    0  0.00000000000E+00 -0.00000000000E+00 -0.29693712807E+03  0.29693712807E+03  0.00000000000E+00 0. -1.
         23    2    1    2    0    0 -0.32544812898E+02  0.42213235578E+02 -0.10482904262E+03  0.15123675692E+03  0.95091042499E+02 0.  0.
          5    1    1    2  502    0  0.24853220491E+02  0.61076670523E+01  0.16083646714E+02  0.30514623662E+02  0.41800000000E+01 0. -1.
         -5    1    1    2    0  502  0.76915924067E+01 -0.48320902630E+02 -0.15796005930E+03  0.16541742036E+03  0.41800000000E+01 0. -1.
        -11    1    3    3    0    0 -0.59333772268E+02  0.17029174594E+02 -0.31718625944E+02  0.69401444874E+02  0.00000000000E+00 0.  1.
         11    1    3    3    0    0  0.26788959370E+02  0.25184060984E+02 -0.73110416671E+02  0.81835312046E+02  0.00000000000E+00 0. -1.
</event>
<event>
 8    1  0.6637272E-009  0.1629659E+03  0.7561462E-02  0.1185388E+00
         -2   -1    0    0    0  501 -0.00000000000E+00  0.00000000000E+00  0.25936381096E+03  0.25936381096E+03  0.00000000000E+00 0.  1.
          2   -1    0    0  501    0  0.00000000000E+00 -0.00000000000E+00 -0.13586730403E+03  0.13586730403E+03  0.00000000000E+00 0. -1.
         25    2    1    2    0    0  0.46852499607E+02  0.11793154122E+03  0.15395100973E+03  0.23548170267E+03  0.12509082204E+03 0.  0.
         23    2    1    2    0    0 -0.46852499607E+02 -0.11793154122E+03 -0.30454502798E+02  0.15974941232E+03  0.92137901335E+02 0.  0.
          5    1    3    3  502    0  0.21112170835E+02 -0.21429876885E+02  0.54191040099E+02  0.62121691925E+02  0.41800000000E+01 0.  1.
         -5    1    3    3    0  502  0.25740328772E+02  0.13936141811E+03  0.99759969635E+02  0.17336001074E+03  0.41800000000E+01 0.  1.
        -11    1    4    4    0    0  0.16565087758E+02 -0.75926862702E+02 -0.31033724198E+02  0.83680240498E+02  0.00000000000E+00 0.  1.
         11    1    4    4    0    0 -0.63417587365E+02 -0.42004678521E+02  0.57922140016E+00  0.76069171826E+02  0.00000000000E+00 0. -1.
</event>
<event>
 8    1  0.6637272E-009  0.8895144E+02  0.7561462E-02  0.1305411E+00
          1   -1    0    0  501    0  0.00000000000E+00  0.00000000000E+00  0.23687996475E+02  0.23687996475E+02  0.00000000000E+00 0. -1.
         -1   -1    0    0    0  501 -0.00000000000E+00 -0.00000000000E+00 -0.53629962093E+03  0.53629962093E+03  0.00000000000E+00 0.  1.
         25    2    1    2    0    0  0.27601123485E+02  0.18196493209E+02 -0.32440506253E+03  0.34925485711E+03  0.12508947293E+03 0.  0.
         23    2    1    2    0    0 -0.27601123485E+02 -0.18196493209E+02 -0.18820656193E+03  0.21073276030E+03  0.88846226298E+02 0.  0.
          5    1    3    3  502    0  0.27984134110E+02  0.47822769520E+02 -0.31192294046E+03  0.31683358760E+03  0.41800000000E+01 0.  1.
         -5    1    3    3    0  502 -0.38301062557E+00 -0.29626276311E+02 -0.12482122067E+02  0.32421269508E+02  0.41800000000E+01 0.  1.
        -11    1    4    4    0    0  0.31071541953E+02 -0.29946911392E+00 -0.87059748515E+02  0.92438791709E+02  0.00000000000E+00 0.  1.
         11    1    4    4    0    0 -0.58672665438E+02 -0.17897024095E+02 -0.10114681342E+03  0.11829396859E+03  0.00000000000E+00 0. -1.
</event>
<event>
 8    1  0.6637272E-009  0.1245839E+03  0.7561462E-02  0.1235721E+00
         -2   -1    0    0    0  501 -0.00000000000E+00  0.00000000000E+00  0.23997037114E+02  0.23997037114E+02  0.00000000000E+00 0.  1.
          2   -1    0    0  501    0  0.00000000000E+00 -0.00000000000E+00 -0.73937261068E+03  0.73937261068E+03  0.00000000000E+00 0. -1.
         25    2    1    2    0    0  0.51595453637E+02 -0.37107076716E+02 -0.26891071681E+03  0.30331480173E+03  0.12509144397E+03 0.  0.
         23    2    1    2    0    0 -0.51595453637E+02  0.37107076716E+02 -0.44646485675E+03  0.46005484606E+03  0.90997621335E+02 0.  0.
          5    1    3    3  502    0 -0.47740473690E+01 -0.71817111574E+02 -0.16464370354E+03  0.17973733769E+03  0.41800000000E+01 0. -1.
         -5    1    3    3    0  502  0.56369501006E+02  0.34710034859E+02 -0.10426701327E+03  0.12357746405E+03  0.41800000000E+01 0. -1.
        -11    1    4    4    0    0 -0.33814131671E+02  0.67518058690E+02 -0.31855000388E+03  0.32737774622E+03  0.00000000000E+00 0.  1.
         11    1    4    4    0    0 -0.17781321966E+02 -0.30410981974E+02 -0.12791485287E+03  0.13267709984E+03  0.00000000000E+00 0. -1.
</event>
<event>
 8    1  0.6637272E-009  0.1641069E+03  0.7561462E-02  0.1184137E+00
         -1   -1    0    0    0  501 -0.00000000000E+00  0.00000000000E+00  0.55931034675E+02  0.55931034675E+02  0.00000000000E+00 0.  1.
          1   -1    0    0  501    0  0.00000000000E+00 -0.00000000000E+00 -0.63340058157E+03  0.63340058157E+03  0.00000000000E+00 0. -1.
         25    2    1    2    0    0 -0.22825447147E+02 -0.14036433828E+03 -0.19484257172E+03  0.27172454026E+03  0.12508976588E+03 0.  0.
         23    2    1    2    0    0  0.22825447147E+02  0.14036433828E+03 -0.38262697518E+03  0.41760707598E+03  0.88142607631E+02 0.  0.
          5    1    3    3  502    0 -0.23030275851E+02 -0.14933496955E+03 -0.11159099729E+03  0.18788653441E+03  0.41800000000E+01 0. -1.
         -5    1    3    3    0  502  0.20482870458E+00  0.89706312698E+01 -0.83251574426E+02  0.83838005848E+02  0.41800000000E+01 0. -1.
        -11    1    4    4    0    0 -0.22081848811E+02  0.11174329574E+03 -0.25230626416E+03  0.27682597986E+03  0.00000000000E+00 0. -1.
         11    1    4    4    0    0  0.44907295958E+02  0.28621042540E+02 -0.13032071102E+03  0.14078109612E+03  0.00000000000E+00 0.  1.
</event>
<event>
 8    1  0.6637272E-009  0.8048444E+02  0.7561462E-02  0.1327682E+00
         -1   -1    0    0    0  501 -0.00000000000E+00  0.00000000000E+00  0.21964876594E+03  0.21964876594E+03  0.00000000000E+00 0.  1.
          1   -1    0    0  501    0  0.00000000000E+00 -0.00000000000E+00 -0.54018481264E+02  0.54018481264E+02  0.00000000000E+00 0. -1.
         25    2    1    2    0    0 -0.61835236774E+01 -0.14388184431E+02  0.91768239577E+02  0.15593564286E+03  0.12509699877E+03 0.  0.
         23    2    1    2    0    0  0.61835236774E+01  0.14388184431E+02  0.73862045101E+02  0.11773160435E+03  0.90332016139E+02 0.  0.
          5    1    3    3  502    0  0.49405891250E+02 -0.27692875117E+02  0.12554340809E+02  0.58162885894E+02  0.41800000000E+01 0. -1.
         -5    1    3    3    0  502 -0.55589414927E+02  0.13304690685E+02  0.79213898769E+02  0.97772756964E+02  0.41800000000E+01 0. -1.
        -11    1    4    4    0    0 -0.16784348584E+02  0.16828490293E+02  0.87661274322E+02  0.90826270752E+02  0.00000000000E+00 0.  1.
         11    1    4    4    0    0  0.22967872261E+02 -0.24403058612E+01 -0.13799229221E+02  0.26905333597E+02  0.00000000000E+00 0. -1.
</event>
<event>
 8    1  0.6637272E-009  0.8844967E+02  0.7561462E-02  0.1306650E+00
          1   -1    0    0  501    0  0.00000000000E+00  0.00000000000E+00  0.35858622079E+02  0.35858622079E+02  0.00000000000E+00 0. -1.
         -1   -1    0    0    0  501 -0.00000000000E+00 -0.00000000000E+00 -0.47097215176E+03  0.47097215176E+03  0.00000000000E+00 0.  1.
         25    2    1    2    0    0  0.15353586835E+02  0.40733510137E+02 -0.34928981202E+03  0.37355686676E+03  0.12508560445E+03 0.  0.
         23    2    1    2    0    0 -0.15353586835E+02 -0.40733510137E+02 -0.85823717653E+02  0.13327390708E+03  0.92202344436E+02 0.  0.
          5    1    3    3  502    0  0.28623515007E+01 -0.25680324516E+02 -0.10723421615E+02  0.28286680514E+02  0.41800000000E+01 0. -1.
         -5    1    3    3    0  502  0.12491235334E+02  0.66413834653E+02 -0.33856639041E+03  0.34527018624E+03  0.41800000000E+01 0. -1.
        -11    1    4    4    0    0 -0.43834001467E+02 -0.25685891085E+02 -0.87323659301E+02  0.10102774945E+03  0.00000000000E+00 0.  1.
         11    1    4    4    0    0  0.28480414632E+02 -0.15047619052E+02  0.14999416484E+01  0.32246157627E+02  0.00000000000E+00 0. -1.
</event>
<event>
 8    1  0.6637272E-009  0.9804048E+02  0.7561462E-02  0.1284471E+00
          2   -1    0    0  501    0  0.00000000000E+00  0.00000000000E+00  0.49205324657E+02  0.49205324657E+02  0.00000000000E+00 0.  1.
         -2   -1    0    0    0  501 -0.00000000000E+00 -0.00000000000E+00 -0.28461243474E+03  0.28461243474E+03  0.00000000000E+00 0. -1.
         25    2    1    2    0    0 -0.59300486609E+01  0.45752033533E+02 -0.15842167528E+03  0.20706218661E+03  0.12509559496E+03 0.  0.
         23    2    1    2    0    0  0.59300486609E+01 -0.45752033533E+02 -0.76985434803E+02  0.12675557278E+03  0.89508681200E+02 0.  0.
          5    1    3    3  502    0 -0.30059054599E+02  0.66549282912E+02 -0.37992664734E+02  0.82421288470E+02  0.41800000000E+01 0. -1.
         -5    1    3    3    0  502  0.24129005938E+02 -0.20797249379E+02 -0.12042901054E+03  0.12464089814E+03  0.41800000000E+01 0. -1.
        -11    1    4    4    0    0  0.27666285467E+02  0.11203166229E+02 -0.53815548464E+02  0.61538992043E+02  0.00000000000E+00 0.  1.
         11    1    4    4    0    0 -0.21736236806E+02 -0.56955199762E+02 -0.23169886338E+02  0.65216580739E+02  0.00000000000E+00 0. -1.
</event>
<event>
 7    1  0.6637272E-009  0.1792891E+03  0.7561462E-02  0.1168493E+00
          1   -1    0    0  501    0  0.00000000000E+00  0.00000000000E+00  0.47772311888E+03  0.47772311888E+03  0.00000000000E+00 0. -1.
         -1   -1    0    0    0  501 -0.00000000000E+00 -0.00000000000E+00 -0.70966622588E+02  0.70966622588E+02  0.00000000000E+00 0.  1.
         25    2    1    2    0    0 -0.16060568176E+03  0.14131546096E+01  0.20036569166E+03  0.28564078549E+03  0.12509222966E+03 0.  0.
          5    1    3    3  502    0 -0.10958121015E+03 -0.54022342710E+02  0.15569187614E+03  0.19794920517E+03  0.41800000000E+01 0. -1.
         -5    1    3    3    0  502 -0.51024471612E+02  0.55435497320E+02  0.44673815521E+02  0.87691580323E+02  0.41800000000E+01 0. -1.
        -11    1    1    2    0    0  0.29366772824E+02  0.32915600950E+01  0.22795819662E+02  0.37321456403E+02  0.00000000000E+00 0. -1.
         11    1    1    2    0    0  0.13123890894E+03 -0.47047147046E+01  0.18359498497E+03  0.22572749957E+03  0.00000000000E+00 0.  1.
</event>
<event>
 8    1  0.6637272E-009  0.1829465E+03  0.7561462E-02  0.1164981E+00
         -4   -1    0    0    0  501 -0.00000000000E+00  0.00000000000E+00  0.34077040777E+03  0.34077040777E+03  0.00000000000E+00 0.  1.
          4   -1    0    0  501    0  0.00000000000E+00 -0.00000000000E+00 -0.13742648820E+03  0.13742648820E+03  0.00000000000E+00 0. -1.
         25    2    1    2    0    0  0.13256134773E+03  0.92432746276E+02  0.21574385246E+01  0.20437379885E+03  0.12509065360E+03 0.  0.
         23    2    1    2    0    0 -0.13256134773E+03 -0.92432746276E+02  0.20118648105E+03  0.27382309711E+03  0.91579281825E+02 0.  0.
          5    1    3    3  502    0  0.14368314741E+03  0.11138722764E+03 -0.46069903917E+00  0.18185061444E+03  0.41800000000E+01 0. -1.
         -5    1    3    3    0  502 -0.11121799673E+02 -0.18954481361E+02  0.26181375637E+01  0.22523184409E+02  0.41800000000E+01 0. -1.
        -11    1    4    4    0    0 -0.61004200668E+02 -0.45369270939E+02  0.16338114202E+03  0.18020344284E+03  0.00000000000E+00 0.  1.
         11    1    4    4    0    0 -0.71557147067E+02 -0.47063475337E+02  0.37805339031E+02  0.93619654274E+02  0.00000000000E+00 0. -1.
</event>
<event>
 8    1  0.6637272E-009  0.1375044E+03  0.7561462E-02  0.1216727E+00
          2   -1    0    0  501    0  0.00000000000E+00  0.00000000000E+00  0.33079545541E+03  0.33079545541E+03  0.00000000000E+00 0. -1.
         -2   -1    0    0    0  501 -0.00000000000E+00 -0.00000000000E+00 -0.73845966119E+02  0.73845966119E+02  0.00000000000E+00 0.  1.
         25    2    1    2    0    0 -0.20821725619E+02  0.98731669671E+02  0.74136603954E+02  0.17698510903E+03  0.12508399545E+03 0.  0.
         23    2    1    2    0    0  0.20821725619E+02 -0.98731669671E+02  0.18281288534E+03  0.22765631250E+03  0.90693763419E+02 0.  0.
          5    1    3    3  502    0  0.31259881197E+02  0.95970074230E+02  0.22543434327E+02  0.10350417456E+03  0.41800000000E+01 0.  1.
         -5    1    3    3    0  502 -0.52081606816E+02  0.27615954408E+01  0.51593169627E+02  0.73480934466E+02  0.41800000000E+01 0.  1.
        -11    1    4    4    0    0  0.45600833771E+02 -0.71926039153E+02  0.73789640668E+02  0.11268408148E+03  0.00000000000E+00 0. -1.
         11    1    4    4    0    0 -0.24779108153E+02 -0.26805630518E+02  0.10902324467E+03  0.11497223102E+03  0.00000000000E+00 0.  1.
</event>
<event>
 8    1  0.6637272E-009  0.1079692E+03  0.7561462E-02  0.1264378E+00
          3   -1    0    0  501    0  0.00000000000E+00  0.00000000000E+00  0.51545683786E+02  0.51545683786E+02  0.00000000000E+00 0. -1.
         -3   -1    0    0    0  501 -0.00000000000E+00 -0.00000000000E+00 -0.26623134571E+03  0.26623134571E+03  0.00000000000E+00 0.  1.
         25    2    1    2    0    0 -0.25408267268E+02  0.63406752470E+01 -0.17380341334E+03  0.21573433019E+03  0.12509152859E+03 0.  0.
         23    2    1    2    0    0  0.25408267268E+02 -0.63406752470E+01 -0.40882248581E+02  0.10204269930E+03  0.89752827386E+02 0.  0.
          5    1    3    3  502    0 -0.61995159071E+02  0.42751647928E+02 -0.92688419430E+02  0.11949777674E+03  0.41800000000E+01 0. -1.
         -5    1    3    3    0  502  0.36586891803E+02 -0.36410972681E+02 -0.81114993908E+02  0.96236553451E+02  0.41800000000E+01 0. -1.
        -11    1    4    4    0    0 -0.29410546919E+02 -0.15349648675E+02 -0.31412181152E+02  0.45687165695E+02  0.00000000000E+00 0.  1.
         11    1    4    4    0    0  0.54818814187E+02  0.90089734283E+01 -0.94700674295E+01  0.56355533608E+02  0.00000000000E+00 0. -1.
</event>
<event>
 8    1  0.6637272E-009  0.1102348E+03  0.7561462E-02  0.1260136E+00
          2   -1    0    0  501    0  0.00000000000E+00  0.00000000000E+00  0.35030410563E+03  0.35030410563E+03  0.00000000000E+00 0. -1.
         -2   -1    0    0    0  501 -0.00000000000E+00 -0.00000000000E+00 -0.48219285933E+02  0.48219285933E+02  0.00000000000E+00 0.  1.
         25    2    1    2    0    0  0.47004855140E+02  0.37569324445E+02  0.24953945866E+03  0.28554900487E+03  0.12508949679E+03 0.  0.
         23    2    1    2    0    0 -0.47004855140E+02 -0.37569324445E+02  0.52545361042E+02  0.11297438670E+03  0.79882955233E+02 0.  0.
          5    1    3    3  502    0  0.78496736594E+02  0.43486441558E+02  0.10854161835E+03  0.14089557683E+03  0.41800000000E+01 0. -1.
         -5    1    3    3    0  502 -0.31491881454E+02 -0.59171171134E+01  0.14099784031E+03  0.14465342804E+03  0.41800000000E+01 0. -1.
        -11    1    4    4    0    0  0.12872508218E+02 -0.36207439300E+02  0.30830250932E+02  0.49266464263E+02  0.00000000000E+00 0.  1.
         11    1    4    4    0    0 -0.59877363358E+02 -0.13618851453E+01  0.21715110111E+02  0.63707922435E+02  0.00000000000E+00 0. -1.
</event>
<event>
 8    1  0.6637272E-009  0.3204104E+03  0.7561462E-02  0.1075461E+00
          1   -1    0    0  501    0  0.00000000000E+00  0.00000000000E+00  0.78261498426E+03  0.78261498426E+03  0.00000000000E+00 0. -1.
         -1   -1    0    0    0  501 -0.00000000000E+00 -0.00000000000E+00 -0.15200688381E+03  0.15200688381E+03  0.00000000000E+00 0.  1.
         25    2    1    2    0    0  0.22049222475E+03  0.21822372412E+03  0.17539199099E+03  0.37768948939E+03  0.12509430421E+03 0.  0.
         23    2    1    2    0    0 -0.22049222475E+03 -0.21822372412E+03  0.45521610946E+03  0.55693237869E+03  0.81936275080E+02 0.  0.
          5    1    3    3  502    0  0.49808592558E+02  0.87135252070E+01  0.72516695790E+02  0.88504039357E+02  0.41800000000E+01 0. -1.
         -5    1    3    3    0  502  0.17068363219E+03  0.20951019891E+03  0.10287529520E+03  0.28918545003E+03  0.41800000000E+01 0. -1.
        -11    1    4    4    0    0 -0.12983559835E+03 -0.73937507222E+02  0.19034671054E+03  0.24198327997E+03  0.00000000000E+00 0. -1.
         11    1    4    4    0    0 -0.90656626403E+02 -0.14428621690E+03  0.26486939892E+03  0.31494909872E+03  0.00000000000E+00 0.  1.
</event>
<event>
 8    1  0.6637272E-009  0.9384525E+02  0.7561462E-02  0.1293798E+00
          2   -1    0    0  501    0  0.00000000000E+00  0.00000000000E+00  0.25973685487E+03  0.25973685487E+03  0.00000000000E+00 0. -1.
         -2   -1    0    0    0  501 -0.00000000000E+00 -0.00000000000E+00 -0.84634121592E+02  0.84634121592E+02  0.00000000000E+00 0.  1.
         25    2    1    2    0    0 -0.44186039904E+02 -0.31297785065E+02  0.19640966041E+03  0.23907417688E+03  0.12509096641E+03 0.  0.
         23    2    1    2    0    0  0.44186039904E+02  0.31297785065E+02 -0.21306927128E+02  0.10529679958E+03  0.87758038870E+02 0.  0.
          5    1    3    3  502    0 -0.44967351912E+02 -0.72797699461E+02  0.87532615774E+02  0.12247856551E+03  0.41800000000E+01 0.  1.
         -5    1    3    3    0  502  0.78131200856E+00  0.41499914396E+02  0.10887704463E+03  0.11659561137E+03  0.41800000000E+01 0.  1.
        -11    1    4    4    0    0  0.38944108648E+02  0.12669217452E+02 -0.53717746307E+02  0.67548123123E+02  0.00000000000E+00 0.  1.
         11    1    4    4    0    0  0.52419312561E+01  0.18628567613E+02  0.32410819178E+02  0.37748676459E+02  0.00000000000E+00 0. -1.
</event>
<event>
 8    1  0.6637272E-009  0.7045686E+02  0.7561462E-02  0.1358546E+00
         -2   -1    0    0    0  501 -0.00000000000E+00  0.00000000000E+00  0.34841350692E+02  0.34841350692E+02  0.00000000000E+00 0.  1.
          2   -1    0    0  501    0  0.00000000000E+00 -0.00000000000E+00 -0.35514573395E+03  0.35514573395E+03  0.00000000000E+00 0. -1.
         25    2    1    2    0    0  0.14339609492E+02  0.21056177930E+02 -0.20147328745E+03  0.23851166995E+03  0.12508934453E+03 0.  0.
         23    2    1    2    0    0 -0.14339609492E+02 -0.21056177930E+02 -0.11883109581E+03  0.15147541470E+03  0.90415623083E+02 0.  0.
          5    1    3    3  502    0  0.28542790263E+02  0.23184281002E+02 -0.53046364422E+00  0.37012910629E+02  0.41800000000E+01 0.  1.
         -5    1    3    3    0  502 -0.14203180771E+02 -0.21281030711E+01 -0.20094282381E+03  0.20149875932E+03  0.41800000000E+01 0.  1.
        -11    1    4    4    0    0 -0.24792462398E+02  0.28803105009E+02 -0.75788001364E+02  0.84782699890E+02  0.00000000000E+00 0.  1.
         11    1    4    4    0    0  0.10452852906E+02 -0.49859282939E+02 -0.43043094444E+02  0.66692714807E+02  0.00000000000E+00 0. -1.
</event>
<event>
 8    1  0.6637272E-009  0.1352877E+03  0.7561462E-02  0.1219814E+00
         -2   -1    0    0    0  501 -0.00000000000E+00  0.00000000000E+00  0.34580983054E+02  0.34580983054E+02  0.00000000000E+00 0.  1.
          2   -1    0    0  501    0  0.00000000000E+00 -0.00000000000E+00 -0.70759420481E+03  0.70759420481E+03  0.00000000000E+00 0. -1.
         25    2    1    2    0    0  0.10044066856E+03 -0.10384701163E+02 -0.24878128844E+03  0.29620251646E+03  0.12509049269E+03 0.  0.
         23    2    1    2    0    0 -0.10044066856E+03  0.10384701163E+02 -0.42423193332E+03  0.44597267141E+03  0.93395505656E+02 0.  0.
          5    1    3    3  502    0  0.40740662364E+02  0.57217914915E+02 -0.11439511973E+03  0.13430341460E+03  0.41800000000E+01 0.  1.
         -5    1    3    3    0  502  0.59700006194E+02 -0.67602616078E+02 -0.13438616872E+03  0.16189910186E+03  0.41800000000E+01 0.  1.
        -11    1    4    4    0    0 -0.83667892747E+02  0.25372699436E+02 -0.41030464382E+03  0.41951637738E+03  0.00000000000E+00 0. -1.
         11    1    4    4    0    0 -0.16772775811E+02 -0.14987998273E+02 -0.13927289498E+02  0.26456294022E+02  0.00000000000E+00 0.  1.
</event>
<event>
 8    1  0.6637272E-009  0.1041123E+03  0.7561462E-02  0.1271879E+00
          1   -1    0    0  501    0  0.00000000000E+00  0.00000000000E+00  0.18216133954E+03  0.18216133954E+03  0.00000000000E+00 0. -1.
         -1   -1    0    0    0  501 -0.00000000000E+00 -0.00000000000E+00 -0.93670873302E+02  0.93670873302E+02  0.00000000000E+00 0.  1.
         25    2    1    2    0    0  0.13776208278E+02  0.69851427922E+02  0.66951988555E+02  0.15874284749E+03  0.12509083483E+03 0.  0.
         23    2    1    2    0    0 -0.13776208278E+02 -0.69851427922E+02  0.21538477684E+02  0.11708936536E+03  0.90426807761E+02 0.  0.
          5    1    3    3  502    0 -0.29049369881E+02  0.51668214365E+02 -0.17747738761E+02  0.62015521422E+02  0.41800000000E+01 0.  1.
         -5    1    3    3    0  502  0.42825578159E+02  0.18183213557E+02  0.84699727316E+02  0.96727326063E+02  0.41800000000E+01 0.  1.
        -11    1    4    4    0    0  0.16078212402E+02  0.85400948005E+01 -0.16879307864E+02  0.24826461029E+02  0.00000000000E+00 0.  1.
         11    1    4    4    0    0 -0.29854420680E+02 -0.78391522722E+02  0.38417785548E+02  0.92262904329E+02  0.00000000000E+00 0. -1.
</event>
<event>
 8    1  0.6637272E-009  0.1618518E+03  0.7561462E-02  0.1186622E+00
          2   -1    0    0  501    0  0.00000000000E+00  0.00000000000E+00  0.37066836134E+03  0.37066836134E+03  0.00000000000E+00 0. -1.
         -2   -1    0    0    0  501 -0.00000000000E+00 -0.00000000000E+00 -0.13169027052E+03  0.13169027052E+03  0.00000000000E+00 0.  1.
         25    2    1    2    0    0  0.65055726626E+02 -0.13052898241E+03 -0.20110715107E+02  0.19319492767E+03  0.12509906633E+03 0.  0.
         23    2    1    2    0    0 -0.65055726626E+02  0.13052898241E+03  0.25908880593E+03  0.30916370420E+03  0.84765109684E+02 0.  0.
          5    1    3    3  502    0  0.57112209912E+02 -0.32268396535E+02 -0.57842061749E+02  0.87557012531E+02  0.41800000000E+01 0. -1.
         -5    1    3    3    0  502  0.79435167136E+01 -0.98260585878E+02  0.37731346642E+02  0.10563791514E+03  0.41800000000E+01 0. -1.
        -11    1    4    4    0    0 -0.61781477480E+02  0.52130748175E+02  0.18209626111E+03  0.19923256304E+03  0.00000000000E+00 0. -1.
         11    1    4    4    0    0 -0.32742491458E+01  0.78398234237E+02  0.76992544820E+02  0.10993114116E+03  0.00000000000E+00 0.  1.
</event>
<event>
 8    1  0.6637272E-009  0.8648538E+02  0.7561462E-02  0.1311593E+00
         -1   -1    0    0    0  501 -0.00000000000E+00  0.00000000000E+00  0.24954760650E+02  0.24954760650E+02  0.00000000000E+00 0.  1.
          1   -1    0    0  501    0  0.00000000000E+00 -0.00000000000E+00 -0.50570385294E+03  0.50570385294E+03  0.00000000000E+00 0. -1.
         25    2    1    2    0    0  0.14117315576E+02 -0.21599791111E+02 -0.35692269193E+03  0.37908751178E+03  0.12509070306E+03 0.  0.
         23    2    1    2    0    0 -0.14117315576E+02  0.21599791111E+02 -0.12382640036E+03  0.15157110182E+03  0.83516297242E+02 0.  0.
          5    1    3    3  502    0 -0.31324342632E+02 -0.55666887776E+02 -0.24858724557E+03  0.25669652880E+03  0.41800000000E+01 0.  1.
         -5    1    3    3    0  502  0.45441658208E+02  0.34067096665E+02 -0.10833544636E+03  0.12239098298E+03  0.41800000000E+01 0.  1.
        -11    1    4    4    0    0 -0.24122601541E+02 -0.40678513050E+01  0.25881787547E+00  0.24464552030E+02  0.00000000000E+00 0.  1.
         11    1    4    4    0    0  0.10005285965E+02  0.25667642416E+02 -0.12408521823E+03  0.12710654979E+03  0.00000000000E+00 0. -1.
</event>
<event>
 8    1  0.6637272E-009  0.8219765E+02  0.7561462E-02  0.1322928E+00
         -2   -1    0    0    0  501 -0.00000000000E+00  0.00000000000E+00  0.43746727095E+02  0.43746727095E+02  0.00000000000E+00 0. -1.
          2   -1    0    0  501    0  0.00000000000E+00 -0.00000000000E+00 -0.51541887136E+03  0.51541887136E+03  0.00000000000E+00 0.  1.
         25    2    1    2    0    0 -0.30265150794E+02  0.39712332086E+02 -0.42550062505E+03  0.44630948955E+03  0.12509328467E+03 0.  0.
         23    2    1    2    0    0  0.30265150794E+02 -0.39712332086E+02 -0.46171519216E+02  0.11285610891E+03  0.90064662655E+02 0.  0.
          5    1    3    3  502    0 -0.47924358306E+02  0.25873037529E+02 -0.41904766830E+03  0.42259268675E+03  0.41800000000E+01 0. -1.
         -5    1    3    3    0  502  0.17659207513E+02  0.13839294557E+02 -0.64529567471E+01  0.23716802790E+02  0.41800000000E+01 0. -1.
        -11    1    4    4    0    0  0.47821664414E+02 -0.50397085888E+01 -0.54943427800E+02  0.73014317147E+02  0.00000000000E+00 0.  1.
         11    1    4    4    0    0 -0.17556513620E+02 -0.34672623497E+02  0.87719085838E+01  0.39841791763E+02  0.00000000000E+00 0. -1.
</event>
<event>
 8    1  0.6637272E-009  0.1082327E+03  0.7561462E-02  0.1263878E+00
          1   -1    0    0  501    0  0.00000000000E+00  0.00000000000E+00  0.23923196216E+03  0.23923196216E+03  0.00000000000E+00 0. -1.
         -1   -1    0    0    0  501 -0.00000000000E+00 -0.00000000000E+00 -0.64672634184E+02  0.64672634184E+02  0.00000000000E+00 0.  1.
         25    2    1    2    0    0 -0.49410911452E+01  0.42031953042E+02  0.15016231536E+03  0.19996540795E+03  0.12508534672E+03 0.  0.
         23    2    1    2    0    0  0.49410911452E+01 -0.42031953042E+02  0.24397012615E+02  0.10393918839E+03  0.91744434166E+02 0.  0.
          5    1    3    3  502    0 -0.30429510808E+02 -0.36258220946E+02  0.72630535896E+02  0.86794474817E+02  0.41800000000E+01 0. -1.
         -5    1    3    3    0  502  0.25488419662E+02  0.78290173988E+02  0.77531779460E+02  0.11317093313E+03  0.41800000000E+01 0. -1.
        -11    1    4    4    0    0  0.29562330152E+02  0.81014103487E+01 -0.16408672033E+02  0.34767926766E+02  0.00000000000E+00 0.  1.
         11    1    4    4    0    0 -0.24621239007E+02 -0.50133363390E+02  0.40805684649E+02  0.69171261624E+02  0.00000000000E+00 0. -1.
</event>
<event>
 8    1  0.6637272E-009  0.8990245E+02  0.7561462E-02  0.1303088E+00
          4   -1    0    0  501    0  0.00000000000E+00  0.00000000000E+00  0.20881743762E+03  0.20881743762E+03  0.00000000000E+00 0. -1.
         -4   -1    0    0    0  501 -0.00000000000E+00 -0.00000000000E+00 -0.68266095089E+02  0.68266095089E+02  0.00000000000E+00 0.  1.
         25    2    1    2    0    0 -0.27671191181E+02 -0.36690435044E+02  0.10583863884E+03  0.17017834347E+03  0.12508784221E+03 0.  0.
         23    2    1    2    0    0  0.27671191181E+02  0.36690435044E+02  0.34712703689E+02  0.10690518924E+03  0.90065891677E+02 0.  0.
          5    1    3    3  502    0 -0.19145266898E+02  0.43049731306E+02  0.16601973722E+02  0.50129018957E+02  0.41800000000E+01 0. -1.
         -5    1    3    3    0  502 -0.85259242830E+01 -0.79740166350E+02  0.89236665119E+02  0.12004932451E+03  0.41800000000E+01 0. -1.
        -11    1    4    4    0    0  0.22900225732E+02  0.98306570177E+01  0.62913029642E+02  0.67669132215E+02  0.00000000000E+00 0. -1.
         11    1    4    4    0    0  0.47709654486E+01  0.26859778027E+02 -0.28200325952E+02  0.39236057024E+02  0.00000000000E+00 0.  1.
</event>
<event>
 8    1  0.6637272E-009  0.1135050E+03  0.7561462E-02  0.1254214E+00
         -1   -1    0    0    0  501 -0.00000000000E+00  0.00000000000E+00  0.37547808703E+02  0.37547808703E+02  0.00000000000E+00 0.  1.
          1   -1    0    0  501    0  0.00000000000E+00 -0.00000000000E+00 -0.38005546206E+03  0.38005546206E+03  0.00000000000E+00 0. -1.
         25    2    1    2    0    0 -0.27160250883E+02 -0.31845037655E+02 -0.14509564028E+03  0.19608232386E+03  0.12507496651E+03 0.  0.
         23    2    1    2    0    0  0.27160250883E+02  0.31845037655E+02 -0.19741201307E+03  0.22152094691E+03  0.91368711066E+02 0.  0.
          5    1    3    3  502    0  0.33615889838E+02 -0.56012437962E+02 -0.61104389166E+02  0.89546859417E+02  0.41800000000E+01 0.  1.
         -5    1    3    3    0  502 -0.60776140721E+02  0.24167400308E+02 -0.83991251119E+02  0.10653546444E+03  0.41800000000E+01 0.  1.
        -11    1    4    4    0    0 -0.45211017361E+01  0.55994356064E+02 -0.14632735005E+03  0.15674023620E+03  0.00000000000E+00 0. -1.
         11    1    4    4    0    0  0.31681352619E+02 -0.24149318409E+02 -0.51084663024E+02  0.64780710707E+02  0.00000000000E+00 0.  1.
</event>
<event>
 8    1  0.6637272E-009  0.1114965E+03  0.7561462E-02  0.1257824E+00
         -1   -1    0    0    0  501 -0.00000000000E+00  0.00000000000E+00  0.40866257625E+02  0.40866257625E+02  0.00000000000E+00 0.  1.
          1   -1    0    0  501    0  0.00000000000E+00 -0.00000000000E+00 -0.37503420732E+03  0.37503420732E+03  0.00000000000E+00 0. -1.
         25    2    1    2    0    0 -0.35991080094E+02 -0.87285286925E+01 -0.10757328310E+03  0.16909075655E+03  0.12509247641E+03 0.  0.
         23    2    1    2    0    0  0.35991080094E+02  0.87285286925E+01 -0.22659466660E+03  0.24680970840E+03  0.90544708130E+02 0.  0.
          5    1    3    3  502    0 -0.60415928082E+02  0.40311510346E+02 -0.43822075509E+02  0.84929081794E+02  0.41800000000E+01 0.  1.
         -5    1    3    3    0  502  0.24424847988E+02 -0.49040039039E+02 -0.63751207590E+02  0.84161674754E+02  0.41800000000E+01 0.  1.
        -11    1    4    4    0    0  0.44941920801E+02  0.41593515428E+02 -0.11717814524E+03  0.13221389675E+03  0.00000000000E+00 0.  1.
         11    1    4    4    0    0 -0.89508407069E+01 -0.32864986735E+02 -0.10941652136E+03  0.11459581166E+03  0.00000000000E+00 0. -1.
</event>
<event>
 8    1  0.6637272E-009  0.1058232E+03  0.7561462E-02  0.1268506E+00
          2   -1    0    0  501    0  0.00000000000E+00  0.00000000000E+00  0.94721248016E+03  0.94721248016E+03  0.00000000000E+00 0.  1.
         -2   -1    0    0    0  501 -0.00000000000E+00 -0.00000000000E+00 -0.20081423060E+02  0.20081423060E+02  0.00000000000E+00 0. -1.
         25    2    1    2    0    0  0.84033132236E+02  0.49246357709E+01  0.48523658062E+03  0.50812163206E+03  0.12508890618E+03 0.  0.
         23    2    1    2    0    0 -0.84033132236E+02 -0.49246357709E+01  0.44189447648E+03  0.45917227116E+03  0.92101177540E+02 0.  0.
          5    1    3    3  502    0  0.69454672304E+02  0.21440122517E+02  0.47947402282E+03  0.48497055717E+03  0.41800000000E+01 0. -1.
         -5    1    3    3    0  502  0.14578459932E+02 -0.16515486747E+02  0.57625577975E+01  0.23151074896E+02  0.41800000000E+01 0. -1.
        -11    1    4    4    0    0 -0.88656886205E+02 -0.27928072793E+02  0.40437107527E+03  0.41491684376E+03  0.00000000000E+00 0.  1.
         11    1    4    4    0    0  0.46237539697E+01  0.23003437022E+02  0.37523401215E+02  0.44255427400E+02  0.00000000000E+00 0. -1.
</event>
<event>
 8    1  0.6637272E-009  0.7095977E+02  0.7561462E-02  0.1356859E+00
          2   -1    0    0  501    0  0.00000000000E+00  0.00000000000E+00  0.14719116599E+04  0.14719116599E+04  0.00000000000E+00 0. -1.
         -2   -1    0    0    0  501 -0.00000000000E+00 -0.00000000000E+00 -0.10484354090E+02  0.10484354090E+02  0.00000000000E+00 0.  1.
         25    2    1    2    0    0  0.25577623578E+02 -0.17585745212E+02  0.11244708746E+04  0.11318329366E+04  0.12509026768E+03 0.  0.
         23    2    1    2    0    0 -0.25577623578E+02  0.17585745212E+02  0.33695643113E+03  0.35056307741E+03  0.91604374892E+02 0.  0.
          5    1    3    3  502    0  0.63848109236E+01 -0.28132585907E+02  0.56024565659E+02  0.63154038332E+02  0.41800000000E+01 0.  1.
         -5    1    3    3    0  502  0.19192812654E+02  0.10546840695E+02  0.10684463090E+04  0.10686788982E+04  0.41800000000E+01 0.  1.
        -11    1    4    4    0    0  0.14477649093E+02  0.41411598615E+02  0.22595891063E+03  0.23017808782E+03  0.00000000000E+00 0. -1.
         11    1    4    4    0    0 -0.40055272670E+02 -0.23825853403E+02  0.11099752050E+03  0.12038498958E+03  0.00000000000E+00 0.  1.
</event>
<event>
 8    1  0.6637272E-009  0.1199318E+03  0.7561462E-02  0.1243210E+00
          2   -1    0    0  501    0  0.00000000000E+00  0.00000000000E+00  0.23946272162E+03  0.23946272162E+03  0.00000000000E+00 0. -1.
         -2   -1    0    0    0  501 -0.00000000000E+00 -0.00000000000E+00 -0.71471801050E+02  0.71471801050E+02  0.00000000000E+00 0.  1.
         25    2    1    2    0    0 -0.58162222884E+02  0.47485364602E+02  0.98692231764E+02  0.17614080145E+03  0.12509085220E+03 0.  0.
         23    2    1    2    0    0  0.58162222884E+02 -0.47485364602E+02  0.69298688806E+02  0.13479372122E+03  0.87916636577E+02 0.  0.
          5    1    3    3  502    0 -0.90924269586E+02  0.52756237798E+01  0.72512974041E+02  0.11649317066E+03  0.41800000000E+01 0.  1.
         -5    1    3    3    0  502  0.32762046702E+02  0.42209740822E+02  0.26179257723E+02  0.59647630794E+02  0.41800000000E+01 0.  1.
        -11    1    4    4    0    0  0.26314959966E+02  0.10983559076E+02  0.61461619234E+02  0.67754308548E+02  0.00000000000E+00 0. -1.
         11    1    4    4    0    0  0.31847262918E+02 -0.58468923678E+02  0.78370695720E+01  0.67039412669E+02  0.00000000000E+00 0.  1.
</event>
<event>
 8    1  0.6637272E-009  0.7721537E+02  0.7561462E-02  0.1337145E+00
          3   -1    0    0  501    0  0.00000000000E+00  0.00000000000E+00  0.38941392223E+02  0.38941392223E+02  0.00000000000E+00 0. -1.
         -3   -1    0    0    0  501 -0.00000000000E+00 -0.00000000000E+00 -0.36370332486E+03  0.36370332486E+03  0.00000000000E+00 0.  1.
         25    2    1    2    0    0 -0.55718339494E+01 -0.35400049292E+02 -0.24404768382E+03  0.27657022677E+03  0.12509040543E+03 0.  0.
         23    2    1    2    0    0  0.55718339494E+01  0.35400049292E+02 -0.80714248810E+02  0.12607449031E+03  0.89976543187E+02 0.  0.
          5    1    3    3  502    0  0.30916635494E+02 -0.34939360887E+02 -0.23378795294E+03  0.23843421866E+03  0.41800000000E+01 0.  1.
         -5    1    3    3    0  502 -0.36488469444E+02 -0.46068840484E+00 -0.10259730883E+02  0.38136008102E+02  0.41800000000E+01 0.  1.
        -11    1    4    4    0    0  0.28319235114E+02  0.38615082381E+02 -0.89478129697E+02  0.10148615353E+03  0.00000000000E+00 0.  1.
         11    1    4    4    0    0 -0.22747401164E+02 -0.32150330895E+01  0.87638808876E+01  0.24588336782E+02  0.00000000000E+00 0. -1.
</event>
<event>
 7    1  0.6637272E-009  0.1290533E+03  0.7561462E-02  0.1228867E+00
          1   -1    0    0  501    0  0.00000000000E+00  0.00000000000E+00  0.14299739468E+03  0.14299739468E+03  0.00000000000E+00 0. -1.
         -1   -1    0    0    0  501 -0.00000000000E+00 -0.00000000000E+00 -0.17899212939E+03  0.17899212939E+03  0.00000000000E+00 0.  1.
         23    2    1    2    0    0 -0.61503984834E+01 -0.97787940119E+02 -0.79274825792E+02  0.15721306781E+03  0.93974156291E+02 0.  0.
          5    1    1    2  502    0 -0.52840083126E+02  0.21229178488E+02  0.36567172403E+02  0.67804003581E+02  0.41800000000E+01 0.  1.
         -5    1    1    2    0  502  0.58990481610E+02  0.76558761631E+02  0.67129186745E+01  0.96972452687E+02  0.41800000000E+01 0.  1.
        -11    1    3    3    0    0  0.13132228892E+02 -0.64285800755E+02 -0.95021432983E+02  0.11547377339E+03  0.00000000000E+00 0.  1.
         11    1    3    3    0    0 -0.19282627376E+02 -0.33502139364E+02  0.15746607191E+02  0.41739294418E+02  0.00000000000E+00 0. -1.
</event>
<event>
 8    1  0.6637272E-009  0.1488793E+03  0.7561462E-02  0.1201857E+00
         -1   -1    0    0    0  501 -0.00000000000E+00  0.00000000000E+00  0.42143084952E+02  0.42143084952E+02  0.00000000000E+00 0.  1.
          1   -1    0    0  501    0  0.00000000000E+00 -0.00000000000E+00 -0.59616987213E+03  0.59616987213E+03  0.00000000000E+00 0. -1.
         25    2    1    2    0    0 -0.95827094386E+02 -0.51131732341E+02 -0.37720103515E+03  0.41197773959E+03  0.12509097063E+03 0.  0.
         23    2    1    2    0    0  0.95827094386E+02  0.51131732341E+02 -0.17682575202E+03  0.22633521748E+03  0.90349311140E+02 0.  0.
          5    1    3    3  502    0 -0.11113341423E+02 -0.73518734332E+02 -0.13201209124E+03  0.15156904463E+03  0.41800000000E+01 0.  1.
         -5    1    3    3    0  502 -0.84713752963E+02  0.22387001991E+02 -0.24518894391E+03  0.26040869497E+03  0.41800000000E+01 0.  1.
        -11    1    4    4    0    0  0.62708213200E+02 -0.12397446571E+02 -0.51961600921E+02  0.82377330950E+02  0.00000000000E+00 0.  1.
         11    1    4    4    0    0  0.33118881186E+02  0.63529178912E+02 -0.12486415110E+03  0.14395788653E+03  0.00000000000E+00 0. -1.
</event>
<event>
 8    1  0.6637272E-009  0.9903716E+02  0.7561462E-02  0.1282334E+00
          1   -1    0    0  501    0  0.00000000000E+00  0.00000000000E+00  0.49898275169E+02  0.49898275169E+02  0.00000000000E+00 0. -1.
         -1   -1    0    0    0  501 -0.00000000000E+00 -0.00000000000E+00 -0.33166108642E+03  0.33166108642E+03  0.00000000000E+00 0.  1.
         25    2    1    2    0    0  0.11835627860E+02  0.62750812348E+02 -0.20144235279E+03  0.24556916207E+03  0.12508974908E+03 0.  0.
         23    2    1    2    0    0 -0.11835627860E+02 -0.62750812348E+02 -0.80320458462E+02  0.13599019952E+03  0.89242432627E+02 0.  0.
          5    1    3    3  502    0  0.23576048811E+00 -0.21120270356E+02  0.52550507414E+01  0.22163243472E+02  0.41800000000E+01 0.  1.
         -5    1    3    3    0  502  0.11599867372E+02  0.83871082704E+02 -0.20669740353E+03  0.22340591860E+03  0.41800000000E+01 0.  1.
        -11    1    4    4    0    0  0.61407723523E+01 -0.71510336240E+02 -0.88877358862E+02  0.11423931982E+03  0.00000000000E+00 0.  1.
         11    1    4    4    0    0 -0.17976400213E+02  0.87595238918E+01  0.85569004000E+01  0.21750879703E+02  0.00000000000E+00 0. -1.
</event>
<event>
 8    1  0.6637272E-009  0.1313722E+03  0.7561462E-02  0.1225434E+00
         -2   -1    0    0    0  501 -0.00000000000E+00  0.00000000000E+00  0.40799347763E+02  0.40799347763E+02  0.00000000000E+00 0.  1.
          2   -1    0    0  501    0  0.00000000000E+00 -0.00000000000E+00 -0.72038531109E+03  0.72038531109E+03  0.00000000000E+00 0. -1.
         25    2    1    2    0    0 -0.17738659276E+02 -0.87913492658E+02 -0.14550487814E+03  0.21180668174E+03  0.12508780373E+03 0.  0.
         23    2    1    2    0    0  0.17738659276E+02  0.87913492658E+02 -0.53408108519E+03  0.54937797712E+03  0.92358616081E+02 0.  0.
          5    1    3    3  502    0 -0.30622501104E+02  0.14203785471E+02 -0.60176194599E+00  0.34019400539E+02  0.41800000000E+01 0. -1.
         -5    1    3    3    0  502  0.12883841828E+02 -0.10211727813E+03 -0.14490311620E+03  0.17778728120E+03  0.41800000000E+01 0. -1.
        -11    1    4    4    0    0  0.37502505584E+02  0.19941919603E+01 -0.11014383636E+03  0.11637044047E+03  0.00000000000E+00 0.  1.
         11    1    4    4    0    0 -0.19763846308E+02  0.85919300697E+02 -0.42393724882E+03  0.43300753665E+03  0.00000000000E+00 0. -1.
</event>
<event>
 8    1  0.6637272E-009  0.1109434E+03  0.7561462E-02  0.1258833E+00
         -3   -1    0    0    0  501 -0.00000000000E+00  0.00000000000E+00  0.23859865936E+03  0.23859865936E+03  0.00000000000E+00 0.  1.
          3   -1    0    0  501    0  0.00000000000E+00 -0.00000000000E+00 -0.13160308090E+03  0.13160308090E+03  0.00000000000E+00 0. -1.
         25    2    1    2    0    0  0.32600193984E+02  0.42147324669E+02 -0.77186689732E+02  0.15634651614E+03  0.12508908191E+03 0.  0.
         23    2    1    2    0    0 -0.32600193984E+02 -0.42147324669E+02  0.18418226819E+03  0.21385522412E+03  0.94719477094E+02 0.  0.
          5    1    3    3  502    0 -0.17744235147E+02 -0.35903287659E+02 -0.38289555953E+02  0.55564974946E+02  0.41800000000E+01 0.  1.
         -5    1    3    3    0  502  0.50344429131E+02  0.78050612328E+02 -0.38897133779E+02  0.10078154119E+03  0.41800000000E+01 0.  1.
        -11    1    4    4    0    0 -0.47624324637E+02 -0.41700645568E+01  0.15863496858E+03  0.16568198149E+03  0.00000000000E+00 0. -1.
         11    1    4    4    0    0  0.15024130653E+02 -0.37977260112E+02  0.25547299619E+02  0.48173242628E+02  0.00000000000E+00 0.  1.
</event>
<event>
 8    1  0.6637272E-009  0.1136999E+03  0.7561462E-02  0.1253868E+00
         -1   -1    0    0    0  501 -0.00000000000E+00  0.00000000000E+00  0.94455498917E+02  0.94455498917E+02  0.00000000000E+00 0.  1.
          1   -1    0    0  501    0  0.00000000000E+00 -0.00000000000E+00 -0.15421688613E+03  0.15421688613E+03  0.00000000000E+00 0. -1.
         25    2    1    2    0    0 -0.52691876171E+02 -0.90061819949E+01 -0.34528371320E+02  0.14034937710E+03  0.12509274199E+03 0.  0.
         23    2    1    2    0    0  0.52691876171E+02  0.90061819949E+01 -0.25233015890E+02  0.10832300794E+03  0.90772373713E+02 0.  0.
          5    1    3    3  502    0  0.29226100141E+02 -0.29938063868E+02 -0.36491109160E+02  0.55673387227E+02  0.41800000000E+01 0. -1.
         -5    1    3    3    0  502 -0.81917976312E+02  0.20931881873E+02  0.19627378396E+01  0.84675989877E+02  0.41800000000E+01 0. -1.
        -11    1    4    4    0    0  0.26935601653E+02 -0.38307805894E+02 -0.27677749201E+02  0.54397356826E+02  0.00000000000E+00 0.  1.
         11    1    4    4    0    0  0.25756274518E+02  0.47313987889E+02  0.24447333108E+01  0.53925651113E+02  0.00000000000E+00 0. -1.
</event>
<event>
 8    1  0.6637272E-009  0.1170038E+03  0.7561462E-02  0.1248123E+00
          1   -1    0    0  501    0  0.00000000000E+00  0.00000000000E+00  0.40241263512E+03  0.40241263512E+03  0.00000000000E+00 0. -1.
         -1   -1    0    0    0  501 -0.00000000000E+00 -0.00000000000E+00 -0.54264424292E+02  0.54264424292E+02  0.00000000000E+00 0.  1.
         25    2    1    2    0    0  0.87136828205E+02 -0.27567564287E+02  0.11997825883E+03  0.19594591997E+03  0.12508886253E+03 0.  0.
         23    2    1    2    0    0 -0.87136828205E+02  0.27567564287E+02  0.22816995200E+03  0.26073113945E+03  0.86985071433E+02 0.  0.
          5    1    3    3  502    0  0.54562994332E+02 -0.48754762549E+02  0.38218777118E+01  0.73390914771E+02  0.41800000000E+01 0.  1.
         -5    1    3    3    0  502  0.32573833874E+02  0.21187198262E+02  0.11615638112E+03  0.12255500520E+03  0.41800000000E+01 0.  1.
        -11    1    4    4    0    0 -0.92724777035E+02 -0.79303340202E+00  0.19960506792E+03  0.22009247220E+03  0.00000000000E+00 0. -1.
         11    1    4    4    0    0  0.55879488297E+01  0.28360597689E+02  0.28564884072E+02  0.40638667246E+02  0.00000000000E+00 0.  1.
</event>
<event>
 8    1  0.6637272E-009  0.1506354E+03  0.7561462E-02  0.1199694E+00
          2   -1    0    0  501    0  0.00000000000E+00  0.00000000000E+00  0.66935715765E+03  0.66935715765E+03  0.00000000000E+00 0. -1.
         -2   -1    0    0    0  501 -0.00000000000E+00 -0.00000000000E+00 -0.44026758680E+02  0.44026758680E+02  0.00000000000E+00 0.  1.
         25    2    1    2    0    0  0.71744873361E+02 -0.96092002383E+02  0.21209833440E+03  0.27388998384E+03  0.12509604317E+03 0.  0.
         23    2    1    2    0    0 -0.71744873361E+02  0.96092002383E+02  0.41323206457E+03  0.43949393249E+03  0.89516354549E+02 0.  0.
          5    1    3    3  502    0  0.44516621498E+01 -0.10226392200E+03  0.15235227085E+03  0.18359306597E+03  0.41800000000E+01 0. -1.
         -5    1    3    3    0  502  0.67293211211E+02  0.61719196177E+01  0.59746063545E+02  0.90296917865E+02  0.41800000000E+01 0. -1.
        -11    1    4    4    0    0  0.75080536118E+01  0.19539113781E+02  0.13630361503E+02  0.24978682733E+02  0.00000000000E+00 0.  1.
         11    1    4    4    0    0 -0.79252926972E+02  0.76552888601E+02  0.39960170306E+03  0.41451524975E+03  0.00000000000E+00 0. -1.
</event>
<event>
 8    1  0.6637272E-009  0.1212617E+03  0.7561462E-02  0.1241030E+00
         -2   -1    0    0    0  501 -0.00000000000E+00  0.00000000000E+00  0.13088851097E+02  0.13088851097E+02  0.00000000000E+00 0.  1.
          2   -1    0    0  501    0  0.00000000000E+00 -0.00000000000E+00 -0.17727597982E+04  0.17727597982E+04  0.00000000000E+00 0. -1.
         25    2    1    2    0    0  0.48148354495E+02 -0.51354540226E+02 -0.14266833157E+04  0.14338860786E+04  0.12509376564E+03 0.  0.
         23    2    1    2    0    0 -0.48148354495E+02  0.51354540226E+02 -0.33298763144E+03  0.35196257076E+03  0.89673494851E+02 0.  0.
          5    1    3    3  502    0  0.83454670956E+02 -0.15417875414E+02 -0.11042233876E+04  0.11074877675E+04  0.41800000000E+01 0.  1.
         -5    1    3    3    0  502 -0.35306316461E+02 -0.35936664812E+02 -0.32245992806E+03  0.32639831106E+03  0.41800000000E+01 0.  1.
        -11    1    4    4    0    0 -0.69395882591E+02  0.26450834178E+02 -0.16686920127E+03  0.18264929642E+03  0.00000000000E+00 0.  1.
         11    1    4    4    0    0  0.21247528096E+02  0.24903706047E+02 -0.16611843017E+03  0.16931327434E+03  0.00000000000E+00 0. -1.
</event>
<event>
 8    1  0.6637272E-009  0.1097509E+03  0.7561462E-02  0.1261032E+00
          1   -1    0    0  501    0  0.00000000000E+00  0.00000000000E+00  0.48176916117E+03  0.48176916117E+03  0.00000000000E+00 0. -1.
         -1   -1    0    0    0  501 -0.00000000000E+00 -0.00000000000E+00 -0.28815504746E+02  0.28815504746E+02  0.00000000000E+00 0.  1.
         25    2    1    2    0    0 -0.14609475330E+02 -0.25197788611E+02  0.33202346113E+03  0.35599813392E+03  0.12508687897E+03 0.  0.
         23    2    1    2    0    0  0.14609475330E+02  0.25197788611E+02  0.12093019530E+03  0.15458653200E+03  0.91785175394E+02 0.  0.
          5    1    3    3  502    0 -0.31465904791E+02 -0.70980621400E+02  0.23095885871E+03  0.24369616040E+03  0.41800000000E+01 0.  1.
         -5    1    3    3    0  502  0.16856429460E+02  0.45782832790E+02  0.10106460242E+03  0.11230197352E+03  0.41800000000E+01 0.  1.
        -11    1    4    4    0    0  0.10980959922E+02 -0.32841252146E+02  0.26167632130E+02  0.43403620755E+02  0.00000000000E+00 0.  1.
         11    1    4    4    0    0  0.36285154085E+01  0.58039040756E+02  0.94762563167E+02  0.11118291125E+03  0.00000000000E+00 0. -1.
</event>
<event>
 8    1  0.6637272E-009  0.1408756E+03  0.7561462E-02  0.1212156E+00
         -2   -1    0    0    0  501 -0.00000000000E+00  0.00000000000E+00  0.51491041584E+02  0.51491041584E+02  0.00000000000E+00 0.  1.
          2   -1    0    0  501    0  0.00000000000E+00 -0.00000000000E+00 -0.56927219179E+03  0.56927219179E+03  0.00000000000E+00 0. -1.
         25    2    1    2    0    0 -0.11637439946E+03 -0.64090048468E+02 -0.31043896395E+03  0.36009845396E+03  0.12509201029E+03 0.  0.
         23    2    1    2    0    0  0.11637439946E+03  0.64090048468E+02 -0.20734218625E+03  0.26066477942E+03  0.85468180432E+02 0.  0.
          5    1    3    3  502    0 -0.25938816711E+02  0.12883896498E+02 -0.17362344921E+01  0.29313885985E+02  0.41800000000E+01 0.  1.
         -5    1    3    3    0  502 -0.90435582750E+02 -0.76973944965E+02 -0.30870272946E+03  0.33078456797E+03  0.41800000000E+01 0.  1.
        -11    1    4    4    0    0  0.80472861272E+02  0.51830229881E+02 -0.71093666958E+02  0.11923323200E+03  0.00000000000E+00 0.  1.
         11    1    4    4    0    0  0.35901538189E+02  0.12259818586E+02 -0.13624851929E+03  0.14143154742E+03  0.00000000000E+00 0. -1.
</event>
<event>
 8    1  0.6637272E-009  0.7791327E+02  0.7561462E-02  0.1335080E+00
         -2   -1    0    0    0  501 -0.00000000000E+00  0.00000000000E+00  0.11165053061E+02  0.11165053061E+02  0.00000000000E+00 0.  1.
          2   -1    0    0  501    0  0.00000000000E+00 -0.00000000000E+00 -0.13319583392E+04  0.13319583392E+04  0.00000000000E+00 0. -1.
         25    2    1    2    0    0  0.17773240517E+02  0.75157613986E+01 -0.10311463516E+04  0.10388850502E+04  0.12508786679E+03 0.  0.
         23    2    1    2    0    0 -0.17773240517E+02 -0.75157613986E+01 -0.28964693448E+03  0.30423834197E+03  0.91067268138E+02 0.  0.
          5    1    3    3  502    0  0.13024464411E+02 -0.25980914003E+02 -0.56779324157E+02  0.63921894663E+02  0.41800000000E+01 0. -1.
         -5    1    3    3    0  502  0.47487761065E+01  0.33496675401E+02 -0.97436702746E+03  0.97496315558E+03  0.41800000000E+01 0. -1.
        -11    1    4    4    0    0 -0.20273049585E+02  0.39973677539E+02 -0.15939144888E+03  0.16557332337E+03  0.00000000000E+00 0. -1.
         11    1    4    4    0    0  0.24998090683E+01 -0.47489438938E+02 -0.13025548560E+03  0.13866501860E+03  0.00000000000E+00 0.  1.
</event>
<event>
 8    1  0.6637272E-009  0.1958622E+03  0.7561462E-02  0.1153278E+00
         -1   -1    0    0    0  501 -0.00000000000E+00  0.00000000000E+00  0.11391028605E+03  0.11391028605E+03  0.00000000000E+00 0.  1.
          1   -1    0    0  501    0  0.00000000000E+00 -0.00000000000E+00 -0.38490694177E+03  0.38490694177E+03  0.00000000000E+00 0. -1.
         25    2    1    2    0    0 -0.11031421394E+03  0.14154823744E+03 -0.12496405224E+03  0.25193014775E+03  0.12509058987E+03 0.  0.
         23    2    1    2    0    0  0.11031421394E+03 -0.14154823744E+03 -0.14603260348E+03  0.24688708007E+03  0.86154394583E+02 0.  0.
          5    1    3    3  502    0 -0.30896455138E+02 -0.98407197334E+01  0.98803133932E+01  0.34154409638E+02  0.41800000000E+01 0. -1.
         -5    1    3    3    0  502 -0.79417758806E+02  0.15138895717E+03 -0.13484436564E+03  0.21777573811E+03  0.41800000000E+01 0. -1.
        -11    1    4    4    0    0  0.11210258475E+03 -0.11214828322E+03 -0.86888103168E+02  0.18081418476E+03  0.00000000000E+00 0.  1.
         11    1    4    4    0    0 -0.17883708037E+01 -0.29399954217E+02 -0.59144500310E+02  0.66072895312E+02  0.00000000000E+00 0. -1.
</event>
<event>
 8    1  0.6637272E-009  0.1003626E+03  0.7561462E-02  0.1279535E+00
          3   -1    0    0  501    0  0.00000000000E+00  0.00000000000E+00  0.20215607513E+03  0.20215607513E+03  0.00000000000E+00 0. -1.
         -3   -1    0    0    0  501 -0.00000000000E+00 -0.00000000000E+00 -0.78129953713E+02  0.78129953713E+02  0.00000000000E+00 0.  1.
         25    2    1    2    0    0  0.40263596498E+02 -0.49978806694E+02  0.71720758612E+02  0.15782753826E+03  0.12508647528E+03 0.  0.
         23    2    1    2    0    0 -0.40263596498E+02  0.49978806694E+02  0.52305362808E+02  0.12245849058E+03  0.90228557648E+02 0.  0.
          5    1    3    3  502    0 -0.14650579280E+01 -0.64741895652E+02  0.88984402368E+02  0.11013335422E+03  0.41800000000E+01 0. -1.
         -5    1    3    3    0  502  0.41728654426E+02  0.14763088958E+02 -0.17263643756E+02  0.47694184043E+02  0.41800000000E+01 0. -1.
        -11    1    4    4    0    0 -0.39288089652E+02 -0.20427943181E+01 -0.10676821238E+02  0.40764218488E+02  0.00000000000E+00 0.  1.
         11    1    4    4    0    0 -0.97550684600E+00  0.52021601012E+02  0.62982184046E+02  0.81694272092E+02  0.00000000000E+00 0. -1.
</event>
<event>
 8    1  0.6637272E-009  0.1554563E+03  0.7561462E-02  0.1193924E+00
          2   -1    0    0  501    0  0.00000000000E+00  0.00000000000E+00  0.12831282872E+04  0.12831282872E+04  0.00000000000E+00 0. -1.
         -2   -1    0    0    0  501 -0.00000000000E+00 -0.00000000000E+00 -0.20898218606E+02  0.20898218606E+02  0.00000000000E+00 0.  1.
         25    2    1    2    0    0 -0.11419477984E+03 -0.38294873377E+02  0.75558736460E+03  0.77528465855E+03  0.12508833348E+03 0.  0.
         23    2    1    2    0    0  0.11419477984E+03  0.38294873377E+02  0.50664270401E+03  0.52874184727E+03  0.91510471846E+02 0.  0.
          5    1    3    3  502    0 -0.70584124880E+02 -0.74576734002E+02  0.32251680021E+03  0.33849426399E+03  0.41800000000E+01 0.  1.
         -5    1    3    3    0  502 -0.43610654964E+02  0.36281860625E+02  0.43307056440E+03  0.43679039456E+03  0.41800000000E+01 0.  1.
        -11    1    4    4    0    0  0.11937076528E+03  0.70376763418E+01  0.40210608093E+03  0.41950948596E+03  0.00000000000E+00 0.  1.
         11    1    4    4    0    0 -0.51759854373E+01  0.31257197035E+02  0.10453662308E+03  0.10923236130E+03  0.00000000000E+00 0. -1.
</event>
<event>
 8    1  0.6637272E-009  0.8988219E+02  0.7561462E-02  0.1303137E+00
         -2   -1    0    0    0  501 -0.00000000000E+00  0.00000000000E+00  0.39531668012E+02  0.39531668012E+02  0.00000000000E+00 0.  1.
          2   -1    0    0  501    0  0.00000000000E+00 -0.00000000000E+00 -0.43052368105E+03  0.43052368105E+03  0.00000000000E+00 0. -1.
         25    2    1    2    0    0  0.20418929940E+02  0.33490588615E+01 -0.92426415531E+02  0.15688474414E+03  0.12506810849E+03 0.  0.
         23    2    1    2    0    0 -0.20418929940E+02 -0.33490588615E+01 -0.29856559751E+03  0.31317060492E+03  0.92229403524E+02 0.  0.
          5    1    3    3  502    0 -0.42489806046E+01  0.43146381473E+02  0.95537159568E+01  0.44591590676E+02  0.41800000000E+01 0. -1.
         -5    1    3    3    0  502  0.24667910544E+02 -0.39797322612E+02 -0.10198013149E+03  0.11229315347E+03  0.41800000000E+01 0. -1.
        -11    1    4    4    0    0  0.31062594980E+02 -0.17704962252E+02 -0.17380172249E+03  0.17744122755E+03  0.00000000000E+00 0. -1.
         11    1    4    4    0    0 -0.51481524920E+02  0.14355903390E+02 -0.12476387502E+03  0.13572937736E+03  0.00000000000E+00 0.  1.
</event>
<event>
 7    1  0.6637272E-009  0.1164439E+03  0.7561462E-02  0.1249082E+00
         -2   -1    0    0    0  501 -0.00000000000E+00  0.00000000000E+00  0.46113513166E+03  0.46113513166E+03  0.00000000000E+00 0. -1.
          2   -1    0    0  501    0  0.00000000000E+00 -0.00000000000E+00 -0.37982966810E+02  0.37982966810E+02  0.00000000000E+00 0.  1.
         23    2    1    2    0    0  0.41526635978E+02  0.57204231325E+02  0.14227069308E+03  0.18367019175E+03  0.92179193158E+02 0.  0.
          5    1    1    2  502    0 -0.33852735609E+02 -0.91143258008E+02  0.14154631819E+03  0.17177291341E+03  0.41800000000E+01 0. -1.
         -5    1    1    2    0  502 -0.76739003694E+01  0.33939026683E+02  0.13933515358E+03  0.14367499331E+03  0.41800000000E+01 0. -1.
        -11    1    3    3    0    0  0.37173606332E+02 -0.55799566836E+01  0.12792860402E+02  0.39707306652E+02  0.00000000000E+00 0.  1.
         11    1    3    3    0    0  0.43530296462E+01  0.62784188009E+02  0.12947783268E+03  0.14396288510E+03  0.00000000000E+00 0. -1.
</event>
<event>
 8    1  0.6637272E-009  0.1805981E+03  0.7561462E-02  0.1167225E+00
          1   -1    0    0  501    0  0.00000000000E+00  0.00000000000E+00  0.38338133755E+03  0.38338133755E+03  0.00000000000E+00 0. -1.
         -1   -1    0    0    0  501 -0.00000000000E+00 -0.00000000000E+00 -0.10055925280E+03  0.10055925280E+03  0.00000000000E+00 0.  1.
         25    2    1    2    0    0 -0.16048833179E+03 -0.10518647889E+02  0.11321103366E+03  0.23307730568E+03  0.12506456608E+03 0.  0.
         23    2    1    2    0    0  0.16048833179E+03  0.10518647889E+02  0.16961105110E+03  0.25086328467E+03  0.91089693950E+02 0.  0.
          5    1    3    3  502    0 -0.12486407915E+03 -0.47588363605E+02  0.12171667306E+03  0.18079853847E+03  0.41800000000E+01 0.  1.
         -5    1    3    3    0  502 -0.35624252636E+02  0.37069715716E+02 -0.85056394021E+01  0.52278767208E+02  0.41800000000E+01 0.  1.
        -11    1    4    4    0    0  0.54223265376E+02 -0.30268800149E+02  0.99160812760E+02  0.11700098101E+03  0.00000000000E+00 0. -1.
         11    1    4    4    0    0  0.10626506641E+03  0.40787448038E+02  0.70450238341E+02  0.13386230365E+03  0.00000000000E+00 0.  1.
</event>
<event>
 8    1  0.6637272E-009  0.8392211E+02  0.7561462E-02  0.1318276E+00
         -1   -1    0    0    0  501 -0.00000000000E+00  0.00000000000E+00  0.12695000059E+03  0.12695000059E+03  0.00000000000E+00 0.  1.
          1   -1    0    0  501    0  0.00000000000E+00 -0.00000000000E+00 -0.10626596031E+03  0.10626596031E+03  0.00000000000E+00 0. -1.
         25    2    1    2    0    0  0.28782560187E+01 -0.96606906541E+01 -0.29124502394E+02  0.12885352317E+03  0.12511347046E+03 0.  0.
         23    2    1    2    0    0 -0.28782560187E+01  0.96606906541E+01  0.49808542679E+02  0.10436243774E+03  0.91153794134E+02 0.  0.
          5    1    3    3  502    0  0.32512284685E+02  0.17003168329E+02  0.36522123222E+02  0.51937407264E+02  0.41800000000E+01 0.  1.
         -5    1    3    3    0  502 -0.29634028666E+02 -0.26663858983E+02 -0.65646625616E+02  0.76916115903E+02  0.41800000000E+01 0.  1.
        -11    1    4    4    0    0 -0.15489008045E+02 -0.38263037860E+02  0.29840518686E+02  0.50935508164E+02  0.00000000000E+00 0.  1.
         11    1    4    4    0    0  0.12610752026E+02  0.47923728514E+02  0.19968023993E+02  0.53426929573E+02  0.00000000000E+00 0. -1.
</event>
<event>
 8    1  0.6637272E-009  0.1852662E+03  0.7561462E-02  0.1162802E+00
          2   -1    0    0  501    0  0.00000000000E+00  0.00000000000E+00  0.51835287785E+03  0.51835287785E+03  0.00000000000E+00 0.  1.
         -2   -1    0    0    0  501 -0.00000000000E+00 -0.00000000000E+00 -0.68042903411E+02  0.68042903411E+02  0.00000000000E+00 0. -1.
         25    2    1    2    0    0  0.62217628896E+01  0.15153535380E+03  0.27161997589E+03  0.33529991056E+03  0.12508774892E+03 0.  0.
         23    2    1    2    0    0 -0.62217628896E+01 -0.15153535380E+03  0.17868999855E+03  0.25109587071E+03  0.90096320223E+02 0.  0.
          5    1    3    3  502    0 -0.55297859990E+02  0.10694622741E+03  0.16364799400E+03  0.20320799004E+03  0.41800000000E+01 0. -1.
         -5    1    3    3    0  502  0.61519622879E+02  0.44589126394E+02  0.10797198189E+03  0.13209192052E+03  0.41800000000E+01 0. -1.
        -11    1    4    4    0    0  0.27999983397E+02 -0.13121454053E+03  0.15404985422E+03  0.20428561453E+03  0.00000000000E+00 0.  1.
         11    1    4    4    0    0 -0.34221746287E+02 -0.20320813275E+02  0.24640144325E+02  0.46810256178E+02  0.00000000000E+00 0. -1.
</event>
<event>
 8    1  0.6637272E-009  0.8191730E+02  0.7561462E-02  0.1323697E+00
          1   -1    0    0  501    0  0.00000000000E+00  0.00000000000E+00  0.22184796783E+03  0.22184796783E+03  0.00000000000E+00 0. -1.
         -1   -1    0    0    0  501 -0.00000000000E+00 -0.00000000000E+00 -0.69279636512E+02  0.69279636512E+02  0.00000000000E+00 0.  1.
         25    2    1    2    0    0  0.41978720474E+02  0.17753519608E+02  0.38078790149E+02  0.13847197751E+03  0.12508834425E+03 0.  0.
         23    2    1    2    0    0 -0.41978720474E+02 -0.17753519608E+02  0.11448954117E+03  0.15265562683E+03  0.90102635556E+02 0.  0.
          5    1    3    3  502    0  0.52347400342E+02  0.20588659806E+02 -0.33744178337E+02  0.65728876506E+02  0.41800000000E+01 0. -1.
         -5    1    3    3    0  502 -0.10368679868E+02 -0.28351401982E+01  0.71822968486E+02  0.72743101008E+02  0.41800000000E+01 0. -1.
        -11    1    4    4    0    0 -0.48837638187E+02 -0.45841669185E+02  0.55601259938E+02  0.87052131761E+02  0.00000000000E+00 0.  1.
         11    1    4    4    0    0  0.68589177132E+01  0.28088149576E+02  0.58888281229E+02  0.65603495066E+02  0.00000000000E+00 0. -1.
</event>
<event>
 8    1  0.6637272E-009  0.9845968E+02  0.7561462E-02  0.1283569E+00
         -4   -1    0    0    0  501 -0.00000000000E+00  0.00000000000E+00  0.46744726297E+02  0.46744726297E+02  0.00000000000E+00 0.  1.
          4   -1    0    0  501    0  0.00000000000E+00 -0.00000000000E+00 -0.29017276787E+03  0.29017276787E+03  0.00000000000E+00 0. -1.
         25    2    1    2    0    0  0.32509593755E+02  0.27482389930E+02 -0.14272951615E+03  0.19450400167E+03  0.12509171212E+03 0.  0.
         23    2    1    2    0    0 -0.32509593755E+02 -0.27482389930E+02 -0.10069852542E+03  0.14241349250E+03  0.91264748842E+02 0.  0.
          5    1    3    3  502    0  0.79225800877E+02  0.84390061443E+01 -0.10221442699E+03  0.12966574658E+03  0.41800000000E+01 0.  1.
         -5    1    3    3    0  502 -0.46716207122E+02  0.19043383786E+02 -0.40515089158E+02  0.64838255092E+02  0.41800000000E+01 0.  1.
        -11    1    4    4    0    0 -0.28007364141E+02  0.92590153134E+01  0.54486818865E+01  0.29997165616E+02  0.00000000000E+00 0.  1.
         11    1    4    4    0    0 -0.45022296140E+01 -0.36741405243E+02 -0.10614720730E+03  0.11241632688E+03  0.00000000000E+00 0. -1.
</event>
<event>
 8    1  0.6637272E-009  0.9906947E+02  0.7561462E-02  0.1282265E+00
          2   -1    0    0  501    0  0.00000000000E+00  0.00000000000E+00  0.24377356125E+03  0.24377356125E+03  0.00000000000E+00 0. -1.
         -2   -1    0    0    0  501 -0.00000000000E+00 -0.00000000000E+00 -0.54082286796E+02  0.54082286796E+02  0.00000000000E+00 0.  1.
         25    2    1    2    0    0  0.10185302598E+02  0.29932040320E+02  0.62231430464E+02  0.14326627262E+03  0.12511117658E+03 0.  0.
         23    2    1    2    0    0 -0.10185302598E+02 -0.29932040320E+02  0.12745984399E+03  0.15458957542E+03  0.81561373049E+02 0.  0.
          5    1    3    3  502    0 -0.42723136547E+02 -0.10667448368E+02  0.62348025220E+02  0.76444813427E+02  0.41800000000E+01 0.  1.
         -5    1    3    3    0  502  0.52908439144E+02  0.40599488688E+02 -0.11659475515E+00  0.66821459193E+02  0.41800000000E+01 0.  1.
        -11    1    4    4    0    0  0.24740198081E+02 -0.43152031726E+02  0.79942527396E+02  0.94154038307E+02  0.00000000000E+00 0. -1.
         11    1    4    4    0    0 -0.34925500679E+02  0.13219991406E+02  0.47517316592E+02  0.60435537116E+02  0.00000000000E+00 0.  1.
</event>
<event>
 8    1  0.6637272E-009  0.1087223E+03  0.7561462E-02  0.1262955E+00
          1   -1    0    0  501    0  0.00000000000E+00  0.00000000000E+00  0.18941855669E+04  0.18941855669E+04  0.00000000000E+00 0. -1.
         -1   -1    0    0    0  501 -0.00000000000E+00 -0.00000000000E+00 -0.78348230257E+01  0.78348230257E+01  0.00000000000E+00 0.  1.
         25    2    1    2    0    0  0.51959194702E+02  0.47851651020E+01  0.14335065626E+04  0.14398997102E+04  0.12508978687E+03 0.  0.
         23    2    1    2    0    0 -0.51959194702E+02 -0.47851651020E+01  0.45284418129E+03  0.46212067971E+03  0.75927691728E+02 0.  0.
          5    1    3    3  502    0 -0.75355887000E+01  0.51683561182E+02  0.37020057536E+03  0.37389024324E+03  0.41800000000E+01 0. -1.
         -5    1    3    3    0  502  0.59494783402E+02 -0.46898396080E+02  0.10633059872E+04  0.10660094669E+04  0.41800000000E+01 0. -1.
        -11    1    4    4    0    0 -0.46733326119E+02 -0.35079084909E+02  0.34764915357E+03  0.35252585713E+03  0.00000000000E+00 0. -1.
         11    1    4    4    0    0 -0.52258685837E+01  0.30293919807E+02  0.10519502772E+03  0.10959482258E+03  0.00000000000E+00 0.  1.
</event>
<event>
 8    1  0.6637272E-009  0.1827726E+03  0.7561462E-02  0.1165146E+00
          1   -1    0    0  501    0  0.00000000000E+00  0.00000000000E+00  0.23858539634E+03  0.23858539634E+03  0.00000000000E+00 0. -1.
         -1   -1    0    0    0  501 -0.00000000000E+00 -0.00000000000E+00 -0.19189249187E+03  0.19189249187E+03  0.00000000000E+00 0.  1.
         25    2    1    2    0    0 -0.25271408082E+02  0.16032062007E+03 -0.62836431980E+02  0.21432805969E+03  0.12508698854E+03 0.  0.
         23    2    1    2    0    0  0.25271408082E+02 -0.16032062007E+03  0.10952933645E+03  0.21614982852E+03  0.91557236420E+02 0.  0.
          5    1    3    3  502    0 -0.30374207923E+02  0.17962720971E+03 -0.46168605485E+02  0.18798281705E+03  0.41800000000E+01 0.  1.
         -5    1    3    3    0  502  0.51027998408E+01 -0.19306589640E+02 -0.16667826495E+02  0.26345242641E+02  0.41800000000E+01 0.  1.
        -11    1    4    4    0    0  0.24155690504E+02 -0.11159569206E+03  0.22460371553E+02  0.11636822659E+03  0.00000000000E+00 0.  1.
         11    1    4    4    0    0  0.11157175785E+01 -0.48724928007E+02  0.87068964895E+02  0.99781601926E+02  0.00000000000E+00 0. -1.
</event>
<event>
 8    1  0.6637272E-009  0.5187977E+02  0.7561462E-02  0.1435459E+00
          2   -1    0    0  501    0  0.00000000000E+00  0.00000000000E+00  0.42186486132E+03  0.42186486132E+03  0.00000000000E+00 0. -1.
         -2   -1    0    0    0  501 -0.00000000000E+00 -0.00000000000E+00 -0.30320003152E+02  0.30320003152E+02  0.00000000000E+00 0.  1.
         25    2    1    2    0    0  0.11539479599E+02  0.14137362563E+01  0.17594706764E+03  0.21619269275E+03  0.12508697592E+03 0.  0.
         23    2    1    2    0    0 -0.11539479599E+02 -0.14137362563E+01  0.21559779052E+03  0.23599217172E+03  0.95261427640E+02 0.  0.
          5    1    3    3  502    0  0.13104267678E+02  0.15222034183E+02  0.19283671726E+03  0.19392499602E+03  0.41800000000E+01 0.  1.
         -5    1    3    3    0  502 -0.15647880793E+01 -0.13808297927E+02 -0.16889649620E+02  0.22267696729E+02  0.41800000000E+01 0.  1.
        -11    1    4    4    0    0  0.55738608133E+01  0.31310615000E+02  0.21442955530E+02  0.38356523277E+02  0.00000000000E+00 0.  1.
         11    1    4    4    0    0 -0.17113340412E+02 -0.32724351256E+02  0.19415483499E+03  0.19763564844E+03  0.00000000000E+00 0. -1.
</event>
<event>
 8    1  0.6637272E-009  0.2621332E+03  0.7561462E-02  0.1105868E+00
          2   -1    0    0  501    0  0.00000000000E+00  0.00000000000E+00  0.24662162183E+03  0.24662162183E+03  0.00000000000E+00 0. -1.
         -2   -1    0    0    0  501 -0.00000000000E+00 -0.00000000000E+00 -0.32321006023E+03  0.32321006023E+03  0.00000000000E+00 0.  1.
         25    2    1    2    0    0 -0.10860832777E+03  0.23657026086E+03 -0.34977820211E+02  0.29091587004E+03  0.12508932148E+03 0.  0.
         23    2    1    2    0    0  0.10860832777E+03 -0.23657026086E+03 -0.41610618183E+02  0.27891581202E+03  0.91111631890E+02 0.  0.
          5    1    3    3  502    0 -0.22198785039E+02  0.18350204943E+02  0.35421671905E+02  0.45844119789E+02  0.41800000000E+01 0. -1.
         -5    1    3    3    0  502 -0.86409542731E+02  0.21822005592E+03 -0.70399492117E+02  0.24507175025E+03  0.41800000000E+01 0. -1.
        -11    1    4    4    0    0  0.46672526025E+02 -0.92745274183E+02 -0.62109333763E+02  0.12098586657E+03  0.00000000000E+00 0.  1.
         11    1    4    4    0    0  0.61935801745E+02 -0.14382498668E+03  0.20498715580E+02  0.15792994545E+03  0.00000000000E+00 0. -1.
</event>
<event>
 8    1  0.6637272E-009  0.1190469E+03  0.7561462E-02  0.1244678E+00
          1   -1    0    0  501    0  0.00000000000E+00  0.00000000000E+00  0.70555432781E+02  0.70555432781E+02  0.00000000000E+00 0. -1.
         -1   -1    0    0    0  501 -0.00000000000E+00 -0.00000000000E+00 -0.31919137283E+03  0.31919137283E+03  0.00000000000E+00 0.  1.
         25    2    1    2    0    0  0.70290612005E+02 -0.64491992843E+02 -0.18662394895E+03  0.24408148312E+03  0.12508910745E+03 0.  0.
         23    2    1    2    0    0 -0.70290612005E+02  0.64491992843E+02 -0.62011991100E+02  0.14566532249E+03  0.90955548810E+02 0.  0.
          5    1    3    3  502    0 -0.11692618987E+02 -0.36167988410E+02 -0.14078672662E+03  0.14588768116E+03  0.41800000000E+01 0. -1.
         -5    1    3    3    0  502  0.81983230992E+02 -0.28324004433E+02 -0.45837222332E+02  0.98193801954E+02  0.41800000000E+01 0. -1.
        -11    1    4    4    0    0  0.11188495296E+02  0.58384471432E+01 -0.41261892363E+02  0.43148738723E+02  0.00000000000E+00 0.  1.
         11    1    4    4    0    0 -0.81479107302E+02  0.58653545700E+02 -0.20750098738E+02  0.10251658377E+03  0.00000000000E+00 0. -1.
</event>
<event>
 8    1  0.6637272E-009  0.1221030E+03  0.7561462E-02  0.1239668E+00
         -1   -1    0    0    0  501 -0.00000000000E+00  0.00000000000E+00  0.58526605582E+02  0.58526605582E+02  0.00000000000E+00 0.  1.
          1   -1    0    0  501    0  0.00000000000E+00 -0.00000000000E+00 -0.28926745520E+03  0.28926745520E+03  0.00000000000E+00 0. -1.
         25    2    1    2    0    0 -0.67374273611E+02  0.22767034472E+02 -0.11702891048E+03  0.18547507697E+03  0.12509039805E+03 0.  0.
         23    2    1    2    0    0  0.67374273611E+02 -0.22767034472E+02 -0.11371193914E+03  0.16231898381E+03  0.91429846332E+02 0.  0.
          5    1    3    3  502    0 -0.10450067004E+03  0.18956989309E+02 -0.84308131863E+02  0.13566536397E+03  0.41800000000E+01 0. -1.
         -5    1    3    3    0  502  0.37126396429E+02  0.38100451631E+01 -0.32720778616E+02  0.49809713000E+02  0.41800000000E+01 0. -1.
        -11    1    4    4    0    0  0.16558891558E+02 -0.42684189170E+02 -0.12712468787E+02  0.47515721161E+02  0.00000000000E+00 0.  1.
         11    1    4    4    0    0  0.50815382053E+02  0.19917154698E+02 -0.10099947035E+03  0.11480326265E+03  0.00000000000E+00 0. -1.
</event>
<event>
 8    1  0.6637272E-009  0.1722723E+03  0.7561462E-02  0.1175499E+00
          4   -1    0    0  501    0  0.00000000000E+00  0.00000000000E+00  0.15701786319E+03  0.15701786319E+03  0.00000000000E+00 0. -1.
         -4   -1    0    0    0  501 -0.00000000000E+00 -0.00000000000E+00 -0.26649003382E+03  0.26649003382E+03  0.00000000000E+00 0.  1.
         25    2    1    2    0    0 -0.13151522593E+03 -0.75098882977E+02 -0.12843801387E+03  0.23469148394E+03  0.12509065653E+03 0.  0.
         23    2    1    2    0    0  0.13151522593E+03  0.75098882977E+02  0.18965843251E+02  0.18881641307E+03  0.11115681606E+03 0.  0.
          5    1    3    3  502    0 -0.91263299344E+01 -0.27705287116E+02  0.20678887785E+02  0.35999467111E+02  0.41800000000E+01 0.  1.
         -5    1    3    3    0  502 -0.12238889600E+03 -0.47393595861E+02 -0.14911690166E+03  0.19869201683E+03  0.41800000000E+01 0.  1.
        -11    1    4    4    0    0  0.67940039695E+02  0.95317766139E+02 -0.69210023874E+01  0.11725709279E+03  0.00000000000E+00 0.  1.
         11    1    4    4    0    0  0.63575186239E+02 -0.20218883162E+02  0.25886845638E+02  0.71559320279E+02  0.00000000000E+00 0. -1.
</event>
<event>
 8    1  0.6637272E-009  0.1083326E+03  0.7561462E-02  0.1263689E+00
          2   -1    0    0  501    0  0.00000000000E+00  0.00000000000E+00  0.40448423754E+03  0.40448423754E+03  0.00000000000E+00 0.  1.
         -2   -1    0    0    0  501 -0.00000000000E+00 -0.00000000000E+00 -0.30107995490E+02  0.30107995490E+02  0.00000000000E+00 0. -1.
         25    2    1    2    0    0  0.13375010007E+02 -0.23193649717E+02  0.23505500382E+03  0.26760489466E+03  0.12507872937E+03 0.  0.
         23    2    1    2    0    0 -0.13375010007E+02  0.23193649717E+02  0.13932123823E+03  0.16698733838E+03  0.88076827126E+02 0.  0.
          5    1    3    3  502    0  0.18282760590E+02  0.50468813912E+02  0.93179724104E+02  0.10761642020E+03  0.41800000000E+01 0. -1.
         -5    1    3    3    0  502 -0.49077505830E+01 -0.73662463629E+02  0.14187527972E+03  0.15998847446E+03  0.41800000000E+01 0. -1.
        -11    1    4    4    0    0  0.34795368512E+02  0.21039919946E+02  0.42471459604E+02  0.58798135873E+02  0.00000000000E+00 0. -1.
         11    1    4    4    0    0 -0.48170378519E+02  0.21537297707E+01  0.96849778625E+02  0.10818920250E+03  0.00000000000E+00 0.  1.
</event>
<event>
 8    1  0.6637272E-009  0.1335584E+03  0.7561462E-02  0.1222269E+00
          2   -1    0    0  501    0  0.00000000000E+00  0.00000000000E+00  0.16980175774E+03  0.16980175774E+03  0.00000000000E+00 0. -1.
         -2   -1    0    0    0  501 -0.00000000000E+00 -0.00000000000E+00 -0.15457337331E+03  0.15457337331E+03  0.00000000000E+00 0.  1.
         25    2    1    2    0    0  0.61346197876E+02 -0.78441531165E+02  0.32179599156E+02  0.16309350705E+03  0.12509011005E+03 0.  0.
         23    2    1    2    0    0 -0.61346197876E+02  0.78441531165E+02 -0.16951214730E+02  0.16128162400E+03  0.12572982444E+03 0.  0.
          5    1    3    3  502    0 -0.73658066217E+01 -0.77816840420E+01  0.59603933757E+02  0.60703468048E+02  0.41800000000E+01 0.  1.
         -5    1    3    3    0  502  0.68712004498E+02 -0.70659847123E+02 -0.27424334602E+02  0.10239003900E+03  0.41800000000E+01 0.  1.
        -11    1    4    4    0    0  0.30247627908E+02  0.54442265601E+02 -0.23026772217E+02  0.66401140928E+02  0.00000000000E+00 0. -1.
         11    1    4    4    0    0 -0.91593825784E+02  0.23999265564E+02  0.60755574865E+01  0.94880483073E+02  0.00000000000E+00 0.  1.
</event>
<event>
 8    1  0.6637272E-009  0.1664729E+03  0.7561462E-02  0.1181577E+00
          2   -1    0    0  501    0  0.00000000000E+00  0.00000000000E+00  0.82718323292E+03  0.82718323292E+03  0.00000000000E+00 0. -1.
         -2   -1    0    0    0  501 -0.00000000000E+00 -0.00000000000E+00 -0.41577930901E+02  0.41577930901E+02  0.00000000000E+00 0.  1.
         25    2    1    2    0    0 -0.14003340844E+03  0.39611923167E+02  0.50067165769E+03  0.53618861817E+03  0.12509062917E+03 0.  0.
         23    2    1    2    0    0  0.14003340844E+03 -0.39611923167E+02  0.28493364434E+03  0.33257254566E+03  0.90768147026E+02 0.  0.
          5    1    3    3  502    0 -0.15159397042E+03  0.57700046257E+02  0.47754952957E+03  0.50436202553E+03  0.41800000000E+01 0. -1.
         -5    1    3    3    0  502  0.11560561980E+02 -0.18088123091E+02  0.23122128115E+02  0.31826592636E+02  0.41800000000E+01 0. -1.
        -11    1    4    4    0    0  0.64249658186E+02 -0.34341057351E+02  0.57567468333E+02  0.92851172353E+02  0.00000000000E+00 0.  1.
         11    1    4    4    0    0  0.75783750251E+02 -0.52708658156E+01  0.22736617600E+03  0.23972137330E+03  0.00000000000E+00 0. -1.
</event>
<event>
 8    1  0.6637272E-009  0.1248685E+03  0.7561462E-02  0.1235275E+00
         -2   -1    0    0    0  501 -0.00000000000E+00  0.00000000000E+00  0.18348283402E+03  0.18348283402E+03  0.00000000000E+00 0.  1.
          2   -1    0    0  501    0  0.00000000000E+00 -0.00000000000E+00 -0.12244630813E+03  0.12244630813E+03  0.00000000000E+00 0. -1.
         25    2    1    2    0    0 -0.79085312249E+02 -0.11870771000E+01 -0.34379222403E+02  0.15193679021E+03  0.12508781523E+03 0.  0.
         23    2    1    2    0    0  0.79085312249E+02  0.11870771000E+01  0.95415748295E+02  0.15399235195E+03  0.91397941286E+02 0.  0.
          5    1    3    3  502    0  0.28211577188E+02  0.80016344270E+01  0.15217800411E+02  0.33301247579E+02  0.41800000000E+01 0. -1.
         -5    1    3    3    0  502 -0.10729688944E+03 -0.91887115270E+01 -0.49597022814E+02  0.11863554263E+03  0.41800000000E+01 0. -1.
        -11    1    4    4    0    0  0.74409227658E+02 -0.30425279932E+02  0.91498898771E+02  0.12179687720E+03  0.00000000000E+00 0. -1.
         11    1    4    4    0    0  0.46760845905E+01  0.31612357032E+02  0.39168495241E+01  0.32195474750E+02  0.00000000000E+00 0.  1.
</event>
<event>
 8    1  0.6637272E-009  0.4282658E+03  0.7561462E-02  0.1034409E+00
         -2   -1    0    0    0  501 -0.00000000000E+00  0.00000000000E+00  0.26819032816E+03  0.26819032816E+03  0.00000000000E+00 0.  1.
          2   -1    0    0  501    0  0.00000000000E+00 -0.00000000000E+00 -0.78299151048E+03  0.78299151048E+03  0.00000000000E+00 0. -1.
         25    2    1    2    0    0 -0.16896200653E+03 -0.38282460042E+03 -0.43351567449E+03  0.61537464090E+03  0.12508906546E+03 0.  0.
         23    2    1    2    0    0  0.16896200653E+03  0.38282460042E+03 -0.81285507838E+02  0.43580719775E+03  0.90651781495E+02 0.  0.
          5    1    3    3  502    0 -0.16908420564E+03 -0.27080376161E+03 -0.36065447997E+03  0.48167756043E+03  0.41800000000E+01 0.  1.
         -5    1    3    3    0  502  0.12219910888E+00 -0.11202083880E+03 -0.72861194523E+02  0.13369708047E+03  0.41800000000E+01 0.  1.
        -11    1    4    4    0    0  0.72361401204E+02  0.82832874162E+02  0.13333893636E+01  0.10999652428E+03  0.00000000000E+00 0.  1.
         11    1    4    4    0    0  0.96600605323E+02  0.29999172625E+03 -0.82618897201E+02  0.32581067347E+03  0.00000000000E+00 0. -1.
</event>
<event>
 8    1  0.6637272E-009  0.7046735E+02  0.7561462E-02  0.1358511E+00
          1   -1    0    0  501    0  0.00000000000E+00  0.00000000000E+00  0.22402501458E+03  0.22402501458E+03  0.00000000000E+00 0. -1.
         -1   -1    0    0    0  501 -0.00000000000E+00 -0.00000000000E+00 -0.60444286933E+02  0.60444286933E+02  0.00000000000E+00 0.  1.
         25    2    1    2    0    0 -0.24933027813E+02  0.35150969704E+02  0.86842682347E+02  0.15826001999E+03  0.12508931170E+03 0.  0.
         23    2    1    2    0    0  0.24933027813E+02 -0.35150969704E+02  0.76738045301E+02  0.12620928153E+03  0.90458877950E+02 0.  0.
          5    1    3    3  502    0 -0.18068755701E+02 -0.27547920448E+01  0.11101695529E+03  0.11258910060E+03  0.41800000000E+01 0.  1.
         -5    1    3    3    0  502 -0.68642721121E+01  0.37905761748E+02 -0.24174272944E+02  0.45670919388E+02  0.41800000000E+01 0.  1.
        -11    1    4    4    0    0 -0.25323021550E+02 -0.13733970441E+02  0.63897602802E+02  0.70091233463E+02  0.00000000000E+00 0. -1.
         11    1    4    4    0    0  0.50256049363E+02 -0.21416999263E+02  0.12840442499E+02  0.56118048064E+02  0.00000000000E+00 0.  1.
</event>
<event>
 8    1  0.6637272E-009  0.1154807E+03  0.7561462E-02  0.1250744E+00
         -1   -1    0    0    0  501 -0.00000000000E+00  0.00000000000E+00  0.14715537124E+03  0.14715537124E+03  0.00000000000E+00 0.  1.
          1   -1    0    0  501    0  0.00000000000E+00 -0.00000000000E+00 -0.12897962919E+03  0.12897962919E+03  0.00000000000E+00 0. -1.
         25    2    1    2    0    0  0.46038861833E+02 -0.63604000074E+02 -0.18793317475E+02  0.14888884988E+03  0.12509858198E+03 0.  0.
         23    2    1    2    0    0 -0.46038861833E+02  0.63604000074E+02  0.36969059522E+02  0.12724615055E+03  0.93058185262E+02 0.  0.
          5    1    3    3  502    0  0.52388815040E+02 -0.17392752510E+01  0.37751416500E+02  0.64732177991E+02  0.41800000000E+01 0. -1.
         -5    1    3    3    0  502 -0.63499532075E+01 -0.61864724823E+02 -0.56544733975E+02  0.84156671889E+02  0.41800000000E+01 0. -1.
        -11    1    4    4    0    0  0.25379088769E+02  0.12971488601E+02 -0.68988211826E+01  0.29324927911E+02  0.00000000000E+00 0. -1.
         11    1    4    4    0    0 -0.71417950601E+02  0.50632511473E+02  0.43867880705E+02  0.97921222642E+02  0.00000000000E+00 0.  1.
</event>
<event>
 8    1  0.6637272E-009  0.1827606E+03  0.7561462E-02  0.1165158E+00
         -1   -1    0    0    0  501 -0.00000000000E+00  0.00000000000E+00  0.35248829647E+02  0.35248829647E+02  0.00000000000E+00 0.  1.
          1   -1    0    0  501    0  0.00000000000E+00 -0.00000000000E+00 -0.12184012991E+04  0.12184012991E+04  0.00000000000E+00 0. -1.
         25    2    1    2    0    0 -0.17313821316E+03 -0.18622180927E+02 -0.53922768762E+03  0.58029152702E+03  0.12509248880E+03 0.  0.
         23    2    1    2    0    0  0.17313821316E+03  0.18622180927E+02 -0.64392478179E+03  0.67335860168E+03  0.91918743357E+02 0.  0.
          5    1    3    3  502    0 -0.95906943519E+02 -0.29076134152E+01 -0.45434777904E+03  0.46438773966E+03  0.41800000000E+01 0.  1.
         -5    1    3    3    0  502 -0.77231269642E+02 -0.15714567511E+02 -0.84879908579E+02  0.11590378735E+03  0.41800000000E+01 0.  1.
        -11    1    4    4    0    0  0.71038121643E+02 -0.30431471109E+02 -0.18160855565E+03  0.19736807403E+03  0.00000000000E+00 0. -1.
         11    1    4    4    0    0  0.10210009152E+03  0.49053652036E+02 -0.46231622614E+03  0.47599052766E+03  0.00000000000E+00 0.  1.
</event>
<event>
 8    1  0.6637272E-009  0.1169943E+03  0.7561462E-02  0.1248140E+00
          2   -1    0    0  501    0  0.00000000000E+00  0.00000000000E+00  0.13189644515E+04  0.13189644515E+04  0.00000000000E+00 0. -1.
         -2   -1    0    0    0  501 -0.00000000000E+00 -0.00000000000E+00 -0.10901844863E+02  0.10901844863E+02  0.00000000000E+00 0.  1.
         25    2    1    2    0    0 -0.37186115796E+02 -0.29085387814E+02  0.84074729964E+03  0.85131163811E+03  0.12508683518E+03 0.  0.
         23    2    1    2    0    0  0.37186115796E+02  0.29085387814E+02  0.46731530700E+03  0.47855465825E+03  0.91663503045E+02 0.  0.
          5    1    3    3  502    0 -0.60618571686E+02 -0.64399000610E+02  0.64011972970E+03  0.64621403827E+03  0.41800000000E+01 0.  1.
         -5    1    3    3    0  502  0.23432455889E+02  0.35313612797E+02  0.20062756994E+03  0.20509759984E+03  0.41800000000E+01 0.  1.
        -11    1    4    4    0    0  0.71032716226E+01  0.59594417802E+02  0.25624342601E+03  0.26317797110E+03  0.00000000000E+00 0. -1.
         11    1    4    4    0    0  0.30082844174E+02 -0.30509029988E+02  0.21107188099E+03  0.21537668715E+03  0.00000000000E+00 0.  1.
</event>
<event>
 8    1  0.6637272E-009  0.6273834E+02  0.7561462E-02  0.1386687E+00
         -2   -1    0    0    0  501 -0.00000000000E+00  0.00000000000E+00  0.17831035094E+02  0.17831035094E+02  0.00000000000E+00 0. -1.
          2   -1    0    0  501    0  0.00000000000E+00 -0.00000000000E+00 -0.71904785889E+03  0.71904785889E+03  0.00000000000E+00 0.  1.
         25    2    1    2    0    0  0.14576725304E+02 -0.22968555019E+02 -0.41063237945E+03  0.43012425166E+03  0.12509150798E+03 0.  0.
         23    2    1    2    0    0 -0.14576725304E+02  0.22968555019E+02 -0.29058444435E+03  0.30675464233E+03  0.94440753140E+02 0.  0.
          5    1    3    3  502    0 -0.10072295745E+02  0.14018091440E+01 -0.38878078609E+03  0.38893622645E+03  0.41800000000E+01 0.  1.
         -5    1    3    3    0  502  0.24649021049E+02 -0.24370364163E+02 -0.21851593358E+02  0.41188025207E+02  0.41800000000E+01 0.  1.
        -11    1    4    4    0    0  0.23096415183E+02  0.33280000712E+02 -0.23704799255E+03  0.24048441450E+03  0.00000000000E+00 0.  1.
         11    1    4    4    0    0 -0.37673140488E+02 -0.10311445693E+02 -0.53536451796E+02  0.66270227835E+02  0.00000000000E+00 0. -1.
</event>
<event>
 8    1  0.6637272E-009  0.1289083E+03  0.7561462E-02  0.1229085E+00
          3   -1    0    0  501    0  0.00000000000E+00  0.00000000000E+00  0.53766207323E+02  0.53766207323E+02  0.00000000000E+00 0. -1.
         -3   -1    0    0    0  501 -0.00000000000E+00 -0.00000000000E+00 -0.34998388326E+03  0.34998388326E+03  0.00000000000E+00 0.  1.
         25    2    1    2    0    0 -0.63802459433E+02 -0.55390001746E+02 -0.16324219070E+03  0.22233866360E+03  0.12509061668E+03 0.  0.
         23    2    1    2    0    0  0.63802459433E+02  0.55390001746E+02 -0.13297548523E+03  0.18141142698E+03  0.89937867691E+02 0.  0.
          5    1    3    3  502    0 -0.37042116614E+02  0.33620581419E+02 -0.26001957847E+02  0.56533495470E+02  0.41800000000E+01 0. -1.
         -5    1    3    3    0  502 -0.26760342819E+02 -0.89010583164E+02 -0.13724023285E+03  0.16580516813E+03  0.41800000000E+01 0. -1.
        -11    1    4    4    0    0  0.35109772557E+02 -0.15290631855E+02 -0.15437673006E+02  0.41289481704E+02  0.00000000000E+00 0. -1.
         11    1    4    4    0    0  0.28692686876E+02  0.70680633601E+02 -0.11753781223E+03  0.14012194528E+03  0.00000000000E+00 0.  1.
</event>
<event>
 8    1  0.6637272E-009  0.1329236E+03  0.7561462E-02  0.1223181E+00
          1   -1    0    0  501    0  0.00000000000E+00  0.00000000000E+00  0.23377519291E+03  0.23377519291E+03  0.00000000000E+00 0. -1.
         -1   -1    0    0    0  501 -0.00000000000E+00 -0.00000000000E+00 -0.79690859736E+02  0.79690859736E+02  0.00000000000E+00 0.  1.
         25    2    1    2    0    0  0.76579107758E+02 -0.30479791084E+02  0.90305202985E+02  0.17491707345E+03  0.12509026936E+03 0.  0.
         23    2    1    2    0    0 -0.76579107758E+02  0.30479791084E+02  0.63779130194E+02  0.13854897920E+03  0.91294385261E+02 0.  0.
          5    1    3    3  502    0 -0.30912856337E+02  0.33942010159E+01  0.41504959269E+02  0.52031330286E+02  0.41800000000E+01 0.  1.
         -5    1    3    3    0  502  0.10749196410E+03 -0.33873992099E+02  0.48800243716E+02  0.12288574316E+03  0.41800000000E+01 0.  1.
        -11    1    4    4    0    0 -0.35784084208E+02  0.61012965861E+02  0.46906289649E+02  0.84872155000E+02  0.00000000000E+00 0. -1.
         11    1    4    4    0    0 -0.40795023550E+02 -0.30533174777E+02  0.16872840545E+02  0.53676824202E+02  0.00000000000E+00 0.  1.
</event>
<event>
 8    1  0.6637272E-009  0.1147598E+03  0.7561462E-02  0.1252001E+00
          1   -1    0    0  501    0  0.00000000000E+00  0.00000000000E+00  0.63627130153E+02  0.63627130153E+02  0.00000000000E+00 0. -1.
         -1   -1    0    0    0  501 -0.00000000000E+00 -0.00000000000E+00 -0.22369123156E+03  0.22369123156E+03  0.00000000000E+00 0.  1.
         25    2    1    2    0    0  0.14866639666E+02 -0.45665621775E+02 -0.78044618308E+02  0.15506412488E+03  0.12509018503E+03 0.  0.
         23    2    1    2    0    0 -0.14866639666E+02  0.45665621775E+02 -0.82019483097E+02  0.13225423683E+03  0.91965328056E+02 0.  0.
          5    1    3    3  502    0  0.51353193586E+02 -0.72186051707E+02 -0.52294229107E+02  0.10295695873E+03  0.41800000000E+01 0. -1.
         -5    1    3    3    0  502 -0.36486553919E+02  0.26520429932E+02 -0.25750389202E+02  0.52107166155E+02  0.41800000000E+01 0. -1.
        -11    1    4    4    0    0  0.15813013982E+02 -0.18543462118E+02 -0.95883415545E+00  0.24389152537E+02  0.00000000000E+00 0. -1.
         11    1    4    4    0    0 -0.30679653648E+02  0.64209083893E+02 -0.81060648942E+02  0.10786508429E+03  0.00000000000E+00 0.  1.
</event>
<event>
 8    1  0.6637272E-009  0.1833203E+03  0.7561462E-02  0.1164628E+00
         -1   -1    0    0    0  501 -0.00000000000E+00  0.00000000000E+00  0.31522209210E+02  0.31522209210E+02  0.00000000000E+00 0. -1.
          1   -1    0    0  501    0  0.00000000000E+00 -0.00000000000E+00 -0.11447929107E+04  0.11447929107E+04  0.00000000000E+00 0.  1.
         25    2    1    2    0    0 -0.45230241617E+02 -0.14624562086E+03 -0.68082169043E+03  0.70894159013E+03  0.12508576131E+03 0.  0.
         23    2    1    2    0    0  0.45230241617E+02  0.14624562086E+03 -0.43244901103E+03  0.46737352975E+03  0.89399735974E+02 0.  0.
          5    1    3    3  502    0  0.36726147840E+02 -0.92310453938E+02 -0.33454363339E+03  0.34900851692E+03  0.41800000000E+01 0. -1.
         -5    1    3    3    0  502 -0.81956389457E+02 -0.53935166918E+02 -0.34627805703E+03  0.35993307320E+03  0.41800000000E+01 0. -1.
        -11    1    4    4    0    0  0.22640981003E+02  0.14459261122E+03 -0.30954571468E+03  0.34240062312E+03  0.00000000000E+00 0. -1.
         11    1    4    4    0    0  0.22589260614E+02  0.16530096369E+01 -0.12290329636E+03  0.12497290663E+03  0.00000000000E+00 0.  1.
</event>
<event>
 8    1  0.6637272E-009  0.1065339E+03  0.7561462E-02  0.1267127E+00
         -1   -1    0    0    0  501 -0.00000000000E+00  0.00000000000E+00  0.11469236010E+03  0.11469236010E+03  0.00000000000E+00 0.  1.
          1   -1    0    0  501    0  0.00000000000E+00 -0.00000000000E+00 -0.12121318564E+03  0.12121318564E+03  0.00000000000E+00 0. -1.
         25    2    1    2    0    0 -0.41143549553E+02  0.15968759172E+02 -0.15910343034E+02  0.13364613219E+03  0.12514134686E+03 0.  0.
         23    2    1    2    0    0  0.41143549553E+02 -0.15968759172E+02  0.93895174991E+01  0.10225941355E+03  0.91766179402E+02 0.  0.
          5    1    3    3  502    0  0.43207428997E+02  0.11931961616E+01  0.90311957674E+01  0.44354712654E+02  0.41800000000E+01 0. -1.
         -5    1    3    3    0  502 -0.84350978550E+02  0.14775563011E+02 -0.24941538801E+02  0.89291419534E+02  0.41800000000E+01 0. -1.
        -11    1    4    4    0    0  0.61636093533E+02 -0.91725738992E+01  0.32794267015E+02  0.70417384835E+02  0.00000000000E+00 0.  1.
         11    1    4    4    0    0 -0.20492543980E+02 -0.67961852730E+01 -0.23404749515E+02  0.31842028719E+02  0.00000000000E+00 0. -1.
</event>
<event>
 8    1  0.6637272E-009  0.1003170E+03  0.7561462E-02  0.1279631E+00
         -1   -1    0    0    0  501 -0.00000000000E+00  0.00000000000E+00  0.24267212419E+03  0.24267212419E+03  0.00000000000E+00 0.  1.
          1   -1    0    0  501    0  0.00000000000E+00 -0.00000000000E+00 -0.76984743592E+02  0.76984743592E+02  0.00000000000E+00 0. -1.
         25    2    1    2    0    0 -0.22312454554E+02 -0.62629380235E+02  0.14429734007E+03  0.20224804311E+03  0.12514896601E+03 0.  0.
         23    2    1    2    0    0  0.22312454554E+02  0.62629380235E+02  0.21390040531E+02  0.11740882467E+03  0.94376974844E+02 0.  0.
          5    1    3    3  502    0 -0.39894034271E+02 -0.71920420804E+02  0.15769935894E+03  0.17790627057E+03  0.41800000000E+01 0.  1.
         -5    1    3    3    0  502  0.17581579717E+02  0.92910405690E+01 -0.13402018873E+02  0.24341772533E+02  0.41800000000E+01 0.  1.
        -11    1    4    4    0    0  0.41095109522E+02  0.67074155960E+02 -0.11276237363E+02  0.79466369953E+02  0.00000000000E+00 0. -1.
         11    1    4    4    0    0 -0.18782654967E+02 -0.44447757250E+01  0.32666277894E+02  0.37942454722E+02  0.00000000000E+00 0.  1.
</event>
<event>
 8    1  0.6637272E-009  0.1101020E+03  0.7561462E-02  0.1260381E+00
          1   -1    0    0  501    0  0.00000000000E+00  0.00000000000E+00  0.30553003457E+03  0.30553003457E+03  0.00000000000E+00 0. -1.
         -1   -1    0    0    0  501 -0.00000000000E+00 -0.00000000000E+00 -0.64732676760E+02  0.64732676760E+02  0.00000000000E+00 0.  1.
         25    2    1    2    0    0 -0.86355649524E+02  0.10746913864E+02  0.10019430499E+03  0.18237055669E+03  0.12508927546E+03 0.  0.
         23    2    1    2    0    0  0.86355649524E+02 -0.10746913864E+02  0.14060305283E+03  0.18789215464E+03  0.89226951915E+02 0.  0.
          5    1    3    3  502    0 -0.89398529469E+00 -0.34028006607E+02 -0.10120696799E+02  0.35757591461E+02  0.41800000000E+01 0.  1.
         -5    1    3    3    0  502 -0.85461664229E+02  0.44774920471E+02  0.11031500178E+03  0.14661296523E+03  0.41800000000E+01 0.  1.
        -11    1    4    4    0    0  0.35109516366E+02  0.55869816604E+01  0.12773219265E+03  0.13258735061E+03  0.00000000000E+00 0. -1.
         11    1    4    4    0    0  0.51246133158E+02 -0.16333895524E+02  0.12870860178E+02  0.55304804026E+02  0.00000000000E+00 0.  1.
</event>
<event>
 8    1  0.6637272E-009  0.8959680E+02  0.7561462E-02  0.1303831E+00
         -1   -1    0    0    0  501 -0.00000000000E+00  0.00000000000E+00  0.64129468965E+02  0.64129468965E+02  0.00000000000E+00 0.  1.
          1   -1    0    0  501    0  0.00000000000E+00 -0.00000000000E+00 -0.21851353534E+03  0.21851353534E+03  0.00000000000E+00 0. -1.
         25    2    1    2    0    0  0.21671083175E+02 -0.41297461859E+02 -0.12512513560E+03  0.18297300077E+03  0.12509078004E+03 0.  0.
         23    2    1    2    0    0 -0.21671083175E+02  0.41297461859E+02 -0.29258930781E+02  0.99670003534E+02  0.83083743128E+02 0.  0.
          5    1    3    3  502    0  0.43587561357E+02 -0.45224019185E+02 -0.14159989434E+03  0.15496157553E+03  0.41800000000E+01 0. -1.
         -5    1    3    3    0  502 -0.21916478182E+02  0.39265573260E+01  0.16474758740E+02  0.28011425238E+02  0.41800000000E+01 0. -1.
        -11    1    4    4    0    0  0.26337757857E+02  0.36962514451E+02 -0.23540401674E+02  0.51127834635E+02  0.00000000000E+00 0. -1.
         11    1    4    4    0    0 -0.48008841032E+02  0.43349474074E+01 -0.57185291062E+01  0.48542168899E+02  0.00000000000E+00 0.  1.
</event>
<event>
 8    1  0.6637272E-009  0.1159087E+03  0.7561462E-02  0.1250003E+00
          1   -1    0    0  501    0  0.00000000000E+00  0.00000000000E+00  0.97055881193E+03  0.97055881193E+03  0.00000000000E+00 0. -1.
         -1   -1    0    0    0  501 -0.00000000000E+00 -0.00000000000E+00 -0.21203681726E+02  0.21203681726E+02  0.00000000000E+00 0.  1.
         25    2    1    2    0    0  0.65697029115E+02  0.58920623856E+02  0.61735755077E+03  0.63605172217E+03  0.12507481052E+03 0.  0.
         23    2    1    2    0    0 -0.65697029115E+02 -0.58920623856E+02  0.33199757943E+03  0.35571077149E+03  0.92303957955E+02 0.  0.
          5    1    3    3  502    0  0.83619582700E+02  0.39738270609E+02  0.23268664921E+03  0.25046339829E+03  0.41800000000E+01 0.  1.
         -5    1    3    3    0  502 -0.17922553585E+02  0.19182353247E+02  0.38467090156E+03  0.38558832388E+03  0.41800000000E+01 0.  1.
        -11    1    4    4    0    0 -0.21255493624E+02 -0.64365855057E+02  0.27499636823E+03  0.28322740307E+03  0.00000000000E+00 0. -1.
         11    1    4    4    0    0 -0.44441535491E+02  0.54452312006E+01  0.57001211197E+02  0.72483368420E+02  0.00000000000E+00 0.  1.
</event>
<event>
 8    1  0.6637272E-009  0.1853192E+03  0.7561462E-02  0.1162752E+00
         -1   -1    0    0    0  501 -0.00000000000E+00  0.00000000000E+00  0.23584262004E+02  0.23584262004E+02  0.00000000000E+00 0.  1.
          1   -1    0    0  501    0  0.00000000000E+00 -0.00000000000E+00 -0.17045569864E+04  0.17045569864E+04  0.00000000000E+00 0. -1.
         25    2    1    2    0    0  0.54032136390E+02  0.15799772318E+03 -0.97525137442E+03  0.99731822932E+03  0.12508259240E+03 0.  0.
         23    2    1    2    0    0 -0.54032136390E+02 -0.15799772318E+03 -0.70572135002E+03  0.73082301913E+03  0.90426263504E+02 0.  0.
          5    1    3    3  502    0  0.99990333990E+01 -0.57817745271E+01 -0.66410338770E+01  0.13963714282E+02  0.41800000000E+01 0.  1.
         -5    1    3    3    0  502  0.44033102991E+02  0.16377949770E+03 -0.96861034054E+03  0.98335451503E+03  0.41800000000E+01 0.  1.
        -11    1    4    4    0    0  0.24325915830E+02 -0.29912132257E+02 -0.17977464616E+03  0.18386247371E+03  0.00000000000E+00 0.  1.
         11    1    4    4    0    0 -0.78358052221E+02 -0.12808559092E+03 -0.52594670385E+03  0.54696054542E+03  0.00000000000E+00 0. -1.
</event>
<event>
 8    1  0.6637272E-009  0.1105521E+03  0.7561462E-02  0.1259551E+00
          2   -1    0    0  501    0  0.00000000000E+00  0.00000000000E+00  0.10755063610E+04  0.10755063610E+04  0.00000000000E+00 0. -1.
         -2   -1    0    0    0  501 -0.00000000000E+00 -0.00000000000E+00 -0.12693072824E+02  0.12693072824E+02  0.00000000000E+00 0.  1.
         25    2    1    2    0    0 -0.10396610464E+02  0.23066519011E+02  0.75630124959E+03  0.76699389354E+03  0.12509156161E+03 0.  0.
         23    2    1    2    0    0  0.10396610464E+02 -0.23066519011E+02  0.30651203858E+03  0.32120554028E+03  0.92645644810E+02 0.  0.
          5    1    3    3  502    0  0.54050895674E+02  0.30161843134E+02  0.33190165766E+03  0.33764984653E+03  0.41800000000E+01 0. -1.
         -5    1    3    3    0  502 -0.64447506138E+02 -0.70953241228E+01  0.42439959193E+03  0.42934404701E+03  0.41800000000E+01 0. -1.
        -11    1    4    4    0    0  0.50567707918E+02 -0.17653213657E+02  0.14177202246E+03  0.15155208804E+03  0.00000000000E+00 0.  1.
         11    1    4    4    0    0 -0.40171097454E+02 -0.54133053543E+01  0.16474001612E+03  0.16965345224E+03  0.00000000000E+00 0. -1.
</event>
<event>
 8    1  0.6637272E-009  0.1110341E+03  0.7561462E-02  0.1258667E+00
         -2   -1    0    0    0  501 -0.00000000000E+00  0.00000000000E+00  0.50109905045E+02  0.50109905045E+02  0.00000000000E+00 0.  1.
          2   -1    0    0  501    0  0.00000000000E+00 -0.00000000000E+00 -0.35687343689E+03  0.35687343689E+03  0.00000000000E+00 0. -1.
         25    2    1    2    0    0 -0.12225893552E+02  0.65166518350E+02 -0.23172380883E+03  0.27154989000E+03  0.12508905464E+03 0.  0.
         23    2    1    2    0    0  0.12225893552E+02 -0.65166518350E+02 -0.75039723010E+02  0.13543345193E+03  0.91187237519E+02 0.  0.
          5    1    3    3  502    0  0.35233076325E+02 -0.29877337538E+01 -0.15283457124E+03  0.15692729140E+03  0.41800000000E+01 0.  1.
         -5    1    3    3    0  502 -0.47458969877E+02  0.68154252104E+02 -0.78889237598E+02  0.11462259860E+03  0.41800000000E+01 0.  1.
        -11    1    4    4    0    0  0.29896799163E+02  0.55574447936E+01  0.55746278333E+00  0.30414051975E+02  0.00000000000E+00 0.  1.
         11    1    4    4    0    0 -0.17670905611E+02 -0.70723963144E+02 -0.75597185794E+02  0.10501939996E+03  0.00000000000E+00 0. -1.
</event>
<event>
 7    1  0.6637272E-009  0.1147904E+03  0.7561462E-02  0.1251947E+00
         -1   -1    0    0    0  501 -0.00000000000E+00  0.00000000000E+00  0.33195498018E+02  0.33195498018E+02  0.00000000000E+00 0.  1.
          1   -1    0    0  501    0  0.00000000000E+00 -0.00000000000E+00 -0.45370696548E+03  0.45370696548E+03  0.00000000000E+00 0. -1.
         23    2    1    2    0    0 -0.49586784553E+02  0.13663609441E+02 -0.24163910568E+03  0.26395120805E+03  0.92925988877E+02 0.  0.
          5    1    1    2  502    0  0.98148541667E+01  0.50126744000E+02 -0.40108854716E+02  0.65078525283E+02  0.41800000000E+01 0. -1.
         -5    1    1    2    0  502  0.39771930386E+02 -0.63790353441E+02 -0.13876350707E+03  0.15787273017E+03  0.41800000000E+01 0. -1.
        -11    1    3    3    0    0 -0.62813721940E+02 -0.20767440539E+02 -0.18388434194E+03  0.19542339026E+03  0.00000000000E+00 0. -1.
         11    1    3    3    0    0  0.13226937388E+02  0.34431049980E+02 -0.57754763742E+02  0.68527817784E+02  0.00000000000E+00 0.  1.
</event>
<event>
 8    1  0.6637272E-009  0.1182201E+03  0.7561462E-02  0.1246062E+00
         -1   -1    0    0    0  501 -0.00000000000E+00  0.00000000000E+00  0.30948667221E+02  0.30948667221E+02  0.00000000000E+00 0.  1.
          1   -1    0    0  501    0  0.00000000000E+00 -0.00000000000E+00 -0.50227089016E+03  0.50227089016E+03  0.00000000000E+00 0. -1.
         25    2    1    2    0    0  0.33415105687E+02 -0.51177318327E+02 -0.26025776142E+03  0.29515543457E+03  0.12508773311E+03 0.  0.
         23    2    1    2    0    0 -0.33415105687E+02  0.51177318327E+02 -0.21106446151E+03  0.23806412281E+03  0.91600395505E+02 0.  0.
          5    1    3    3  502    0 -0.29339725891E+02 -0.56519979298E+02 -0.19133127172E+03  0.20169396499E+03  0.41800000000E+01 0.  1.
         -5    1    3    3    0  502  0.62754831578E+02  0.53426609710E+01 -0.68926489703E+02  0.93461469577E+02  0.41800000000E+01 0.  1.
        -11    1    4    4    0    0  0.31402282112E+02  0.22457481751E+02 -0.86803349882E+02  0.95001386090E+02  0.00000000000E+00 0.  1.
         11    1    4    4    0    0 -0.64817387799E+02  0.28719836576E+02 -0.12426111163E+03  0.14306273672E+03  0.00000000000E+00 0. -1.
</event>
<event>
 8    1  0.6637272E-009  0.8054793E+02  0.7561462E-02  0.1327504E+00
          1   -1    0    0  501    0  0.00000000000E+00  0.00000000000E+00  0.46200875686E+02  0.46200875686E+02  0.00000000000E+00 0. -1.
         -1   -1    0    0    0  501 -0.00000000000E+00 -0.00000000000E+00 -0.45325256087E+03  0.45325256087E+03  0.00000000000E+00 0.  1.
         25    2    1    2    0    0  0.23951221038E+02 -0.57378419327E+02 -0.96683729453E+02  0.16988826011E+03  0.12509329873E+03 0.  0.
         23    2    1    2    0    0 -0.23951221038E+02  0.57378419327E+02 -0.31036795573E+03  0.32956517645E+03  0.91755073920E+02 0.  0.
          5    1    3    3  502    0  0.11308691040E+02  0.89141952049E+01 -0.10102567189E+03  0.10213230708E+03  0.41800000000E+01 0. -1.
         -5    1    3    3    0  502  0.12642529998E+02 -0.66292614532E+02  0.43419424353E+01  0.67755953026E+02  0.41800000000E+01 0. -1.
        -11    1    4    4    0    0 -0.37521940073E+02  0.51442912638E+02 -0.30806358845E+03  0.31457502090E+03  0.00000000000E+00 0.  1.
         11    1    4    4    0    0  0.13570719035E+02  0.59355066894E+01 -0.23043672824E+01  0.14990155548E+02  0.00000000000E+00 0. -1.
</event>
<event>
 8    1  0.6637272E-009  0.1109648E+03  0.7561462E-02  0.1258794E+00
         -1   -1    0    0    0  501 -0.00000000000E+00  0.00000000000E+00  0.14055403794E+03  0.14055403794E+03  0.00000000000E+00 0.  1.
          1   -1    0    0  501    0  0.00000000000E+00 -0.00000000000E+00 -0.12209572679E+03  0.12209572679E+03  0.00000000000E+00 0. -1.
         25    2    1    2    0    0 -0.15822611113E+02 -0.35560539911E+02  0.72570984477E+02  0.14976234441E+03  0.12508918816E+03 0.  0.
         23    2    1    2    0    0  0.15822611113E+02  0.35560539911E+02 -0.54112673330E+02  0.11288742031E+03  0.91106976839E+02 0.  0.
          5    1    3    3  502    0 -0.65110246426E+02 -0.44716166958E+02  0.32770914321E+02  0.85617083591E+02  0.41800000000E+01 0. -1.
         -5    1    3    3    0  502  0.49287635313E+02  0.91556270477E+01  0.39800070156E+02  0.64145260821E+02  0.41800000000E+01 0. -1.
        -11    1    4    4    0    0  0.13331631141E+02 -0.26897425019E+02 -0.37829694333E+02  0.48293784640E+02  0.00000000000E+00 0. -1.
         11    1    4    4    0    0  0.24909799713E+01  0.62457964930E+02 -0.16282978997E+02  0.64593635672E+02  0.00000000000E+00 0.  1.
</event>
<event>
 8    1  0.6637272E-009  0.6713346E+02  0.7561462E-02  0.1370121E+00
         -1   -1    0    0    0  501 -0.00000000000E+00  0.00000000000E+00  0.67006204985E+02  0.67006204985E+02  0.00000000000E+00 0.  1.
          1   -1    0    0  501    0  0.00000000000E+00 -0.00000000000E+00 -0.28425559586E+03  0.28425559586E+03  0.00000000000E+00 0. -1.
         25    2    1    2    0    0  0.14533728353E+02 -0.12345472589E+02 -0.15546645798E+02  0.12749303406E+03  0.12509650509E+03 0.  0.
         23    2    1    2    0    0 -0.14533728353E+02  0.12345472589E+02 -0.20170274507E+03  0.22376876678E+03  0.94999071909E+02 0.  0.
          5    1    3    3  502    0 -0.30279883641E+01 -0.30232624773E+02  0.49178025537E+02  0.57958009886E+02  0.41800000000E+01 0. -1.
         -5    1    3    3    0  502  0.17561716717E+02  0.17887152184E+02 -0.64724671335E+02  0.69535024173E+02  0.41800000000E+01 0. -1.
        -11    1    4    4    0    0 -0.31892353599E+02  0.36479712686E+02 -0.18142208456E+03  0.18778142725E+03  0.00000000000E+00 0.  1.
         11    1    4    4    0    0  0.17358625245E+02 -0.24134240097E+02 -0.20280660517E+02  0.35987339530E+02  0.00000000000E+00 0. -1.
</event>
<event>
 8    1  0.6637272E-009  0.1711695E+03  0.7561462E-02  0.1176634E+00
         -2   -1    0    0    0  501 -0.00000000000E+00  0.00000000000E+00  0.43157378705E+03  0.43157378705E+03  0.00000000000E+00 0.  1.
          2   -1    0    0  501    0  0.00000000000E+00 -0.00000000000E+00 -0.13467125047E+03  0.13467125047E+03  0.00000000000E+00 0. -1.
         25    2    1    2    0    0 -0.54805884104E+02 -0.14505191311E+03 -0.22136514506E+02  0.20045003497E+03  0.12508576584E+03 0.  0.
         23    2    1    2    0    0  0.54805884104E+02  0.14505191311E+03  0.31903905108E+03  0.36579500256E+03  0.89310275733E+02 0.  0.
          5    1    3    3  502    0 -0.79101034065E+02 -0.10329879506E+03 -0.55585343237E+02  0.14154440093E+03  0.41800000000E+01 0. -1.
         -5    1    3    3    0  502  0.24295149961E+02 -0.41753118043E+02  0.33448828731E+02  0.58905634038E+02  0.41800000000E+01 0. -1.
        -11    1    4    4    0    0  0.57144300709E+02  0.78559379439E+02  0.11165545623E+03  0.14799995982E+03  0.00000000000E+00 0. -1.
         11    1    4    4    0    0 -0.23384166050E+01  0.66492533668E+02  0.20738359485E+03  0.21779504274E+03  0.00000000000E+00 0.  1.
</event>
<event>
 8    1  0.6637272E-009  0.9898968E+02  0.7561462E-02  0.1282435E+00
          2   -1    0    0  501    0  0.00000000000E+00  0.00000000000E+00  0.60705865107E+03  0.60705865107E+03  0.00000000000E+00 0. -1.
         -2   -1    0    0    0  501 -0.00000000000E+00 -0.00000000000E+00 -0.23734292258E+02  0.23734292258E+02  0.00000000000E+00 0.  1.
         25    2    1    2    0    0  0.37748191169E+02  0.19634985326E+02  0.39786776072E+03  0.41923294129E+03  0.12508815075E+03 0.  0.
         23    2    1    2    0    0 -0.37748191169E+02 -0.19634985326E+02  0.18545659809E+03  0.21156000203E+03  0.92482571877E+02 0.  0.
          5    1    3    3  502    0 -0.39527116727E+02  0.35859709064E+01  0.23308116889E+03  0.23647316092E+03  0.41800000000E+01 0.  1.
         -5    1    3    3    0  502  0.77275307896E+02  0.16049014420E+02  0.16478659183E+03  0.18275978037E+03  0.41800000000E+01 0.  1.
        -11    1    4    4    0    0  0.99163567949E+01  0.16480502736E+02  0.28914792002E+01  0.19449980835E+02  0.00000000000E+00 0.  1.
         11    1    4    4    0    0 -0.47664547964E+02 -0.36115488062E+02  0.18256511889E+03  0.19211002120E+03  0.00000000000E+00 0. -1.
</event>
<event>
 8    1  0.6637272E-009  0.1131196E+03  0.7561462E-02  0.1254900E+00
          2   -1    0    0  501    0  0.00000000000E+00  0.00000000000E+00  0.30713518176E+03  0.30713518176E+03  0.00000000000E+00 0. -1.
         -2   -1    0    0    0  501 -0.00000000000E+00 -0.00000000000E+00 -0.52215984774E+02  0.52215984774E+02  0.00000000000E+00 0.  1.
         25    2    1    2    0    0  0.32046263743E+02 -0.39532380772E+02  0.90924713278E+02  0.16280214390E+03  0.12508981743E+03 0.  0.
         23    2    1    2    0    0 -0.32046263743E+02  0.39532380772E+02  0.16399448370E+03  0.19654902263E+03  0.95642853682E+02 0.  0.
          5    1    3    3  502    0  0.50759384416E+02 -0.67187429478E+02  0.23624129558E+02  0.87557053877E+02  0.41800000000E+01 0.  1.
         -5    1    3    3    0  502 -0.18713120673E+02  0.27655048706E+02  0.67300583720E+02  0.75245090028E+02  0.41800000000E+01 0.  1.
        -11    1    4    4    0    0  0.20608436930E+02  0.50455298362E+02  0.85855748223E+02  0.10169392464E+03  0.00000000000E+00 0.  1.
         11    1    4    4    0    0 -0.52654700673E+02 -0.10922917589E+02  0.78138735482E+02  0.94855097988E+02  0.00000000000E+00 0. -1.
</event>
<event>
 8    1  0.6637272E-009  0.1199673E+03  0.7561462E-02  0.1243151E+00
         -2   -1    0    0    0  501 -0.00000000000E+00  0.00000000000E+00  0.12784634556E+03  0.12784634556E+03  0.00000000000E+00 0.  1.
          2   -1    0    0  501    0  0.00000000000E+00 -0.00000000000E+00 -0.13473968546E+03  0.13473968546E+03  0.00000000000E+00 0. -1.
         25    2    1    2    0    0  0.50521659521E+02  0.48694043401E+02  0.13404974321E+02  0.14405163224E+03  0.12509049313E+03 0.  0.
         23    2    1    2    0    0 -0.50521659521E+02 -0.48694043401E+02 -0.20298314219E+02  0.11853439878E+03  0.93353276267E+02 0.  0.
          5    1    3    3  502    0 -0.80389526350E+01 -0.27318505348E+02  0.35295594895E+02  0.45543132445E+02  0.41800000000E+01 0.  1.
         -5    1    3    3    0  502  0.58560612156E+02  0.76012548749E+02 -0.21890620574E+02  0.98508499798E+02  0.41800000000E+01 0.  1.
        -11    1    4    4    0    0 -0.10777002747E+02  0.27298534257E+02  0.34436894034E+01  0.29550173561E+02  0.00000000000E+00 0.  1.
         11    1    4    4    0    0 -0.39744656773E+02 -0.75992577658E+02 -0.23742003622E+02  0.88984225215E+02  0.00000000000E+00 0. -1.
</event>
<event>
 8    1  0.6637272E-009  0.1635700E+03  0.7561462E-02  0.1184724E+00
          1   -1    0    0  501    0  0.00000000000E+00  0.00000000000E+00  0.59673752639E+03  0.59673752639E+03  0.00000000000E+00 0. -1.
         -1   -1    0    0    0  501 -0.00000000000E+00 -0.00000000000E+00 -0.50582013718E+02  0.50582013718E+02  0.00000000000E+00 0.  1.
         25    2    1    2    0    0 -0.99813115311E+02  0.88650725271E+02  0.24357384617E+03  0.30462722357E+03  0.12509163732E+03 0.  0.
         23    2    1    2    0    0  0.99813115311E+02 -0.88650725271E+02  0.30258166651E+03  0.34269231653E+03  0.89781678680E+02 0.  0.
          5    1    3    3  502    0  0.17768559947E+02  0.35510297361E+02  0.16057766694E+02  0.43035185749E+02  0.41800000000E+01 0.  1.
         -5    1    3    3    0  502 -0.11758167526E+03  0.53140427910E+02  0.22751607947E+03  0.26159203783E+03  0.41800000000E+01 0.  1.
        -11    1    4    4    0    0  0.90430491109E+02 -0.10542306610E+03  0.28304509584E+03  0.31528752413E+03  0.00000000000E+00 0.  1.
         11    1    4    4    0    0  0.93826242019E+01  0.16772340827E+02  0.19536570662E+02  0.27404792409E+02  0.00000000000E+00 0. -1.
</event>
<event>
 8    1  0.6637272E-009  0.1297981E+03  0.7561462E-02  0.1227756E+00
         -2   -1    0    0    0  501 -0.00000000000E+00  0.00000000000E+00  0.15050295020E+03  0.15050295020E+03  0.00000000000E+00 0.  1.
          2   -1    0    0  501    0  0.00000000000E+00 -0.00000000000E+00 -0.15579957728E+03  0.15579957728E+03  0.00000000000E+00 0. -1.
         25    2    1    2    0    0  0.89690379879E+02  0.43980666671E+02  0.44544755249E+02  0.16616344072E+03  0.12508953005E+03 0.  0.
         23    2    1    2    0    0 -0.89690379879E+02 -0.43980666671E+02 -0.49841382327E+02  0.14013908675E+03  0.84712082728E+02 0.  0.
          5    1    3    3  502    0 -0.21686698725E+01  0.53916982315E+02 -0.15002027918E+02  0.56162953561E+02  0.41800000000E+01 0. -1.
         -5    1    3    3    0  502  0.91859049752E+02 -0.99363156441E+01  0.59546783166E+02  0.11000048716E+03  0.41800000000E+01 0. -1.
        -11    1    4    4    0    0 -0.56381211390E+02 -0.54134117624E+02  0.14123835901E+01  0.78175050471E+02  0.00000000000E+00 0. -1.
         11    1    4    4    0    0 -0.33309168490E+02  0.10153450953E+02 -0.51253765917E+02  0.61964036282E+02  0.00000000000E+00 0.  1.
</event>
<event>
 8    1  0.6637272E-009  0.8654930E+02  0.7561462E-02  0.1311430E+00
          1   -1    0    0  501    0  0.00000000000E+00  0.00000000000E+00  0.97212673888E+03  0.97212673888E+03  0.00000000000E+00 0.  1.
         -1   -1    0    0    0  501 -0.00000000000E+00 -0.00000000000E+00 -0.17599412623E+02  0.17599412623E+02  0.00000000000E+00 0. -1.
         25    2    1    2    0    0 -0.82266258564E+00 -0.41929937655E+02  0.75453528513E+03  0.76597651293E+03  0.12505089124E+03 0.  0.
         23    2    1    2    0    0  0.82266258564E+00  0.41929937655E+02  0.19999204112E+03  0.22374963857E+03  0.91149809679E+02 0.  0.
          5    1    3    3  502    0 -0.14524094518E+02  0.17733128893E+02  0.26202099431E+02  0.35063308408E+02  0.41800000000E+01 0. -1.
         -5    1    3    3    0  502  0.13701431932E+02 -0.59663066547E+02  0.72833318570E+03  0.73091320452E+03  0.41800000000E+01 0. -1.
        -11    1    4    4    0    0 -0.35486606365E+02  0.37879979539E+02  0.16571164164E+03  0.17365062700E+03  0.00000000000E+00 0.  1.
         11    1    4    4    0    0  0.36309268950E+02  0.40499581154E+01  0.34280399482E+02  0.50099011578E+02  0.00000000000E+00 0. -1.
</event>
<event>
 8    1  0.6637272E-009  0.1271632E+03  0.7561462E-02  0.1231727E+00
          2   -1    0    0  501    0  0.00000000000E+00  0.00000000000E+00  0.14593257849E+03  0.14593257849E+03  0.00000000000E+00 0. -1.
         -2   -1    0    0    0  501 -0.00000000000E+00 -0.00000000000E+00 -0.17020791059E+03  0.17020791059E+03  0.00000000000E+00 0.  1.
         25    2    1    2    0    0 -0.13154201954E+02  0.96970984105E+02  0.46700582641E+02  0.16554618542E+03  0.12509272681E+03 0.  0.
         23    2    1    2    0    0  0.13154201954E+02 -0.96970984105E+02 -0.70975914745E+02  0.15059430365E+03  0.89803446655E+02 0.  0.
          5    1    3    3  502    0 -0.44854813549E+02  0.24111649877E+02 -0.26386001326E+02  0.57506690257E+02  0.41800000000E+01 0. -1.
         -5    1    3    3    0  502  0.31700611596E+02  0.72859334228E+02  0.73086583967E+02  0.10803949517E+03  0.41800000000E+01 0. -1.
        -11    1    4    4    0    0 -0.11655779886E+02 -0.98136412103E+02 -0.31078837502E+02  0.10359781236E+03  0.00000000000E+00 0. -1.
         11    1    4    4    0    0  0.24809981840E+02  0.11654279978E+01 -0.39897077242E+02  0.46996491292E+02  0.00000000000E+00 0.  1.
</event>
<event>
 8    1  0.6637272E-009  0.1064650E+03  0.7561462E-02  0.1267260E+00
          1   -1    0    0  501    0  0.00000000000E+00  0.00000000000E+00  0.26107291335E+03  0.26107291335E+03  0.00000000000E+00 0. -1.
         -1   -1    0    0    0  501 -0.00000000000E+00 -0.00000000000E+00 -0.73649728866E+02  0.73649728866E+02  0.00000000000E+00 0.  1.
         25    2    1    2    0    0 -0.78756474169E+02 -0.23735712469E+01  0.60442384900E+02  0.15971453505E+03  0.12508890739E+03 0.  0.
         23    2    1    2    0    0  0.78756474169E+02  0.23735712469E+01  0.12698079959E+03  0.17500810717E+03  0.91079624757E+02 0.  0.
          5    1    3    3  502    0 -0.45200570108E+02  0.39479400266E+02 -0.19596521555E+02  0.63270930454E+02  0.41800000000E+01 0. -1.
         -5    1    3    3    0  502 -0.33555904061E+02 -0.41852971513E+02  0.80038906455E+02  0.96443604601E+02  0.41800000000E+01 0. -1.
        -11    1    4    4    0    0  0.57196270639E+02  0.29465382462E+02  0.28040888213E+02  0.70184852714E+02  0.00000000000E+00 0.  1.
         11    1    4    4    0    0  0.21560203530E+02 -0.27091811215E+02  0.98939911375E+02  0.10482325445E+03  0.00000000000E+00 0. -1.
</event>
<event>
 8    1  0.6637272E-009  0.2045653E+03  0.7561462E-02  0.1145943E+00
         -1   -1    0    0    0  501 -0.00000000000E+00  0.00000000000E+00  0.24594785369E+02  0.24594785369E+02  0.00000000000E+00 0.  1.
          1   -1    0    0  501    0  0.00000000000E+00 -0.00000000000E+00 -0.17788439945E+04  0.17788439945E+04  0.00000000000E+00 0. -1.
         25    2    1    2    0    0 -0.79795764996E+02  0.15557736770E+03 -0.90779486812E+03  0.93290420945E+03  0.12508820879E+03 0.  0.
         23    2    1    2    0    0  0.79795764996E+02 -0.15557736770E+03 -0.84645434097E+03  0.87053457038E+03  0.10379694321E+03 0.  0.
          5    1    3    3  502    0  0.25780256973E+02  0.12436402109E+02 -0.24295010417E+03  0.24466612202E+03  0.41800000000E+01 0.  1.
         -5    1    3    3    0  502 -0.10557602197E+03  0.14314096559E+03 -0.66484476394E+03  0.68823808743E+03  0.41800000000E+01 0.  1.
        -11    1    4    4    0    0  0.10446790560E+03 -0.12184450101E+03 -0.70481942967E+03  0.72286240334E+03  0.00000000000E+00 0.  1.
         11    1    4    4    0    0 -0.24672140602E+02 -0.33732866693E+02 -0.14163491130E+03  0.14767216703E+03  0.00000000000E+00 0. -1.
</event>
<event>
 8    1  0.6637272E-009  0.9373028E+02  0.7561462E-02  0.1294062E+00
         -1   -1    0    0    0  501 -0.00000000000E+00  0.00000000000E+00  0.15125572615E+03  0.15125572615E+03  0.00000000000E+00 0.  1.
          1   -1    0    0  501    0  0.00000000000E+00 -0.00000000000E+00 -0.82878495625E+02  0.82878495625E+02  0.00000000000E+00 0. -1.
         25    2    1    2    0    0  0.33605875729E+01  0.34859960481E+02  0.34621378401E+02  0.13444448745E+03  0.12510063937E+03 0.  0.
         23    2    1    2    0    0 -0.33605875729E+01 -0.34859960481E+02  0.33755852121E+02  0.99689734322E+02  0.87017671672E+02 0.  0.
          5    1    3    3  502    0 -0.52678514007E+02  0.38302101562E+02  0.42076472951E+02  0.77652938115E+02  0.41800000000E+01 0. -1.
         -5    1    3    3    0  502  0.56039101579E+02 -0.34421410803E+01 -0.74550945499E+01  0.56791549334E+02  0.41800000000E+01 0. -1.
        -11    1    4    4    0    0  0.22145189717E+02  0.67347852450E+00 -0.20372168682E+02  0.30097977635E+02  0.00000000000E+00 0. -1.
         11    1    4    4    0    0 -0.25505777290E+02 -0.35533439006E+02  0.54128020802E+02  0.69591756687E+02  0.00000000000E+00 0.  1.
</event>
<event>
 8    1  0.6637272E-009  0.8256680E+02  0.7561462E-02  0.1321921E+00
         -3   -1    0    0    0  501 -0.00000000000E+00  0.00000000000E+00  0.20482369016E+02  0.20482369016E+02  0.00000000000E+00 0.  1.
          3   -1    0    0  501    0  0.00000000000E+00 -0.00000000000E+00 -0.71482090458E+03  0.71482090458E+03  0.00000000000E+00 0. -1.
         25    2    1    2    0    0 -0.24702067245E+02  0.34649341166E+02 -0.49222402330E+03  0.50965126780E+03  0.12509658943E+03 0.  0.
         23    2    1    2    0    0  0.24702067245E+02 -0.34649341166E+02 -0.20211451227E+03  0.22565200580E+03  0.90872342785E+02 0.  0.
          5    1    3    3  502    0 -0.23439630599E+02  0.48513086196E+02 -0.76441147828E+02  0.93614407524E+02  0.41800000000E+01 0. -1.
         -5    1    3    3    0  502 -0.12624366461E+01 -0.13863745030E+02 -0.41578287547E+03  0.41603686027E+03  0.41800000000E+01 0. -1.
        -11    1    4    4    0    0 -0.20983128411E+02 -0.45055767295E+02 -0.13449780589E+03  0.14338749469E+03  0.00000000000E+00 0.  1.
         11    1    4    4    0    0  0.45685195656E+02  0.10406426129E+02 -0.67616706383E+02  0.82264511115E+02  0.00000000000E+00 0. -1.
</event>
<event>
 8    1  0.6637272E-009  0.1522137E+03  0.7561462E-02  0.1197779E+00
          2   -1    0    0  501    0  0.00000000000E+00  0.00000000000E+00  0.21540361108E+03  0.21540361108E+03  0.00000000000E+00 0. -1.
         -2   -1    0    0    0  501 -0.00000000000E+00 -0.00000000000E+00 -0.12842332291E+03  0.12842332291E+03  0.00000000000E+00 0.  1.
         25    2    1    2    0    0 -0.11256752780E+03  0.17898927981E+02 -0.11481864110E+02  0.16963229014E+03  0.12510579809E+03 0.  0.
         23    2    1    2    0    0  0.11256752780E+03 -0.17898927981E+02  0.98462152285E+02  0.17419464385E+03  0.87505191714E+02 0.  0.
          5    1    3    3  502    0  0.76595399616E+01  0.44553738362E+02 -0.95821197383E+01  0.46400361778E+02  0.41800000000E+01 0.  1.
         -5    1    3    3    0  502 -0.12022706776E+03 -0.26654810381E+02 -0.18997443720E+01  0.12323192836E+03  0.41800000000E+01 0.  1.
        -11    1    4    4    0    0  0.30209521232E+02  0.28286898964E+02  0.58506978465E+02  0.71664707878E+02  0.00000000000E+00 0. -1.
         11    1    4    4    0    0  0.82358006565E+02 -0.46185826945E+02  0.39955173820E+02  0.10252993597E+03  0.00000000000E+00 0.  1.
</event>
<event>
 8    1  0.6637272E-009  0.1340429E+03  0.7561462E-02  0.1221577E+00
          1   -1    0    0  501    0  0.00000000000E+00  0.00000000000E+00  0.68060326648E+02  0.68060326648E+02  0.00000000000E+00 0. -1.
         -1   -1    0    0    0  501 -0.00000000000E+00 -0.00000000000E+00 -0.33067334386E+03  0.33067334386E+03  0.00000000000E+00 0.  1.
         25    2    1    2    0    0 -0.68673925612E+02 -0.74465083431E+02 -0.16679538407E+03  0.23178955182E+03  0.12507813348E+03 0.  0.
         23    2    1    2    0    0  0.68673925612E+02  0.74465083431E+02 -0.95817633140E+02  0.16694411869E+03  0.91805028372E+02 0.  0.
          5    1    3    3  502    0 -0.64302296499E+02 -0.92345311299E+02 -0.17741381784E+03  0.21013228456E+03  0.41800000000E+01 0. -1.
         -5    1    3    3    0  502 -0.43716291138E+01  0.17880227868E+02  0.10618433764E+02  0.21657267263E+02  0.41800000000E+01 0. -1.
        -11    1    4    4    0    0  0.14014137102E+01  0.69105211583E+02 -0.45229404260E+02  0.82602622464E+02  0.00000000000E+00 0.  1.
         11    1    4    4    0    0  0.67272511902E+02  0.53598718480E+01 -0.50588228880E+02  0.84341496223E+02  0.00000000000E+00 0. -1.
</event>
<event>
 8    1  0.6637272E-009  0.2594668E+03  0.7561462E-02  0.1107464E+00
         -1   -1    0    0    0  501 -0.00000000000E+00  0.00000000000E+00  0.36169697323E+03  0.36169697323E+03  0.00000000000E+00 0.  1.
          1   -1    0    0  501    0  0.00000000000E+00 -0.00000000000E+00 -0.25041576113E+03  0.25041576113E+03  0.00000000000E+00 0. -1.
         25    2    1    2    0    0 -0.11340997705E+03  0.21990487747E+03 -0.77871491553E+02  0.28797802624E+03  0.12508955342E+03 0.  0.
         23    2    1    2    0    0  0.11340997705E+03 -0.21990487747E+03  0.18915270366E+03  0.32413470812E+03  0.89803038229E+02 0.  0.
          5    1    3    3  502    0 -0.52096447489E+02  0.33141672537E+02 -0.66786445998E+02  0.91051150836E+02  0.41800000000E+01 0.  1.
         -5    1    3    3    0  502 -0.61313529565E+02  0.18676320493E+03 -0.11085045555E+02  0.19692687541E+03  0.41800000000E+01 0.  1.
        -11    1    4    4    0    0  0.67892599712E+02 -0.49415683425E+02  0.83717258812E+02  0.11857442510E+03  0.00000000000E+00 0.  1.
         11    1    4    4    0    0  0.45517377342E+02 -0.17048919404E+03  0.10543544485E+03  0.20556028302E+03  0.00000000000E+00 0. -1.
</event>
<event>
 8    1  0.6637272E-009  0.8379976E+02  0.7561462E-02  0.1318601E+00
          4   -1    0    0  501    0  0.00000000000E+00  0.00000000000E+00  0.13058538582E+03  0.13058538582E+03  0.00000000000E+00 0. -1.
         -4   -1    0    0    0  501 -0.00000000000E+00 -0.00000000000E+00 -0.11596392835E+03  0.11596392835E+03  0.00000000000E+00 0.  1.
         25    2    1    2    0    0  0.55476892788E+02 -0.24717936465E+02  0.18749870161E+00  0.13905911681E+03  0.12509492713E+03 0.  0.
         23    2    1    2    0    0 -0.55476892788E+02  0.24717936465E+02  0.14433958773E+02  0.10749019736E+03  0.87505093263E+02 0.  0.
          5    1    3    3  502    0  0.33390553968E+02 -0.14384180482E+02 -0.62075946962E+02  0.72060594874E+02  0.41800000000E+01 0.  1.
         -5    1    3    3    0  502  0.22086338819E+02 -0.10333755984E+02  0.62263445663E+02  0.66998521932E+02  0.41800000000E+01 0.  1.
        -11    1    4    4    0    0 -0.68947238112E+02 -0.93973129091E+01  0.59157835993E+01  0.69835718860E+02  0.00000000000E+00 0.  1.
         11    1    4    4    0    0  0.13470345324E+02  0.34115249375E+02  0.85181751737E+01  0.37654478503E+02  0.00000000000E+00 0. -1.
</event>
<event>
 8    1  0.6637272E-009  0.1067976E+03  0.7561462E-02  0.1266618E+00
         -2   -1    0    0    0  501 -0.00000000000E+00  0.00000000000E+00  0.14752598402E+02  0.14752598402E+02  0.00000000000E+00 0.  1.
          2   -1    0    0  501    0  0.00000000000E+00 -0.00000000000E+00 -0.98158248492E+03  0.98158248492E+03  0.00000000000E+00 0. -1.
         25    2    1    2    0    0 -0.22571494914E+01 -0.35114127376E+02 -0.72522614682E+03  0.73677499089E+03  0.12508527695E+03 0.  0.
         23    2    1    2    0    0  0.22571494914E+01  0.35114127376E+02 -0.24160373970E+03  0.25956009243E+03  0.88096412417E+02 0.  0.
          5    1    3    3  502    0 -0.54230388396E+02 -0.38261580552E+02 -0.25025133110E+03  0.25893644914E+03  0.41800000000E+01 0.  1.
         -5    1    3    3    0  502  0.51973238905E+02  0.31474531759E+01 -0.47497481572E+03  0.47783854176E+03  0.41800000000E+01 0.  1.
        -11    1    4    4    0    0 -0.37450963593E+02 -0.57379119555E+01 -0.97822456792E+02  0.10490343827E+03  0.00000000000E+00 0.  1.
         11    1    4    4    0    0  0.39708113084E+02  0.40852039332E+02 -0.14378128291E+03  0.15465665416E+03  0.00000000000E+00 0. -1.
</event>
<event>
 8    1  0.6637272E-009  0.1756481E+03  0.7561462E-02  0.1172083E+00
         -1   -1    0    0    0  501 -0.00000000000E+00  0.00000000000E+00  0.46754755673E+02  0.46754755673E+02  0.00000000000E+00 0.  1.
          1   -1    0    0  501    0  0.00000000000E+00 -0.00000000000E+00 -0.86866675408E+03  0.86866675408E+03  0.00000000000E+00 0. -1.
         25    2    1    2    0    0  0.15660007035E+03  0.41334608542E+02 -0.54057865586E+03  0.57801848300E+03  0.12509177280E+03 0.  0.
         23    2    1    2    0    0 -0.15660007035E+03 -0.41334608542E+02 -0.28133334255E+03  0.33740302676E+03  0.91979459309E+02 0.  0.
          5    1    3    3  502    0  0.72144735766E+02  0.43510210450E+02 -0.43314285760E+03  0.44128019307E+03  0.41800000000E+01 0. -1.
         -5    1    3    3    0  502  0.84455334587E+02 -0.21756019075E+01 -0.10743579826E+03  0.13673828993E+03  0.41800000000E+01 0. -1.
        -11    1    4    4    0    0 -0.64089370357E+02 -0.60214220301E+02 -0.10154348713E+03  0.13432899723E+03  0.00000000000E+00 0.  1.
         11    1    4    4    0    0 -0.92510699997E+02  0.18879611759E+02 -0.17978985542E+03  0.20307402952E+03  0.00000000000E+00 0. -1.
</event>
<event>
 8    1  0.6637272E-009  0.1289945E+03  0.7561462E-02  0.1228955E+00
          2   -1    0    0  501    0  0.00000000000E+00  0.00000000000E+00  0.70835120368E+03  0.70835120368E+03  0.00000000000E+00 0. -1.
         -2   -1    0    0    0  501 -0.00000000000E+00 -0.00000000000E+00 -0.35470071268E+02  0.35470071268E+02  0.00000000000E+00 0.  1.
         25    2    1    2    0    0 -0.94168128354E+00 -0.96038768268E+02  0.50793103683E+03  0.53184971383E+03  0.12508336480E+03 0.  0.
         23    2    1    2    0    0  0.94168128354E+00  0.96038768268E+02  0.16495009558E+03  0.21197156112E+03  0.92190438317E+02 0.  0.
          5    1    3    3  502    0 -0.25926223713E+01  0.30258316240E+02  0.81005826555E+02  0.86612376300E+02  0.41800000000E+01 0. -1.
         -5    1    3    3    0  502  0.16509410878E+01 -0.12629708451E+03  0.42692521027E+03  0.44523733753E+03  0.41800000000E+01 0. -1.
        -11    1    4    4    0    0 -0.12549078941E+02  0.19165773976E+02  0.11945505228E+03  0.12163188641E+03  0.00000000000E+00 0. -1.
         11    1    4    4    0    0  0.13490760225E+02  0.76872994292E+02  0.45495043299E+02  0.90339674715E+02  0.00000000000E+00 0.  1.
</event>
<event>
 8    1  0.6637272E-009  0.1818350E+03  0.7561462E-02  0.1166039E+00
          1   -1    0    0  501    0  0.00000000000E+00  0.00000000000E+00  0.49322557153E+03  0.49322557153E+03  0.00000000000E+00 0. -1.
         -1   -1    0    0    0  501 -0.00000000000E+00 -0.00000000000E+00 -0.70662232253E+02  0.70662232253E+02  0.00000000000E+00 0.  1.
         25    2    1    2    0    0  0.96597967211E+02  0.11529532599E+03  0.25197167493E+03  0.31900184563E+03  0.12509305771E+03 0.  0.
         23    2    1    2    0    0 -0.96597967211E+02 -0.11529532599E+03  0.17059166435E+03  0.24488595815E+03  0.90793375800E+02 0.  0.
          5    1    3    3  502    0  0.66504103968E+02  0.13826436413E+03  0.22486563078E+03  0.27225329114E+03  0.41800000000E+01 0.  1.
         -5    1    3    3    0  502  0.30093863243E+02 -0.22969038136E+02  0.27106044145E+02  0.46748554490E+02  0.41800000000E+01 0.  1.
        -11    1    4    4    0    0 -0.98892284796E+01 -0.76447992781E+02  0.52260568842E+02  0.93130336067E+02  0.00000000000E+00 0.  1.
         11    1    4    4    0    0 -0.86708738731E+02 -0.38847333208E+02  0.11833109551E+03  0.15175562209E+03  0.00000000000E+00 0. -1.
</event>
<event>
 8    1  0.6637272E-009  0.9108047E+02  0.7561462E-02  0.1300256E+00
          2   -1    0    0  501    0  0.00000000000E+00  0.00000000000E+00  0.23313235717E+03  0.23313235717E+03  0.00000000000E+00 0. -1.
         -2   -1    0    0    0  501 -0.00000000000E+00 -0.00000000000E+00 -0.50528961682E+02  0.50528961682E+02  0.00000000000E+00 0.  1.
         25    2    1    2    0    0 -0.44982059365E+01  0.71686551979E+01  0.11903289043E+03  0.17288862264E+03  0.12510005341E+03 0.  0.
         23    2    1    2    0    0  0.44982059365E+01 -0.71686551979E+01  0.63570505061E+02  0.11077269621E+03  0.90320305789E+02 0.  0.
          5    1    3    3  502    0 -0.52233402948E+02  0.24887254559E+02  0.19834473955E+02  0.61307279993E+02  0.41800000000E+01 0.  1.
         -5    1    3    3    0  502  0.47735197012E+02 -0.17718599361E+02  0.99198416474E+02  0.11158134265E+03  0.41800000000E+01 0.  1.
        -11    1    4    4    0    0  0.36058480649E+02 -0.17193424468E+02  0.97717948106E+00  0.39959764156E+02  0.00000000000E+00 0.  1.
         11    1    4    4    0    0 -0.31560274713E+02  0.10024769270E+02  0.62593325580E+02  0.70812932053E+02  0.00000000000E+00 0. -1.
</event>
<event>
 8    1  0.6637272E-009  0.7846955E+02  0.7561462E-02  0.1333452E+00
          1   -1    0    0  501    0  0.00000000000E+00  0.00000000000E+00  0.68406818495E+02  0.68406818495E+02  0.00000000000E+00 0. -1.
         -1   -1    0    0    0  501 -0.00000000000E+00 -0.00000000000E+00 -0.20540930911E+03  0.20540930911E+03  0.00000000000E+00 0.  1.
         25    2    1    2    0    0 -0.12827067938E+02 -0.39351305404E+02 -0.48628875053E+02  0.14044695635E+03  0.12509005216E+03 0.  0.
         23    2    1    2    0    0  0.12827067938E+02  0.39351305404E+02 -0.88373615567E+02  0.13336917126E+03  0.90908640986E+02 0.  0.
          5    1    3    3  502    0  0.20075576898E+01 -0.74778603203E+02 -0.64323287635E+02  0.98746278497E+02  0.41800000000E+01 0.  1.
         -5    1    3    3    0  502 -0.14834625628E+02  0.35427297799E+02  0.15694412581E+02  0.41700677850E+02  0.41800000000E+01 0.  1.
        -11    1    4    4    0    0 -0.22081591373E+01  0.11710360777E+02  0.18474396130E+02  0.21984354179E+02  0.00000000000E+00 0. -1.
         11    1    4    4    0    0  0.15035227075E+02  0.27640944627E+02 -0.10684801170E+03  0.11138481708E+03  0.00000000000E+00 0.  1.
</event>
<event>
 8    1  0.6637272E-009  0.1217329E+03  0.7561462E-02  0.1240265E+00
          2   -1    0    0  501    0  0.00000000000E+00  0.00000000000E+00  0.61766132782E+02  0.61766132782E+02  0.00000000000E+00 0. -1.
         -2   -1    0    0    0  501 -0.00000000000E+00 -0.00000000000E+00 -0.30827789059E+03  0.30827789059E+03  0.00000000000E+00 0.  1.
         25    2    1    2    0    0  0.54986822055E+02  0.14708484335E+02 -0.52525290786E+02  0.14713509910E+03  0.12509972463E+03 0.  0.
         23    2    1    2    0    0 -0.54986822055E+02 -0.14708484335E+02 -0.19398646703E+03  0.22290892428E+03  0.93902870151E+02 0.  0.
          5    1    3    3  502    0  0.86836051465E+02 -0.20861717047E+02 -0.31405087851E+02  0.94760028573E+02  0.41800000000E+01 0. -1.
         -5    1    3    3    0  502 -0.31849229411E+02  0.35570201382E+02 -0.21120202935E+02  0.52375070524E+02  0.41800000000E+01 0. -1.
        -11    1    4    4    0    0  0.25027909619E+02 -0.19002023615E+01 -0.73842175500E+02  0.77991498970E+02  0.00000000000E+00 0.  1.
         11    1    4    4    0    0 -0.80014731673E+02 -0.12808281973E+02 -0.12014429153E+03  0.14491742531E+03  0.00000000000E+00 0. -1.
</event>
<event>
 8    1  0.6637272E-009  0.2158192E+03  0.7561462E-02  0.1137039E+00
          3   -1    0    0  501    0  0.00000000000E+00  0.00000000000E+00  0.63722898399E+03  0.63722898399E+03  0.00000000000E+00 0. -1.
         -3   -1    0    0    0  501 -0.00000000000E+00 -0.00000000000E+00 -0.87421487099E+02  0.87421487099E+02  0.00000000000E+00 0.  1.
         25    2    1    2    0    0 -0.63497113166E+02  0.19340463008E+03  0.35179833460E+03  0.42526089244E+03  0.12509006391E+03 0.  0.
         23    2    1    2    0    0  0.63497113166E+02 -0.19340463008E+03  0.19800916229E+03  0.29938957865E+03  0.94811693044E+02 0.  0.
          5    1    3    3  502    0 -0.34278910881E+02  0.19088608030E+03  0.23478145017E+03  0.30455269023E+03  0.41800000000E+01 0. -1.
         -5    1    3    3    0  502 -0.29218202285E+02  0.25185497871E+01  0.11701688443E+03  0.12070820221E+03  0.41800000000E+01 0. -1.
        -11    1    4    4    0    0  0.98462523692E+01 -0.98661689366E+02  0.38718115061E+02  0.10644327160E+03  0.00000000000E+00 0.  1.
         11    1    4    4    0    0  0.53650860797E+02 -0.94742940718E+02  0.15929104723E+03  0.19294630706E+03  0.00000000000E+00 0. -1.
</event>
<event>
 8    1  0.6637272E-009  0.1112071E+03  0.7561462E-02  0.1258351E+00
         -2   -1    0    0    0  501 -0.00000000000E+00  0.00000000000E+00  0.11618549855E+03  0.11618549855E+03  0.00000000000E+00 0.  1.
          2   -1    0    0  501    0  0.00000000000E+00 -0.00000000000E+00 -0.14860337828E+03  0.14860337828E+03  0.00000000000E+00 0. -1.
         25    2    1    2    0    0 -0.21507730036E+02 -0.61538979204E+02 -0.51824803332E+02  0.15027365680E+03  0.12508690289E+03 0.  0.
         23    2    1    2    0    0  0.21507730036E+02  0.61538979204E+02  0.19406923600E+02  0.11451522004E+03  0.92127512304E+02 0.  0.
          5    1    3    3  502    0 -0.55788306509E+02 -0.45157787861E+02  0.14855874142E+02  0.73414782872E+02  0.41800000000E+01 0.  1.
         -5    1    3    3    0  502  0.34280576473E+02 -0.16381191344E+02 -0.66680677474E+02  0.76858873929E+02  0.41800000000E+01 0.  1.
        -11    1    4    4    0    0  0.27993141399E+01 -0.24290262248E+02 -0.44653805568E+00  0.24455109813E+02  0.00000000000E+00 0. -1.
         11    1    4    4    0    0  0.18708415896E+02  0.85829241452E+02  0.19853461655E+02  0.90060110223E+02  0.00000000000E+00 0.  1.
</event>
<event>
 8    1  0.6637272E-009  0.1011232E+03  0.7561462E-02  0.1277951E+00
         -1   -1    0    0    0  501 -0.00000000000E+00  0.00000000000E+00  0.11905177887E+03  0.11905177887E+03  0.00000000000E+00 0.  1.
          1   -1    0    0  501    0  0.00000000000E+00 -0.00000000000E+00 -0.10547477561E+03  0.10547477561E+03  0.00000000000E+00 0. -1.
         25    2    1    2    0    0 -0.10666752218E+02 -0.16373666891E+02 -0.36379990361E+01  0.12669204589E+03  0.12512299103E+03 0.  0.
         23    2    1    2    0    0  0.10666752218E+02  0.16373666891E+02  0.17215002301E+02  0.97834508591E+02  0.94304603264E+02 0.  0.
          5    1    3    3  502    0 -0.23695960379E+01 -0.64407516565E+02 -0.29892323014E+02  0.71168578395E+02  0.41800000000E+01 0.  1.
         -5    1    3    3    0  502 -0.82971561798E+01  0.48033849675E+02  0.26254323978E+02  0.55523467496E+02  0.41800000000E+01 0.  1.
        -11    1    4    4    0    0 -0.32265733695E+02  0.29626779084E+02  0.27526143254E+02  0.51735018819E+02  0.00000000000E+00 0.  1.
         11    1    4    4    0    0  0.42932485913E+02 -0.13253112194E+02 -0.10311140953E+02  0.46099489772E+02  0.00000000000E+00 0. -1.
</event>
<event>
 7    1  0.6637272E-009  0.1870687E+03  0.7561462E-02  0.1161132E+00
          2   -1    0    0  501    0  0.00000000000E+00  0.00000000000E+00  0.84527968356E+03  0.84527968356E+03  0.00000000000E+00 0. -1.
         -2   -1    0    0    0  501 -0.00000000000E+00 -0.00000000000E+00 -0.53625489348E+02  0.53625489348E+02  0.00000000000E+00 0.  1.
         23    2    1    2    0    0 -0.13084877893E+03  0.10897658297E+03  0.23916296944E+03  0.30742040746E+03  0.91165138025E+02 0.  0.
          5    1    1    2  502    0  0.58487159094E+02  0.60507569570E+01  0.77213920639E+02  0.97143303316E+02  0.41800000000E+01 0. -1.
         -5    1    1    2    0  502  0.72361619836E+02 -0.11502733992E+03  0.47527730414E+03  0.49434146213E+03  0.41800000000E+01 0. -1.
        -11    1    3    3    0    0 -0.51256557553E+02  0.79018163863E+02  0.18207158888E+03  0.20499065440E+03  0.00000000000E+00 0.  1.
         11    1    3    3    0    0 -0.79592221378E+02  0.29958419102E+02  0.57091380557E+02  0.10242975306E+03  0.00000000000E+00 0. -1.
</event>
<event>
 8    1  0.6637272E-009  0.2525902E+03  0.7561462E-02  0.1111679E+00
          2   -1    0    0  501    0  0.00000000000E+00  0.00000000000E+00  0.51149928555E+03  0.51149928555E+03  0.00000000000E+00 0. -1.
         -2   -1    0    0    0  501 -0.00000000000E+00 -0.00000000000E+00 -0.13216919670E+03  0.13216919670E+03  0.00000000000E+00 0.  1.
         25    2    1    2    0    0  0.13553350898E+03 -0.19173652422E+03  0.16797519292E+03  0.31463369274E+03  0.12508584410E+03 0.  0.
         23    2    1    2    0    0 -0.13553350898E+03  0.19173652422E+03  0.21135489592E+03  0.32903478951E+03  0.91982465210E+02 0.  0.
          5    1    3    3  502    0  0.94666976809E+02 -0.40931874041E+02  0.33719994330E+02  0.10858989469E+03  0.41800000000E+01 0. -1.
         -5    1    3    3    0  502  0.40866532169E+02 -0.15080465018E+03  0.13425519859E+03  0.20604379805E+03  0.41800000000E+01 0. -1.
        -11    1    4    4    0    0 -0.10880524650E+03  0.92262617311E+02  0.85166816268E+02  0.16614559522E+03  0.00000000000E+00 0.  1.
         11    1    4    4    0    0 -0.26728262479E+02  0.99473906906E+02  0.12618807965E+03  0.16288919429E+03  0.00000000000E+00 0. -1.
</event>
<event>
 8    1  0.6637272E-009  0.9060629E+02  0.7561462E-02  0.1301390E+00
          1   -1    0    0  501    0  0.00000000000E+00  0.00000000000E+00  0.26754378111E+03  0.26754378111E+03  0.00000000000E+00 0. -1.
         -1   -1    0    0    0  501 -0.00000000000E+00 -0.00000000000E+00 -0.67914141232E+02  0.67914141232E+02  0.00000000000E+00 0.  1.
         25    2    1    2    0    0 -0.58423058118E+02  0.23106595284E+02  0.44583306345E+02  0.14690124402E+03  0.12508051737E+03 0.  0.
         23    2    1    2    0    0  0.58423058118E+02 -0.23106595284E+02  0.15504633353E+03  0.18855667832E+03  0.86989004662E+02 0.  0.
          5    1    3    3  502    0  0.41852268959E+01  0.85818050909E+01  0.74966530117E+02  0.75687624752E+02  0.41800000000E+01 0.  1.
         -5    1    3    3    0  502 -0.62608285014E+02  0.14524790193E+02 -0.30383223772E+02  0.71213619268E+02  0.41800000000E+01 0.  1.
        -11    1    4    4    0    0  0.10785856989E+02 -0.50359088354E+02  0.87425542393E+02  0.10146722601E+03  0.00000000000E+00 0. -1.
         11    1    4    4    0    0  0.47637201129E+02  0.27252493070E+02  0.67620791135E+02  0.87089452310E+02  0.00000000000E+00 0.  1.
</event>
<event>
 8    1  0.6637272E-009  0.1695236E+03  0.7561462E-02  0.1178346E+00
          1   -1    0    0  501    0  0.00000000000E+00  0.00000000000E+00  0.12036579623E+04  0.12036579623E+04  0.00000000000E+00 0. -1.
         -1   -1    0    0    0  501 -0.00000000000E+00 -0.00000000000E+00 -0.28201848695E+02  0.28201848695E+02  0.00000000000E+00 0.  1.
         25    2    1    2    0    0  0.81950618153E+01 -0.14832487457E+03  0.65424095464E+03  0.68245568466E+03  0.12508839812E+03 0.  0.
         23    2    1    2    0    0 -0.81950618153E+01  0.14832487457E+03  0.52121515892E+03  0.54940412629E+03  0.90067889083E+02 0.  0.
          5    1    3    3  502    0  0.41864968649E+02 -0.51910047997E+02  0.11003236989E+03  0.12873198323E+03  0.41800000000E+01 0. -1.
         -5    1    3    3    0  502 -0.33669906834E+02 -0.96414826569E+02  0.54420858475E+03  0.55372370143E+03  0.41800000000E+01 0. -1.
        -11    1    4    4    0    0 -0.45470305748E+02  0.89257091328E+02  0.36069646604E+03  0.37434785650E+03  0.00000000000E+00 0. -1.
         11    1    4    4    0    0  0.37275243933E+02  0.59067783237E+02  0.16051869288E+03  0.17505626979E+03  0.00000000000E+00 0.  1.
</event>
<event>
 8    1  0.6637272E-009  0.1025157E+03  0.7561462E-02  0.1275093E+00
         -1   -1    0    0    0  501 -0.00000000000E+00  0.00000000000E+00  0.35425189423E+02  0.35425189423E+02  0.00000000000E+00 0.  1.
          1   -1    0    0  501    0  0.00000000000E+00 -0.00000000000E+00 -0.36260574547E+03  0.36260574547E+03  0.00000000000E+00 0. -1.
         25    2    1    2    0    0  0.30719077942E+02  0.11346315065E+02 -0.17377258014E+03  0.21660267443E+03  0.12508960126E+03 0.  0.
         23    2    1    2    0    0 -0.30719077942E+02 -0.11346315065E+02 -0.15340797590E+03  0.18142826046E+03  0.91158137375E+02 0.  0.
          5    1    3    3  502    0  0.51173214213E+02  0.54865751774E+02 -0.72500827917E+02  0.10441643079E+03  0.41800000000E+01 0.  1.
         -5    1    3    3    0  502 -0.20454136270E+02 -0.43519436709E+02 -0.10127175223E+03  0.11218624364E+03  0.41800000000E+01 0.  1.
        -11    1    4    4    0    0  0.11453272964E+01  0.29664200687E+02 -0.14318267066E+02  0.32958903937E+02  0.00000000000E+00 0.  1.
         11    1    4    4    0    0 -0.31864405239E+02 -0.41010515752E+02 -0.13908970884E+03  0.14846935653E+03  0.00000000000E+00 0. -1.
</event>
<event>
 8    1  0.6637272E-009  0.6854237E+02  0.7561462E-02  0.1365121E+00
         -1   -1    0    0    0  501 -0.00000000000E+00  0.00000000000E+00  0.87933647221E+02  0.87933647221E+02  0.00000000000E+00 0.  1.
          1   -1    0    0  501    0  0.00000000000E+00 -0.00000000000E+00 -0.14369588415E+03  0.14369588415E+03  0.00000000000E+00 0. -1.
         25    2    1    2    0    0 -0.17953937570E+02 -0.22874609072E+02 -0.35903624178E+02  0.13335668902E+03  0.12509734075E+03 0.  0.
         23    2    1    2    0    0  0.17953937570E+02  0.22874609072E+02 -0.19858612751E+02  0.98272842348E+02  0.91747454615E+02 0.  0.
          5    1    3    3  502    0 -0.22656199117E+02  0.16825402899E+02 -0.73175542669E+02  0.78539989725E+02  0.41800000000E+01 0.  1.
         -5    1    3    3    0  502  0.47022615465E+01 -0.39700011971E+02  0.37271918490E+02  0.54816699299E+02  0.41800000000E+01 0.  1.
        -11    1    4    4    0    0  0.38703190519E+02  0.17385348089E+01 -0.45030342723E+02  0.59402788027E+02  0.00000000000E+00 0. -1.
         11    1    4    4    0    0 -0.20749252949E+02  0.21136074263E+02  0.25171729972E+02  0.38870054321E+02  0.00000000000E+00 0.  1.
</event>
<event>
 8    1  0.6637272E-009  0.2204686E+03  0.7561462E-02  0.1133534E+00
         -1   -1    0    0    0  501 -0.00000000000E+00  0.00000000000E+00  0.34727715967E+02  0.34727715967E+02  0.00000000000E+00 0.  1.
          1   -1    0    0  501    0  0.00000000000E+00 -0.00000000000E+00 -0.14171767586E+04  0.14171767586E+04  0.00000000000E+00 0. -1.
         25    2    1    2    0    0  0.77283048958E+02 -0.17693115627E+03 -0.70544191563E+03  0.74200542494E+03  0.12508577295E+03 0.  0.
         23    2    1    2    0    0 -0.77283048958E+02  0.17693115627E+03 -0.67700712700E+03  0.70989904963E+03  0.91327470866E+02 0.  0.
          5    1    3    3  502    0  0.96051046268E+02 -0.65966869060E+02 -0.39040631258E+03  0.40744569283E+03  0.41800000000E+01 0. -1.
         -5    1    3    3    0  502 -0.18767997310E+02 -0.11096428721E+03 -0.31503560305E+03  0.33455973211E+03  0.41800000000E+01 0. -1.
        -11    1    4    4    0    0 -0.80439355027E+02  0.75751536287E+02 -0.39977565158E+03  0.41476421818E+03  0.00000000000E+00 0. -1.
         11    1    4    4    0    0  0.31563060690E+01  0.10117961999E+03 -0.27723147542E+03  0.29513483145E+03  0.00000000000E+00 0.  1.
</event>
<event>
 8    1  0.6637272E-009  0.8412497E+02  0.7561462E-02  0.1317737E+00
         -2   -1    0    0    0  501 -0.00000000000E+00  0.00000000000E+00  0.22366022341E+03  0.22366022341E+03  0.00000000000E+00 0.  1.
          2   -1    0    0  501    0  0.00000000000E+00 -0.00000000000E+00 -0.63658955886E+02  0.63658955886E+02  0.00000000000E+00 0. -1.
         25    2    1    2    0    0  0.47591722754E+02 -0.11500788131E+02  0.10452398184E+03  0.17020755085E+03  0.12509239539E+03 0.  0.
         23    2    1    2    0    0 -0.47591722754E+02  0.11500788131E+02  0.55477285683E+02  0.11711162845E+03  0.90775349563E+02 0.  0.
          5    1    3    3  502    0  0.59298335838E+02 -0.10209721175E+02 -0.44870071696E+01  0.60482531966E+02  0.41800000000E+01 0.  1.
         -5    1    3    3    0  502 -0.11706613084E+02 -0.12910669562E+01  0.10901098901E+03  0.10972501889E+03  0.41800000000E+01 0.  1.
        -11    1    4    4    0    0 -0.34663143097E+02  0.46573451891E+02  0.11133410251E+02  0.59114911268E+02  0.00000000000E+00 0. -1.
         11    1    4    4    0    0 -0.12928579657E+02 -0.35072663760E+02  0.44343875432E+02  0.57996717179E+02  0.00000000000E+00 0.  1.
</event>
<event>
 8    1  0.6637272E-009  0.1181303E+03  0.7561462E-02  0.1246214E+00
          2   -1    0    0  501    0  0.00000000000E+00  0.00000000000E+00  0.97238237445E+03  0.97238237445E+03  0.00000000000E+00 0. -1.
         -2   -1    0    0    0  501 -0.00000000000E+00 -0.00000000000E+00 -0.23613139552E+02  0.23613139552E+02  0.00000000000E+00 0.  1.
         25    2    1    2    0    0  0.61402388530E+02  0.66965398736E+02  0.67466758556E+03  0.69215478935E+03  0.12508910212E+03 0.  0.
         23    2    1    2    0    0 -0.61402388530E+02 -0.66965398736E+02  0.27410164934E+03  0.30384072465E+03  0.94513775942E+02 0.  0.
          5    1    3    3  502    0  0.46179409735E+02  0.98552993104E+02  0.37755306470E+03  0.39294913080E+03  0.41800000000E+01 0. -1.
         -5    1    3    3    0  502  0.15222978795E+02 -0.31587594368E+02  0.29711452086E+03  0.29920565855E+03  0.41800000000E+01 0. -1.
        -11    1    4    4    0    0 -0.22354368178E+02 -0.35184290708E+02  0.22735544909E+02  0.47482176567E+02  0.00000000000E+00 0.  1.
         11    1    4    4    0    0 -0.39048020352E+02 -0.31781108028E+02  0.25136610443E+03  0.25635854809E+03  0.00000000000E+00 0. -1.
</event>
<event>
 8    1  0.6637272E-009  0.1031204E+03  0.7561462E-02  0.1273868E+00
          1   -1    0    0  501    0  0.00000000000E+00  0.00000000000E+00  0.45833009606E+03  0.45833009606E+03  0.00000000000E+00 0. -1.
         -1   -1    0    0    0  501 -0.00000000000E+00 -0.00000000000E+00 -0.27728463395E+02  0.27728463395E+02  0.00000000000E+00 0.  1.
         25    2    1    2    0    0  0.19781493709E+02  0.66728246474E+01  0.20431024447E+03  0.24047143148E+03  0.12509196331E+03 0.  0.
         23    2    1    2    0    0 -0.19781493709E+02 -0.66728246474E+01  0.22629138820E+03  0.24558712797E+03  0.93109671728E+02 0.  0.
          5    1    3    3  502    0  0.39128562184E+02 -0.48720712281E+02  0.13969329518E+03  0.15308965120E+03  0.41800000000E+01 0.  1.
         -5    1    3    3    0  502 -0.19347068475E+02  0.55393536929E+02  0.64616949281E+02  0.87381780289E+02  0.41800000000E+01 0.  1.
        -11    1    4    4    0    0 -0.40975972375E+02 -0.31835821368E+02  0.77952546530E+02  0.93643736281E+02  0.00000000000E+00 0.  1.
         11    1    4    4    0    0  0.21194478666E+02  0.25162996721E+02  0.14833884167E+03  0.15194339169E+03  0.00000000000E+00 0. -1.
</event>
<event>
 8    1  0.6637272E-009  0.1041669E+03  0.7561462E-02  0.1271770E+00
          1   -1    0    0  501    0  0.00000000000E+00  0.00000000000E+00  0.43553751019E+03  0.43553751019E+03  0.00000000000E+00 0. -1.
         -1   -1    0    0    0  501 -0.00000000000E+00 -0.00000000000E+00 -0.35826668437E+02  0.35826668437E+02  0.00000000000E+00 0.  1.
         25    2    1    2    0    0 -0.16287145482E+02 -0.38030924845E+02  0.31131540452E+03  0.33804847536E+03  0.12509143957E+03 0.  0.
         23    2    1    2    0    0  0.16287145482E+02  0.38030924845E+02  0.88395437232E+02  0.13331570326E+03  0.90816854490E+02 0.  0.
          5    1    3    3  502    0 -0.56560350377E+02  0.68757947798E+01  0.22834648318E+03  0.23538466087E+03  0.41800000000E+01 0. -1.
         -5    1    3    3    0  502  0.40273204895E+02 -0.44906719625E+02  0.82968921334E+02  0.10266381450E+03  0.41800000000E+01 0. -1.
        -11    1    4    4    0    0 -0.25294377477E+02 -0.10008899831E+02  0.55410347194E+02  0.61727548015E+02  0.00000000000E+00 0. -1.
         11    1    4    4    0    0  0.41581522958E+02  0.48039824676E+02  0.32985090037E+02  0.71588155244E+02  0.00000000000E+00 0.  1.
</event>
<event>
 8    1  0.6637272E-009  0.9419072E+02  0.7561462E-02  0.1293009E+00
          2   -1    0    0  501    0  0.00000000000E+00  0.00000000000E+00  0.12039740589E+03  0.12039740589E+03  0.00000000000E+00 0. -1.
         -2   -1    0    0    0  501 -0.00000000000E+00 -0.00000000000E+00 -0.10952310914E+03  0.10952310914E+03  0.00000000000E+00 0.  1.
         25    2    1    2    0    0  0.32503814094E+02  0.47016342911E+01  0.27366330436E+02  0.13219392663E+03  0.12509082661E+03 0.  0.
         23    2    1    2    0    0 -0.32503814094E+02 -0.47016342911E+01 -0.16492033688E+02  0.97726588401E+02  0.90553274980E+02 0.  0.
          5    1    3    3  502    0  0.34438887604E+02  0.47197568240E+02 -0.25774091914E+02  0.63995497038E+02  0.41800000000E+01 0. -1.
         -5    1    3    3    0  502 -0.19350735101E+01 -0.42495933949E+02  0.53140422349E+02  0.68198429594E+02  0.41800000000E+01 0. -1.
        -11    1    4    4    0    0  0.26893560293E+02  0.34224696945E+01  0.13951030508E+02  0.30489475828E+02  0.00000000000E+00 0. -1.
         11    1    4    4    0    0 -0.59397374387E+02 -0.81241039855E+01 -0.30443064196E+02  0.67237112574E+02  0.00000000000E+00 0.  1.
</event>
<event>
 8    1  0.6637272E-009  0.1637324E+03  0.7561462E-02  0.1184546E+00
         -1   -1    0    0    0  501 -0.00000000000E+00  0.00000000000E+00  0.25025415935E+03  0.25025415935E+03  0.00000000000E+00 0.  1.
          1   -1    0    0  501    0  0.00000000000E+00 -0.00000000000E+00 -0.11579347373E+03  0.11579347373E+03  0.00000000000E+00 0. -1.
         25    2    1    2    0    0  0.21655283925E+02 -0.12876377318E+03  0.71969230440E+02  0.19461875983E+03  0.12509129044E+03 0.  0.
         23    2    1    2    0    0 -0.21655283925E+02  0.12876377318E+03  0.62491455186E+02  0.17142887325E+03  0.91834721145E+02 0.  0.
          5    1    3    3  502    0  0.51717058913E+02 -0.10044943594E+02  0.68073241852E+00  0.52853484947E+02  0.41800000000E+01 0. -1.
         -5    1    3    3    0  502 -0.30061774987E+02 -0.11871882958E+03  0.71288498021E+02  0.14176527488E+03  0.41800000000E+01 0. -1.
        -11    1    4    4    0    0 -0.26338679803E+02  0.13865510989E+03  0.70600364133E+02  0.15780803835E+03  0.00000000000E+00 0.  1.
         11    1    4    4    0    0  0.46833958775E+01 -0.98913367156E+01 -0.81089089473E+01  0.13620834897E+02  0.00000000000E+00 0. -1.
</event>
<event>
 8    1  0.6637272E-009  0.9024837E+02  0.7561462E-02  0.1302251E+00
         -4   -1    0    0    0  501 -0.00000000000E+00  0.00000000000E+00  0.84475726773E+02  0.84475726773E+02  0.00000000000E+00 0.  1.
          4   -1    0    0  501    0  0.00000000000E+00 -0.00000000000E+00 -0.16556266966E+03  0.16556266966E+03  0.00000000000E+00 0. -1.
         25    2    1    2    0    0  0.19146685598E+02  0.28892508155E+02 -0.13851159560E+02  0.13054107621E+03  0.12509094836E+03 0.  0.
         23    2    1    2    0    0 -0.19146685598E+02 -0.28892508155E+02 -0.67235783326E+02  0.11949732022E+03  0.92507223411E+02 0.  0.
          5    1    3    3  502    0  0.57879681366E+02  0.22400882386E+00 -0.44631064222E+02  0.73208687931E+02  0.41800000000E+01 0.  1.
         -5    1    3    3    0  502 -0.38732995768E+02  0.28668499331E+02  0.30779904662E+02  0.57332388282E+02  0.41800000000E+01 0.  1.
        -11    1    4    4    0    0  0.24498833435E+02 -0.86029797547E+01  0.10548284983E+02  0.28026245136E+02  0.00000000000E+00 0.  1.
         11    1    4    4    0    0 -0.43645519032E+02 -0.20289528400E+02 -0.77784068309E+02  0.91471075083E+02  0.00000000000E+00 0. -1.
</event>
<event>
 8    1  0.6637272E-009  0.1511501E+03  0.7561462E-02  0.1199067E+00
         -1   -1    0    0    0  501 -0.00000000000E+00  0.00000000000E+00  0.94330965129E+02  0.94330965129E+02  0.00000000000E+00 0.  1.
          1   -1    0    0  501    0  0.00000000000E+00 -0.00000000000E+00 -0.34909226760E+03  0.34909226760E+03  0.00000000000E+00 0. -1.
         25    2    1    2    0    0 -0.52822984538E+02  0.12858673791E+03 -0.83584135520E+02  0.20483112055E+03  0.12507862876E+03 0.  0.
         23    2    1    2    0    0  0.52822984538E+02 -0.12858673791E+03 -0.17117716695E+03  0.23859211219E+03  0.91103000223E+02 0.  0.
          5    1    3    3  502    0  0.20446903072E+02  0.91410127951E+01  0.20165178047E+02  0.30425988330E+02  0.41800000000E+01 0. -1.
         -5    1    3    3    0  502 -0.73269887610E+02  0.11944572511E+03 -0.10374931357E+03  0.17440513222E+03  0.41800000000E+01 0. -1.
        -11    1    4    4    0    0  0.41910253445E+02 -0.90995281620E+02 -0.51436562711E+02  0.11261585414E+03  0.00000000000E+00 0.  1.
         11    1    4    4    0    0  0.10912731092E+02 -0.37591456287E+02 -0.11974060424E+03  0.12597625804E+03  0.00000000000E+00 0. -1.
</event>
<event>
 8    1  0.6637272E-009  0.1110517E+03  0.7561462E-02  0.1258635E+00
         -2   -1    0    0    0  501 -0.00000000000E+00  0.00000000000E+00  0.13992892354E+02  0.13992892354E+02  0.00000000000E+00 0.  1.
          2   -1    0    0  501    0  0.00000000000E+00 -0.00000000000E+00 -0.12796841527E+04  0.12796841527E+04  0.00000000000E+00 0. -1.
         25    2    1    2    0    0  0.49595704693E+02  0.56227240753E+02 -0.79497977537E+03  0.80824556582E+03  0.12508722914E+03 0.  0.
         23    2    1    2    0    0 -0.49595704693E+02 -0.56227240753E+02 -0.47071148500E+03  0.48543147926E+03  0.91941189993E+02 0.  0.
          5    1    3    3  502    0 -0.78374989839E+01 -0.11734622039E+02 -0.49744250728E+03  0.49766017341E+03  0.41800000000E+01 0.  1.
         -5    1    3    3    0  502  0.57433203677E+02  0.67961862793E+02 -0.29753726809E+03  0.31058539242E+03  0.41800000000E+01 0.  1.
        -11    1    4    4    0    0 -0.71888108341E+02 -0.18082897835E+02 -0.31203602490E+03  0.32072008380E+03  0.00000000000E+00 0. -1.
         11    1    4    4    0    0  0.22292403648E+02 -0.38144342918E+02 -0.15867546010E+03  0.16471139546E+03  0.00000000000E+00 0.  1.
</event>
<event>
 8    1  0.6637272E-009  0.6322647E+02  0.7561462E-02  0.1384770E+00
          2   -1    0    0  501    0  0.00000000000E+00  0.00000000000E+00  0.19456468097E+04  0.19456468097E+04  0.00000000000E+00 0. -1.
         -2   -1    0    0    0  501 -0.00000000000E+00 -0.00000000000E+00 -0.72804768263E+01  0.72804768263E+01  0.00000000000E+00 0.  1.
         25    2    1    2    0    0 -0.98598528851E+01  0.48113633400E+01  0.14746741054E+04  0.14800123143E+04  0.12510942202E+03 0.  0.
         23    2    1    2    0    0  0.98598528851E+01 -0.48113633400E+01  0.46369222742E+03  0.47291497215E+03  0.92291512084E+02 0.  0.
          5    1    3    3  502    0 -0.14590831323E+02 -0.10611696628E+02  0.30092355362E+02  0.35334440922E+02  0.41800000000E+01 0.  1.
         -5    1    3    3    0  502  0.47309784381E+01  0.15423059968E+02  0.14445817500E+04  0.14446778734E+04  0.41800000000E+01 0.  1.
        -11    1    4    4    0    0  0.35609464854E+01  0.42948003959E+02  0.17481162814E+03  0.18004531851E+03  0.00000000000E+00 0.  1.
         11    1    4    4    0    0  0.62989063997E+01 -0.47759367299E+02  0.28888059928E+03  0.29286965365E+03  0.00000000000E+00 0. -1.
</event>
<event>
 8    1  0.6637272E-009  0.2523754E+03  0.7561462E-02  0.1111813E+00
          2   -1    0    0  501    0  0.00000000000E+00  0.00000000000E+00  0.11986970477E+04  0.11986970477E+04  0.00000000000E+00 0. -1.
         -2   -1    0    0    0  501 -0.00000000000E+00 -0.00000000000E+00 -0.54395776620E+02  0.54395776620E+02  0.00000000000E+00 0.  1.
         25    2    1    2    0    0  0.21805463269E+03 -0.75087803243E+02  0.58713293953E+03  0.64308488664E+03  0.12508829566E+03 0.  0.
         23    2    1    2    0    0 -0.21805463269E+03  0.75087803243E+02  0.55716833156E+03  0.61000793769E+03  0.92125638752E+02 0.  0.
          5    1    3    3  502    0  0.12087206353E+03 -0.10127330223E+03  0.30264212122E+03  0.34128589690E+03  0.41800000000E+01 0. -1.
         -5    1    3    3    0  502  0.97182569160E+02  0.26185498984E+02  0.28449081831E+03  0.30179898974E+03  0.41800000000E+01 0. -1.
        -11    1    4    4    0    0 -0.13579105180E+03  0.89665677596E+02  0.40392443554E+03  0.43546996810E+03  0.00000000000E+00 0.  1.
         11    1    4    4    0    0 -0.82263580892E+02 -0.14577874354E+02  0.15324389602E+03  0.17453796959E+03  0.00000000000E+00 0. -1.
</event>
<event>
 8    1  0.6637272E-009  0.9775337E+02  0.7561462E-02  0.1285092E+00
         -2   -1    0    0    0  501 -0.00000000000E+00  0.00000000000E+00  0.62403554885E+02  0.62403554885E+02  0.00000000000E+00 0.  1.
          2   -1    0    0  501    0  0.00000000000E+00 -0.00000000000E+00 -0.23529736095E+03  0.23529736095E+03  0.00000000000E+00 0. -1.
         25    2    1    2    0    0  0.11410786786E+02 -0.51905586710E+02 -0.76158227736E+02  0.15579989172E+03  0.12509650124E+03 0.  0.
         23    2    1    2    0    0 -0.11410786786E+02  0.51905586710E+02 -0.96735578334E+02  0.14190102412E+03  0.89183701109E+02 0.  0.
          5    1    3    3  502    0  0.49370409708E+02 -0.20761173716E+02 -0.89822923920E+02  0.10466180655E+03  0.41800000000E+01 0.  1.
         -5    1    3    3    0  502 -0.37959622921E+02 -0.31144412994E+02  0.13664696185E+02  0.51138085170E+02  0.41800000000E+01 0.  1.
        -11    1    4    4    0    0  0.31795426750E+02  0.31382413807E+02 -0.79245971781E+02  0.90971034412E+02  0.00000000000E+00 0. -1.
         11    1    4    4    0    0 -0.43206213536E+02  0.20523172903E+02 -0.17489606553E+02  0.50929989706E+02  0.00000000000E+00 0.  1.
</event>
<event>
 8    1  0.6637272E-009  0.1301015E+03  0.7561462E-02  0.1227305E+00
         -2   -1    0    0    0  501 -0.00000000000E+00  0.00000000000E+00  0.87265587350E+02  0.87265587350E+02  0.00000000000E+00 0. -1.
          2   -1    0    0  501    0  0.00000000000E+00 -0.00000000000E+00 -0.27781135065E+03  0.27781135065E+03  0.00000000000E+00 0.  1.
         25    2    1    2    0    0 -0.11019477479E+02  0.11092069758E+03 -0.10858153493E+03  0.19965509659E+03  0.12508947930E+03 0.  0.
         23    2    1    2    0    0  0.11019477479E+02 -0.11092069758E+03 -0.81964228367E+02  0.16542184141E+03  0.90672051079E+02 0.  0.
          5    1    3    3  502    0  0.22855135592E+02  0.99426179173E+02 -0.12387135362E+03  0.16052883534E+03  0.41800000000E+01 0.  1.
         -5    1    3    3    0  502 -0.33874613071E+02  0.11494518407E+02  0.15289818688E+02  0.39126261253E+02  0.41800000000E+01 0.  1.
        -11    1    4    4    0    0 -0.16967411859E+02 -0.73042094369E+02 -0.90529927325E+02  0.11755300233E+03  0.00000000000E+00 0.  1.
         11    1    4    4    0    0  0.27986889338E+02 -0.37878603210E+02  0.85656989578E+01  0.47868839078E+02  0.00000000000E+00 0. -1.
</event>
<event>
 8    1  0.6637272E-009  0.1006220E+03  0.7561462E-02  0.1278993E+00
          1   -1    0    0  501    0  0.00000000000E+00  0.00000000000E+00  0.49055223267E+03  0.49055223267E+03  0.00000000000E+00 0.  1.
         -1   -1    0    0    0  501 -0.00000000000E+00 -0.00000000000E+00 -0.57035016412E+02  0.57035016412E+02  0.00000000000E+00 0. -1.
         25    2    1    2    0    0 -0.79342180576E+01  0.19195741697E+02  0.43527893696E+03  0.45337190249E+03  0.12508757207E+03 0.  0.
         23    2    1    2    0    0  0.79342180576E+01 -0.19195741697E+02 -0.17617207083E+01  0.94215346592E+02  0.91880354582E+02 0.  0.
          5    1    3    3  502    0 -0.24719299576E+01 -0.43926943537E+02  0.71225626492E+02  0.83822724099E+02  0.41800000000E+01 0.  1.
         -5    1    3    3    0  502 -0.54622881001E+01  0.63122685235E+02  0.36405331047E+03  0.36954917839E+03  0.41800000000E+01 0.  1.
        -11    1    4    4    0    0  0.48383874625E+02  0.88787043634E+00  0.45922856964E+01  0.48609430418E+02  0.00000000000E+00 0.  1.
         11    1    4    4    0    0 -0.40449656567E+02 -0.20083612134E+02 -0.63540064047E+01  0.45605916174E+02  0.00000000000E+00 0. -1.
</event>
<event>
 8    1  0.6637272E-009  0.8436089E+02  0.7561462E-02  0.1317112E+00
         -3   -1    0    0    0  501 -0.00000000000E+00  0.00000000000E+00  0.63785380643E+02  0.63785380643E+02  0.00000000000E+00 0.  1.
          3   -1    0    0  501    0  0.00000000000E+00 -0.00000000000E+00 -0.19583542426E+03  0.19583542426E+03  0.00000000000E+00 0. -1.
         25    2    1    2    0    0 -0.14891168470E+01 -0.20608265926E+02 -0.76110592580E+02  0.14787468432E+03  0.12508869599E+03 0.  0.
         23    2    1    2    0    0  0.14891168470E+01  0.20608265926E+02 -0.55939451034E+02  0.11174612058E+03  0.94504260170E+02 0.  0.
          5    1    3    3  502    0  0.15638524617E+02 -0.71251777711E+02 -0.41109236037E+02  0.83838063949E+02  0.41800000000E+01 0.  1.
         -5    1    3    3    0  502 -0.17127641464E+02  0.50643511786E+02 -0.35001356543E+02  0.64036620366E+02  0.41800000000E+01 0.  1.
        -11    1    4    4    0    0  0.11555862287E+02 -0.63976436243E+01 -0.75672660602E+02  0.76816790871E+02  0.00000000000E+00 0. -1.
         11    1    4    4    0    0 -0.10066745439E+02  0.27005909550E+02  0.19733209568E+02  0.34929329713E+02  0.00000000000E+00 0.  1.
</event>
<event>
 8    1  0.6637272E-009  0.1179734E+03  0.7561462E-02  0.1246478E+00
          1   -1    0    0  501    0  0.00000000000E+00  0.00000000000E+00  0.16945606959E+03  0.16945606959E+03  0.00000000000E+00 0. -1.
         -1   -1    0    0    0  501 -0.00000000000E+00 -0.00000000000E+00 -0.10810498095E+03  0.10810498095E+03  0.00000000000E+00 0.  1.
         25    2    1    2    0    0 -0.36834789859E+02 -0.30567360255E+02 -0.32214561185E+02  0.13775392723E+03  0.12508877351E+03 0.  0.
         23    2    1    2    0    0  0.36834789859E+02  0.30567360255E+02  0.93565649822E+02  0.13980712331E+03  0.92197264844E+02 0.  0.
          5    1    3    3  502    0 -0.82823196732E+02 -0.25883200323E+02 -0.14512357517E+02  0.88077822956E+02  0.41800000000E+01 0. -1.
         -5    1    3    3    0  502  0.45988406874E+02 -0.46841599314E+01 -0.17702203668E+02  0.49676104273E+02  0.41800000000E+01 0. -1.
        -11    1    4    4    0    0  0.67235507815E+02  0.25108903806E+02  0.74814838688E+02  0.10367415613E+03  0.00000000000E+00 0. -1.
         11    1    4    4    0    0 -0.30400717956E+02  0.54584564490E+01  0.18750811134E+02  0.36132967180E+02  0.00000000000E+00 0.  1.
</event>
<event>
 8    1  0.6637272E-009  0.9453225E+02  0.7561462E-02  0.1292233E+00
          1   -1    0    0  501    0  0.00000000000E+00  0.00000000000E+00  0.42765498999E+03  0.42765498999E+03  0.00000000000E+00 0. -1.
         -1   -1    0    0    0  501 -0.00000000000E+00 -0.00000000000E+00 -0.99191430268E+02  0.99191430268E+02  0.00000000000E+00 0.  1.
         25    2    1    2    0    0 -0.36196869994E+02  0.42136809503E+02  0.38319312480E+03  0.40690831679E+03  0.12510668754E+03 0.  0.
         23    2    1    2    0    0  0.36196869994E+02 -0.42136809503E+02 -0.54729565072E+02  0.11993810347E+03  0.91126830624E+02 0.  0.
          5    1    3    3  502    0 -0.44627062549E+02  0.59692680500E+01  0.36020585229E+03  0.36303296723E+03  0.41800000000E+01 0. -1.
         -5    1    3    3    0  502  0.84301925547E+01  0.36167541453E+02  0.22987272506E+02  0.43875349555E+02  0.41800000000E+01 0. -1.
        -11    1    4    4    0    0  0.27778426404E+02  0.25863904008E+02 -0.23462844036E+02  0.44621604121E+02  0.00000000000E+00 0.  1.
         11    1    4    4    0    0  0.84184435897E+01 -0.68000713512E+02 -0.31266721036E+02  0.75316499354E+02  0.00000000000E+00 0. -1.
</event>
<event>
 8    1  0.6637272E-009  0.1052181E+03  0.7561462E-02  0.1269691E+00
         -1   -1    0    0    0  501 -0.00000000000E+00  0.00000000000E+00  0.54561228617E+02  0.54561228617E+02  0.00000000000E+00 0.  1.
          1   -1    0    0  501    0  0.00000000000E+00 -0.00000000000E+00 -0.28544548181E+03  0.28544548181E+03  0.00000000000E+00 0. -1.
         25    2    1    2    0    0  0.90643563885E+01  0.18496095380E+02 -0.20908651656E+03  0.24451997983E+03  0.12509428854E+03 0.  0.
         23    2    1    2    0    0 -0.90643563885E+01 -0.18496095380E+02 -0.21797736631E+02  0.95486730601E+02  0.90654874648E+02 0.  0.
          5    1    3    3  502    0  0.83640585113E+01 -0.52704718613E+02 -0.69078896340E+02  0.87390566759E+02  0.41800000000E+01 0. -1.
         -5    1    3    3    0  502  0.70029787724E+00  0.71200813994E+02 -0.14000762022E+03  0.15712941307E+03  0.41800000000E+01 0. -1.
        -11    1    4    4    0    0 -0.83174761292E+01  0.33024370606E+02 -0.27328253028E+02  0.43664892953E+02  0.00000000000E+00 0.  1.
         11    1    4    4    0    0 -0.74688025931E+00 -0.51520465986E+02  0.55305163973E+01  0.51821837647E+02  0.00000000000E+00 0. -1.
</event>
<event>
 8    1  0.6637272E-009  0.1102666E+03  0.7561462E-02  0.1260077E+00
         -1   -1    0    0    0  501 -0.00000000000E+00  0.00000000000E+00  0.25937226746E+03  0.25937226746E+03  0.00000000000E+00 0.  1.
          1   -1    0    0  501    0  0.00000000000E+00 -0.00000000000E+00 -0.75794013960E+02  0.75794013960E+02  0.00000000000E+00 0. -1.
         25    2    1    2    0    0  0.15369907350E+02 -0.84750609135E+02  0.78466230079E+02  0.17094752230E+03  0.12508879372E+03 0.  0.
         23    2    1    2    0    0 -0.15369907350E+02  0.84750609135E+02  0.10511202342E+03  0.16421875912E+03  0.92197416339E+02 0.  0.
          5    1    3    3  502    0  0.27830412216E+02 -0.85292185558E+02 -0.15786394631E+01  0.89829022392E+02  0.41800000000E+01 0. -1.
         -5    1    3    3    0  502 -0.12460504866E+02  0.54157642244E+00  0.80044869542E+02  0.81118499903E+02  0.41800000000E+01 0. -1.
        -11    1    4    4    0    0  0.32950975159E+02  0.38503370200E+02  0.75826288268E+02  0.91202534357E+02  0.00000000000E+00 0. -1.
         11    1    4    4    0    0 -0.48320882509E+02  0.46247238936E+02  0.29285735150E+02  0.73016224765E+02  0.00000000000E+00 0.  1.
</event>
<event>
 8    1  0.6637272E-009  0.1169714E+03  0.7561462E-02  0.1248179E+00
         -1   -1    0    0    0  501 -0.00000000000E+00  0.00000000000E+00  0.84899457019E+02  0.84899457019E+02  0.00000000000E+00 0.  1.
          1   -1    0    0  501    0  0.00000000000E+00 -0.00000000000E+00 -0.32148398528E+03  0.32148398528E+03  0.00000000000E+00 0. -1.
         25    2    1    2    0    0  0.34540502095E+02  0.42104355687E+02 -0.26381209744E+03  0.29700271407E+03  0.12509183169E+03 0.  0.
         23    2    1    2    0    0 -0.34540502095E+02 -0.42104355687E+02  0.27227569178E+02  0.10938072823E+03  0.90867926862E+02 0.  0.
          5    1    3    3  502    0  0.60610341937E+02  0.68388080973E+02 -0.22650337771E+03  0.24427811134E+03  0.41800000000E+01 0. -1.
         -5    1    3    3    0  502 -0.26069839842E+02 -0.26283725286E+02 -0.37308719730E+02  0.52724602722E+02  0.41800000000E+01 0. -1.
        -11    1    4    4    0    0 -0.35594024957E+02  0.21509446829E+02  0.45459659533E+01  0.41836069629E+02  0.00000000000E+00 0.  1.
         11    1    4    4    0    0  0.10535228618E+01 -0.63613802516E+02  0.22681603225E+02  0.67544658603E+02  0.00000000000E+00 0. -1.
</event>
<event>
 8    1  0.6637272E-009  0.1571707E+03  0.7561462E-02  0.1191928E+00
          2   -1    0    0  501    0  0.00000000000E+00  0.00000000000E+00  0.49874069785E+02  0.49874069785E+02  0.00000000000E+00 0. -1.
         -2   -1    0    0    0  501 -0.00000000000E+00 -0.00000000000E+00 -0.70765562002E+03  0.70765562002E+03  0.00000000000E+00 0.  1.
         25    2    1    2    0    0  0.15047696164E+03  0.24489080334E+02 -0.37355371513E+03  0.42241335447E+03  0.12509049885E+03 0.  0.
         23    2    1    2    0    0 -0.15047696164E+03 -0.24489080334E+02 -0.28422783511E+03  0.33511633534E+03  0.90964085904E+02 0.  0.
          5    1    3    3  502    0  0.13597463679E+03  0.43409680636E+01 -0.17221641814E+03  0.21950834365E+03  0.41800000000E+01 0.  1.
         -5    1    3    3    0  502  0.14502324845E+02  0.20148112270E+02 -0.20133729699E+03  0.20290501082E+03  0.41800000000E+01 0.  1.
        -11    1    4    4    0    0 -0.72972118264E+02 -0.50090756536E+01 -0.22227211480E+03  0.23399767926E+03  0.00000000000E+00 0.  1.
         11    1    4    4    0    0 -0.77504843375E+02 -0.19480004680E+02 -0.61955720311E+02  0.10111865608E+03  0.00000000000E+00 0. -1.
</event>
<event>
 8    1  0.6637272E-009  0.8646377E+02  0.7561462E-02  0.1311648E+00
         -1   -1    0    0    0  501 -0.00000000000E+00  0.00000000000E+00  0.55671828180E+02  0.55671828180E+02  0.00000000000E+00 0.  1.
          1   -1    0    0  501    0  0.00000000000E+00 -0.00000000000E+00 -0.23517797539E+03  0.23517797539E+03  0.00000000000E+00 0. -1.
         25    2    1    2    0    0  0.38177554689E+02  0.28711025932E+01 -0.98152640920E+02  0.16354765782E+03  0.12509247198E+03 0.  0.
         23    2    1    2    0    0 -0.38177554689E+02 -0.28711025932E+01 -0.81353506290E+02  0.12730214575E+03  0.90120332971E+02 0.  0.
          5    1    3    3  502    0  0.55492215633E+02  0.48082159800E+02 -0.29058411496E+02  0.79076821923E+02  0.41800000000E+01 0. -1.
         -5    1    3    3    0  502 -0.17314660944E+02 -0.45211057206E+02 -0.69094229424E+02  0.84470835896E+02  0.41800000000E+01 0. -1.
        -11    1    4    4    0    0 -0.14649834377E+02  0.15209489173E+02 -0.93043514950E+02  0.95409862606E+02  0.00000000000E+00 0. -1.
         11    1    4    4    0    0 -0.23527720312E+02 -0.18080591766E+02  0.11690008660E+02  0.31892283145E+02  0.00000000000E+00 0.  1.
</event>
<event>
 8    1  0.6637272E-009  0.1009839E+03  0.7561462E-02  0.1278240E+00
         -1   -1    0    0    0  501 -0.00000000000E+00  0.00000000000E+00  0.76484101937E+02  0.76484101937E+02  0.00000000000E+00 0.  1.
          1   -1    0    0  501    0  0.00000000000E+00 -0.00000000000E+00 -0.18593375917E+03  0.18593375917E+03  0.00000000000E+00 0. -1.
         25    2    1    2    0    0  0.89361642646E+00 -0.24414418571E+02 -0.38281358011E+02  0.13307952019E+03  0.12509130241E+03 0.  0.
         23    2    1    2    0    0 -0.89361642646E+00  0.24414418571E+02 -0.71168299226E+02  0.12933834092E+03  0.10519799063E+03 0.  0.
          5    1    3    3  502    0  0.25437635969E+01 -0.61767070284E+02  0.18769013374E+02  0.64740945064E+02  0.41800000000E+01 0. -1.
         -5    1    3    3    0  502 -0.16501471704E+01  0.37352651714E+02 -0.57050371385E+02  0.68338575131E+02  0.41800000000E+01 0. -1.
        -11    1    4    4    0    0  0.39993182085E+02  0.41894194108E+02 -0.19370456211E+02  0.61072028680E+02  0.00000000000E+00 0.  1.
         11    1    4    4    0    0 -0.40886798511E+02 -0.17479775537E+02 -0.51797843015E+02  0.68266312237E+02  0.00000000000E+00 0. -1.
</event>
<event>
 8    1  0.6637272E-009  0.1560085E+03  0.7561462E-02  0.1193278E+00
         -2   -1    0    0    0  501 -0.00000000000E+00  0.00000000000E+00  0.70676177419E+02  0.70676177419E+02  0.00000000000E+00 0.  1.
          2   -1    0    0  501    0  0.00000000000E+00 -0.00000000000E+00 -0.45670110398E+03  0.45670110398E+03  0.00000000000E+00 0. -1.
         25    2    1    2    0    0  0.60036083481E+02  0.12952964275E+03 -0.21842469372E+03  0.28937730836E+03  0.12509044766E+03 0.  0.
         23    2    1    2    0    0 -0.60036083481E+02 -0.12952964275E+03 -0.16760023284E+03  0.23799997304E+03  0.90398503583E+02 0.  0.
          5    1    3    3  502    0 -0.13438726676E+02  0.12542189757E+02  0.10787835825E+02  0.21719937853E+02  0.41800000000E+01 0.  1.
         -5    1    3    3    0  502  0.73474810157E+02  0.11698745299E+03 -0.22921252954E+03  0.26765737050E+03  0.41800000000E+01 0.  1.
        -11    1    4    4    0    0  0.12502584151E+02 -0.19744593948E+02 -0.71044503422E+02  0.74789605341E+02  0.00000000000E+00 0. -1.
         11    1    4    4    0    0 -0.72538667632E+02 -0.10978504880E+03 -0.96555729417E+02  0.16321036770E+03  0.00000000000E+00 0.  1.
</event>
<event>
 8    1  0.6637272E-009  0.2012434E+03  0.7561462E-02  0.1148694E+00
          1   -1    0    0  501    0  0.00000000000E+00  0.00000000000E+00  0.37275279792E+03  0.37275279792E+03  0.00000000000E+00 0. -1.
         -1   -1    0    0    0  501 -0.00000000000E+00 -0.00000000000E+00 -0.14945525718E+03  0.14945525718E+03  0.00000000000E+00 0.  1.
         25    2    1    2    0    0 -0.18860460817E+03  0.90463066347E+01  0.21470912336E+03  0.31209020061E+03  0.12508697686E+03 0.  0.
         23    2    1    2    0    0  0.18860460817E+03 -0.90463066347E+01  0.85884173756E+01  0.21011785448E+03  0.91772642835E+02 0.  0.
          5    1    3    3  502    0 -0.19277637005E+03  0.17179190212E+02  0.14553451304E+03  0.24218922418E+03  0.41800000000E+01 0.  1.
         -5    1    3    3    0  502  0.41717618820E+01 -0.81328835769E+01  0.69174610323E+02  0.69900976430E+02  0.41800000000E+01 0.  1.
        -11    1    4    4    0    0  0.96389167523E+02 -0.35815724347E+02 -0.29252686873E+02  0.10690817282E+03  0.00000000000E+00 0. -1.
         11    1    4    4    0    0  0.92215440644E+02  0.26769417712E+02  0.37841104249E+02  0.10320968166E+03  0.00000000000E+00 0.  1.
</event>
<event>
 8    1  0.6637272E-009  0.1378175E+03  0.7561462E-02  0.1216296E+00
         -1   -1    0    0    0  501 -0.00000000000E+00  0.00000000000E+00  0.18788581554E+03  0.18788581554E+03  0.00000000000E+00 0.  1.
          1   -1    0    0  501    0  0.00000000000E+00 -0.00000000000E+00 -0.11248872768E+03  0.11248872768E+03  0.00000000000E+00 0. -1.
         25    2    1    2    0    0  0.17696378196E+01 -0.96005951199E+02  0.49914233692E+02  0.16540367499E+03  0.12508665274E+03 0.  0.
         23    2    1    2    0    0 -0.17696378196E+01  0.96005951199E+02  0.25482854174E+02  0.13497086823E+03  0.91364572622E+02 0.  0.
          5    1    3    3  502    0 -0.36237626612E+02 -0.10522594751E+03  0.14190663847E+02  0.11226982209E+03  0.41800000000E+01 0.  1.
         -5    1    3    3    0  502  0.38007264432E+02  0.92199963136E+01  0.35723569845E+02  0.53133852900E+02  0.41800000000E+01 0.  1.
        -11    1    4    4    0    0  0.32449399832E+02  0.81581711424E+02 -0.34946704038E+01  0.87867809291E+02  0.00000000000E+00 0. -1.
         11    1    4    4    0    0 -0.34219037651E+02  0.14424239775E+02  0.28977524577E+02  0.47103058940E+02  0.00000000000E+00 0.  1.
</event>
<event>
 8    1  0.6637272E-009  0.1068486E+03  0.7561462E-02  0.1266520E+00
          2   -1    0    0  501    0  0.00000000000E+00  0.00000000000E+00  0.44922244255E+02  0.44922244255E+02  0.00000000000E+00 0. -1.
         -2   -1    0    0    0  501 -0.00000000000E+00 -0.00000000000E+00 -0.53500664448E+03  0.53500664448E+03  0.00000000000E+00 0.  1.
         25    2    1    2    0    0  0.45660702573E+02  0.69666564581E+02 -0.13176676124E+03  0.19987040482E+03  0.12508944550E+03 0.  0.
         23    2    1    2    0    0 -0.45660702573E+02 -0.69666564581E+02 -0.35831763899E+03  0.38005848392E+03  0.95470366124E+02 0.  0.
          5    1    3    3  502    0  0.15715656342E+02  0.53151252787E+02 -0.15065422571E+03  0.16058083837E+03  0.41800000000E+01 0. -1.
         -5    1    3    3    0  502  0.29945046231E+02  0.16515311794E+02  0.18887464472E+02  0.39289566448E+02  0.41800000000E+01 0. -1.
        -11    1    4    4    0    0  0.15838940863E+02 -0.59194674918E+02 -0.21899372299E+03  0.22740521607E+03  0.00000000000E+00 0.  1.
         11    1    4    4    0    0 -0.61499643436E+02 -0.10471889662E+02 -0.13932391600E+03  0.15265326785E+03  0.00000000000E+00 0. -1.
</event>
<event>
 8    1  0.6637272E-009  0.1056628E+03  0.7561462E-02  0.1268819E+00
          1   -1    0    0  501    0  0.00000000000E+00  0.00000000000E+00  0.74135016186E+02  0.74135016186E+02  0.00000000000E+00 0. -1.
         -1   -1    0    0    0  501 -0.00000000000E+00 -0.00000000000E+00 -0.17667770616E+03  0.17667770616E+03  0.00000000000E+00 0.  1.
         25    2    1    2    0    0 -0.18516792396E+02  0.45986715173E+01 -0.93908881992E+02  0.15755603247E+03  0.12506400710E+03 0.  0.
         23    2    1    2    0    0  0.18516792396E+02 -0.45986715173E+01 -0.86338079823E+01  0.93256689872E+02  0.90874904045E+02 0.  0.
          5    1    3    3  502    0 -0.42495763887E+01  0.63336887249E+02 -0.33096124543E+02  0.71710850265E+02  0.41800000000E+01 0. -1.
         -5    1    3    3    0  502 -0.14267216007E+02 -0.58738215732E+02 -0.60812757448E+02  0.85845182209E+02  0.41800000000E+01 0. -1.
        -11    1    4    4    0    0 -0.16647501427E+02 -0.36197671048E+02 -0.20077671504E+02  0.44615284221E+02  0.00000000000E+00 0.  1.
         11    1    4    4    0    0  0.35164293823E+02  0.31598999531E+02  0.11443863522E+02  0.48641405651E+02  0.00000000000E+00 0. -1.
</event>
<event>
 8    1  0.6637272E-009  0.7521207E+02  0.7561462E-02  0.1343216E+00
          1   -1    0    0  501    0  0.00000000000E+00  0.00000000000E+00  0.86868134479E+02  0.86868134479E+02  0.00000000000E+00 0. -1.
         -1   -1    0    0    0  501 -0.00000000000E+00 -0.00000000000E+00 -0.16529253239E+03  0.16529253239E+03  0.00000000000E+00 0.  1.
         25    2    1    2    0    0 -0.40226265313E+01 -0.22793213408E+02 -0.91198100853E+02  0.15649762350E+03  0.12505478984E+03 0.  0.
         23    2    1    2    0    0  0.40226265313E+01  0.22793213408E+02  0.12773702947E+02  0.95663043361E+02  0.91937686921E+02 0.  0.
          5    1    3    3  502    0 -0.49992516249E+02 -0.32575396924E+02 -0.91494453466E+02  0.10931201023E+03  0.41800000000E+01 0. -1.
         -5    1    3    3    0  502  0.45969889718E+02  0.97821835155E+01  0.29635261273E+00  0.47185613273E+02  0.41800000000E+01 0. -1.
        -11    1    4    4    0    0  0.13347377441E+02 -0.48881768043E+01 -0.36059839675E+02  0.38760273405E+02  0.00000000000E+00 0.  1.
         11    1    4    4    0    0 -0.93247509096E+01  0.27681390212E+02  0.48833542623E+02  0.56902769956E+02  0.00000000000E+00 0. -1.
</event>
<event>
 8    1  0.6637272E-009  0.2228303E+03  0.7561462E-02  0.1131790E+00
          1   -1    0    0  501    0  0.00000000000E+00  0.00000000000E+00  0.31364613569E+03  0.31364613569E+03  0.00000000000E+00 0. -1.
         -1   -1    0    0    0  501 -0.00000000000E+00 -0.00000000000E+00 -0.27288311173E+03  0.27288311173E+03  0.00000000000E+00 0.  1.
         25    2    1    2    0    0  0.11360028669E+03 -0.16939018754E+03  0.20041062128E+03  0.31210513528E+03  0.12508851894E+03 0.  0.
         23    2    1    2    0    0 -0.11360028669E+03  0.16939018754E+03 -0.15964759732E+03  0.27442411215E+03  0.90681735903E+02 0.  0.
          5    1    3    3  502    0  0.93436702419E+02 -0.18726456103E+03  0.16051862047E+03  0.26378425483E+03  0.41800000000E+01 0. -1.
         -5    1    3    3    0  502  0.20163584268E+02  0.17874373493E+02  0.39892000808E+02  0.48320880443E+02  0.41800000000E+01 0. -1.
        -11    1    4    4    0    0 -0.47298135894E+02  0.33788240369E+02 -0.92435758994E+02  0.10919307848E+03  0.00000000000E+00 0.  1.
         11    1    4    4    0    0 -0.66302150793E+02  0.13560194717E+03 -0.67211838330E+02  0.16523103367E+03  0.00000000000E+00 0. -1.
</event>
<event>
 8    1  0.6637272E-009  0.1117395E+03  0.7561462E-02  0.1257382E+00
          2   -1    0    0  501    0  0.00000000000E+00  0.00000000000E+00  0.48513787211E+02  0.48513787211E+02  0.00000000000E+00 0. -1.
         -2   -1    0    0    0  501 -0.00000000000E+00 -0.00000000000E+00 -0.30573620106E+03  0.30573620106E+03  0.00000000000E+00 0.  1.
         25    2    1    2    0    0 -0.29099934300E+02  0.17806312068E+02 -0.87575620917E+02  0.15646510000E+03  0.12509183512E+03 0.  0.
         23    2    1    2    0    0  0.29099934300E+02 -0.17806312068E+02 -0.16964679293E+03  0.19778488827E+03  0.95785994532E+02 0.  0.
          5    1    3    3  502    0 -0.71971155365E+02  0.37949055334E+02 -0.47702353112E+02  0.94408500135E+02  0.41800000000E+01 0. -1.
         -5    1    3    3    0  502  0.42871221065E+02 -0.20142743267E+02 -0.39873267805E+02  0.62056599869E+02  0.41800000000E+01 0. -1.
        -11    1    4    4    0    0 -0.10576001918E+02  0.30304222890E+02 -0.26422129906E+02  0.41573148670E+02  0.00000000000E+00 0.  1.
         11    1    4    4    0    0  0.39675936218E+02 -0.48110534958E+02 -0.14322466303E+03  0.15621173960E+03  0.00000000000E+00 0. -1.
</event>
<event>
 8    1  0.6637272E-009  0.1674413E+03  0.7561462E-02  0.1180543E+00
         -2   -1    0    0    0  501 -0.00000000000E+00  0.00000000000E+00  0.39261486978E+03  0.39261486978E+03  0.00000000000E+00 0. -1.
          2   -1    0    0  501    0  0.00000000000E+00 -0.00000000000E+00 -0.85667410423E+02  0.85667410423E+02  0.00000000000E+00 0.  1.
         25    2    1    2    0    0  0.11585238200E+03  0.78705511573E+02  0.21873161918E+03  0.28828448847E+03  0.12509233826E+03 0.  0.
         23    2    1    2    0    0 -0.11585238200E+03 -0.78705511573E+02  0.88215840177E+02  0.18999779174E+03  0.93278049085E+02 0.  0.
          5    1    3    3  502    0  0.13020153809E+03  0.86987779821E+02  0.22117239543E+03  0.27102401233E+03  0.41800000000E+01 0. -1.
         -5    1    3    3    0  502 -0.14349156087E+02 -0.82822682476E+01 -0.24407762485E+01  0.17260476136E+02  0.41800000000E+01 0. -1.
        -11    1    4    4    0    0 -0.51123894940E+02 -0.81676016710E+02  0.78892768293E+02  0.12453390393E+03  0.00000000000E+00 0. -1.
         11    1    4    4    0    0 -0.64728487059E+02  0.29705051368E+01  0.93230718841E+01  0.65463887809E+02  0.00000000000E+00 0.  1.
</event>
<event>
 8    1  0.6637272E-009  0.8593103E+02  0.7561462E-02  0.1313016E+00
         -2   -1    0    0    0  501 -0.00000000000E+00  0.00000000000E+00  0.13424102598E+02  0.13424102598E+02  0.00000000000E+00 0.  1.
          2   -1    0    0  501    0  0.00000000000E+00 -0.00000000000E+00 -0.85472050909E+03  0.85472050909E+03  0.00000000000E+00 0. -1.
         25    2    1    2    0    0 -0.27291282442E+02 -0.43431624287E+01 -0.53157744394E+03  0.54679377546E+03  0.12508068126E+03 0.  0.
         23    2    1    2    0    0  0.27291282442E+02  0.43431624287E+01 -0.30971896256E+03  0.32135083623E+03  0.81097762111E+02 0.  0.
          5    1    3    3  502    0 -0.22481509631E+02 -0.49216053310E+02 -0.45174391558E+03  0.45499195140E+03  0.41800000000E+01 0.  1.
         -5    1    3    3    0  502 -0.48097728114E+01  0.44872890881E+02 -0.79833528358E+02  0.91801824059E+02  0.41800000000E+01 0.  1.
        -11    1    4    4    0    0 -0.15815530031E+02 -0.17797883805E+02 -0.34626104321E+02  0.42022169846E+02  0.00000000000E+00 0.  1.
         11    1    4    4    0    0  0.43106812474E+02  0.22141046234E+02 -0.27509285824E+03  0.27932866638E+03  0.00000000000E+00 0. -1.
</event>
<event>
 8    1  0.6637272E-009  0.9879842E+02  0.7561462E-02  0.1282843E+00
         -1   -1    0    0    0  501 -0.00000000000E+00  0.00000000000E+00  0.17836030572E+03  0.17836030572E+03  0.00000000000E+00 0.  1.
          1   -1    0    0  501    0  0.00000000000E+00 -0.00000000000E+00 -0.94822533458E+02  0.94822533458E+02  0.00000000000E+00 0. -1.
         25    2    1    2    0    0 -0.19169258842E+02 -0.51316869795E+02  0.96050000112E+02  0.16695519446E+03  0.12509017878E+03 0.  0.
         23    2    1    2    0    0  0.19169258842E+02  0.51316869795E+02 -0.12512227847E+02  0.10622764472E+03  0.90149182174E+02 0.  0.
          5    1    3    3  502    0 -0.52258786188E+02 -0.66148686433E+02  0.26599297626E+02  0.88496465945E+02  0.41800000000E+01 0.  1.
         -5    1    3    3    0  502  0.33089527345E+02  0.14831816638E+02  0.69450702486E+02  0.78458728517E+02  0.41800000000E+01 0.  1.
        -11    1    4    4    0    0  0.37586927850E+02  0.40831007252E+02  0.26752145089E+02  0.61608648462E+02  0.00000000000E+00 0.  1.
         11    1    4    4    0    0 -0.18417669007E+02  0.10485862542E+02 -0.39264372935E+02  0.44618996256E+02  0.00000000000E+00 0. -1.
</event>
<event>
 8    1  0.6637272E-009  0.1772048E+03  0.7561462E-02  0.1170536E+00
          1   -1    0    0  501    0  0.00000000000E+00  0.00000000000E+00  0.46173988428E+03  0.46173988428E+03  0.00000000000E+00 0. -1.
         -1   -1    0    0    0  501 -0.00000000000E+00 -0.00000000000E+00 -0.75931287321E+02  0.75931287321E+02  0.00000000000E+00 0.  1.
         25    2    1    2    0    0 -0.14497723858E+03 -0.60930282818E+01  0.27135222355E+03  0.33216687660E+03  0.12508908821E+03 0.  0.
         23    2    1    2    0    0  0.14497723858E+03  0.60930282818E+01  0.11445637342E+03  0.20550429500E+03  0.89867842685E+02 0.  0.
          5    1    3    3  502    0 -0.11140632740E+03 -0.55856569046E+02  0.22079743936E+03  0.25357505342E+03  0.41800000000E+01 0.  1.
         -5    1    3    3    0  502 -0.33570911182E+02  0.49763540764E+02  0.50554784184E+02  0.78591823181E+02  0.41800000000E+01 0.  1.
        -11    1    4    4    0    0  0.10776137883E+03  0.44019032498E+02  0.89308512075E+02  0.14671809813E+03  0.00000000000E+00 0.  1.
         11    1    4    4    0    0  0.37215859746E+02 -0.37926004217E+02  0.25147861341E+02  0.58786196871E+02  0.00000000000E+00 0. -1.
</event>
<event>
 8    1  0.6637272E-009  0.1043869E+03  0.7561462E-02  0.1271332E+00
          1   -1    0    0  501    0  0.00000000000E+00  0.00000000000E+00  0.16585542452E+03  0.16585542452E+03  0.00000000000E+00 0. -1.
         -1   -1    0    0    0  501 -0.00000000000E+00 -0.00000000000E+00 -0.83278587474E+02  0.83278587474E+02  0.00000000000E+00 0.  1.
         25    2    1    2    0    0 -0.34328835144E+02 -0.16088568844E+02  0.78691974613E+02  0.15256890234E+03  0.12509009602E+03 0.  0.
         23    2    1    2    0    0  0.34328835144E+02  0.16088568844E+02  0.38848624368E+01  0.96565109663E+02  0.88726643565E+02 0.  0.
          5    1    3    3  502    0 -0.77163191099E+02  0.13414178161E+02  0.50134098491E+02  0.93085973529E+02  0.41800000000E+01 0. -1.
         -5    1    3    3    0  502  0.42834355954E+02 -0.29502747005E+02  0.28557876122E+02  0.59482928807E+02  0.41800000000E+01 0. -1.
        -11    1    4    4    0    0  0.18943049950E+02 -0.26674210822E+02 -0.26326331199E+02  0.41993194434E+02  0.00000000000E+00 0.  1.
         11    1    4    4    0    0  0.15385785194E+02  0.42762779666E+02  0.30211193636E+02  0.54571915229E+02  0.00000000000E+00 0. -1.
</event>
<event>
 8    1  0.6637272E-009  0.8436073E+02  0.7561462E-02  0.1317113E+00
          1   -1    0    0  501    0  0.00000000000E+00  0.00000000000E+00  0.40445596737E+02  0.40445596737E+02  0.00000000000E+00 0.  1.
         -1   -1    0    0    0  501 -0.00000000000E+00 -0.00000000000E+00 -0.30964362007E+03  0.30964362007E+03  0.00000000000E+00 0. -1.
         25    2    1    2    0    0 -0.22364281855E+01  0.50978832193E+01 -0.19300025873E+03  0.23005988214E+03  0.12508980565E+03 0.  0.
         23    2    1    2    0    0  0.22364281855E+01 -0.50978832193E+01 -0.76197764601E+02  0.12002933466E+03  0.92574034288E+02 0.  0.
          5    1    3    3  502    0  0.24135423230E+01 -0.59144496510E+02 -0.10921664982E+03  0.12429660354E+03  0.41800000000E+01 0.  1.
         -5    1    3    3    0  502 -0.46499705084E+01  0.64242379729E+02 -0.83783608906E+02  0.10576327860E+03  0.41800000000E+01 0.  1.
        -11    1    4    4    0    0  0.21758993571E+02 -0.11077653981E+02 -0.91379814154E+02  0.94585615470E+02  0.00000000000E+00 0. -1.
         11    1    4    4    0    0 -0.19522565386E+02  0.59797707620E+01  0.15182049553E+02  0.25443719190E+02  0.00000000000E+00 0.  1.
</event>
<event>
 7    1  0.6637272E-009  0.2223588E+03  0.7561462E-02  0.1132137E+00
          3   -1    0    0  501    0  0.00000000000E+00  0.00000000000E+00  0.39540057101E+02  0.39540057101E+02  0.00000000000E+00 0. -1.
         -3   -1    0    0    0  501 -0.00000000000E+00 -0.00000000000E+00 -0.14208441981E+04  0.14208441981E+04  0.00000000000E+00 0.  1.
         23    2    1    2    0    0 -0.55365150931E+02 -0.18871391102E+03 -0.43713050071E+03  0.48785802895E+03  0.90797255564E+02 0.  0.
          5    1    1    2  502    0  0.36245783213E+02  0.20426385771E+03 -0.86279226321E+03  0.88739249615E+03  0.41800000000E+01 0.  1.
         -5    1    1    2    0  502  0.19119367718E+02 -0.15549946696E+02 -0.81381377065E+02  0.85133730079E+02  0.41800000000E+01 0.  1.
        -11    1    3    3    0    0  0.18767352542E+02 -0.68197935097E+02 -0.19480579792E+03  0.20724977871E+03  0.00000000000E+00 0. -1.
         11    1    3    3    0    0 -0.74132503473E+02 -0.12051597592E+03 -0.24232470278E+03  0.28060825024E+03  0.00000000000E+00 0.  1.
</event>
<event>
 8    1  0.6637272E-009  0.1930603E+03  0.7561462E-02  0.1155730E+00
          2   -1    0    0  501    0  0.00000000000E+00  0.00000000000E+00  0.59393958997E+03  0.59393958997E+03  0.00000000000E+00 0. -1.
         -2   -1    0    0    0  501 -0.00000000000E+00 -0.00000000000E+00 -0.67172716780E+02  0.67172716780E+02  0.00000000000E+00 0.  1.
         25    2    1    2    0    0 -0.50157572932E+02  0.15549749274E+03  0.21497459777E+03  0.29758556064E+03  0.12509131003E+03 0.  0.
         23    2    1    2    0    0  0.50157572932E+02 -0.15549749274E+03  0.31179227542E+03  0.36352674611E+03  0.90785570193E+02 0.  0.
          5    1    3    3  502    0  0.37560445557E+02  0.58361625626E+02  0.10824591794E+03  0.12865270136E+03  0.41800000000E+01 0.  1.
         -5    1    3    3    0  502 -0.87718018489E+02  0.97135867110E+02  0.10672867983E+03  0.16893285928E+03  0.41800000000E+01 0.  1.
        -11    1    4    4    0    0 -0.89649781207E+01 -0.11171634546E+03  0.20850617059E+03  0.23671868504E+03  0.00000000000E+00 0. -1.
         11    1    4    4    0    0  0.59122551052E+02 -0.43781147279E+02  0.10328610483E+03  0.12680806106E+03  0.00000000000E+00 0.  1.
</event>
<event>
 8    1  0.6637272E-009  0.3348143E+03  0.7561462E-02  0.1069026E+00
          2   -1    0    0  501    0  0.00000000000E+00  0.00000000000E+00  0.21248607063E+04  0.21248607063E+04  0.00000000000E+00 0. -1.
         -2   -1    0    0    0  501 -0.00000000000E+00 -0.00000000000E+00 -0.65552834529E+02  0.65552834529E+02  0.00000000000E+00 0.  1.
         25    2    1    2    0    0 -0.30801557750E+03  0.10466624081E+03  0.61185305409E+03  0.70415877150E+03  0.12508716053E+03 0.  0.
         23    2    1    2    0    0  0.30801557750E+03 -0.10466624081E+03  0.14474548176E+04  0.14862547693E+04  0.89438091330E+02 0.  0.
          5    1    3    3  502    0  0.65665624605E+01  0.92048812162E+01  0.33413392503E+01  0.12509457572E+02  0.41800000000E+01 0. -1.
         -5    1    3    3    0  502 -0.31458213996E+03  0.95461359596E+02  0.60851171484E+03  0.69164931393E+03  0.41800000000E+01 0. -1.
        -11    1    4    4    0    0  0.15057574952E+03 -0.26011711130E+02  0.50908294545E+03  0.53152150550E+03  0.00000000000E+00 0. -1.
         11    1    4    4    0    0  0.15743982798E+03 -0.78654529683E+02  0.93837187218E+03  0.95473326378E+03  0.00000000000E+00 0.  1.
</event>
<event>
 8    1  0.6637272E-009  0.9906450E+02  0.7561462E-02  0.1282276E+00
          2   -1    0    0  501    0  0.00000000000E+00  0.00000000000E+00  0.19810057748E+03  0.19810057748E+03  0.00000000000E+00 0. -1.
         -2   -1    0    0    0  501 -0.00000000000E+00 -0.00000000000E+00 -0.81401524407E+02  0.81401524407E+02  0.00000000000E+00 0.  1.
         25    2    1    2    0    0 -0.18588904062E+02  0.60468825206E+02  0.42969389734E+02  0.14661207271E+03  0.12508679081E+03 0.  0.
         23    2    1    2    0    0  0.18588904062E+02 -0.60468825206E+02  0.73729663336E+02  0.13289002917E+03  0.90673427319E+02 0.  0.
          5    1    3    3  502    0  0.11380317584E+02 -0.20599225001E+02 -0.26469435032E+02  0.35664311151E+02  0.41800000000E+01 0. -1.
         -5    1    3    3    0  502 -0.29969221647E+02  0.81068050208E+02  0.69438824766E+02  0.11094776156E+03  0.41800000000E+01 0. -1.
        -11    1    4    4    0    0  0.41211298378E+01  0.12574837533E+02 -0.13020572146E+02  0.18564631672E+02  0.00000000000E+00 0.  1.
         11    1    4    4    0    0  0.14467774225E+02 -0.73043662739E+02  0.86750235482E+02  0.11432539750E+03  0.00000000000E+00 0. -1.
</event>
<event>
 8    1  0.6637272E-009  0.1242088E+03  0.7561462E-02  0.1236311E+00
          1   -1    0    0  501    0  0.00000000000E+00  0.00000000000E+00  0.13387468070E+04  0.13387468070E+04  0.00000000000E+00 0. -1.
         -1   -1    0    0    0  501 -0.00000000000E+00 -0.00000000000E+00 -0.17165034899E+02  0.17165034899E+02  0.00000000000E+00 0.  1.
         25    2    1    2    0    0 -0.10076402218E+03 -0.30792091866E+02  0.75863289512E+03  0.77606201817E+03  0.12508735110E+03 0.  0.
         23    2    1    2    0    0  0.10076402218E+03  0.30792091866E+02  0.56294887695E+03  0.57984982370E+03  0.90624714579E+02 0.  0.
          5    1    3    3  502    0 -0.54115901096E+02  0.15883022184E+02  0.61885449351E+03  0.62143314821E+03  0.41800000000E+01 0. -1.
         -5    1    3    3    0  502 -0.46648121083E+02 -0.46675114050E+02  0.13977840161E+03  0.15462886997E+03  0.41800000000E+01 0. -1.
        -11    1    4    4    0    0  0.10523774518E+03  0.11414136779E+02  0.53602506176E+03  0.54637728025E+03  0.00000000000E+00 0. -1.
         11    1    4    4    0    0 -0.44737230018E+01  0.19377955087E+02  0.26923815188E+02  0.33472543452E+02  0.00000000000E+00 0.  1.
</event>
<event>
 8    1  0.6637272E-009  0.9020204E+02  0.7561462E-02  0.1302363E+00
         -1   -1    0    0    0  501 -0.00000000000E+00  0.00000000000E+00  0.52353129161E+02  0.52353129161E+02  0.00000000000E+00 0.  1.
          1   -1    0    0  501    0  0.00000000000E+00 -0.00000000000E+00 -0.32604509437E+03  0.32604509437E+03  0.00000000000E+00 0. -1.
         25    2    1    2    0    0 -0.37976352136E+02  0.41811722270E+02 -0.83516855380E+02  0.16067054668E+03  0.12509810549E+03 0.  0.
         23    2    1    2    0    0  0.37976352136E+02 -0.41811722270E+02 -0.19017510983E+03  0.21772767685E+03  0.89712571181E+02 0.  0.
          5    1    3    3  502    0 -0.47282996758E+02  0.20122711199E+02 -0.11208820247E+03  0.12337683260E+03  0.41800000000E+01 0. -1.
         -5    1    3    3    0  502  0.93066446225E+01  0.21689011071E+02  0.28571347092E+02  0.37293714082E+02  0.41800000000E+01 0. -1.
        -11    1    4    4    0    0 -0.26363253920E+02 -0.29153542103E+02 -0.87166340966E+02  0.95618623561E+02  0.00000000000E+00 0.  1.
         11    1    4    4    0    0  0.64339606056E+02 -0.12658180167E+02 -0.10300876886E+03  0.12210905329E+03  0.00000000000E+00 0. -1.
</event>
<event>
 8    1  0.6637272E-009  0.2243668E+03  0.7561462E-02  0.1130669E+00
          2   -1    0    0  501    0  0.00000000000E+00  0.00000000000E+00  0.83828873616E+03  0.83828873616E+03  0.00000000000E+00 0. -1.
         -2   -1    0    0    0  501 -0.00000000000E+00 -0.00000000000E+00 -0.71344678371E+02  0.71344678371E+02  0.00000000000E+00 0.  1.
         25    2    1    2    0    0  0.62408341432E+02 -0.19347443975E+03  0.24630439852E+03  0.34298852688E+03  0.12509241754E+03 0.  0.
         23    2    1    2    0    0 -0.62408341432E+02  0.19347443975E+03  0.52063965926E+03  0.56664488764E+03  0.93239551565E+02 0.  0.
          5    1    3    3  502    0  0.88763825053E+02 -0.12815994052E+03  0.21547784994E+03  0.26599278789E+03  0.41800000000E+01 0.  1.
         -5    1    3    3    0  502 -0.26355483621E+02 -0.65314499229E+02  0.30826548580E+02  0.76995738998E+02  0.41800000000E+01 0.  1.
        -11    1    4    4    0    0  0.17683789545E+02  0.88154169218E+02  0.17988874856E+03  0.20110652854E+03  0.00000000000E+00 0.  1.
         11    1    4    4    0    0 -0.80092130977E+02  0.10532027053E+03  0.34075091071E+03  0.36553835911E+03  0.00000000000E+00 0. -1.
</event>
<event>
 8    1  0.6637272E-009  0.1092542E+03  0.7561462E-02  0.1261957E+00
         -1   -1    0    0    0  501 -0.00000000000E+00  0.00000000000E+00  0.16257438146E+04  0.16257438146E+04  0.00000000000E+00 0.  1.
          1   -1    0    0  501    0  0.00000000000E+00 -0.00000000000E+00 -0.15054197102E+02  0.15054197102E+02  0.00000000000E+00 0. -1.
         25    2    1    2    0    0 -0.50521266273E+02  0.11464727330E+02  0.13887547774E+04  0.13953391277E+04  0.12509041230E+03 0.  0.
         23    2    1    2    0    0  0.50521266273E+02 -0.11464727330E+02  0.22193484006E+03  0.24545888396E+03  0.91165520681E+02 0.  0.
          5    1    3    3  502    0 -0.86422903780E+02  0.12465840409E+02  0.11981691565E+04  0.12013538678E+04  0.41800000000E+01 0.  1.
         -5    1    3    3    0  502  0.35901637506E+02 -0.10011130792E+01  0.19058562085E+03  0.19398525995E+03  0.41800000000E+01 0.  1.
        -11    1    4    4    0    0  0.39128228646E+02  0.31657555715E+02  0.16849595442E+03  0.17585251140E+03  0.00000000000E+00 0.  1.
         11    1    4    4    0    0  0.11393037628E+02 -0.43122283045E+02  0.53438885643E+02  0.69606372554E+02  0.00000000000E+00 0. -1.
</event>
<event>
 8    1  0.6637272E-009  0.1026878E+03  0.7561462E-02  0.1274743E+00
         -1   -1    0    0    0  501 -0.00000000000E+00  0.00000000000E+00  0.67858958556E+02  0.67858958556E+02  0.00000000000E+00 0.  1.
          1   -1    0    0  501    0  0.00000000000E+00 -0.00000000000E+00 -0.18019835258E+03  0.18019835258E+03  0.00000000000E+00 0. -1.
         25    2    1    2    0    0  0.48586165009E+01  0.15691441154E+02 -0.82922242558E+02  0.15097875579E+03  0.12509459985E+03 0.  0.
         23    2    1    2    0    0 -0.48586165009E+01 -0.15691441154E+02 -0.29417151465E+02  0.97078555341E+02  0.91044217977E+02 0.  0.
          5    1    3    3  502    0  0.59084513862E+02 -0.17018458254E+02 -0.50692752922E+02  0.79798717398E+02  0.41800000000E+01 0. -1.
         -5    1    3    3    0  502 -0.54225897361E+02  0.32709899407E+02 -0.32229489636E+02  0.71180038396E+02  0.41800000000E+01 0. -1.
        -11    1    4    4    0    0  0.18938600812E+02 -0.41231547321E+02  0.78147981848E+01  0.46041092144E+02  0.00000000000E+00 0.  1.
         11    1    4    4    0    0 -0.23797217312E+02  0.25540106167E+02 -0.37231949650E+02  0.51037463197E+02  0.00000000000E+00 0. -1.
</event>
<event>
 8    1  0.6637272E-009  0.1443901E+03  0.7561462E-02  0.1207541E+00
          1   -1    0    0  501    0  0.00000000000E+00  0.00000000000E+00  0.18091176834E+03  0.18091176834E+03  0.00000000000E+00 0. -1.
         -1   -1    0    0    0  501 -0.00000000000E+00 -0.00000000000E+00 -0.12133965004E+03  0.12133965004E+03  0.00000000000E+00 0.  1.
         25    2    1    2    0    0 -0.27030594277E+02 -0.92515673980E+02  0.25369195954E+01  0.15793671613E+03  0.12509103638E+03 0.  0.
         23    2    1    2    0    0  0.27030594277E+02  0.92515673980E+02  0.57035198710E+02  0.14431470225E+03  0.91016022951E+02 0.  0.
          5    1    3    3  502    0  0.35955484497E+02 -0.87314793754E+02 -0.56513514485E+00  0.94522282301E+02  0.41800000000E+01 0.  1.
         -5    1    3    3    0  502 -0.62986078774E+02 -0.52008802261E+01  0.31020547402E+01  0.63414433831E+02  0.41800000000E+01 0.  1.
        -11    1    4    4    0    0  0.59705238950E+02  0.64358961428E+02  0.27335424356E+02  0.91945728008E+02  0.00000000000E+00 0.  1.
         11    1    4    4    0    0 -0.32674644672E+02  0.28156712551E+02  0.29699774354E+02  0.52368974239E+02  0.00000000000E+00 0. -1.
</event>
<event>
 8    1  0.6637272E-009  0.1042765E+03  0.7561462E-02  0.1271552E+00
         -3   -1    0    0    0  501 -0.00000000000E+00  0.00000000000E+00  0.21255508598E+03  0.21255508598E+03  0.00000000000E+00 0.  1.
          3   -1    0    0  501    0  0.00000000000E+00 -0.00000000000E+00 -0.72172606217E+02  0.72172606217E+02  0.00000000000E+00 0. -1.
         25    2    1    2    0    0 -0.30888144563E+01  0.40451170634E+02  0.28480874847E+02  0.13455415445E+03  0.12509125575E+03 0.  0.
         23    2    1    2    0    0  0.30888144563E+01 -0.40451170634E+02  0.11190160491E+03  0.15017353775E+03  0.91565737465E+02 0.  0.
          5    1    3    3  502    0 -0.22965716701E+01  0.84536842852E+02  0.31060601072E+02  0.90188610034E+02  0.41800000000E+01 0. -1.
         -5    1    3    3    0  502 -0.79224278614E+00 -0.44085672218E+02 -0.25797262248E+01  0.44365544411E+02  0.41800000000E+01 0. -1.
        -11    1    4    4    0    0  0.12135723262E+02 -0.58316475302E+02  0.11537982564E+03  0.12984833937E+03  0.00000000000E+00 0.  1.
         11    1    4    4    0    0 -0.90469088057E+01  0.17865304667E+02 -0.34782207315E+01  0.20325198382E+02  0.00000000000E+00 0. -1.
</event>
<event>
 8    1  0.6637272E-009  0.1551926E+03  0.7561462E-02  0.1194234E+00
          1   -1    0    0  501    0  0.00000000000E+00  0.00000000000E+00  0.25006254981E+03  0.25006254981E+03  0.00000000000E+00 0. -1.
         -1   -1    0    0    0  501 -0.00000000000E+00 -0.00000000000E+00 -0.20907445702E+03  0.20907445702E+03  0.00000000000E+00 0.  1.
         25    2    1    2    0    0 -0.82660944095E+02  0.10175182315E+03 -0.13175615974E+03  0.22403739145E+03  0.12508717737E+03 0.  0.
         23    2    1    2    0    0  0.82660944095E+02 -0.10175182315E+03  0.17274425253E+03  0.23509961539E+03  0.90801911777E+02 0.  0.
          5    1    3    3  502    0 -0.82225209112E+01  0.82025101828E+02 -0.12055761156E+03  0.14610728005E+03  0.41800000000E+01 0.  1.
         -5    1    3    3    0  502 -0.74438423184E+02  0.19726721326E+02 -0.11198548180E+02  0.77930111393E+02  0.41800000000E+01 0.  1.
        -11    1    4    4    0    0 -0.13973735834E+02 -0.18410046881E+02  0.38717588933E+01  0.23434710074E+02  0.00000000000E+00 0. -1.
         11    1    4    4    0    0  0.96634679929E+02 -0.83341776273E+02  0.16887249363E+03  0.21166490532E+03  0.00000000000E+00 0.  1.
</event>
<event>
 8    1  0.6637272E-009  0.6991653E+02  0.7561462E-02  0.1360377E+00
          2   -1    0    0  501    0  0.00000000000E+00  0.00000000000E+00  0.85863068644E+02  0.85863068644E+02  0.00000000000E+00 0. -1.
         -2   -1    0    0    0  501 -0.00000000000E+00 -0.00000000000E+00 -0.16638485183E+03  0.16638485183E+03  0.00000000000E+00 0.  1.
         25    2    1    2    0    0  0.48321529119E+02  0.93324604364E+01 -0.58198613450E+02  0.14647651602E+03  0.12508487576E+03 0.  0.
         23    2    1    2    0    0 -0.48321529119E+02 -0.93324604364E+01 -0.22323169739E+02  0.10577140445E+03  0.90924150248E+02 0.  0.
          5    1    3    3  502    0  0.55576401765E+02  0.13198863347E+02  0.25197061802E+02  0.62572444017E+02  0.41800000000E+01 0. -1.
         -5    1    3    3    0  502 -0.72548726459E+01 -0.38664029103E+01 -0.83395675253E+02  0.83904072008E+02  0.41800000000E+01 0. -1.
        -11    1    4    4    0    0 -0.58459090526E+02  0.15278907796E+01 -0.48299861713E+02  0.75846399762E+02  0.00000000000E+00 0.  1.
         11    1    4    4    0    0  0.10137561407E+02 -0.10860351216E+02  0.25976691974E+02  0.29925004690E+02  0.00000000000E+00 0. -1.
</event>
<event>
 8    1  0.6637272E-009  0.1319940E+03  0.7561462E-02  0.1224527E+00
         -1   -1    0    0    0  501 -0.00000000000E+00  0.00000000000E+00  0.45903297196E+02  0.45903297196E+02  0.00000000000E+00 0.  1.
          1   -1    0    0  501    0  0.00000000000E+00 -0.00000000000E+00 -0.53562499464E+03  0.53562499464E+03  0.00000000000E+00 0. -1.
         25    2    1    2    0    0 -0.22675733476E+02  0.87010214738E+02 -0.30156490309E+03  0.33863493479E+03  0.12508901603E+03 0.  0.
         23    2    1    2    0    0  0.22675733476E+02 -0.87010214738E+02 -0.18815679436E+03  0.24289335704E+03  0.12453608824E+03 0.  0.
          5    1    3    3  502    0  0.24981354761E+02  0.79240334193E+01 -0.37456100191E+01  0.26802245908E+02  0.41800000000E+01 0.  1.
         -5    1    3    3    0  502 -0.47657088236E+02  0.79086181318E+02 -0.29781929307E+03  0.31183268889E+03  0.41800000000E+01 0.  1.
        -11    1    4    4    0    0 -0.27903008247E+02  0.14617862827E+02 -0.80500537180E+02  0.86444180076E+02  0.00000000000E+00 0. -1.
         11    1    4    4    0    0  0.50578741723E+02 -0.10162807756E+03 -0.10765625718E+03  0.15644917697E+03  0.00000000000E+00 0.  1.
</event>
<event>
 8    1  0.6637272E-009  0.2044518E+03  0.7561462E-02  0.1146036E+00
          2   -1    0    0  501    0  0.00000000000E+00  0.00000000000E+00  0.20156678984E+04  0.20156678984E+04  0.00000000000E+00 0. -1.
         -2   -1    0    0    0  501 -0.00000000000E+00 -0.00000000000E+00 -0.28295718960E+02  0.28295718960E+02  0.00000000000E+00 0.  1.
         25    2    1    2    0    0 -0.14418597282E+03 -0.11043698890E+03  0.15234605444E+04  0.15393392178E+04  0.12508906380E+03 0.  0.
         23    2    1    2    0    0  0.14418597282E+03  0.11043698890E+03  0.46391163505E+03  0.50462439955E+03  0.80286089808E+02 0.  0.
          5    1    3    3  502    0 -0.43957902756E+01  0.24650610489E+02  0.14024999726E+03  0.14252897846E+03  0.41800000000E+01 0.  1.
         -5    1    3    3    0  502 -0.13979018255E+03 -0.13508759939E+03  0.13832105471E+04  0.13968102394E+04  0.41800000000E+01 0.  1.
        -11    1    4    4    0    0  0.10547906416E+03  0.48630168625E+02  0.35528082952E+03  0.37378495703E+03  0.00000000000E+00 0. -1.
         11    1    4    4    0    0  0.38706908664E+02  0.61806820274E+02  0.10863080552E+03  0.13083944252E+03  0.00000000000E+00 0.  1.
</event>
<event>
 8    1  0.6637272E-009  0.2481309E+03  0.7561462E-02  0.1114492E+00
         -2   -1    0    0    0  501 -0.00000000000E+00  0.00000000000E+00  0.53040237858E+02  0.53040237858E+02  0.00000000000E+00 0.  1.
          2   -1    0    0  501    0  0.00000000000E+00 -0.00000000000E+00 -0.12155221196E+04  0.12155221196E+04  0.00000000000E+00 0. -1.
         25    2    1    2    0    0 -0.16939563466E+03 -0.15282535172E+03 -0.53860382964E+03  0.59815829774E+03  0.12509514252E+03 0.  0.
         23    2    1    2    0    0  0.16939563466E+03  0.15282535172E+03 -0.62387805209E+03  0.67040405970E+03  0.90373172021E+02 0.  0.
          5    1    3    3  502    0 -0.97553520932E+02 -0.18987089708E+02 -0.29217720156E+03  0.30864573305E+03  0.41800000000E+01 0. -1.
         -5    1    3    3    0  502 -0.71842113729E+02 -0.13383826201E+03 -0.24642662809E+03  0.28951256469E+03  0.41800000000E+01 0. -1.
        -11    1    4    4    0    0  0.15753909367E+03  0.91111529823E+02 -0.48286960154E+03  0.51602609333E+03  0.00000000000E+00 0. -1.
         11    1    4    4    0    0  0.11856540988E+02  0.61713821897E+02 -0.14100845054E+03  0.15437796637E+03  0.00000000000E+00 0.  1.
</event>
<event>
 8    1  0.6637272E-009  0.1044529E+03  0.7561462E-02  0.1271201E+00
          4   -1    0    0  501    0  0.00000000000E+00  0.00000000000E+00  0.25021635182E+03  0.25021635182E+03  0.00000000000E+00 0. -1.
         -4   -1    0    0    0  501 -0.00000000000E+00 -0.00000000000E+00 -0.55998376996E+02  0.55998376996E+02  0.00000000000E+00 0.  1.
         25    2    1    2    0    0 -0.16139628871E+02 -0.34360869564E+02  0.14621969719E+03  0.19613280032E+03  0.12508684399E+03 0.  0.
         23    2    1    2    0    0  0.16139628871E+02  0.34360869564E+02  0.47998277632E+02  0.11008192849E+03  0.91504313270E+02 0.  0.
          5    1    3    3  502    0 -0.50891309155E+01  0.37291630064E+02  0.61606871860E+01  0.38366540018E+02  0.41800000000E+01 0. -1.
         -5    1    3    3    0  502 -0.11050497956E+02 -0.71652499629E+02  0.14005901000E+03  0.15776626031E+03  0.41800000000E+01 0. -1.
        -11    1    4    4    0    0 -0.13014555237E+02  0.58893531260E+02  0.35476853993E+02  0.69974522803E+02  0.00000000000E+00 0.  1.
         11    1    4    4    0    0  0.29154184109E+02 -0.24532661696E+02  0.12521423640E+02  0.40107405686E+02  0.00000000000E+00 0. -1.
</event>
<event>
 8    1  0.6637272E-009  0.7232588E+02  0.7561462E-02  0.1352358E+00
         -2   -1    0    0    0  501 -0.00000000000E+00  0.00000000000E+00  0.12594160160E+03  0.12594160160E+03  0.00000000000E+00 0.  1.
          2   -1    0    0  501    0  0.00000000000E+00 -0.00000000000E+00 -0.13960188749E+03  0.13960188749E+03  0.00000000000E+00 0. -1.
         25    2    1    2    0    0  0.80117763944E+01 -0.46165547649E+02 -0.68100104342E+02  0.14993590560E+03  0.12509078794E+03 0.  0.
         23    2    1    2    0    0 -0.80117763944E+01  0.46165547649E+02  0.54439818454E+02  0.11560758349E+03  0.90586826726E+02 0.  0.
          5    1    3    3  502    0  0.40230683642E+02 -0.30276200955E+02  0.20280339196E+02  0.54441903057E+02  0.41800000000E+01 0.  1.
         -5    1    3    3    0  502 -0.32218907248E+02 -0.15889346694E+02 -0.88380443537E+02  0.95494002547E+02  0.41800000000E+01 0.  1.
        -11    1    4    4    0    0 -0.17707255695E+02  0.96191562261E+01  0.71384116535E+02  0.74173898133E+02  0.00000000000E+00 0.  1.
         11    1    4    4    0    0  0.96954793003E+01  0.36546391422E+02 -0.16944298080E+02  0.41433685357E+02  0.00000000000E+00 0. -1.
</event>
<event>
 8    1  0.6637272E-009  0.1175598E+03  0.7561462E-02  0.1247178E+00
         -1   -1    0    0    0  501 -0.00000000000E+00  0.00000000000E+00  0.37405242311E+02  0.37405242311E+02  0.00000000000E+00 0.  1.
          1   -1    0    0  501    0  0.00000000000E+00 -0.00000000000E+00 -0.44884166977E+03  0.44884166977E+03  0.00000000000E+00 0. -1.
         25    2    1    2    0    0 -0.28763057473E+02 -0.53028254496E+02 -0.28761944471E+03  0.31939450157E+03  0.12509433803E+03 0.  0.
         23    2    1    2    0    0  0.28763057473E+02  0.53028254496E+02 -0.12381698275E+03  0.16685241051E+03  0.94179469241E+02 0.  0.
          5    1    3    3  502    0 -0.51642482082E+02  0.19929860565E+02 -0.74302693534E+02  0.92749706006E+02  0.41800000000E+01 0. -1.
         -5    1    3    3    0  502  0.22879424609E+02 -0.72958115061E+02 -0.21331675118E+03  0.22664479557E+03  0.41800000000E+01 0. -1.
        -11    1    4    4    0    0  0.58546123960E+02  0.35818272815E+02 -0.11026625573E+03  0.12988165556E+03  0.00000000000E+00 0.  1.
         11    1    4    4    0    0 -0.29783066487E+02  0.17209981681E+02 -0.13550727015E+02  0.36970754949E+02  0.00000000000E+00 0. -1.
</event>
<event>
 8    1  0.6637272E-009  0.8775345E+02  0.7561462E-02  0.1308385E+00
          2   -1    0    0  501    0  0.00000000000E+00  0.00000000000E+00  0.65199804705E+03  0.65199804705E+03  0.00000000000E+00 0.  1.
         -2   -1    0    0    0  501 -0.00000000000E+00 -0.00000000000E+00 -0.24850168739E+02  0.24850168739E+02  0.00000000000E+00 0. -1.
         25    2    1    2    0    0  0.79032258432E+01 -0.54913671656E+02  0.45670471866E+03  0.47676454991E+03  0.12508902307E+03 0.  0.
         23    2    1    2    0    0 -0.79032258432E+01  0.54913671656E+02  0.17044315965E+03  0.20008366587E+03  0.88907988199E+02 0.  0.
          5    1    3    3  502    0  0.16175639227E+02  0.25912917105E+02  0.28607758789E+03  0.28773423375E+03  0.41800000000E+01 0.  1.
         -5    1    3    3    0  502 -0.82724133840E+01 -0.80826588761E+02  0.17062713076E+03  0.18903031616E+03  0.41800000000E+01 0.  1.
        -11    1    4    4    0    0 -0.17902867164E+02  0.19287190077E+02  0.66930906923E+00  0.26324063675E+02  0.00000000000E+00 0. -1.
         11    1    4    4    0    0  0.99996413204E+01  0.35626481579E+02  0.16977385058E+03  0.17375960220E+03  0.00000000000E+00 0.  1.
</event>
<event>
 8    1  0.6637272E-009  0.1002644E+03  0.7561462E-02  0.1279741E+00
         -2   -1    0    0    0  501 -0.00000000000E+00  0.00000000000E+00  0.40736476841E+03  0.40736476841E+03  0.00000000000E+00 0.  1.
          2   -1    0    0  501    0  0.00000000000E+00 -0.00000000000E+00 -0.55502400635E+02  0.55502400635E+02  0.00000000000E+00 0. -1.
         25    2    1    2    0    0  0.74991050646E+01  0.29613064841E+02  0.34373846156E+03  0.36706540806E+03  0.12509082160E+03 0.  0.
         23    2    1    2    0    0 -0.74991050646E+01 -0.29613064841E+02  0.81239062092E+01  0.95801760984E+02  0.90436770008E+02 0.  0.
          5    1    3    3  502    0 -0.32558133240E+02  0.66428518860E+02  0.20522952932E+03  0.21819581174E+03  0.41800000000E+01 0.  1.
         -5    1    3    3    0  502  0.40057238304E+02 -0.36815454019E+02  0.13850893224E+03  0.14886959631E+03  0.41800000000E+01 0.  1.
        -11    1    4    4    0    0  0.27970306515E+02 -0.43183134526E+01  0.34694133612E+02  0.44773527722E+02  0.00000000000E+00 0.  1.
         11    1    4    4    0    0 -0.35469411580E+02 -0.25294751388E+02 -0.26570227403E+02  0.51028233262E+02  0.00000000000E+00 0. -1.
</event>
<event>
 8    1  0.6637272E-009  0.9868862E+02  0.7561462E-02  0.1283078E+00
         -1   -1    0    0    0  501 -0.00000000000E+00  0.00000000000E+00  0.50311468168E+02  0.50311468168E+02  0.00000000000E+00 0.  1.
          1   -1    0    0  501    0  0.00000000000E+00 -0.00000000000E+00 -0.36303802426E+03  0.36303802426E+03  0.00000000000E+00 0. -1.
         25    2    1    2    0    0  0.12952113602E+02 -0.72679104283E+02 -0.12372085654E+03  0.19080049877E+03  0.12509184842E+03 0.  0.
         23    2    1    2    0    0 -0.12952113602E+02  0.72679104283E+02 -0.18900569956E+03  0.22254899367E+03  0.91405091054E+02 0.  0.
          5    1    3    3  502    0  0.28957083032E+02 -0.27767821560E+02 -0.13561274080E+03  0.14148446006E+03  0.41800000000E+01 0. -1.
         -5    1    3    3    0  502 -0.16004969430E+02 -0.44911282723E+02  0.11891884260E+02  0.49316038705E+02  0.41800000000E+01 0. -1.
        -11    1    4    4    0    0  0.27701294201E+02  0.21644772993E+01 -0.17850348395E+02  0.33025468963E+02  0.00000000000E+00 0.  1.
         11    1    4    4    0    0 -0.40653407803E+02  0.70514626984E+02 -0.17115535116E+03  0.18952352470E+03  0.00000000000E+00 0. -1.
</event>
<event>
 8    1  0.6637272E-009  0.1453682E+03  0.7561462E-02  0.1206283E+00
         -2   -1    0    0    0  501 -0.00000000000E+00  0.00000000000E+00  0.14357743583E+03  0.14357743583E+03  0.00000000000E+00 0.  1.
          2   -1    0    0  501    0  0.00000000000E+00 -0.00000000000E+00 -0.34936559959E+03  0.34936559959E+03  0.00000000000E+00 0. -1.
         25    2    1    2    0    0  0.84598122982E+02 -0.10982623588E+03 -0.25798884046E+03  0.31847742420E+03  0.12510389053E+03 0.  0.
         23    2    1    2    0    0 -0.84598122982E+02  0.10982623588E+03  0.52200676694E+02  0.17446561122E+03  0.92166666164E+02 0.  0.
          5    1    3    3  502    0  0.24337393596E+01 -0.49918265547E+02 -0.18896503330E+03  0.19550706517E+03  0.41800000000E+01 0. -1.
         -5    1    3    3    0  502  0.82164383623E+02 -0.59907970332E+02 -0.69023807161E+02  0.12297035903E+03  0.41800000000E+01 0. -1.
        -11    1    4    4    0    0 -0.47804286934E+02  0.67764698029E+02  0.77148759826E+02  0.11326621425E+03  0.00000000000E+00 0.  1.
         11    1    4    4    0    0 -0.36793836049E+02  0.42061537851E+02 -0.24948083131E+02  0.61199396970E+02  0.00000000000E+00 0. -1.
</event>
<event>
 8    1  0.6637272E-009  0.9738906E+02  0.7561462E-02  0.1285884E+00
          1   -1    0    0  501    0  0.00000000000E+00  0.00000000000E+00  0.13734590492E+03  0.13734590492E+03  0.00000000000E+00 0. -1.
         -1   -1    0    0    0  501 -0.00000000000E+00 -0.00000000000E+00 -0.16640500870E+03  0.16640500870E+03  0.00000000000E+00 0.  1.
         25    2    1    2    0    0 -0.37087881473E+02  0.67204413091E+02 -0.87745912836E+02  0.17099726745E+03  0.12509506851E+03 0.  0.
         23    2    1    2    0    0  0.37087881473E+02 -0.67204413091E+02  0.58686809057E+02  0.13275364617E+03  0.91035404777E+02 0.  0.
          5    1    3    3  502    0 -0.29903962726E+02  0.52884461960E+02  0.18361922817E+02  0.63605392170E+02  0.41800000000E+01 0. -1.
         -5    1    3    3    0  502 -0.71839187464E+01  0.14319951131E+02 -0.10610783565E+03  0.10739187528E+03  0.41800000000E+01 0. -1.
        -11    1    4    4    0    0 -0.60734237793E+01 -0.73460546213E+02  0.47632512019E+02  0.87762147464E+02  0.00000000000E+00 0. -1.
         11    1    4    4    0    0  0.43161305252E+02  0.62561331223E+01  0.11054297038E+02  0.44991498705E+02  0.00000000000E+00 0.  1.
</event>
<event>
 8    1  0.6637272E-009  0.1614007E+03  0.7561462E-02  0.1187124E+00
          1   -1    0    0  501    0  0.00000000000E+00  0.00000000000E+00  0.12238094859E+03  0.12238094859E+03  0.00000000000E+00 0. -1.
         -1   -1    0    0    0  501 -0.00000000000E+00 -0.00000000000E+00 -0.24501909715E+03  0.24501909715E+03  0.00000000000E+00 0.  1.
         25    2    1    2    0    0  0.91282463217E+02 -0.96592085299E+02 -0.69859716658E+02  0.19542566341E+03  0.12509312881E+03 0.  0.
         23    2    1    2    0    0 -0.91282463217E+02  0.96592085299E+02 -0.52778431899E+02  0.17197438233E+03  0.95535889961E+02 0.  0.
          5    1    3    3  502    0  0.11692059983E+03 -0.10132445103E+03 -0.50929496652E+02  0.16293666583E+03  0.41800000000E+01 0.  1.
         -5    1    3    3    0  502 -0.25638136616E+02  0.47323657306E+01 -0.18930220005E+02  0.32488997584E+02  0.41800000000E+01 0.  1.
        -11    1    4    4    0    0 -0.70304430598E+02  0.39146123369E+02 -0.71886983331E+02  0.10790213301E+03  0.00000000000E+00 0.  1.
         11    1    4    4    0    0 -0.20978032619E+02  0.57445961930E+02  0.19108551432E+02  0.64072249316E+02  0.00000000000E+00 0. -1.
</event>
<event>
 8    1  0.6637272E-009  0.5433956E+03  0.7561462E-02  0.1003034E+00
         -1   -1    0    0    0  501 -0.00000000000E+00  0.00000000000E+00  0.33593590157E+03  0.33593590157E+03  0.00000000000E+00 0.  1.
          1   -1    0    0  501    0  0.00000000000E+00 -0.00000000000E+00 -0.12662380893E+04  0.12662380893E+04  0.00000000000E+00 0. -1.
         25    2    1    2    0    0 -0.47948077387E+03 -0.24027559364E+03 -0.90309568698E+03  0.10577627672E+04  0.12508428489E+03 0.  0.
         23    2    1    2    0    0  0.47948077387E+03  0.24027559364E+03 -0.27206500778E+02  0.54441122375E+03  0.89494209015E+02 0.  0.
          5    1    3    3  502    0  0.62190025158E+01  0.18829863433E+01 -0.16819700483E+02  0.18509358557E+02  0.41800000000E+01 0.  1.
         -5    1    3    3    0  502 -0.48569977639E+03 -0.24215857998E+03 -0.88627598650E+03  0.10392534086E+04  0.41800000000E+01 0.  1.
        -11    1    4    4    0    0  0.40028903068E+03  0.19901169316E+03 -0.56141523353E+02  0.45054282010E+03  0.00000000000E+00 0.  1.
         11    1    4    4    0    0  0.79191743190E+02  0.41263900480E+02  0.28935022575E+02  0.93868403650E+02  0.00000000000E+00 0. -1.
</event>
<event>
 8    1  0.6637272E-009  0.1193364E+03  0.7561462E-02  0.1244196E+00
          1   -1    0    0  501    0  0.00000000000E+00  0.00000000000E+00  0.77704349257E+03  0.77704349257E+03  0.00000000000E+00 0. -1.
         -1   -1    0    0    0  501 -0.00000000000E+00 -0.00000000000E+00 -0.32663316344E+02  0.32663316344E+02  0.00000000000E+00 0.  1.
         25    2    1    2    0    0 -0.49555345759E+02 -0.20783738252E+02  0.66694087951E+03  0.68069506736E+03  0.12509173396E+03 0.  0.
         23    2    1    2    0    0  0.49555345759E+02  0.20783738252E+02  0.77439296723E+02  0.12901174156E+03  0.88087960094E+02 0.  0.
          5    1    3    3  502    0 -0.52214194806E+02 -0.69468473806E+02  0.40861505413E+03  0.41777497035E+03  0.41800000000E+01 0. -1.
         -5    1    3    3    0  502  0.26588490468E+01  0.48684735553E+02  0.25832582538E+03  0.26292009701E+03  0.41800000000E+01 0. -1.
        -11    1    4    4    0    0  0.20054772192E+02  0.54416998946E+02  0.49656438980E+02  0.76348972450E+02  0.00000000000E+00 0.  1.
         11    1    4    4    0    0  0.29500573567E+02 -0.33633260693E+02  0.27782857743E+02  0.52662769107E+02  0.00000000000E+00 0. -1.
</event>
<event>
 8    1  0.6637272E-009  0.1248020E+03  0.7561462E-02  0.1235379E+00
         -2   -1    0    0    0  501 -0.00000000000E+00  0.00000000000E+00  0.31347848909E+03  0.31347848909E+03  0.00000000000E+00 0.  1.
          2   -1    0    0  501    0  0.00000000000E+00 -0.00000000000E+00 -0.92829237595E+02  0.92829237595E+02  0.00000000000E+00 0. -1.
         25    2    1    2    0    0  0.31685742485E+02  0.78323190397E+02  0.23703833475E+03  0.28101713829E+03  0.12507978031E+03 0.  0.
         23    2    1    2    0    0 -0.31685742485E+02 -0.78323190397E+02 -0.16389083257E+02  0.12529058839E+03  0.91052847614E+02 0.  0.
          5    1    3    3  502    0  0.68937844468E+02  0.38003495393E+02  0.71002247487E+02  0.10609186401E+03  0.41800000000E+01 0.  1.
         -5    1    3    3    0  502 -0.37252101983E+02  0.40319695004E+02  0.16603608726E+03  0.17492527428E+03  0.41800000000E+01 0.  1.
        -11    1    4    4    0    0 -0.47350964712E+02 -0.13796935612E+02  0.15405916526E+02  0.51670219232E+02  0.00000000000E+00 0.  1.
         11    1    4    4    0    0  0.15665222227E+02 -0.64526254785E+02 -0.31794999783E+02  0.73620369159E+02  0.00000000000E+00 0. -1.
</event>
<event>
 8    1  0.6637272E-009  0.9897271E+02  0.7561462E-02  0.1282471E+00
         -2   -1    0    0    0  501 -0.00000000000E+00  0.00000000000E+00  0.15156110758E+03  0.15156110758E+03  0.00000000000E+00 0.  1.
          2   -1    0    0  501    0  0.00000000000E+00 -0.00000000000E+00 -0.13310417574E+03  0.13310417574E+03  0.00000000000E+00 0. -1.
         25    2    1    2    0    0 -0.58614514407E+02 -0.24365673559E+02 -0.54729293715E+02  0.15057397912E+03  0.12509148752E+03 0.  0.
         23    2    1    2    0    0  0.58614514407E+02  0.24365673559E+02  0.73186225563E+02  0.13409130420E+03  0.92708720749E+02 0.  0.
          5    1    3    3  502    0  0.65079867033E+01  0.13140966193E+02 -0.71794880859E+02  0.73396295553E+02  0.41800000000E+01 0. -1.
         -5    1    3    3    0  502 -0.65122501111E+02 -0.37506639751E+02  0.17065587144E+02  0.77177683568E+02  0.41800000000E+01 0. -1.
        -11    1    4    4    0    0  0.57070722635E+02 -0.21907396580E+02  0.21745641188E+02  0.64883544275E+02  0.00000000000E+00 0.  1.
         11    1    4    4    0    0  0.15437917719E+01  0.46273070138E+02  0.51440584375E+02  0.69207759926E+02  0.00000000000E+00 0. -1.
</event>
<event>
 8    1  0.6637272E-009  0.1002505E+03  0.7561462E-02  0.1279770E+00
         -4   -1    0    0    0  501 -0.00000000000E+00  0.00000000000E+00  0.12458016975E+04  0.12458016975E+04  0.00000000000E+00 0.  1.
          4   -1    0    0  501    0  0.00000000000E+00 -0.00000000000E+00 -0.97547341727E+01  0.97547341727E+01  0.00000000000E+00 0. -1.
         25    2    1    2    0    0 -0.14193201176E+02  0.22553607680E+02  0.79104653000E+03  0.80131982450E+03  0.12509490934E+03 0.  0.
         23    2    1    2    0    0  0.14193201176E+02 -0.22553607680E+02  0.44500043329E+03  0.45423660713E+03  0.87151577434E+02 0.  0.
          5    1    3    3  502    0  0.14291873876E+02 -0.38937122153E+02  0.52830657175E+03  0.52994873648E+03  0.41800000000E+01 0. -1.
         -5    1    3    3    0  502 -0.28485075052E+02  0.61490729832E+02  0.26273995824E+03  0.27137108802E+03  0.41800000000E+01 0. -1.
        -11    1    4    4    0    0  0.42571155989E+02  0.13842501548E+02  0.23480879288E+03  0.23903783672E+03  0.00000000000E+00 0.  1.
         11    1    4    4    0    0 -0.28377954813E+02 -0.36396109227E+02  0.21019164040E+03  0.21519877040E+03  0.00000000000E+00 0. -1.
</event>
<event>
 8    1  0.6637272E-009  0.9432466E+02  0.7561462E-02  0.1292704E+00
          2   -1    0    0  501    0  0.00000000000E+00  0.00000000000E+00  0.89964015591E+03  0.89964015591E+03  0.00000000000E+00 0. -1.
         -2   -1    0    0    0  501 -0.00000000000E+00 -0.00000000000E+00 -0.16851160730E+02  0.16851160730E+02  0.00000000000E+00 0.  1.
         25    2    1    2    0    0 -0.20327062658E+01  0.53190030322E+02  0.41057554498E+03  0.43249259694E+03  0.12507700450E+03 0.  0.
         23    2    1    2    0    0  0.20327062658E+01 -0.53190030322E+02  0.47221345020E+03  0.48399871970E+03  0.91847193197E+02 0.  0.
          5    1    3    3  502    0  0.27861981997E+02  0.20563677219E+01  0.33590523854E+03  0.33709096749E+03  0.41800000000E+01 0. -1.
         -5    1    3    3    0  502 -0.29894688263E+02  0.51133662600E+02  0.74670306441E+02  0.95401629448E+02  0.41800000000E+01 0. -1.
        -11    1    4    4    0    0 -0.28882461262E+02  0.10089798867E+02  0.82877255923E+02  0.88343874485E+02  0.00000000000E+00 0.  1.
         11    1    4    4    0    0  0.30915167528E+02 -0.63279829189E+02  0.38933619427E+03  0.39565484521E+03  0.00000000000E+00 0. -1.
</event>
<event>
 8    1  0.6637272E-009  0.9822448E+02  0.7561462E-02  0.1284075E+00
          1   -1    0    0  501    0  0.00000000000E+00  0.00000000000E+00  0.12225587680E+03  0.12225587680E+03  0.00000000000E+00 0. -1.
         -1   -1    0    0    0  501 -0.00000000000E+00 -0.00000000000E+00 -0.12403824373E+03  0.12403824373E+03  0.00000000000E+00 0.  1.
         25    2    1    2    0    0 -0.25527352216E+02  0.56881757207E+02 -0.12962118637E+02  0.14036738053E+03  0.12509118667E+03 0.  0.
         23    2    1    2    0    0  0.25527352216E+02 -0.56881757207E+02  0.11179751707E+02  0.10592674001E+03  0.84901751372E+02 0.  0.
          5    1    3    3  502    0  0.74207979799E+01 -0.34654923428E+02 -0.23030736515E+02  0.42472569794E+02  0.41800000000E+01 0.  1.
         -5    1    3    3    0  502 -0.32948150195E+02  0.91536680635E+02  0.10068617878E+02  0.97894810736E+02  0.41800000000E+01 0.  1.
        -11    1    4    4    0    0  0.18318203087E+02 -0.26859120506E+02  0.47937370834E+02  0.57922020348E+02  0.00000000000E+00 0. -1.
         11    1    4    4    0    0  0.72091491282E+01 -0.30022636701E+02 -0.36757619127E+02  0.48004719659E+02  0.00000000000E+00 0.  1.
</event>
<event>
 8    1  0.6637272E-009  0.1274365E+03  0.7561462E-02  0.1231310E+00
          1   -1    0    0  501    0  0.00000000000E+00  0.00000000000E+00  0.58292780127E+03  0.58292780127E+03  0.00000000000E+00 0. -1.
         -1   -1    0    0    0  501 -0.00000000000E+00 -0.00000000000E+00 -0.37979187294E+02  0.37979187294E+02  0.00000000000E+00 0.  1.
         25    2    1    2    0    0 -0.78730638505E+02 -0.59885934841E+02  0.25182590844E+03  0.29807470766E+03  0.12508958612E+03 0.  0.
         23    2    1    2    0    0  0.78730638505E+02  0.59885934841E+02  0.29312270554E+03  0.32283228090E+03  0.92276337482E+02 0.  0.
          5    1    3    3  502    0  0.31260724660E+02 -0.21878875893E+02  0.34943809827E+02  0.51908191664E+02  0.41800000000E+01 0. -1.
         -5    1    3    3    0  502 -0.10999136316E+03 -0.38007058947E+02  0.21688209861E+03  0.24616651600E+03  0.41800000000E+01 0. -1.
        -11    1    4    4    0    0  0.46002017673E+02  0.25618408068E+02  0.42210979654E+02  0.67485222570E+02  0.00000000000E+00 0.  1.
         11    1    4    4    0    0  0.32728620832E+02  0.34267526772E+02  0.25091172589E+03  0.25534705833E+03  0.00000000000E+00 0. -1.
</event>
<event>
 8    1  0.6637272E-009  0.1076090E+03  0.7561462E-02  0.1265063E+00
          2   -1    0    0  501    0  0.00000000000E+00  0.00000000000E+00  0.97112998873E+03  0.97112998873E+03  0.00000000000E+00 0. -1.
         -2   -1    0    0    0  501 -0.00000000000E+00 -0.00000000000E+00 -0.14589800302E+02  0.14589800302E+02  0.00000000000E+00 0.  1.
         25    2    1    2    0    0  0.21540437239E+02 -0.27011470439E+02  0.64751805459E+03  0.66039444704E+03  0.12509030609E+03 0.  0.
         23    2    1    2    0    0 -0.21540437239E+02  0.27011470439E+02  0.30902213384E+03  0.32532534200E+03  0.95646688255E+02 0.  0.
          5    1    3    3  502    0  0.15230297842E+02  0.45763725887E+02  0.37924733820E+03  0.38232485730E+03  0.41800000000E+01 0.  1.
         -5    1    3    3    0  502  0.63101393974E+01 -0.72775196326E+02  0.26827071640E+03  0.27806958973E+03  0.41800000000E+01 0.  1.
        -11    1    4    4    0    0 -0.55239262581E+02  0.10979671133E+02  0.24343238741E+03  0.24986247527E+03  0.00000000000E+00 0. -1.
         11    1    4    4    0    0  0.33698825342E+02  0.16031799306E+02  0.65589746427E+02  0.75462866727E+02  0.00000000000E+00 0.  1.
</event>
<event>
 7    1  0.6637272E-009  0.1320194E+03  0.7561462E-02  0.1224490E+00
          2   -1    0    0  501    0  0.00000000000E+00  0.00000000000E+00  0.29714203902E+03  0.29714203902E+03  0.00000000000E+00 0. -1.
         -2   -1    0    0    0  501 -0.00000000000E+00 -0.00000000000E+00 -0.90334667623E+02  0.90334667623E+02  0.00000000000E+00 0.  1.
         23    2    1    2    0    0 -0.11775160563E+01  0.94203220065E+02  0.56170855008E+01  0.13247068822E+03  0.92958584178E+02 0.  0.
          5    1    1    2  502    0 -0.42239273821E+02 -0.71765429237E+02  0.18571382836E+03  0.20357193208E+03  0.41800000000E+01 0.  1.
         -5    1    1    2    0  502  0.43416789878E+02 -0.22437790828E+02  0.15476457536E+02  0.51434086347E+02  0.41800000000E+01 0.  1.
        -11    1    3    3    0    0  0.41310180162E+02  0.19525913567E+02  0.86284623105E+01  0.46499920941E+02  0.00000000000E+00 0.  1.
         11    1    3    3    0    0 -0.42487696218E+02  0.74677306498E+02 -0.30113768097E+01  0.85970767276E+02  0.00000000000E+00 0. -1.
</event>
<event>
 8    1  0.6637272E-009  0.1076917E+03  0.7561462E-02  0.1264905E+00
         -2   -1    0    0    0  501 -0.00000000000E+00  0.00000000000E+00  0.15500634748E+02  0.15500634748E+02  0.00000000000E+00 0.  1.
          2   -1    0    0  501    0  0.00000000000E+00 -0.00000000000E+00 -0.97093930959E+03  0.97093930959E+03  0.00000000000E+00 0. -1.
         25    2    1    2    0    0 -0.41139110817E+02  0.86635374164E+01 -0.70250413140E+03  0.71478867989E+03  0.12507325436E+03 0.  0.
         23    2    1    2    0    0  0.41139110817E+02 -0.86635374164E+01 -0.25293454344E+03  0.27165126444E+03  0.89727603815E+02 0.  0.
          5    1    3    3  502    0 -0.83321699109E+02  0.23999472084E+02 -0.45189387626E+03  0.46015652555E+03  0.41800000000E+01 0. -1.
         -5    1    3    3    0  502  0.42182588293E+02 -0.15335934668E+02 -0.25061025514E+03  0.25463215434E+03  0.41800000000E+01 0. -1.
        -11    1    4    4    0    0  0.12157677561E+02  0.31616155485E+02 -0.37319446760E+02  0.50399717438E+02  0.00000000000E+00 0.  1.
         11    1    4    4    0    0  0.28981433256E+02 -0.40279692901E+02 -0.21561509668E+03  0.22125154700E+03  0.00000000000E+00 0. -1.
</event>
<event>
 8    1  0.6637272E-009  0.6459467E+02  0.7561462E-02  0.1379503E+00
         -2   -1    0    0    0  501 -0.00000000000E+00  0.00000000000E+00  0.39714203656E+02  0.39714203656E+02  0.00000000000E+00 0. -1.
          2   -1    0    0  501    0  0.00000000000E+00 -0.00000000000E+00 -0.32888356591E+03  0.32888356591E+03  0.00000000000E+00 0.  1.
         25    2    1    2    0    0 -0.47828741846E+01  0.32240857038E+02 -0.21758472860E+03  0.25308619585E+03  0.12508860726E+03 0.  0.
         23    2    1    2    0    0  0.47828741846E+01 -0.32240857038E+02 -0.71584633660E+02  0.11551157371E+03  0.84594415521E+02 0.  0.
          5    1    3    3  502    0 -0.15790508153E+02  0.50537833500E+02 -0.22415204762E+03  0.23035847198E+03  0.41800000000E+01 0. -1.
         -5    1    3    3    0  502  0.11007633969E+02 -0.18296976463E+02  0.65673190224E+01  0.22727723872E+02  0.41800000000E+01 0. -1.
        -11    1    4    4    0    0  0.22106169851E+02 -0.29369671277E+02 -0.85525633394E+02  0.93090785279E+02  0.00000000000E+00 0.  1.
         11    1    4    4    0    0 -0.17323295667E+02 -0.28711857612E+01  0.13940999734E+02  0.22420788434E+02  0.00000000000E+00 0. -1.
</event>
<event>
 8    1  0.6637272E-009  0.1941779E+03  0.7561462E-02  0.1154746E+00
         -1   -1    0    0    0  501 -0.00000000000E+00  0.00000000000E+00  0.34623382713E+03  0.34623382713E+03  0.00000000000E+00 0.  1.
          1   -1    0    0  501    0  0.00000000000E+00 -0.00000000000E+00 -0.16776540550E+03  0.16776540550E+03  0.00000000000E+00 0. -1.
         25    2    1    2    0    0  0.53134577140E+02 -0.15582494655E+03 -0.56021096675E+02  0.21422122469E+03  0.12509065744E+03 0.  0.
         23    2    1    2    0    0 -0.53134577140E+02  0.15582494655E+03  0.23448951830E+03  0.29977800794E+03  0.88186294832E+02 0.  0.
          5    1    3    3  502    0 -0.35886011290E+02 -0.65855751202E+02  0.15092412520E+01  0.75130126992E+02  0.41800000000E+01 0.  1.
         -5    1    3    3    0  502  0.89020588430E+02 -0.89969195349E+02 -0.57530337927E+02  0.13909109770E+03  0.41800000000E+01 0.  1.
        -11    1    4    4    0    0 -0.66295882887E+02  0.58565998119E+02  0.10495911006E+03  0.13726447104E+03  0.00000000000E+00 0. -1.
         11    1    4    4    0    0  0.13161305747E+02  0.97258948432E+02  0.12953040824E+03  0.16251353690E+03  0.00000000000E+00 0.  1.
</event>
<event>
 8    1  0.6637272E-009  0.2896617E+03  0.7561462E-02  0.1090526E+00
         -2   -1    0    0    0  501 -0.00000000000E+00  0.00000000000E+00  0.81921013998E+02  0.81921013998E+02  0.00000000000E+00 0.  1.
          2   -1    0    0  501    0  0.00000000000E+00 -0.00000000000E+00 -0.11713054223E+04  0.11713054223E+04  0.00000000000E+00 0. -1.
         25    2    1    2    0    0  0.21485910716E+03  0.17876598701E+03 -0.71367027549E+03  0.77659191786E+03  0.12509208899E+03 0.  0.
         23    2    1    2    0    0 -0.21485910716E+03 -0.17876598701E+03 -0.37571413286E+03  0.47663451848E+03  0.88868670187E+02 0.  0.
          5    1    3    3  502    0  0.17798874927E+03  0.17342750069E+03 -0.48611402759E+03  0.54596832608E+03  0.41800000000E+01 0. -1.
         -5    1    3    3    0  502  0.36870357881E+02  0.53384863171E+01 -0.22755624790E+03  0.23062359178E+03  0.41800000000E+01 0. -1.
        -11    1    4    4    0    0 -0.16856488520E+03 -0.85145802806E+02 -0.24140746467E+03  0.30649876387E+03  0.00000000000E+00 0. -1.
         11    1    4    4    0    0 -0.46294221958E+02 -0.93620184203E+02 -0.13430666818E+03  0.17013575461E+03  0.00000000000E+00 0.  1.
</event>
<event>
 8    1  0.6637272E-009  0.1118263E+03  0.7561462E-02  0.1257225E+00
         -1   -1    0    0    0  501 -0.00000000000E+00  0.00000000000E+00  0.39790911682E+02  0.39790911682E+02  0.00000000000E+00 0.  1.
          1   -1    0    0  501    0  0.00000000000E+00 -0.00000000000E+00 -0.46570492662E+03  0.46570492662E+03  0.00000000000E+00 0. -1.
         25    2    1    2    0    0  0.79668244955E+02 -0.95101595630E+01 -0.20088629185E+03  0.24988031973E+03  0.12508956610E+03 0.  0.
         23    2    1    2    0    0 -0.79668244955E+02  0.95101595630E+01 -0.22502772308E+03  0.25561551857E+03  0.90908441776E+02 0.  0.
          5    1    3    3  502    0  0.10424732184E+03  0.18456377383E+02 -0.11605918248E+03  0.15714753646E+03  0.41800000000E+01 0.  1.
         -5    1    3    3    0  502 -0.24579076888E+02 -0.27966536946E+02 -0.84827109368E+02  0.92732783271E+02  0.41800000000E+01 0.  1.
        -11    1    4    4    0    0 -0.51929132075E+02  0.64136515498E+01 -0.22136502019E+03  0.22746481453E+03  0.00000000000E+00 0. -1.
         11    1    4    4    0    0 -0.27739112880E+02  0.30965080131E+01 -0.36627028919E+01  0.28150704036E+02  0.00000000000E+00 0.  1.
</event>
<event>
 8    1  0.6637272E-009  0.1286850E+03  0.7561462E-02  0.1229420E+00
          2   -1    0    0  501    0  0.00000000000E+00  0.00000000000E+00  0.47019013381E+03  0.47019013381E+03  0.00000000000E+00 0.  1.
         -2   -1    0    0    0  501 -0.00000000000E+00 -0.00000000000E+00 -0.44325895442E+02  0.44325895442E+02  0.00000000000E+00 0. -1.
         25    2    1    2    0    0 -0.13767344766E+02 -0.89945279359E+02  0.31825657086E+03  0.35385637008E+03  0.12508953870E+03 0.  0.
         23    2    1    2    0    0  0.13767344766E+02  0.89945279359E+02  0.10760766752E+03  0.16065965918E+03  0.77151946947E+02 0.  0.
          5    1    3    3  502    0  0.11771136750E+01  0.31383568611E+02  0.52833161043E+02  0.61604620616E+02  0.41800000000E+01 0.  1.
         -5    1    3    3    0  502 -0.14944458441E+02 -0.12132884797E+03  0.26542340981E+03  0.29225174946E+03  0.41800000000E+01 0.  1.
        -11    1    4    4    0    0  0.23836116639E+02  0.15920793498E+02 -0.11828493386E+01  0.28688521304E+02  0.00000000000E+00 0. -1.
         11    1    4    4    0    0 -0.10068771873E+02  0.74024485861E+02  0.10879051685E+03  0.13197113787E+03  0.00000000000E+00 0.  1.
</event>
<event>
 8    1  0.6637272E-009  0.7339240E+02  0.7561462E-02  0.1348923E+00
          1   -1    0    0  501    0  0.00000000000E+00  0.00000000000E+00  0.56520582267E+03  0.56520582267E+03  0.00000000000E+00 0. -1.
         -1   -1    0    0    0  501 -0.00000000000E+00 -0.00000000000E+00 -0.23292156843E+02  0.23292156843E+02  0.00000000000E+00 0.  1.
         25    2    1    2    0    0  0.27289872226E+02  0.22075985377E+02  0.32933287703E+03  0.35403360236E+03  0.12509021325E+03 0.  0.
         23    2    1    2    0    0 -0.27289872226E+02 -0.22075985377E+02  0.21258078879E+03  0.23446437715E+03  0.92470893431E+02 0.  0.
          5    1    3    3  502    0  0.14656701090E+02 -0.68608148688E+01 -0.55714112271E+01  0.17618248794E+02  0.41800000000E+01 0.  1.
         -5    1    3    3    0  502  0.12633171136E+02  0.28936800246E+02  0.33490428826E+03  0.33641535357E+03  0.41800000000E+01 0.  1.
        -11    1    4    4    0    0 -0.48612459510E+02  0.18797315542E+02  0.12649074987E+03  0.13680796794E+03  0.00000000000E+00 0.  1.
         11    1    4    4    0    0  0.21322587284E+02 -0.40873300920E+02  0.86090038928E+02  0.97656409207E+02  0.00000000000E+00 0. -1.
</event>
<event>
 8    1  0.6637272E-009  0.1505618E+03  0.7561462E-02  0.1199784E+00
          2   -1    0    0  501    0  0.00000000000E+00  0.00000000000E+00  0.68463247545E+03  0.68463247545E+03  0.00000000000E+00 0.  1.
         -2   -1    0    0    0  501 -0.00000000000E+00 -0.00000000000E+00 -0.36963998133E+02  0.36963998133E+02  0.00000000000E+00 0. -1.
         25    2    1    2    0    0 -0.96877059684E+02  0.56257183760E+02  0.27357636317E+03  0.32099869911E+03  0.12508438321E+03 0.  0.
         23    2    1    2    0    0  0.96877059684E+02 -0.56257183760E+02  0.37409211415E+03  0.40059777448E+03  0.89351170310E+02 0.  0.
          5    1    3    3  502    0 -0.14518807946E+02  0.77482132795E+02  0.97811329767E+02  0.12569329862E+03  0.41800000000E+01 0. -1.
         -5    1    3    3    0  502 -0.82358251738E+02 -0.21224949035E+02  0.17576503341E+03  0.19530540049E+03  0.41800000000E+01 0. -1.
        -11    1    4    4    0    0  0.15416948418E+02 -0.53334090042E+02  0.96989124598E+02  0.11175463189E+03  0.00000000000E+00 0. -1.
         11    1    4    4    0    0  0.81460111266E+02 -0.29230937185E+01  0.27710298955E+03  0.28884314259E+03  0.00000000000E+00 0.  1.
</event>
<event>
 8    1  0.6637272E-009  0.1336213E+03  0.7561462E-02  0.1222179E+00
          3   -1    0    0  501    0  0.00000000000E+00  0.00000000000E+00  0.31487034825E+02  0.31487034825E+02  0.00000000000E+00 0. -1.
         -3   -1    0    0    0  501 -0.00000000000E+00 -0.00000000000E+00 -0.57060330906E+03  0.57060330906E+03  0.00000000000E+00 0.  1.
         25    2    1    2    0    0  0.44841522951E+02  0.63836498723E+02 -0.31133998039E+03  0.34447875745E+03  0.12508864937E+03 0.  0.
         23    2    1    2    0    0 -0.44841522951E+02 -0.63836498723E+02 -0.22777629385E+03  0.25761158643E+03  0.91628754622E+02 0.  0.
          5    1    3    3  502    0 -0.40852832444E+02  0.19439905203E+01 -0.74643518608E+02  0.85216549379E+02  0.41800000000E+01 0.  1.
         -5    1    3    3    0  502  0.85694355394E+02  0.61892508203E+02 -0.23669646178E+03  0.25926220808E+03  0.41800000000E+01 0.  1.
        -11    1    4    4    0    0 -0.73294923608E+02 -0.49800020012E+02 -0.16784095268E+03  0.18979666281E+03  0.00000000000E+00 0. -1.
         11    1    4    4    0    0  0.28453400658E+02 -0.14036478712E+02 -0.59935341171E+02  0.67814923615E+02  0.00000000000E+00 0.  1.
</event>
<event>
 8    1  0.6637272E-009  0.1501811E+03  0.7561462E-02  0.1200251E+00
          3   -1    0    0  501    0  0.00000000000E+00  0.00000000000E+00  0.36501366973E+03  0.36501366973E+03  0.00000000000E+00 0. -1.
         -3   -1    0    0    0  501 -0.00000000000E+00 -0.00000000000E+00 -0.69640301760E+02  0.69640301760E+02  0.00000000000E+00 0.  1.
         25    2    1    2    0    0 -0.25004377453E+02  0.11336744126E+03  0.15791370775E+03  0.23249893175E+03  0.12506645648E+03 0.  0.
         23    2    1    2    0    0  0.25004377453E+02 -0.11336744126E+03  0.13745966022E+03  0.20215503975E+03  0.92163475828E+02 0.  0.
          5    1    3    3  502    0  0.38192126884E+02  0.23326639283E+02  0.66779909424E+01  0.45440495367E+02  0.41800000000E+01 0.  1.
         -5    1    3    3    0  502 -0.63196504336E+02  0.90040801980E+02  0.15123571681E+03  0.18705843638E+03  0.41800000000E+01 0.  1.
        -11    1    4    4    0    0 -0.33340019487E+00 -0.11930566379E+03  0.12659248419E+03  0.17395289483E+03  0.00000000000E+00 0. -1.
         11    1    4    4    0    0  0.25337777648E+02  0.59382225231E+01  0.10867176028E+02  0.28202144913E+02  0.00000000000E+00 0.  1.
</event>
<event>
 8    1  0.6637272E-009  0.8128681E+02  0.7561462E-02  0.1325439E+00
          2   -1    0    0  501    0  0.00000000000E+00  0.00000000000E+00  0.24402353122E+03  0.24402353122E+03  0.00000000000E+00 0. -1.
         -2   -1    0    0    0  501 -0.00000000000E+00 -0.00000000000E+00 -0.69116378121E+02  0.69116378121E+02  0.00000000000E+00 0.  1.
         25    2    1    2    0    0 -0.21911068633E+02  0.12313759540E+02  0.16685485084E+02  0.12867994433E+03  0.12509356121E+03 0.  0.
         23    2    1    2    0    0  0.21911068633E+02 -0.12313759540E+02  0.15822166802E+03  0.18445996502E+03  0.91431170069E+02 0.  0.
          5    1    3    3  502    0 -0.47762117237E+02 -0.10719731956E+02  0.57081530524E+02  0.75312057622E+02  0.41800000000E+01 0. -1.
         -5    1    3    3    0  502  0.25851048604E+02  0.23033491495E+02 -0.40396045440E+02  0.53367886707E+02  0.41800000000E+01 0. -1.
        -11    1    4    4    0    0 -0.14562342018E+02  0.23375263496E+02  0.11289816760E+03  0.11620869587E+03  0.00000000000E+00 0. -1.
         11    1    4    4    0    0  0.36473410651E+02 -0.35689023035E+02  0.45323500420E+02  0.68251269146E+02  0.00000000000E+00 0.  1.
</event>
<event>
 8    1  0.6637272E-009  0.1427410E+03  0.7561462E-02  0.1209688E+00
          3   -1    0    0  501    0  0.00000000000E+00  0.00000000000E+00  0.15562555446E+03  0.15562555446E+03  0.00000000000E+00 0. -1.
         -3   -1    0    0    0  501 -0.00000000000E+00 -0.00000000000E+00 -0.30624489102E+03  0.30624489102E+03  0.00000000000E+00 0.  1.
         25    2    1    2    0    0 -0.86955408482E+02 -0.36781975734E+02 -0.25147255772E+03  0.29631012230E+03  0.12508830677E+03 0.  0.
         23    2    1    2    0    0  0.86955408482E+02  0.36781975734E+02  0.10085322116E+03  0.16556032318E+03  0.91239747861E+02 0.  0.
          5    1    3    3  502    0 -0.95448837074E+02 -0.70828999021E+02 -0.16968051512E+03  0.20721046598E+03  0.41800000000E+01 0. -1.
         -5    1    3    3    0  502  0.84934285916E+01  0.34047023287E+02 -0.81792042596E+02  0.89099656318E+02  0.41800000000E+01 0. -1.
        -11    1    4    4    0    0  0.58991518100E+02  0.67518002759E+02  0.71657153323E+02  0.11477555283E+03  0.00000000000E+00 0. -1.
         11    1    4    4    0    0  0.27963890382E+02 -0.30736027026E+02  0.29196067837E+02  0.50784770353E+02  0.00000000000E+00 0.  1.
</event>
<event>
 8    1  0.6637272E-009  0.1977974E+03  0.7561462E-02  0.1151611E+00
         -1   -1    0    0    0  501 -0.00000000000E+00  0.00000000000E+00  0.15395682159E+03  0.15395682159E+03  0.00000000000E+00 0.  1.
          1   -1    0    0  501    0  0.00000000000E+00 -0.00000000000E+00 -0.51144027510E+03  0.51144027510E+03  0.00000000000E+00 0. -1.
         25    2    1    2    0    0  0.14154076033E+03  0.10747373908E+03  0.39496499267E+02  0.22088903025E+03  0.12509036256E+03 0.  0.
         23    2    1    2    0    0 -0.14154076033E+03 -0.10747373908E+03 -0.39697995278E+03  0.44450806643E+03  0.91705762029E+02 0.  0.
          5    1    3    3  502    0  0.82090921504E+02  0.11227085829E+03  0.67748151455E+02  0.15476094288E+03  0.41800000000E+01 0. -1.
         -5    1    3    3    0  502  0.59449838821E+02 -0.47971192069E+01 -0.28251652188E+02  0.66128087375E+02  0.41800000000E+01 0. -1.
        -11    1    4    4    0    0 -0.68331073254E+02 -0.10262315255E+03 -0.28629411711E+03  0.31171295850E+03  0.00000000000E+00 0. -1.
         11    1    4    4    0    0 -0.73209687071E+02 -0.48505865369E+01 -0.11068583567E+03  0.13279510793E+03  0.00000000000E+00 0.  1.
</event>
<event>
 8    1  0.6637272E-009  0.1017743E+03  0.7561462E-02  0.1276608E+00
         -2   -1    0    0    0  501 -0.00000000000E+00  0.00000000000E+00  0.27024592559E+02  0.27024592559E+02  0.00000000000E+00 0.  1.
          2   -1    0    0  501    0  0.00000000000E+00 -0.00000000000E+00 -0.46154326492E+03  0.46154326492E+03  0.00000000000E+00 0. -1.
         25    2    1    2    0    0 -0.18828459187E+02  0.67548454972E+01 -0.25294599043E+03  0.28289515505E+03  0.12509139005E+03 0.  0.
         23    2    1    2    0    0  0.18828459187E+02 -0.67548454972E+01 -0.18157268193E+03  0.20567270243E+03  0.94511813476E+02 0.  0.
          5    1    3    3  502    0  0.10435271582E+02 -0.52476284889E+02 -0.16018269020E+03  0.16893377996E+03  0.41800000000E+01 0.  1.
         -5    1    3    3    0  502 -0.29263730769E+02  0.59231130386E+02 -0.92763300221E+02  0.11396137509E+03  0.41800000000E+01 0.  1.
        -11    1    4    4    0    0  0.16999500513E+02  0.36566069156E+02 -0.13966943036E+03  0.14537403554E+03  0.00000000000E+00 0. -1.
         11    1    4    4    0    0  0.18289586737E+01 -0.43320914653E+02 -0.41903251567E+02  0.60298666885E+02  0.00000000000E+00 0.  1.
</event>
<event>
 8    1  0.6637272E-009  0.1478185E+03  0.7561462E-02  0.1203180E+00
         -2   -1    0    0    0  501 -0.00000000000E+00  0.00000000000E+00  0.96379412618E+02  0.96379412618E+02  0.00000000000E+00 0. -1.
          2   -1    0    0  501    0  0.00000000000E+00 -0.00000000000E+00 -0.37875398122E+03  0.37875398122E+03  0.00000000000E+00 0.  1.
         25    2    1    2    0    0  0.32718360142E+02 -0.11137229618E+03 -0.27747819817E+03  0.32575385206E+03  0.12508853754E+03 0.  0.
         23    2    1    2    0    0 -0.32718360142E+02  0.11137229618E+03 -0.48963704281E+01  0.14937954178E+03  0.93893522737E+02 0.  0.
          5    1    3    3  502    0 -0.17681503878E+02  0.58050797202E+01  0.13335460346E+01  0.19120284385E+02  0.41800000000E+01 0. -1.
         -5    1    3    3    0  502  0.50399864019E+02 -0.11717737590E+03 -0.27881174421E+03  0.30663356767E+03  0.41800000000E+01 0. -1.
        -11    1    4    4    0    0 -0.35431643725E+02 -0.20429306544E+01 -0.56006102327E+01  0.35929678230E+02  0.00000000000E+00 0. -1.
         11    1    4    4    0    0  0.27132835832E+01  0.11341522683E+03  0.70423980460E+00  0.11344986355E+03  0.00000000000E+00 0.  1.
</event>
<event>
 8    1  0.6637272E-009  0.1140061E+03  0.7561462E-02  0.1253326E+00
          4   -1    0    0  501    0  0.00000000000E+00  0.00000000000E+00  0.10884721908E+03  0.10884721908E+03  0.00000000000E+00 0. -1.
         -4   -1    0    0    0  501 -0.00000000000E+00 -0.00000000000E+00 -0.11999214963E+03  0.11999214963E+03  0.00000000000E+00 0.  1.
         25    2    1    2    0    0  0.34042708266E+02 -0.15209969275E+02 -0.61045348852E+01  0.13067155110E+03  0.12509012659E+03 0.  0.
         23    2    1    2    0    0 -0.34042708266E+02  0.15209969275E+02 -0.50403956701E+01  0.98167817605E+02  0.90671195389E+02 0.  0.
          5    1    3    3  502    0  0.64133702999E+02 -0.51838617851E+02  0.87345085090E+00  0.82574871949E+02  0.41800000000E+01 0. -1.
         -5    1    3    3    0  502 -0.30090994733E+02  0.36628648576E+02 -0.69779857361E+01  0.48096679152E+02  0.41800000000E+01 0. -1.
        -11    1    4    4    0    0  0.60799548982E+01 -0.33898252824E+02 -0.46504550018E+01  0.34751749997E+02  0.00000000000E+00 0. -1.
         11    1    4    4    0    0 -0.40122663164E+02  0.49108222100E+02 -0.38994066824E+00  0.63416067608E+02  0.00000000000E+00 0.  1.
</event>
<event>
 8    1  0.6637272E-009  0.1062934E+03  0.7561462E-02  0.1267592E+00
         -1   -1    0    0    0  501 -0.00000000000E+00  0.00000000000E+00  0.67241198676E+03  0.67241198676E+03  0.00000000000E+00 0. -1.
          1   -1    0    0  501    0  0.00000000000E+00 -0.00000000000E+00 -0.28551362211E+02  0.28551362211E+02  0.00000000000E+00 0.  1.
         25    2    1    2    0    0  0.79837991529E+02 -0.24533147371E+02  0.36779449459E+03  0.39736244796E+03  0.12509254409E+03 0.  0.
         23    2    1    2    0    0 -0.79837991529E+02  0.24533147371E+02  0.27606612997E+03  0.30360090102E+03  0.94789338914E+02 0.  0.
          5    1    3    3  502    0  0.40052725635E+02 -0.17358104669E+01  0.17311513534E+02  0.43867924155E+02  0.41800000000E+01 0. -1.
         -5    1    3    3    0  502  0.39785265893E+02 -0.22797336904E+02  0.35048298105E+03  0.35349452380E+03  0.41800000000E+01 0. -1.
        -11    1    4    4    0    0 -0.26377106569E+02  0.57615301091E+02  0.13248394591E+03  0.14685799466E+03  0.00000000000E+00 0.  1.
         11    1    4    4    0    0 -0.53460884960E+02 -0.33082153720E+02  0.14358218406E+03  0.15674290636E+03  0.00000000000E+00 0. -1.
</event>
<event>
 7    1  0.6637272E-009  0.1761505E+03  0.7561462E-02  0.1171581E+00
          2   -1    0    0  501    0  0.00000000000E+00  0.00000000000E+00  0.18509302005E+04  0.18509302005E+04  0.00000000000E+00 0. -1.
         -2   -1    0    0    0  501 -0.00000000000E+00 -0.00000000000E+00 -0.26847735152E+02  0.26847735152E+02  0.00000000000E+00 0.  1.
         23    2    1    2    0    0  0.12350651267E+03  0.89167668547E+02  0.36087735548E+03  0.40121850361E+03  0.86827934193E+02 0.  0.
          5    1    1    2  502    0 -0.45402557783E+02 -0.89301269175E+02  0.48636169247E+03  0.49658964672E+03  0.41800000000E+01 0. -1.
         -5    1    1    2    0  502 -0.78103954891E+02  0.13360062767E+00  0.97684341739E+03  0.97996978531E+03  0.41800000000E+01 0. -1.
        -11    1    3    3    0    0  0.13634405742E+03  0.80648177770E+02  0.31106428999E+03  0.34907710191E+03  0.00000000000E+00 0.  1.
         11    1    3    3    0    0 -0.12837544742E+02  0.85194907765E+01  0.49813065492E+02  0.52141401705E+02  0.00000000000E+00 0. -1.
</event>
<event>
 8    1  0.6637272E-009  0.9050144E+02  0.7561462E-02  0.1301642E+00
         -2   -1    0    0    0  501 -0.00000000000E+00  0.00000000000E+00  0.19544499581E+02  0.19544499581E+02  0.00000000000E+00 0.  1.
          2   -1    0    0  501    0  0.00000000000E+00 -0.00000000000E+00 -0.74375915540E+03  0.74375915540E+03  0.00000000000E+00 0. -1.
         25    2    1    2    0    0  0.14275051563E+02  0.21784863198E+02 -0.26520356506E+03  0.29437893641E+03  0.12509064681E+03 0.  0.
         23    2    1    2    0    0 -0.14275051563E+02 -0.21784863198E+02 -0.45901109077E+03  0.46892471858E+03  0.92308465949E+02 0.  0.
          5    1    3    3  502    0  0.45393617618E+01 -0.31595612796E+02 -0.10403550984E+02  0.33831861111E+02  0.41800000000E+01 0. -1.
         -5    1    3    3    0  502  0.97356898011E+01  0.53380475993E+02 -0.25480001407E+03  0.26054707530E+03  0.41800000000E+01 0. -1.
        -11    1    4    4    0    0 -0.53050720418E+02 -0.11778113390E+02 -0.30433647685E+03  0.30915011569E+03  0.00000000000E+00 0. -1.
         11    1    4    4    0    0  0.38775668855E+02 -0.10006749808E+02 -0.15467461392E+03  0.15977460289E+03  0.00000000000E+00 0.  1.
</event>
<event>
 8    1  0.6637272E-009  0.7860029E+02  0.7561462E-02  0.1333071E+00
          2   -1    0    0  501    0  0.00000000000E+00  0.00000000000E+00  0.13172080637E+03  0.13172080637E+03  0.00000000000E+00 0. -1.
         -2   -1    0    0    0  501 -0.00000000000E+00 -0.00000000000E+00 -0.11271432582E+03  0.11271432582E+03  0.00000000000E+00 0.  1.
         25    2    1    2    0    0 -0.21791420450E+02 -0.80258944065E+00 -0.39692891718E+02  0.13303630195E+03  0.12509045459E+03 0.  0.
         23    2    1    2    0    0  0.21791420450E+02  0.80258944065E+00  0.58699372273E+02  0.11139883024E+03  0.92133451682E+02 0.  0.
          5    1    3    3  502    0 -0.40529195511E+02 -0.42001426642E+02 -0.59502075641E+02  0.83454807737E+02  0.41800000000E+01 0.  1.
         -5    1    3    3    0  502  0.18737775062E+02  0.41198837201E+02  0.19809183923E+02  0.49581494216E+02  0.41800000000E+01 0.  1.
        -11    1    4    4    0    0 -0.10874060887E+02  0.14234031640E+02 -0.18961208647E+02  0.26084100334E+02  0.00000000000E+00 0.  1.
         11    1    4    4    0    0  0.32665481336E+02 -0.13431442199E+02  0.77660580919E+02  0.85314729908E+02  0.00000000000E+00 0. -1.
</event>
<event>
 8    1  0.6637272E-009  0.9446314E+02  0.7561462E-02  0.1292390E+00
          1   -1    0    0  501    0  0.00000000000E+00  0.00000000000E+00  0.77747352430E+02  0.77747352430E+02  0.00000000000E+00 0. -1.
         -1   -1    0    0    0  501 -0.00000000000E+00 -0.00000000000E+00 -0.31574099488E+03  0.31574099488E+03  0.00000000000E+00 0.  1.
         25    2    1    2    0    0 -0.49439116820E+02  0.45843568554E+02 -0.25485449684E+03  0.29179204786E+03  0.12508367432E+03 0.  0.
         23    2    1    2    0    0  0.49439116820E+02 -0.45843568554E+02  0.16860854397E+02  0.10169629945E+03  0.74242776490E+02 0.  0.
          5    1    3    3  502    0 -0.62227059302E+02  0.43840197241E+02 -0.26440254515E+03  0.27517330555E+03  0.41800000000E+01 0. -1.
         -5    1    3    3    0  502  0.12787942482E+02  0.20033713134E+01  0.95480483069E+01  0.16618742311E+02  0.41800000000E+01 0. -1.
        -11    1    4    4    0    0 -0.17639807262E+02  0.35155025915E+00 -0.29164713290E+01  0.17882734490E+02  0.00000000000E+00 0.  1.
         11    1    4    4    0    0  0.67078924082E+02 -0.46195118813E+02  0.19777325726E+02  0.83813564959E+02  0.00000000000E+00 0. -1.
</event>
<event>
 8    1  0.6637272E-009  0.1154546E+03  0.7561462E-02  0.1250790E+00
          2   -1    0    0  501    0  0.00000000000E+00  0.00000000000E+00  0.10672365371E+03  0.10672365371E+03  0.00000000000E+00 0. -1.
         -2   -1    0    0    0  501 -0.00000000000E+00 -0.00000000000E+00 -0.17668289179E+03  0.17668289179E+03  0.00000000000E+00 0.  1.
         25    2    1    2    0    0 -0.75396751250E+02 -0.14227921119E+02 -0.29979510568E+01  0.14677692109E+03  0.12508946005E+03 0.  0.
         23    2    1    2    0    0  0.75396751250E+02  0.14227921119E+02 -0.66961287026E+02  0.13662962441E+03  0.91086423073E+02 0.  0.
          5    1    3    3  502    0 -0.58167732672E+02 -0.68303195303E+02 -0.47706042061E+00  0.89813760635E+02  0.41800000000E+01 0.  1.
         -5    1    3    3    0  502 -0.17229018578E+02  0.54075274184E+02 -0.25208906362E+01  0.56963160453E+02  0.41800000000E+01 0.  1.
        -11    1    4    4    0    0  0.34262185706E+02 -0.10939718298E+02  0.17018272349E+02  0.39789400593E+02  0.00000000000E+00 0. -1.
         11    1    4    4    0    0  0.41134565544E+02  0.25167639417E+02 -0.83979559375E+02  0.96840223818E+02  0.00000000000E+00 0.  1.
</event>
<event>
 8    1  0.6637272E-009  0.2041314E+03  0.7561462E-02  0.1146299E+00
          1   -1    0    0  501    0  0.00000000000E+00  0.00000000000E+00  0.99078795488E+03  0.99078795488E+03  0.00000000000E+00 0. -1.
         -1   -1    0    0    0  501 -0.00000000000E+00 -0.00000000000E+00 -0.53974390053E+02  0.53974390053E+02  0.00000000000E+00 0.  1.
         25    2    1    2    0    0 -0.85749250187E+02  0.16953513892E+03  0.64966477683E+03  0.68833613011E+03  0.12508880253E+03 0.  0.
         23    2    1    2    0    0  0.85749250187E+02 -0.16953513892E+03  0.28714878800E+03  0.35642621483E+03  0.92141863081E+02 0.  0.
          5    1    3    3  502    0 -0.46137171358E+02  0.36569096801E+02  0.66650670126E+02  0.89026522172E+02  0.41800000000E+01 0. -1.
         -5    1    3    3    0  502 -0.39612078829E+02  0.13296604212E+03  0.58301410670E+03  0.59930960793E+03  0.41800000000E+01 0. -1.
        -11    1    4    4    0    0  0.77150483482E+02 -0.53034548637E+02  0.14240760879E+03  0.17042531353E+03  0.00000000000E+00 0. -1.
         11    1    4    4    0    0  0.85987667049E+01 -0.11650059028E+03  0.14474117920E+03  0.18600090129E+03  0.00000000000E+00 0.  1.
</event>
<event>
 8    1  0.6637272E-009  0.1004061E+03  0.7561462E-02  0.1279444E+00
         -1   -1    0    0    0  501 -0.00000000000E+00  0.00000000000E+00  0.24496746915E+02  0.24496746915E+02  0.00000000000E+00 0.  1.
          1   -1    0    0  501    0  0.00000000000E+00 -0.00000000000E+00 -0.56002391083E+03  0.56002391083E+03  0.00000000000E+00 0. -1.
         25    2    1    2    0    0  0.30133391014E+02 -0.30669269833E+02 -0.30939340364E+03  0.33648282707E+03  0.12509112410E+03 0.  0.
         23    2    1    2    0    0 -0.30133391014E+02  0.30669269833E+02 -0.22613376027E+03  0.24803783068E+03  0.92399472645E+02 0.  0.
          5    1    3    3  502    0  0.16763739610E+02  0.48675285136E+02 -0.12548464981E+03  0.13569884335E+03  0.41800000000E+01 0. -1.
         -5    1    3    3    0  502  0.13369651404E+02 -0.79344554969E+02 -0.18390875383E+03  0.20078398372E+03  0.41800000000E+01 0. -1.
        -11    1    4    4    0    0 -0.43859867045E+02  0.12100244060E+02 -0.21928003166E+03  0.22395052160E+03  0.00000000000E+00 0. -1.
         11    1    4    4    0    0  0.13726476031E+02  0.18569025773E+02 -0.68537286167E+01  0.24087309072E+02  0.00000000000E+00 0.  1.
</event>
<event>
 8    1  0.6637272E-009  0.1152829E+03  0.7561462E-02  0.1251088E+00
          1   -1    0    0  501    0  0.00000000000E+00  0.00000000000E+00  0.36771009894E+03  0.36771009894E+03  0.00000000000E+00 0. -1.
         -1   -1    0    0    0  501 -0.00000000000E+00 -0.00000000000E+00 -0.43274399090E+02  0.43274399090E+02  0.00000000000E+00 0.  1.
         25    2    1    2    0    0 -0.40862996515E+02  0.48408040276E+02  0.19251891641E+03  0.23816677961E+03  0.12508700527E+03 0.  0.
         23    2    1    2    0    0  0.40862996515E+02 -0.48408040276E+02  0.13191678344E+03  0.17281771842E+03  0.91928250271E+02 0.  0.
          5    1    3    3  502    0  0.45476076202E+01 -0.35263364954E+02  0.19815693892E+02  0.40918452651E+02  0.41800000000E+01 0. -1.
         -5    1    3    3    0  502 -0.45410604135E+02  0.83671405230E+02  0.17270322252E+03  0.19724832696E+03  0.41800000000E+01 0. -1.
        -11    1    4    4    0    0  0.53079805176E+01 -0.61392935623E+02  0.40142111962E+02  0.73543567730E+02  0.00000000000E+00 0.  1.
         11    1    4    4    0    0  0.35555015997E+02  0.12984895347E+02  0.91774671477E+02  0.99274150686E+02  0.00000000000E+00 0. -1.
</event>
<event>
 8    1  0.6637272E-009  0.1031034E+03  0.7561462E-02  0.1273902E+00
         -1   -1    0    0    0  501 -0.00000000000E+00  0.00000000000E+00  0.31421593225E+03  0.31421593225E+03  0.00000000000E+00 0.  1.
          1   -1    0    0  501    0  0.00000000000E+00 -0.00000000000E+00 -0.61804888142E+02  0.61804888142E+02  0.00000000000E+00 0. -1.
         25    2    1    2    0    0 -0.24305980824E+02 -0.69600479544E+02  0.75685493160E+02  0.16372970394E+03  0.12507643512E+03 0.  0.
         23    2    1    2    0    0  0.24305980824E+02  0.69600479544E+02  0.17672555095E+03  0.21229111645E+03  0.91654734248E+02 0.  0.
          5    1    3    3  502    0 -0.18867172024E+02  0.14684811673E+02  0.75352670933E+02  0.79165088839E+02  0.41800000000E+01 0.  1.
         -5    1    3    3    0  502 -0.54388088000E+01 -0.84285291217E+02  0.33282222642E+00  0.84564615102E+02  0.41800000000E+01 0.  1.
        -11    1    4    4    0    0  0.43716289579E+02  0.29261007817E+02  0.15265278490E+03  0.16146266841E+03  0.00000000000E+00 0.  1.
         11    1    4    4    0    0 -0.19410308755E+02  0.40339471726E+02  0.24072766052E+02  0.50828448043E+02  0.00000000000E+00 0. -1.
</event>
<event>
 8    1  0.6637272E-009  0.1938755E+03  0.7561462E-02  0.1155012E+00
          1   -1    0    0  501    0  0.00000000000E+00  0.00000000000E+00  0.53190112155E+03  0.53190112155E+03  0.00000000000E+00 0. -1.
         -1   -1    0    0    0  501 -0.00000000000E+00 -0.00000000000E+00 -0.79364115771E+02  0.79364115771E+02  0.00000000000E+00 0.  1.
         25    2    1    2    0    0 -0.62182784649E+02 -0.15538638248E+03  0.30833932784E+03  0.37246787762E+03  0.12509017628E+03 0.  0.
         23    2    1    2    0    0  0.62182784649E+02  0.15538638248E+03  0.14419767794E+03  0.23879735969E+03  0.90661910999E+02 0.  0.
          5    1    3    3  502    0 -0.66079591357E+02 -0.22878075716E+02  0.15256039991E+03  0.16787515231E+03  0.41800000000E+01 0. -1.
         -5    1    3    3    0  502  0.38968067079E+01 -0.13250830677E+03  0.15577892793E+03  0.20459272532E+03  0.41800000000E+01 0. -1.
        -11    1    4    4    0    0  0.36054018832E+02  0.10089436012E+02  0.54287280584E+02  0.65945415506E+02  0.00000000000E+00 0. -1.
         11    1    4    4    0    0  0.26128765816E+02  0.14529694647E+03  0.89910397352E+02  0.17285194419E+03  0.00000000000E+00 0.  1.
</event>
<event>
 8    1  0.6637272E-009  0.1082467E+03  0.7561462E-02  0.1263852E+00
          1   -1    0    0  501    0  0.00000000000E+00  0.00000000000E+00  0.28359405788E+03  0.28359405788E+03  0.00000000000E+00 0. -1.
         -1   -1    0    0    0  501 -0.00000000000E+00 -0.00000000000E+00 -0.48532288022E+02  0.48532288022E+02  0.00000000000E+00 0.  1.
         25    2    1    2    0    0  0.38049433466E+02  0.23819362814E+01  0.16714082367E+03  0.21221948181E+03  0.12509044934E+03 0.  0.
         23    2    1    2    0    0 -0.38049433466E+02 -0.23819362814E+01  0.67920946184E+02  0.11990686408E+03  0.91164511277E+02 0.  0.
          5    1    3    3  502    0 -0.30833024635E+02 -0.38749643083E+02  0.53156565519E+02  0.72768833336E+02  0.41800000000E+01 0. -1.
         -5    1    3    3    0  502  0.68882458101E+02  0.41131579364E+02  0.11398425815E+03  0.13945064848E+03  0.41800000000E+01 0. -1.
        -11    1    4    4    0    0  0.40846988857E+01 -0.33709456604E+02 -0.12906796954E+00  0.33956279067E+02  0.00000000000E+00 0. -1.
         11    1    4    4    0    0 -0.42134132351E+02  0.31327520322E+02  0.68050014153E+02  0.85950585017E+02  0.00000000000E+00 0.  1.
</event>
<event>
 8    1  0.6637272E-009  0.1126567E+03  0.7561462E-02  0.1255728E+00
          2   -1    0    0  501    0  0.00000000000E+00  0.00000000000E+00  0.31135828463E+03  0.31135828463E+03  0.00000000000E+00 0. -1.
         -2   -1    0    0    0  501 -0.00000000000E+00 -0.00000000000E+00 -0.81558523773E+02  0.81558523773E+02  0.00000000000E+00 0.  1.
         25    2    1    2    0    0 -0.90455584444E+02  0.20082781347E+02  0.20983457234E+03  0.26127342272E+03  0.12509085821E+03 0.  0.
         23    2    1    2    0    0  0.90455584444E+02 -0.20082781347E+02  0.19965188518E+02  0.13164338568E+03  0.91355576612E+02 0.  0.
          5    1    3    3  502    0  0.10188896195E+02 -0.12538434778E+02  0.12359075325E+03  0.12471235961E+03  0.41800000000E+01 0.  1.
         -5    1    3    3    0  502 -0.10064448064E+03  0.32621216125E+02  0.86243819091E+02  0.13656106310E+03  0.41800000000E+01 0.  1.
        -11    1    4    4    0    0  0.82443671300E+02 -0.31955772773E+02 -0.18730091183E+02  0.90382225391E+02  0.00000000000E+00 0.  1.
         11    1    4    4    0    0  0.80119131439E+01  0.11872991426E+02  0.38695279700E+02  0.41261160293E+02  0.00000000000E+00 0. -1.
</event>
<event>
 8    1  0.6637272E-009  0.8703529E+02  0.7561462E-02  0.1310194E+00
          2   -1    0    0  501    0  0.00000000000E+00  0.00000000000E+00  0.58807009651E+02  0.58807009651E+02  0.00000000000E+00 0.  1.
         -2   -1    0    0    0  501 -0.00000000000E+00 -0.00000000000E+00 -0.21668925938E+03  0.21668925938E+03  0.00000000000E+00 0. -1.
         25    2    1    2    0    0 -0.21674206900E+00 -0.83677379055E+01 -0.13220925928E+03  0.18219645888E+03  0.12508475277E+03 0.  0.
         23    2    1    2    0    0  0.21674206900E+00  0.83677379055E+01 -0.25672990447E+02  0.93299810148E+02  0.89306696951E+02 0.  0.
          5    1    3    3  502    0  0.40193873106E+02  0.43548317934E+02 -0.64748651737E+02  0.87874135739E+02  0.41800000000E+01 0. -1.
         -5    1    3    3    0  502 -0.40410615175E+02 -0.51916055840E+02 -0.67460607541E+02  0.94322323140E+02  0.41800000000E+01 0. -1.
        -11    1    4    4    0    0  0.14370832168E+02 -0.15407542099E+02 -0.51379546947E+02  0.55531711798E+02  0.00000000000E+00 0. -1.
         11    1    4    4    0    0 -0.14154090099E+02  0.23775280004E+02  0.25706556500E+02  0.37768098349E+02  0.00000000000E+00 0.  1.
</event>
<event>
 8    1  0.6637272E-009  0.1456971E+03  0.7561462E-02  0.1205862E+00
         -1   -1    0    0    0  501 -0.00000000000E+00  0.00000000000E+00  0.31863043751E+02  0.31863043751E+02  0.00000000000E+00 0.  1.
          1   -1    0    0  501    0  0.00000000000E+00 -0.00000000000E+00 -0.11680242354E+04  0.11680242354E+04  0.00000000000E+00 0. -1.
         25    2    1    2    0    0 -0.55434566040E+02 -0.10015011795E+03 -0.93985479981E+03  0.95502761963E+03  0.12509065626E+03 0.  0.
         23    2    1    2    0    0  0.55434566040E+02  0.10015011795E+03 -0.19630639182E+03  0.24485965951E+03  0.91197676210E+02 0.  0.
          5    1    3    3  502    0 -0.64024951148E+02 -0.12578554342E+03 -0.74524595063E+03  0.75850523837E+03  0.41800000000E+01 0.  1.
         -5    1    3    3    0  502  0.85903851081E+01  0.25635425470E+02 -0.19460884918E+03  0.19652238126E+03  0.41800000000E+01 0.  1.
        -11    1    4    4    0    0  0.51190507454E+02  0.46942311231E+02 -0.41039146674E+02  0.80673788785E+02  0.00000000000E+00 0.  1.
         11    1    4    4    0    0  0.42440585857E+01  0.53207806721E+02 -0.15526724514E+03  0.16418587072E+03  0.00000000000E+00 0. -1.
</event>
<event>
 8    1  0.6637272E-009  0.1133883E+03  0.7561462E-02  0.1254421E+00
          2   -1    0    0  501    0  0.00000000000E+00  0.00000000000E+00  0.29244458499E+03  0.29244458499E+03  0.00000000000E+00 0.  1.
         -2   -1    0    0    0  501 -0.00000000000E+00 -0.00000000000E+00 -0.61302031267E+02  0.61302031267E+02  0.00000000000E+00 0. -1.
         25    2    1    2    0    0  0.63159921570E+01 -0.75794342256E+02  0.14530501747E+03  0.20626635265E+03  0.12509031161E+03 0.  0.
         23    2    1    2    0    0 -0.63159921570E+01  0.75794342256E+02  0.85837536257E+02  0.14748026361E+03  0.92723629402E+02 0.  0.
          5    1    3    3  502    0  0.67395477052E+01  0.16414611805E+02 -0.13431204863E+02  0.22643556436E+02  0.41800000000E+01 0.  1.
         -5    1    3    3    0  502 -0.42355554818E+00 -0.92208954061E+02  0.15873622233E+03  0.18362279621E+03  0.41800000000E+01 0.  1.
        -11    1    4    4    0    0 -0.26296714272E+02 -0.10013393666E+02  0.64105220308E+01  0.28859660894E+02  0.00000000000E+00 0. -1.
         11    1    4    4    0    0  0.19980722115E+02  0.85807735922E+02  0.79427014226E+02  0.11862060272E+03  0.00000000000E+00 0.  1.
</event>
<event>
 8    1  0.6637272E-009  0.9773138E+02  0.7561462E-02  0.1285140E+00
          1   -1    0    0  501    0  0.00000000000E+00  0.00000000000E+00  0.11391030289E+04  0.11391030289E+04  0.00000000000E+00 0. -1.
         -1   -1    0    0    0  501 -0.00000000000E+00 -0.00000000000E+00 -0.11945134580E+02  0.11945134580E+02  0.00000000000E+00 0.  1.
         25    2    1    2    0    0  0.12719206441E+02  0.34539240418E+02  0.80638805540E+03  0.81686157228E+03  0.12508555085E+03 0.  0.
         23    2    1    2    0    0 -0.12719206441E+02 -0.34539240418E+02  0.32076983895E+03  0.33418659123E+03  0.86212822937E+02 0.  0.
          5    1    3    3  502    0  0.22024404583E+02 -0.33171623907E+02  0.10900586733E+03  0.11612571869E+03  0.41800000000E+01 0.  1.
         -5    1    3    3    0  502 -0.93051981414E+01  0.67710864325E+02  0.69738218807E+03  0.70073585359E+03  0.41800000000E+01 0.  1.
        -11    1    4    4    0    0  0.30729875840E+02 -0.30530570167E+02  0.22231733961E+03  0.22649821296E+03  0.00000000000E+00 0. -1.
         11    1    4    4    0    0 -0.43449082282E+02 -0.40086702506E+01  0.98452499345E+02  0.10768837828E+03  0.00000000000E+00 0.  1.
</event>
<event>
 8    1  0.6637272E-009  0.2699444E+03  0.7561462E-02  0.1101311E+00
          2   -1    0    0  501    0  0.00000000000E+00  0.00000000000E+00  0.11544013103E+04  0.11544013103E+04  0.00000000000E+00 0. -1.
         -2   -1    0    0    0  501 -0.00000000000E+00 -0.00000000000E+00 -0.69588677493E+02  0.69588677493E+02  0.00000000000E+00 0.  1.
         25    2    1    2    0    0  0.22953560813E+03  0.12460983668E+03  0.55232806359E+03  0.62363926991E+03  0.12508174268E+03 0.  0.
         23    2    1    2    0    0 -0.22953560813E+03 -0.12460983668E+03  0.53248456919E+03  0.60035071785E+03  0.93096515537E+02 0.  0.
          5    1    3    3  502    0  0.42769592178E+02  0.72017524242E+02  0.25624215707E+03  0.26961690836E+03  0.41800000000E+01 0. -1.
         -5    1    3    3    0  502  0.18676601595E+03  0.52592312441E+02  0.29608590652E+03  0.35402236155E+03  0.41800000000E+01 0. -1.
        -11    1    4    4    0    0 -0.19007091527E+03 -0.94233461690E+02  0.49329284286E+03  0.53697739892E+03  0.00000000000E+00 0.  1.
         11    1    4    4    0    0 -0.39464692853E+02 -0.30376374994E+02  0.39191726329E+02  0.63373318932E+02  0.00000000000E+00 0. -1.
</event>
<event>
 8    1  0.6637272E-009  0.2002804E+03  0.7561462E-02  0.1149503E+00
         -2   -1    0    0    0  501 -0.00000000000E+00  0.00000000000E+00  0.27535180374E+02  0.27535180374E+02  0.00000000000E+00 0. -1.
          2   -1    0    0  501    0  0.00000000000E+00 -0.00000000000E+00 -0.16032906907E+04  0.16032906907E+04  0.00000000000E+00 0.  1.
         25    2    1    2    0    0 -0.11173282954E+03 -0.12677577133E+03 -0.58479202352E+03  0.62143848397E+03  0.12509099565E+03 0.  0.
         23    2    1    2    0    0  0.11173282954E+03  0.12677577133E+03 -0.99096348679E+03  0.10093873871E+04  0.91093049510E+02 0.  0.
          5    1    3    3  502    0 -0.12131781993E+02  0.25309208029E+02 -0.75634097412E+02  0.80781961084E+02  0.41800000000E+01 0. -1.
         -5    1    3    3    0  502 -0.99601047546E+02 -0.15208497936E+03 -0.50915792611E+03  0.54065652289E+03  0.41800000000E+01 0. -1.
        -11    1    4    4    0    0  0.10047307769E+03  0.49058000088E+02 -0.64538526467E+03  0.65499898212E+03  0.00000000000E+00 0. -1.
         11    1    4    4    0    0  0.11259751846E+02  0.77717771244E+02 -0.34557822211E+03  0.35438840497E+03  0.00000000000E+00 0.  1.
</event>
<event>
 8    1  0.6637272E-009  0.1696634E+03  0.7561462E-02  0.1178199E+00
         -3   -1    0    0    0  501 -0.00000000000E+00  0.00000000000E+00  0.10566796071E+04  0.10566796071E+04  0.00000000000E+00 0.  1.
          3   -1    0    0  501    0  0.00000000000E+00 -0.00000000000E+00 -0.35311907245E+02  0.35311907245E+02  0.00000000000E+00 0. -1.
         25    2    1    2    0    0  0.12019280982E+03 -0.69099295776E+02  0.75819249964E+03  0.78084854107E+03  0.12509018093E+03 0.  0.
         23    2    1    2    0    0 -0.12019280982E+03  0.69099295776E+02  0.26317520022E+03  0.31114297329E+03  0.91256449659E+02 0.  0.
          5    1    3    3  502    0  0.58668466569E+02  0.27993641692E+02  0.18245830739E+03  0.19373729450E+03  0.41800000000E+01 0.  1.
         -5    1    3    3    0  502  0.61524343253E+02 -0.97092937468E+02  0.57573419225E+03  0.58711124657E+03  0.41800000000E+01 0.  1.
        -11    1    4    4    0    0  0.72568830778E+01  0.22210084118E+02  0.13659500283E+02  0.27065330896E+02  0.00000000000E+00 0. -1.
         11    1    4    4    0    0 -0.12744969290E+03  0.46889211658E+02  0.24951569994E+03  0.28407764239E+03  0.00000000000E+00 0.  1.
</event>
<event>
 8    1  0.6637272E-009  0.1815608E+03  0.7561462E-02  0.1166301E+00
          2   -1    0    0  501    0  0.00000000000E+00  0.00000000000E+00  0.17277208598E+04  0.17277208598E+04  0.00000000000E+00 0. -1.
         -2   -1    0    0    0  501 -0.00000000000E+00 -0.00000000000E+00 -0.23763153580E+02  0.23763153580E+02  0.00000000000E+00 0.  1.
         25    2    1    2    0    0 -0.11099944254E+03  0.93673489929E+02  0.12772803932E+04  0.12915833677E+04  0.12508714591E+03 0.  0.
         23    2    1    2    0    0  0.11099944254E+03 -0.93673489929E+02  0.42667731309E+03  0.45990064568E+03  0.91430166995E+02 0.  0.
          5    1    3    3  502    0 -0.51301674695E+01  0.85011149567E+02  0.54690125227E+03  0.55350850608E+03  0.41800000000E+01 0.  1.
         -5    1    3    3    0  502 -0.10586927507E+03  0.86623403625E+01  0.73037914090E+03  0.73807486165E+03  0.41800000000E+01 0.  1.
        -11    1    4    4    0    0  0.72078565744E+02 -0.21703408494E+01  0.17259370450E+03  0.18705244413E+03  0.00000000000E+00 0. -1.
         11    1    4    4    0    0  0.38920876793E+02 -0.91503149080E+02  0.25408360859E+03  0.27284820156E+03  0.00000000000E+00 0.  1.
</event>
<event>
 8    1  0.6637272E-009  0.1085508E+03  0.7561462E-02  0.1263277E+00
          2   -1    0    0  501    0  0.00000000000E+00  0.00000000000E+00  0.34012199873E+03  0.34012199873E+03  0.00000000000E+00 0.  1.
         -2   -1    0    0    0  501 -0.00000000000E+00 -0.00000000000E+00 -0.51798748468E+02  0.51798748468E+02  0.00000000000E+00 0. -1.
         25    2    1    2    0    0 -0.51379168467E+02 -0.44529135092E+02  0.18528681912E+03  0.23366799053E+03  0.12508741596E+03 0.  0.
         23    2    1    2    0    0  0.51379168467E+02  0.44529135092E+02  0.10303643114E+03  0.15825275667E+03  0.99019018511E+02 0.  0.
          5    1    3    3  502    0 -0.75035903155E+02 -0.39124272428E+02  0.54858681625E+02  0.10093583509E+03  0.41800000000E+01 0. -1.
         -5    1    3    3    0  502  0.23656734687E+02 -0.54048626640E+01  0.13042813750E+03  0.13273215544E+03  0.41800000000E+01 0. -1.
        -11    1    4    4    0    0  0.73910175414E+02  0.25269301393E+02  0.38176471795E+02  0.86940753513E+02  0.00000000000E+00 0. -1.
         11    1    4    4    0    0 -0.22531006947E+02  0.19259833699E+02  0.64859959340E+02  0.71312003153E+02  0.00000000000E+00 0.  1.
</event>
<event>
 8    1  0.6637272E-009  0.1311732E+03  0.7561462E-02  0.1225725E+00
         -1   -1    0    0    0  501 -0.00000000000E+00  0.00000000000E+00  0.53565105665E+03  0.53565105665E+03  0.00000000000E+00 0.  1.
          1   -1    0    0  501    0  0.00000000000E+00 -0.00000000000E+00 -0.36956871747E+02  0.36956871747E+02  0.00000000000E+00 0. -1.
         25    2    1    2    0    0 -0.87681511726E+02  0.42408580986E+01  0.29047863450E+03  0.32822419709E+03  0.12508898463E+03 0.  0.
         23    2    1    2    0    0  0.87681511726E+02 -0.42408580986E+01  0.20821555039E+03  0.24438373130E+03  0.93078785576E+02 0.  0.
          5    1    3    3  502    0 -0.45421111295E+02  0.57949706804E+02  0.20993023090E+03  0.22250712374E+03  0.41800000000E+01 0.  1.
         -5    1    3    3    0  502 -0.42260400431E+02 -0.53708848706E+02  0.80548403608E+02  0.10571707335E+03  0.41800000000E+01 0.  1.
        -11    1    4    4    0    0 -0.51950954540E+01 -0.24520334997E+02  0.85826088076E+02  0.89411147178E+02  0.00000000000E+00 0.  1.
         11    1    4    4    0    0  0.92876607180E+02  0.20279476898E+02  0.12238946232E+03  0.15497258413E+03  0.00000000000E+00 0. -1.
</event>
<event>
 8    1  0.6637272E-009  0.1197718E+03  0.7561462E-02  0.1243474E+00
          1   -1    0    0  501    0  0.00000000000E+00  0.00000000000E+00  0.76400662116E+03  0.76400662116E+03  0.00000000000E+00 0. -1.
         -1   -1    0    0    0  501 -0.00000000000E+00 -0.00000000000E+00 -0.29016373735E+02  0.29016373735E+02  0.00000000000E+00 0.  1.
         25    2    1    2    0    0  0.48884404726E+02 -0.81162278851E+02  0.49885019319E+03  0.52294959128E+03  0.12509100385E+03 0.  0.
         23    2    1    2    0    0 -0.48884404726E+02  0.81162278851E+02  0.23614005424E+03  0.27007340362E+03  0.90556709256E+02 0.  0.
          5    1    3    3  502    0  0.74807417860E+02 -0.75597264005E+02  0.23791958010E+03  0.26064208235E+03  0.41800000000E+01 0. -1.
         -5    1    3    3    0  502 -0.25923013134E+02 -0.55650148460E+01  0.26093061309E+03  0.26230750894E+03  0.41800000000E+01 0. -1.
        -11    1    4    4    0    0  0.72481426645E+01  0.28114455550E+02  0.15636409440E+03  0.15903675110E+03  0.00000000000E+00 0. -1.
         11    1    4    4    0    0 -0.56132547391E+02  0.53047823301E+02  0.79775959834E+02  0.11103665251E+03  0.00000000000E+00 0.  1.
</event>
<event>
 8    1  0.6637272E-009  0.1381977E+03  0.7561462E-02  0.1215775E+00
         -1   -1    0    0    0  501 -0.00000000000E+00  0.00000000000E+00  0.99193593859E+02  0.99193593859E+02  0.00000000000E+00 0.  1.
          1   -1    0    0  501    0  0.00000000000E+00 -0.00000000000E+00 -0.20349636963E+03  0.20349636963E+03  0.00000000000E+00 0. -1.
         25    2    1    2    0    0 -0.81578295270E+02 -0.26850868730E+02 -0.85241150717E+02  0.17403907612E+03  0.12509020277E+03 0.  0.
         23    2    1    2    0    0  0.81578295270E+02  0.26850868730E+02 -0.19061625058E+02  0.12865088737E+03  0.93870750830E+02 0.  0.
          5    1    3    3  502    0 -0.45478429843E+02 -0.75807853959E+02 -0.35516533115E+02  0.95362544153E+02  0.41800000000E+01 0.  1.
         -5    1    3    3    0  502 -0.36099865427E+02  0.48956985229E+02 -0.49724617602E+02  0.78676531966E+02  0.41800000000E+01 0.  1.
        -11    1    4    4    0    0 -0.81455238969E+01  0.35835794697E+02 -0.96014051654E+01  0.37983426942E+02  0.00000000000E+00 0.  1.
         11    1    4    4    0    0  0.89723819167E+02 -0.89849259675E+01 -0.94602198922E+01  0.90667460431E+02  0.00000000000E+00 0. -1.
</event>
<event>
 8    1  0.6637272E-009  0.1498914E+03  0.7561462E-02  0.1200606E+00
         -2   -1    0    0    0  501 -0.00000000000E+00  0.00000000000E+00  0.47366190052E+02  0.47366190052E+02  0.00000000000E+00 0.  1.
          2   -1    0    0  501    0  0.00000000000E+00 -0.00000000000E+00 -0.64774664973E+03  0.64774664973E+03  0.00000000000E+00 0. -1.
         25    2    1    2    0    0  0.12980514933E+03  0.40916448576E+01 -0.40419426412E+03  0.44259143049E+03  0.12509217739E+03 0.  0.
         23    2    1    2    0    0 -0.12980514933E+03 -0.40916448576E+01 -0.19618619556E+03  0.25252140929E+03  0.91716522359E+02 0.  0.
          5    1    3    3  502    0 -0.11144879619E+02  0.23133069897E+02 -0.14114988699E+03  0.14352738506E+03  0.41800000000E+01 0.  1.
         -5    1    3    3    0  502  0.14095002895E+03 -0.19041425040E+02 -0.26304437713E+03  0.29906404543E+03  0.41800000000E+01 0.  1.
        -11    1    4    4    0    0 -0.68844577848E+02 -0.12395979677E+02 -0.17328899127E+03  0.18687512062E+03  0.00000000000E+00 0. -1.
         11    1    4    4    0    0 -0.60960571483E+02  0.83043348190E+01 -0.22897204286E+02  0.65646288673E+02  0.00000000000E+00 0.  1.
</event>
<event>
 8    1  0.6637272E-009  0.2513467E+03  0.7561462E-02  0.1112457E+00
          4   -1    0    0  501    0  0.00000000000E+00  0.00000000000E+00  0.14108815549E+04  0.14108815549E+04  0.00000000000E+00 0. -1.
         -4   -1    0    0    0  501 -0.00000000000E+00 -0.00000000000E+00 -0.57639160798E+02  0.57639160798E+02  0.00000000000E+00 0.  1.
         25    2    1    2    0    0 -0.21044551132E+02 -0.23469993767E+03  0.38979412558E+03  0.47234865975E+03  0.12508741806E+03 0.  0.
         23    2    1    2    0    0  0.21044551132E+02  0.23469993767E+03  0.96344826851E+03  0.99617205593E+03  0.92732222341E+02 0.  0.
          5    1    3    3  502    0  0.31116728493E+02 -0.80368500001E+01  0.67441574786E+02  0.74824328662E+02  0.41800000000E+01 0.  1.
         -5    1    3    3    0  502 -0.52161279625E+02 -0.22666308767E+03  0.32235255080E+03  0.39752433109E+03  0.41800000000E+01 0.  1.
        -11    1    4    4    0    0 -0.80195521847E+01  0.39275513964E+02  0.65890183499E+02  0.77125841947E+02  0.00000000000E+00 0.  1.
         11    1    4    4    0    0  0.29064103316E+02  0.19542442370E+03  0.89755808501E+03  0.91904621399E+03  0.00000000000E+00 0. -1.
</event>
<event>
 8    1  0.6637272E-009  0.1666925E+03  0.7561462E-02  0.1181342E+00
         -1   -1    0    0    0  501 -0.00000000000E+00  0.00000000000E+00  0.16813568871E+03  0.16813568871E+03  0.00000000000E+00 0.  1.
          1   -1    0    0  501    0  0.00000000000E+00 -0.00000000000E+00 -0.19937735669E+03  0.19937735669E+03  0.00000000000E+00 0. -1.
         25    2    1    2    0    0 -0.13904527744E+03 -0.47492088837E+02 -0.94280244486E+01  0.19319955087E+03  0.12509233042E+03 0.  0.
         23    2    1    2    0    0  0.13904527744E+03  0.47492088837E+02 -0.21813643533E+02  0.17431349452E+03  0.91215523064E+02 0.  0.
          5    1    3    3  502    0 -0.77785045502E+02  0.75733354056E+01  0.48806319148E+02  0.92235556602E+02  0.41800000000E+01 0.  1.
         -5    1    3    3    0  502 -0.61260231940E+02 -0.55065424243E+02 -0.58234343596E+02  0.10096399427E+03  0.41800000000E+01 0.  1.
        -11    1    4    4    0    0  0.11752854341E+03 -0.32016156441E+01 -0.10056896050E+02  0.11800148312E+03  0.00000000000E+00 0. -1.
         11    1    4    4    0    0  0.21516734028E+02  0.50693704481E+02 -0.11756747483E+02  0.56312011407E+02  0.00000000000E+00 0.  1.
</event>
<event>
 8    1  0.6637272E-009  0.1112537E+03  0.7561462E-02  0.1258266E+00
          1   -1    0    0  501    0  0.00000000000E+00  0.00000000000E+00  0.35846102876E+03  0.35846102876E+03  0.00000000000E+00 0. -1.
         -1   -1    0    0    0  501 -0.00000000000E+00 -0.00000000000E+00 -0.39350264857E+02  0.39350264857E+02  0.00000000000E+00 0.  1.
         25    2    1    2    0    0  0.28304561488E+02 -0.68938191366E+01  0.11480198360E+03  0.17226741041E+03  0.12509153571E+03 0.  0.
         23    2    1    2    0    0 -0.28304561488E+02  0.68938191366E+01  0.20430878030E+03  0.22554388321E+03  0.90990618206E+02 0.  0.
          5    1    3    3  502    0  0.47249958857E+02 -0.57200183842E+02  0.71379954945E+02  0.10303877916E+03  0.41800000000E+01 0. -1.
         -5    1    3    3    0  502 -0.18945397368E+02  0.50306364705E+02  0.43422028655E+02  0.69228631244E+02  0.41800000000E+01 0. -1.
        -11    1    4    4    0    0 -0.12952959171E+02 -0.41518547621E+02  0.11265853050E+03  0.12076221861E+03  0.00000000000E+00 0.  1.
         11    1    4    4    0    0 -0.15351602317E+02  0.48412366757E+02  0.91650249801E+02  0.10478166461E+03  0.00000000000E+00 0. -1.
</event>
<event>
 8    1  0.6637272E-009  0.1432731E+03  0.7561462E-02  0.1208991E+00
         -2   -1    0    0    0  501 -0.00000000000E+00  0.00000000000E+00  0.20260538361E+03  0.20260538361E+03  0.00000000000E+00 0.  1.
          2   -1    0    0  501    0  0.00000000000E+00 -0.00000000000E+00 -0.11631197891E+03  0.11631197891E+03  0.00000000000E+00 0. -1.
         25    2    1    2    0    0  0.38730098586E+02  0.10008539101E+03  0.25098274268E+02  0.16671625676E+03  0.12508909172E+03 0.  0.
         23    2    1    2    0    0 -0.38730098586E+02 -0.10008539101E+03  0.61195130427E+02  0.15220110576E+03  0.88900093240E+02 0.  0.
          5    1    3    3  502    0  0.33017276717E+02  0.12321393992E+03  0.45065213606E+02  0.13535199086E+03  0.41800000000E+01 0.  1.
         -5    1    3    3    0  502  0.57128218697E+01 -0.23128548919E+02 -0.19966939338E+02  0.31364265898E+02  0.41800000000E+01 0.  1.
        -11    1    4    4    0    0  0.91474416459E+01 -0.83590946885E+02  0.56578127144E+02  0.10135189471E+03  0.00000000000E+00 0.  1.
         11    1    4    4    0    0 -0.47877540232E+02 -0.16494444121E+02  0.46170032825E+01  0.50849211054E+02  0.00000000000E+00 0. -1.
</event>
<event>
 8    1  0.6637272E-009  0.1009960E+03  0.7561462E-02  0.1278215E+00
          2   -1    0    0  501    0  0.00000000000E+00  0.00000000000E+00  0.45699459117E+03  0.45699459117E+03  0.00000000000E+00 0. -1.
         -2   -1    0    0    0  501 -0.00000000000E+00 -0.00000000000E+00 -0.42460618250E+02  0.42460618250E+02  0.00000000000E+00 0.  1.
         25    2    1    2    0    0 -0.42099064505E+02 -0.74998403019E+02  0.23956201025E+03  0.28361046853E+03  0.12509136429E+03 0.  0.
         23    2    1    2    0    0  0.42099064505E+02  0.74998403019E+02  0.17497196267E+03  0.21584474088E+03  0.92610327503E+02 0.  0.
          5    1    3    3  502    0 -0.29062902494E+02 -0.72437340813E+02  0.48383401333E+02  0.91925222708E+02  0.41800000000E+01 0. -1.
         -5    1    3    3    0  502 -0.13036162010E+02 -0.25610622068E+01  0.19117860892E+03  0.19168524582E+03  0.41800000000E+01 0. -1.
        -11    1    4    4    0    0 -0.17192109677E+02  0.33109710263E+02  0.15071452033E+02  0.40236428958E+02  0.00000000000E+00 0.  1.
         11    1    4    4    0    0  0.59291174182E+02  0.41888692756E+02  0.15990051063E+03  0.17560831193E+03  0.00000000000E+00 0. -1.
</event>
<event>
 8    1  0.6637272E-009  0.1175139E+03  0.7561462E-02  0.1247256E+00
         -3   -1    0    0    0  501 -0.00000000000E+00  0.00000000000E+00  0.46108081792E+03  0.46108081792E+03  0.00000000000E+00 0.  1.
          3   -1    0    0  501    0  0.00000000000E+00 -0.00000000000E+00 -0.32265353470E+02  0.32265353470E+02  0.00000000000E+00 0. -1.
         25    2    1    2    0    0 -0.32133956568E+02  0.40489659553E+02  0.21915542689E+03  0.25758153604E+03  0.12508854014E+03 0.  0.
         23    2    1    2    0    0  0.32133956568E+02 -0.40489659553E+02  0.20966003756E+03  0.23576463535E+03  0.94634181140E+02 0.  0.
          5    1    3    3  502    0 -0.49128481318E+02  0.74274847781E+02  0.18921396733E+03  0.20916442939E+03  0.41800000000E+01 0. -1.
         -5    1    3    3    0  502  0.16994524751E+02 -0.33785188229E+02  0.29941459564E+02  0.48417106646E+02  0.41800000000E+01 0. -1.
        -11    1    4    4    0    0  0.55413954924E+01 -0.68779228420E+02  0.13327611619E+03  0.15007935392E+03  0.00000000000E+00 0.  1.
         11    1    4    4    0    0  0.26592561075E+02  0.28289568867E+02  0.76383921362E+02  0.85685281431E+02  0.00000000000E+00 0. -1.
</event>
<event>
 8    1  0.6637272E-009  0.1223449E+03  0.7561462E-02  0.1239278E+00
          1   -1    0    0  501    0  0.00000000000E+00  0.00000000000E+00  0.29330196319E+03  0.29330196319E+03  0.00000000000E+00 0. -1.
         -1   -1    0    0    0  501 -0.00000000000E+00 -0.00000000000E+00 -0.81137795391E+02  0.81137795391E+02  0.00000000000E+00 0.  1.
         25    2    1    2    0    0 -0.23770925107E+02  0.94348704832E+02  0.17550236668E+03  0.23646415637E+03  0.12508989388E+03 0.  0.
         23    2    1    2    0    0  0.23770925107E+02 -0.94348704832E+02  0.36661801120E+02  0.13797560222E+03  0.90699747307E+02 0.  0.
          5    1    3    3  502    0 -0.47501407224E-01 -0.11431698959E+02  0.10801256548E+03  0.10869624051E+03  0.41800000000E+01 0. -1.
         -5    1    3    3    0  502 -0.23723423699E+02  0.10578040379E+03  0.67489801198E+02  0.12776791586E+03  0.41800000000E+01 0. -1.
        -11    1    4    4    0    0 -0.27727185500E+02 -0.22932646008E+02 -0.11297563947E+02  0.37713896906E+02  0.00000000000E+00 0.  1.
         11    1    4    4    0    0  0.51498110607E+02 -0.71416058824E+02  0.47959365067E+02  0.10026170531E+03  0.00000000000E+00 0. -1.
</event>
<event>
 8    1  0.6637272E-009  0.1080736E+03  0.7561462E-02  0.1264179E+00
          2   -1    0    0  501    0  0.00000000000E+00  0.00000000000E+00  0.45594905212E+03  0.45594905212E+03  0.00000000000E+00 0. -1.
         -2   -1    0    0    0  501 -0.00000000000E+00 -0.00000000000E+00 -0.35147089226E+02  0.35147089226E+02  0.00000000000E+00 0.  1.
         25    2    1    2    0    0  0.30327592947E+02  0.55719531906E+02  0.26637091436E+03  0.30104027071E+03  0.12508937383E+03 0.  0.
         23    2    1    2    0    0 -0.30327592947E+02 -0.55719531906E+02  0.15443104853E+03  0.19005587063E+03  0.90817707967E+02 0.  0.
          5    1    3    3  502    0 -0.41321067450E+02  0.48975072989E+02  0.90482794985E+02  0.11095312964E+03  0.41800000000E+01 0. -1.
         -5    1    3    3    0  502  0.71648660398E+02  0.67444589171E+01  0.17588811937E+03  0.19008714107E+03  0.41800000000E+01 0. -1.
        -11    1    4    4    0    0 -0.43658264426E+02 -0.39740861968E+02  0.34595121271E+02  0.68426621854E+02  0.00000000000E+00 0.  1.
         11    1    4    4    0    0  0.13330671479E+02 -0.15978669938E+02  0.11983592726E+03  0.12162924878E+03  0.00000000000E+00 0. -1.
</event>
<event>
 7    1  0.6637272E-009  0.1731984E+03  0.7561462E-02  0.1174553E+00
         -1   -1    0    0    0  501 -0.00000000000E+00  0.00000000000E+00  0.45369783342E+02  0.45369783342E+02  0.00000000000E+00 0.  1.
          1   -1    0    0  501    0  0.00000000000E+00 -0.00000000000E+00 -0.89733062903E+03  0.89733062903E+03  0.00000000000E+00 0. -1.
         25    2    1    2    0    0  0.40976012343E+02 -0.28824139700E+02 -0.51767191258E+03  0.53492328334E+03  0.12509534511E+03 0.  0.
          5    1    3    3  502    0 -0.21614892317E+02 -0.43974887531E+02 -0.91364981775E+02  0.10375946510E+03  0.41800000000E+01 0.  1.
         -5    1    3    3    0  502  0.62590904659E+02  0.15150747831E+02 -0.42630693081E+03  0.43116381824E+03  0.41800000000E+01 0.  1.
        -11    1    1    2    0    0 -0.12706556885E+03  0.60782243298E+02 -0.21898393315E+03  0.26037300718E+03  0.00000000000E+00 0.  1.
         11    1    1    2    0    0  0.86089556508E+02 -0.31958103598E+02 -0.11530499996E+03  0.14740412186E+03  0.00000000000E+00 0. -1.
</event>
<event>
 8    1  0.6637272E-009  0.2032964E+03  0.7561462E-02  0.1146987E+00
          2   -1    0    0  501    0  0.00000000000E+00  0.00000000000E+00  0.14434841208E+04  0.14434841208E+04  0.00000000000E+00 0. -1.
         -2   -1    0    0    0  501 -0.00000000000E+00 -0.00000000000E+00 -0.31884252208E+02  0.31884252208E+02  0.00000000000E+00 0.  1.
         25    2    1    2    0    0  0.17287076620E+03 -0.20659985868E+02  0.52426442728E+03  0.56640288821E+03  0.12509158742E+03 0.  0.
         23    2    1    2    0    0 -0.17287076620E+03  0.20659985868E+02  0.88733544127E+03  0.90896548475E+03  0.92427973645E+02 0.  0.
          5    1    3    3  502    0  0.14138358756E+03 -0.67375615478E+02  0.41057165898E+03  0.43944891847E+03  0.41800000000E+01 0.  1.
         -5    1    3    3    0  502  0.31487178637E+02  0.46715629610E+02  0.11369276830E+03  0.12695396974E+03  0.41800000000E+01 0.  1.
        -11    1    4    4    0    0 -0.14611016805E+02 -0.24787206483E+02  0.80172029409E+02  0.85178880697E+02  0.00000000000E+00 0.  1.
         11    1    4    4    0    0 -0.15825974939E+03  0.45447192351E+02  0.80716341186E+03  0.82378660406E+03  0.00000000000E+00 0. -1.
</event>
<event>
 8    1  0.6637272E-009  0.6932403E+02  0.7561462E-02  0.1362407E+00
          1   -1    0    0  501    0  0.00000000000E+00  0.00000000000E+00  0.65058691174E+03  0.65058691174E+03  0.00000000000E+00 0. -1.
         -1   -1    0    0    0  501 -0.00000000000E+00 -0.00000000000E+00 -0.20763125142E+02  0.20763125142E+02  0.00000000000E+00 0.  1.
         25    2    1    2    0    0  0.16649146713E+02 -0.34462447905E+01  0.50205403871E+03  0.51767919176E+03  0.12507764431E+03 0.  0.
         23    2    1    2    0    0 -0.16649146713E+02  0.34462447905E+01  0.12776974789E+03  0.15367084512E+03  0.83669286335E+02 0.  0.
          5    1    3    3  502    0  0.57450680019E+01  0.45111548511E+02  0.41348922127E+03  0.41600344484E+03  0.41800000000E+01 0. -1.
         -5    1    3    3    0  502  0.10904078711E+02 -0.48557793302E+02  0.88564817447E+02  0.10167574692E+03  0.41800000000E+01 0. -1.
        -11    1    4    4    0    0 -0.18973823352E+02  0.19270762112E+02  0.13385378225E+03  0.13655842437E+03  0.00000000000E+00 0. -1.
         11    1    4    4    0    0  0.23246766393E+01 -0.15824517321E+02 -0.60840343581E+01  0.17112420752E+02  0.00000000000E+00 0.  1.
</event>
<event>
 8    1  0.6637272E-009  0.1220068E+03  0.7561462E-02  0.1239823E+00
          1   -1    0    0  501    0  0.00000000000E+00  0.00000000000E+00  0.88884882727E+03  0.88884882727E+03  0.00000000000E+00 0. -1.
         -1   -1    0    0    0  501 -0.00000000000E+00 -0.00000000000E+00 -0.22090344773E+02  0.22090344773E+02  0.00000000000E+00 0.  1.
         25    2    1    2    0    0 -0.75127990828E+02 -0.47388487045E+02  0.42374323219E+03  0.45066579953E+03  0.12510576460E+03 0.  0.
         23    2    1    2    0    0  0.75127990828E+02  0.47388487045E+02  0.44301525031E+03  0.46027337251E+03  0.87744981184E+02 0.  0.
          5    1    3    3  502    0 -0.43278727754E+02  0.19331853102E+02  0.47609036653E+02  0.67311675000E+02  0.41800000000E+01 0.  1.
         -5    1    3    3    0  502 -0.31849263075E+02 -0.66720340147E+02  0.37613419553E+03  0.38335412453E+03  0.41800000000E+01 0.  1.
        -11    1    4    4    0    0  0.19296881396E+02  0.61779656555E+02  0.27933652131E+03  0.28673679174E+03  0.00000000000E+00 0.  1.
         11    1    4    4    0    0  0.55831109432E+02 -0.14391169510E+02  0.16367872900E+03  0.17353658077E+03  0.00000000000E+00 0. -1.
</event>
<event>
 8    1  0.6637272E-009  0.1591239E+03  0.7561462E-02  0.1189689E+00
          1   -1    0    0  501    0  0.00000000000E+00  0.00000000000E+00  0.10992496656E+04  0.10992496656E+04  0.00000000000E+00 0. -1.
         -1   -1    0    0    0  501 -0.00000000000E+00 -0.00000000000E+00 -0.34415496516E+02  0.34415496516E+02  0.00000000000E+00 0.  1.
         25    2    1    2    0    0  0.85423648039E+01 -0.12026340089E+03  0.24204095141E+03  0.29793727456E+03  0.12508612962E+03 0.  0.
         23    2    1    2    0    0 -0.85423648039E+01  0.12026340089E+03  0.82279321770E+03  0.83572788758E+03  0.83163485944E+02 0.  0.
          5    1    3    3  502    0  0.63902512407E+02 -0.41030713855E+02  0.91411690143E+02  0.11891433919E+03  0.41800000000E+01 0.  1.
         -5    1    3    3    0  502 -0.55360147603E+02 -0.79232687038E+02  0.15062926127E+03  0.17902293537E+03  0.41800000000E+01 0.  1.
        -11    1    4    4    0    0  0.22589369246E+02  0.14674065708E+01  0.96048787685E+02  0.98680304523E+02  0.00000000000E+00 0.  1.
         11    1    4    4    0    0 -0.31131734050E+02  0.11879599432E+03  0.72674443001E+03  0.73704758305E+03  0.00000000000E+00 0. -1.
</event>
<event>
 8    1  0.6637272E-009  0.1005844E+03  0.7561462E-02  0.1279072E+00
         -2   -1    0    0    0  501 -0.00000000000E+00  0.00000000000E+00  0.21967395462E+02  0.21967395462E+02  0.00000000000E+00 0.  1.
          2   -1    0    0  501    0  0.00000000000E+00 -0.00000000000E+00 -0.61176436100E+03  0.61176436100E+03  0.00000000000E+00 0. -1.
         25    2    1    2    0    0 -0.90549774507E+01 -0.13324479150E+02 -0.43596421408E+03  0.45384128351E+03  0.12509028857E+03 0.  0.
         23    2    1    2    0    0  0.90549774507E+01  0.13324479150E+02 -0.15383275146E+03  0.17989047296E+03  0.91850598680E+02 0.  0.
          5    1    3    3  502    0  0.17468289998E+02 -0.65236605726E+02 -0.23050987315E+03  0.24023577981E+03  0.41800000000E+01 0. -1.
         -5    1    3    3    0  502 -0.26523267448E+02  0.51912126576E+02 -0.20545434094E+03  0.21360550370E+03  0.41800000000E+01 0. -1.
        -11    1    4    4    0    0 -0.32357846537E+02  0.39402646192E+01 -0.17292206744E+02  0.36899543790E+02  0.00000000000E+00 0.  1.
         11    1    4    4    0    0  0.41412823988E+02  0.93842145313E+01 -0.13654054471E+03  0.14299092917E+03  0.00000000000E+00 0. -1.
</event>
<event>
 8    1  0.6637272E-009  0.1719756E+03  0.7561462E-02  0.1175803E+00
          2   -1    0    0  501    0  0.00000000000E+00  0.00000000000E+00  0.18458812265E+04  0.18458812265E+04  0.00000000000E+00 0. -1.
         -2   -1    0    0    0  501 -0.00000000000E+00 -0.00000000000E+00 -0.35064102790E+02  0.35064102790E+02  0.00000000000E+00 0.  1.
         25    2    1    2    0    0 -0.14021335571E+03 -0.34840909912E+02  0.16017382792E+04  0.16130969336E+04  0.12507009286E+03 0.  0.
         23    2    1    2    0    0  0.14021335571E+03  0.34840909912E+02  0.20907884447E+03  0.26784839561E+03  0.84587976125E+02 0.  0.
          5    1    3    3  502    0 -0.16254923904E+03 -0.20056297029E+02  0.13955399057E+04  0.14051240554E+04  0.41800000000E+01 0.  1.
         -5    1    3    3    0  502  0.22335883331E+02 -0.14784612883E+02  0.20619837347E+03  0.20797287824E+03  0.41800000000E+01 0.  1.
        -11    1    4    4    0    0  0.89101223566E+02 -0.34089663940E+01  0.65258047457E+02  0.11049552865E+03  0.00000000000E+00 0.  1.
         11    1    4    4    0    0  0.51112132145E+02  0.38249876306E+02  0.14382079701E+03  0.15735286696E+03  0.00000000000E+00 0. -1.
</event>
<event>
 8    1  0.6637272E-009  0.1796905E+03  0.7561462E-02  0.1168103E+00
         -2   -1    0    0    0  501 -0.00000000000E+00  0.00000000000E+00  0.44947180638E+02  0.44947180638E+02  0.00000000000E+00 0. -1.
          2   -1    0    0  501    0  0.00000000000E+00 -0.00000000000E+00 -0.75260892039E+03  0.75260892039E+03  0.00000000000E+00 0.  1.
         25    2    1    2    0    0 -0.12485177837E+03 -0.81635239165E+02 -0.38504162664E+03  0.43145864904E+03  0.12508889938E+03 0.  0.
         23    2    1    2    0    0  0.12485177837E+03  0.81635239165E+02 -0.32262011310E+03  0.36609745198E+03  0.87700217416E+02 0.  0.
          5    1    3    3  502    0 -0.23490705381E+02  0.30036705715E+02 -0.43016323845E+02  0.57635869444E+02  0.41800000000E+01 0. -1.
         -5    1    3    3    0  502 -0.10136107299E+03 -0.11167194488E+03 -0.34202530280E+03  0.37382277960E+03  0.41800000000E+01 0. -1.
        -11    1    4    4    0    0  0.10449826699E+02  0.50523195828E+02 -0.69196478523E+02  0.86313062944E+02  0.00000000000E+00 0. -1.
         11    1    4    4    0    0  0.11440195167E+03  0.31112043336E+02 -0.25342363458E+03  0.27978438904E+03  0.00000000000E+00 0.  1.
</event>
<event>
 8    1  0.6637272E-009  0.1078644E+03  0.7561462E-02  0.1264577E+00
          2   -1    0    0  501    0  0.00000000000E+00  0.00000000000E+00  0.14455727022E+04  0.14455727022E+04  0.00000000000E+00 0. -1.
         -2   -1    0    0    0  501 -0.00000000000E+00 -0.00000000000E+00 -0.14793044323E+02  0.14793044323E+02  0.00000000000E+00 0.  1.
         25    2    1    2    0    0 -0.88729945637E+02  0.24461888117E+02  0.94855069814E+03  0.96117934096E+03  0.12508361731E+03 0.  0.
         23    2    1    2    0    0  0.88729945637E+02 -0.24461888117E+02  0.48222895971E+03  0.49918640554E+03  0.90393089709E+02 0.  0.
          5    1    3    3  502    0  0.85765941461E+01  0.18271822208E+02  0.56603774465E+03  0.56641293967E+03  0.41800000000E+01 0. -1.
         -5    1    3    3    0  502 -0.97306539784E+02  0.61900659091E+01  0.38251295349E+03  0.39476640129E+03  0.41800000000E+01 0. -1.
        -11    1    4    4    0    0  0.84844700425E+02 -0.13524074659E+02  0.47966568088E+03  0.48729938354E+03  0.00000000000E+00 0. -1.
         11    1    4    4    0    0  0.38852452125E+01 -0.10937813457E+02  0.25632788310E+01  0.11887021997E+02  0.00000000000E+00 0.  1.
</event>
<event>
 8    1  0.6637272E-009  0.1102979E+03  0.7561462E-02  0.1260019E+00
          3   -1    0    0  501    0  0.00000000000E+00  0.00000000000E+00  0.87576576258E+02  0.87576576258E+02  0.00000000000E+00 0. -1.
         -3   -1    0    0    0  501 -0.00000000000E+00 -0.00000000000E+00 -0.20759448155E+03  0.20759448155E+03  0.00000000000E+00 0.  1.
         25    2    1    2    0    0  0.15742798627E+01 -0.71759510010E+02 -0.14182966466E+02  0.14491637138E+03  0.12509073715E+03 0.  0.
         23    2    1    2    0    0 -0.15742798627E+01  0.71759510010E+02 -0.10583493883E+03  0.15025468644E+03  0.78889358501E+02 0.  0.
          5    1    3    3  502    0 -0.23023582234E+02 -0.83325575251E+02  0.31074620185E+02  0.91958366936E+02  0.41800000000E+01 0.  1.
         -5    1    3    3    0  502  0.24597862097E+02  0.11566065241E+02 -0.45257586652E+02  0.52958004441E+02  0.41800000000E+01 0.  1.
        -11    1    4    4    0    0 -0.39792973757E+02  0.43898502782E+02 -0.62228940898E+02  0.85924387645E+02  0.00000000000E+00 0.  1.
         11    1    4    4    0    0  0.38218693895E+02  0.27861007228E+02 -0.43605997932E+02  0.64330298790E+02  0.00000000000E+00 0. -1.
</event>
<event>
 8    1  0.6637272E-009  0.7315647E+02  0.7561462E-02  0.1349677E+00
         -2   -1    0    0    0  501 -0.00000000000E+00  0.00000000000E+00  0.18078061602E+02  0.18078061602E+02  0.00000000000E+00 0.  1.
          2   -1    0    0  501    0  0.00000000000E+00 -0.00000000000E+00 -0.11986247410E+04  0.11986247410E+04  0.00000000000E+00 0. -1.
         25    2    1    2    0    0 -0.47267322307E+02 -0.46258994411E+02 -0.94464877307E+03  0.95518739428E+03  0.12509020501E+03 0.  0.
         23    2    1    2    0    0  0.47267322307E+02  0.46258994411E+02 -0.23589790634E+03  0.26151540835E+03  0.91478917046E+02 0.  0.
          5    1    3    3  502    0 -0.19989528110E+02 -0.10934450863E+01 -0.81355229885E+03  0.81380930949E+03  0.41800000000E+01 0. -1.
         -5    1    3    3    0  502 -0.27277794198E+02 -0.45165549324E+02 -0.13109647422E+03  0.14137808478E+03  0.41800000000E+01 0. -1.
        -11    1    4    4    0    0  0.34128364375E+02  0.11893739877E+02 -0.17710076467E+02  0.40247398818E+02  0.00000000000E+00 0.  1.
         11    1    4    4    0    0  0.13138957932E+02  0.34365254534E+02 -0.21818782988E+03  0.22126800953E+03  0.00000000000E+00 0. -1.
</event>
<event>
 8    1  0.6637272E-009  0.1447650E+03  0.7561462E-02  0.1207057E+00
         -1   -1    0    0    0  501 -0.00000000000E+00  0.00000000000E+00  0.23276121200E+02  0.23276121200E+02  0.00000000000E+00 0.  1.
          1   -1    0    0  501    0  0.00000000000E+00 -0.00000000000E+00 -0.12064996957E+04  0.12064996957E+04  0.00000000000E+00 0. -1.
         25    2    1    2    0    0 -0.11748423873E+03  0.16561220913E+02 -0.79259180525E+03  0.81112649072E+03  0.12509034258E+03 0.  0.
         23    2    1    2    0    0  0.11748423873E+03 -0.16561220913E+02 -0.39063176921E+03  0.41864932614E+03  0.92721404086E+02 0.  0.
          5    1    3    3  502    0 -0.33469926646E+02 -0.51609239345E+02 -0.22468498475E+03  0.23299048124E+03  0.41800000000E+01 0.  1.
         -5    1    3    3    0  502 -0.84014312083E+02  0.68170460258E+02 -0.56790682050E+03  0.57813600948E+03  0.41800000000E+01 0.  1.
        -11    1    4    4    0    0  0.73171918635E+02 -0.28880243130E+01 -0.34811898988E+03  0.35573768633E+03  0.00000000000E+00 0. -1.
         11    1    4    4    0    0  0.44312320094E+02 -0.13673196600E+02 -0.42512779329E+02  0.62911639810E+02  0.00000000000E+00 0.  1.
</event>
<event>
 8    1  0.6637272E-009  0.8509356E+02  0.7561462E-02  0.1315188E+00
          1   -1    0    0  501    0  0.00000000000E+00  0.00000000000E+00  0.10279377443E+03  0.10279377443E+03  0.00000000000E+00 0.  1.
         -1   -1    0    0    0  501 -0.00000000000E+00 -0.00000000000E+00 -0.94777791793E+02  0.94777791793E+02  0.00000000000E+00 0. -1.
         25    2    1    2    0    0  0.29502179199E+02  0.20169833936E+01  0.16748110564E+02  0.12965720805E+03  0.12512412075E+03 0.  0.
         23    2    1    2    0    0 -0.29502179199E+02 -0.20169833936E+01 -0.87321279280E+01  0.67914358170E+02  0.60511678113E+02 0.  0.
          5    1    3    3  502    0  0.35140168401E+02  0.53635481615E+02 -0.18369881272E+02  0.66832037686E+02  0.41800000000E+01 0.  1.
         -5    1    3    3    0  502 -0.56379892019E+01 -0.51618498222E+02  0.35117991836E+02  0.62825170366E+02  0.41800000000E+01 0.  1.
        -11    1    4    4    0    0 -0.15887612205E+01  0.18892631848E+02  0.16285033743E+02  0.24993159551E+02  0.00000000000E+00 0.  1.
         11    1    4    4    0    0 -0.27913417979E+02 -0.20909615242E+02 -0.25017161671E+02  0.42921198619E+02  0.00000000000E+00 0. -1.
</event>
<event>
 8    1  0.6637272E-009  0.1753274E+03  0.7561462E-02  0.1172403E+00
         -2   -1    0    0    0  501 -0.00000000000E+00  0.00000000000E+00  0.26136809206E+03  0.26136809206E+03  0.00000000000E+00 0.  1.
          2   -1    0    0  501    0  0.00000000000E+00 -0.00000000000E+00 -0.36500839085E+03  0.36500839085E+03  0.00000000000E+00 0. -1.
         25    2    1    2    0    0 -0.13478057575E+03 -0.72924442174E+02  0.19535174818E+03  0.27801404521E+03  0.12508287632E+03 0.  0.
         23    2    1    2    0    0  0.13478057575E+03  0.72924442174E+02 -0.29899204698E+03  0.34836243770E+03  0.92067181867E+02 0.  0.
          5    1    3    3  502    0  0.10928484226E+02  0.20557819000E+02  0.15130205124E+02  0.28079373153E+02  0.41800000000E+01 0. -1.
         -5    1    3    3    0  502 -0.14570905997E+03 -0.93482261175E+02  0.18022154306E+03  0.24993467206E+03  0.41800000000E+01 0. -1.
        -11    1    4    4    0    0  0.99498942105E+02  0.46949883576E+02 -0.27956898597E+03  0.30043826148E+03  0.00000000000E+00 0. -1.
         11    1    4    4    0    0  0.35281633644E+02  0.25974558598E+02 -0.19423061013E+02  0.47924176216E+02  0.00000000000E+00 0.  1.
</event>
<event>
 8    1  0.6637272E-009  0.1208074E+03  0.7561462E-02  0.1241771E+00
         -1   -1    0    0    0  501 -0.00000000000E+00  0.00000000000E+00  0.17869333175E+03  0.17869333175E+03  0.00000000000E+00 0.  1.
          1   -1    0    0  501    0  0.00000000000E+00 -0.00000000000E+00 -0.87487367483E+02  0.87487367483E+02  0.00000000000E+00 0. -1.
         25    2    1    2    0    0 -0.53389082303E+02  0.29368454121E+02  0.47571038870E+02  0.14704769785E+03  0.12508845469E+03 0.  0.
         23    2    1    2    0    0  0.53389082303E+02 -0.29368454121E+02  0.43634925391E+02  0.11913300138E+03  0.92605426928E+02 0.  0.
          5    1    3    3  502    0  0.30289103187E+02 -0.17755958430E+02 -0.76688167211E+01  0.36179925118E+02  0.41800000000E+01 0.  1.
         -5    1    3    3    0  502 -0.83678185489E+02  0.47124412552E+02  0.55239855592E+02  0.11086777273E+03  0.41800000000E+01 0.  1.
        -11    1    4    4    0    0 -0.23312003445E+02 -0.23664126809E+02  0.70305811611E+01  0.33953931638E+02  0.00000000000E+00 0.  1.
         11    1    4    4    0    0  0.76701085748E+02 -0.57043273125E+01  0.36604344230E+02  0.85179069738E+02  0.00000000000E+00 0. -1.
</event>
<event>
 8    1  0.6637272E-009  0.1053451E+03  0.7561462E-02  0.1269441E+00
          1   -1    0    0  501    0  0.00000000000E+00  0.00000000000E+00  0.30788727434E+03  0.30788727434E+03  0.00000000000E+00 0. -1.
         -1   -1    0    0    0  501 -0.00000000000E+00 -0.00000000000E+00 -0.58512695503E+02  0.58512695503E+02  0.00000000000E+00 0.  1.
         25    2    1    2    0    0 -0.69801602033E+02 -0.10101422900E+02  0.18940237106E+03  0.23768387897E+03  0.12508423470E+03 0.  0.
         23    2    1    2    0    0  0.69801602033E+02  0.10101422900E+02  0.59972207784E+02  0.12871609087E+03  0.89425186342E+02 0.  0.
          5    1    3    3  502    0 -0.43145153466E+02  0.49799088583E+02  0.47569512744E+02  0.81374347518E+02  0.41800000000E+01 0. -1.
         -5    1    3    3    0  502 -0.26656448567E+02 -0.59900511483E+02  0.14183285831E+03  0.15630953145E+03  0.41800000000E+01 0. -1.
        -11    1    4    4    0    0  0.48281767882E+02  0.23421027693E+02 -0.97513356821E+01  0.54541380580E+02  0.00000000000E+00 0.  1.
         11    1    4    4    0    0  0.21519834152E+02 -0.13319604793E+02  0.69723543466E+02  0.74174710294E+02  0.00000000000E+00 0. -1.
</event>
<event>
 8    1  0.6637272E-009  0.1063867E+03  0.7561462E-02  0.1267411E+00
         -1   -1    0    0    0  501 -0.00000000000E+00  0.00000000000E+00  0.10352323796E+03  0.10352323796E+03  0.00000000000E+00 0.  1.
          1   -1    0    0  501    0  0.00000000000E+00 -0.00000000000E+00 -0.23658067388E+03  0.23658067388E+03  0.00000000000E+00 0. -1.
         25    2    1    2    0    0  0.47613172903E+02 -0.81731640652E+02 -0.65400322659E+01  0.15696428220E+03  0.12509172053E+03 0.  0.
         23    2    1    2    0    0 -0.47613172903E+02  0.81731640652E+02 -0.12651740366E+03  0.18313962965E+03  0.92662803762E+02 0.  0.
          5    1    3    3  502    0 -0.43170892520E+01  0.12826125950E+01 -0.49553322388E+02  0.49932820013E+02  0.41800000000E+01 0.  1.
         -5    1    3    3    0  502  0.51930262155E+02 -0.83014253247E+02  0.43013290123E+02  0.10703146218E+03  0.41800000000E+01 0.  1.
        -11    1    4    4    0    0 -0.54710523555E+02  0.43947097307E+02 -0.12653792858E+03  0.14469428502E+03  0.00000000000E+00 0. -1.
         11    1    4    4    0    0  0.70973506521E+01  0.37784543345E+02  0.20524918319E-01  0.38445344625E+02  0.00000000000E+00 0.  1.
</event>
<event>
 8    1  0.6637272E-009  0.8599500E+02  0.7561462E-02  0.1312851E+00
         -1   -1    0    0    0  501 -0.00000000000E+00  0.00000000000E+00  0.13124181940E+03  0.13124181940E+03  0.00000000000E+00 0.  1.
          1   -1    0    0  501    0  0.00000000000E+00 -0.00000000000E+00 -0.16468114120E+03  0.16468114120E+03  0.00000000000E+00 0. -1.
         25    2    1    2    0    0 -0.59215896025E+02  0.75673350151E+01  0.60785833480E+02  0.15135727565E+03  0.12510124076E+03 0.  0.
         23    2    1    2    0    0  0.59215896025E+02 -0.75673350151E+01 -0.94225155277E+02  0.14456568495E+03  0.91962331836E+02 0.  0.
          5    1    3    3  502    0 -0.52075792732E+02  0.12851772584E+01 -0.29812865634E+02  0.60164933529E+02  0.41800000000E+01 0. -1.
         -5    1    3    3    0  502 -0.71401032932E+01  0.62821577567E+01  0.90598699114E+02  0.91192342125E+02  0.41800000000E+01 0. -1.
        -11    1    4    4    0    0  0.51808794748E+02 -0.46557794347E+02 -0.65070299774E+02  0.95320109842E+02  0.00000000000E+00 0. -1.
         11    1    4    4    0    0  0.74071012773E+01  0.38990459332E+02 -0.29154855503E+02  0.49245575108E+02  0.00000000000E+00 0.  1.
</event>
<event>
 8    1  0.6637272E-009  0.1057022E+03  0.7561462E-02  0.1268742E+00
         -2   -1    0    0    0  501 -0.00000000000E+00  0.00000000000E+00  0.29315353562E+03  0.29315353562E+03  0.00000000000E+00 0.  1.
          2   -1    0    0  501    0  0.00000000000E+00 -0.00000000000E+00 -0.54495953498E+02  0.54495953498E+02  0.00000000000E+00 0. -1.
         25    2    1    2    0    0 -0.19853008193E+01  0.63409238850E+02  0.21811822676E+03  0.25931984491E+03  0.12508616283E+03 0.  0.
         23    2    1    2    0    0  0.19853008193E+01 -0.63409238850E+02  0.20539355370E+02  0.88329644209E+02  0.57927436817E+02 0.  0.
          5    1    3    3  502    0 -0.35144559300E+02  0.80563650851E+02  0.90254075003E+02  0.12605122904E+03  0.41800000000E+01 0.  1.
         -5    1    3    3    0  502  0.33159258481E+02 -0.17154412001E+02  0.12786415175E+03  0.13326861588E+03  0.41800000000E+01 0.  1.
        -11    1    4    4    0    0 -0.25081539672E+02 -0.12135752909E+02  0.82937706320E+01  0.29071407986E+02  0.00000000000E+00 0.  1.
         11    1    4    4    0    0  0.27066840491E+02 -0.51273485941E+02  0.12245584738E+02  0.59258236223E+02  0.00000000000E+00 0. -1.
</event>
<event>
 8    1  0.6637272E-009  0.1385072E+03  0.7561462E-02  0.1215352E+00
         -2   -1    0    0    0  501 -0.00000000000E+00  0.00000000000E+00  0.96942671373E+02  0.96942671373E+02  0.00000000000E+00 0.  1.
          2   -1    0    0  501    0  0.00000000000E+00 -0.00000000000E+00 -0.25555214763E+03  0.25555214763E+03  0.00000000000E+00 0. -1.
         25    2    1    2    0    0 -0.67752920589E+02  0.84174174064E+02 -0.12402221021E+03  0.20664579889E+03  0.12508088481E+03 0.  0.
         23    2    1    2    0    0  0.67752920589E+02 -0.84174174064E+02 -0.34587266048E+02  0.14584902012E+03  0.91651011280E+02 0.  0.
          5    1    3    3  502    0 -0.53525089456E+02 -0.20399826296E+02 -0.27971285369E+02  0.63882339651E+02  0.41800000000E+01 0. -1.
         -5    1    3    3    0  502 -0.14227831133E+02  0.10457400036E+03 -0.96050924838E+02  0.14276345923E+03  0.41800000000E+01 0. -1.
        -11    1    4    4    0    0  0.16993071824E+02 -0.49898427048E+02 -0.59709685703E+02  0.79648377753E+02  0.00000000000E+00 0. -1.
         11    1    4    4    0    0  0.50759848765E+02 -0.34275747016E+02  0.25122419654E+02  0.66200642364E+02  0.00000000000E+00 0.  1.
</event>
<event>
 8    1  0.6637272E-009  0.7703327E+02  0.7561462E-02  0.1337688E+00
          2   -1    0    0  501    0  0.00000000000E+00  0.00000000000E+00  0.81394416498E+03  0.81394416498E+03  0.00000000000E+00 0. -1.
         -2   -1    0    0    0  501 -0.00000000000E+00 -0.00000000000E+00 -0.17866685662E+02  0.17866685662E+02  0.00000000000E+00 0.  1.
         25    2    1    2    0    0 -0.13875257993E+02 -0.35859036538E+02  0.56231352521E+03  0.57734117195E+03  0.12509170604E+03 0.  0.
         23    2    1    2    0    0  0.13875257993E+02  0.35859036538E+02  0.23376395412E+03  0.25446967869E+03  0.92902302682E+02 0.  0.
          5    1    3    3  502    0  0.23342602703E+02 -0.24115549315E+02  0.35371085928E+02  0.48938971581E+02  0.41800000000E+01 0.  1.
         -5    1    3    3    0  502 -0.37217860696E+02 -0.11743487223E+02  0.52694243928E+03  0.52840220037E+03  0.41800000000E+01 0.  1.
        -11    1    4    4    0    0 -0.15116370813E+02  0.47429195375E+02  0.20835892749E+03  0.21422295840E+03  0.00000000000E+00 0. -1.
         11    1    4    4    0    0  0.28991628806E+02 -0.11570158836E+02  0.25405026621E+02  0.40246720288E+02  0.00000000000E+00 0.  1.
</event>
<event>
 8    1  0.6637272E-009  0.1583700E+03  0.7561462E-02  0.1190549E+00
         -2   -1    0    0    0  501 -0.00000000000E+00  0.00000000000E+00  0.36892186716E+02  0.36892186716E+02  0.00000000000E+00 0.  1.
          2   -1    0    0  501    0  0.00000000000E+00 -0.00000000000E+00 -0.75807759767E+03  0.75807759767E+03  0.00000000000E+00 0. -1.
         25    2    1    2    0    0 -0.78176891508E+02 -0.87826757392E+02 -0.27126842354E+03  0.32103837907E+03  0.12511561671E+03 0.  0.
         23    2    1    2    0    0  0.78176891508E+02  0.87826757392E+02 -0.44991698742E+03  0.47393140532E+03  0.91435855677E+02 0.  0.
          5    1    3    3  502    0 -0.10658974126E+03 -0.41223496452E+02 -0.20808378394E+03  0.23743858814E+03  0.41800000000E+01 0. -1.
         -5    1    3    3    0  502  0.28412849749E+02 -0.46603260940E+02 -0.63184639597E+02  0.83599790921E+02  0.41800000000E+01 0. -1.
        -11    1    4    4    0    0 -0.20248483944E+02  0.15110863834E+02 -0.10336583784E+03  0.10640881420E+03  0.00000000000E+00 0. -1.
         11    1    4    4    0    0  0.98425375452E+02  0.72715893557E+02 -0.34655114958E+03  0.36752259112E+03  0.00000000000E+00 0.  1.
</event>
<event>
 8    1  0.6637272E-009  0.1850507E+03  0.7561462E-02  0.1163003E+00
          1   -1    0    0  501    0  0.00000000000E+00  0.00000000000E+00  0.35029282687E+03  0.35029282687E+03  0.00000000000E+00 0. -1.
         -1   -1    0    0    0  501 -0.00000000000E+00 -0.00000000000E+00 -0.11199213549E+03  0.11199213549E+03  0.00000000000E+00 0.  1.
         25    2    1    2    0    0  0.11161605619E+03 -0.12023701740E+03  0.15001227261E+03  0.25507973835E+03  0.12508759582E+03 0.  0.
         23    2    1    2    0    0 -0.11161605619E+03  0.12023701740E+03  0.88288418760E+02  0.20720522401E+03  0.90686689306E+02 0.  0.
          5    1    3    3  502    0  0.93080927002E+02 -0.14648665543E+03  0.12132113775E+03  0.21179870173E+03  0.41800000000E+01 0.  1.
         -5    1    3    3    0  502  0.18535129191E+02  0.26249638028E+02  0.28691134865E+02  0.43281036616E+02  0.41800000000E+01 0.  1.
        -11    1    4    4    0    0 -0.69342323192E+02  0.76924868021E+02  0.42645077406E+01  0.10365316750E+03  0.00000000000E+00 0.  1.
         11    1    4    4    0    0 -0.42273733002E+02  0.43312149381E+02  0.84023911020E+02  0.10355205652E+03  0.00000000000E+00 0. -1.
</event>
<event>
 8    1  0.6637272E-009  0.2343463E+03  0.7561462E-02  0.1123617E+00
         -2   -1    0    0    0  501 -0.00000000000E+00  0.00000000000E+00  0.94527167356E+02  0.94527167356E+02  0.00000000000E+00 0.  1.
          2   -1    0    0  501    0  0.00000000000E+00 -0.00000000000E+00 -0.74081693240E+03  0.74081693240E+03  0.00000000000E+00 0. -1.
         25    2    1    2    0    0 -0.18327398444E+03 -0.11915714922E+03 -0.49162378706E+03  0.55238542809E+03  0.12509170070E+03 0.  0.
         23    2    1    2    0    0  0.18327398444E+03  0.11915714922E+03 -0.15466597799E+03  0.28295867167E+03  0.91412611509E+02 0.  0.
          5    1    3    3  502    0 -0.86253695615E+02  0.83398821297E+00 -0.10415664100E+03  0.13530141835E+03  0.41800000000E+01 0.  1.
         -5    1    3    3    0  502 -0.97020288822E+02 -0.11999113743E+03 -0.38746714606E+03  0.41708400974E+03  0.41800000000E+01 0.  1.
        -11    1    4    4    0    0  0.43759835093E+02  0.64903569705E+02 -0.91690475254E+02  0.12055927911E+03  0.00000000000E+00 0.  1.
         11    1    4    4    0    0  0.13951414934E+03  0.54253579515E+02 -0.62975502733E+02  0.16239939255E+03  0.00000000000E+00 0. -1.
</event>
<event>
 8    1  0.6637272E-009  0.9834679E+02  0.7561462E-02  0.1283811E+00
         -1   -1    0    0    0  501 -0.00000000000E+00  0.00000000000E+00  0.80019161526E+01  0.80019161526E+01  0.00000000000E+00 0.  1.
          1   -1    0    0  501    0  0.00000000000E+00 -0.00000000000E+00 -0.18107171711E+04  0.18107171711E+04  0.00000000000E+00 0. -1.
         25    2    1    2    0    0 -0.89266284967E+01  0.94038140842E+01 -0.14141511951E+04  0.14197321369E+04  0.12509045394E+03 0.  0.
         23    2    1    2    0    0  0.89266284967E+01 -0.94038140842E+01 -0.38856405986E+03  0.39898695032E+03  0.89668508923E+02 0.  0.
          5    1    3    3  502    0 -0.54672041427E+02  0.21694001945E+02 -0.11372429747E+04  0.11387707046E+04  0.41800000000E+01 0. -1.
         -5    1    3    3    0  502  0.45745412931E+02 -0.12290187861E+02 -0.27690822043E+03  0.28096143234E+03  0.41800000000E+01 0. -1.
        -11    1    4    4    0    0 -0.65423322869E+01 -0.48078234616E+02 -0.18966298200E+03  0.19577120702E+03  0.00000000000E+00 0.  1.
         11    1    4    4    0    0  0.15468960784E+02  0.38674420532E+02 -0.19890107786E+03  0.20321574330E+03  0.00000000000E+00 0. -1.
</event>
<event>
 8    1  0.6637272E-009  0.1192557E+03  0.7561462E-02  0.1244330E+00
         -1   -1    0    0    0  501 -0.00000000000E+00  0.00000000000E+00  0.11364344914E+03  0.11364344914E+03  0.00000000000E+00 0.  1.
          1   -1    0    0  501    0  0.00000000000E+00 -0.00000000000E+00 -0.14896425503E+03  0.14896425503E+03  0.00000000000E+00 0. -1.
         25    2    1    2    0    0 -0.69353916901E+02  0.20687844429E+02 -0.41540245769E+01  0.14457970726E+03  0.12509229846E+03 0.  0.
         23    2    1    2    0    0  0.69353916901E+02 -0.20687844429E+02 -0.31166781308E+02  0.11802799692E+03  0.87870854680E+02 0.  0.
          5    1    3    3  502    0 -0.90420853584E+02 -0.10940851940E+02 -0.32704155303E+02  0.96864168701E+02  0.41800000000E+01 0.  1.
         -5    1    3    3    0  502  0.21066936682E+02  0.31628696369E+02  0.28550130726E+02  0.47715538556E+02  0.41800000000E+01 0.  1.
        -11    1    4    4    0    0  0.48382135885E+02  0.28134326902E+02  0.88331520296E+00  0.55974562693E+02  0.00000000000E+00 0.  1.
         11    1    4    4    0    0  0.20971781017E+02 -0.48822171331E+02 -0.32050096511E+02  0.62053434222E+02  0.00000000000E+00 0. -1.
</event>
<event>
 8    1  0.6637272E-009  0.1487406E+03  0.7561462E-02  0.1202029E+00
         -1   -1    0    0    0  501 -0.00000000000E+00  0.00000000000E+00  0.85470947998E+02  0.85470947998E+02  0.00000000000E+00 0.  1.
          1   -1    0    0  501    0  0.00000000000E+00 -0.00000000000E+00 -0.31720938988E+03  0.31720938988E+03  0.00000000000E+00 0. -1.
         25    2    1    2    0    0  0.10925828073E+03  0.22454791425E+01 -0.67475207967E+02  0.17928385085E+03  0.12508949357E+03 0.  0.
         23    2    1    2    0    0 -0.10925828073E+03 -0.22454791425E+01 -0.16426323391E+03  0.22339648703E+03  0.10479106029E+03 0.  0.
          5    1    3    3  502    0 -0.17659627780E+02 -0.10190659635E+02 -0.45197501612E+02  0.49759406640E+02  0.41800000000E+01 0. -1.
         -5    1    3    3    0  502  0.12691790851E+03  0.12436138777E+02 -0.22277706355E+02  0.12952444421E+03  0.41800000000E+01 0. -1.
        -11    1    4    4    0    0 -0.22321684202E+02  0.44924842861E+02 -0.37609623625E+02  0.62697550836E+02  0.00000000000E+00 0.  1.
         11    1    4    4    0    0 -0.86936596525E+02 -0.47170322003E+02 -0.12665361029E+03  0.16069893619E+03  0.00000000000E+00 0. -1.
</event>
<event>
 8    1  0.6637272E-009  0.1598894E+03  0.7561462E-02  0.1188822E+00
          2   -1    0    0  501    0  0.00000000000E+00  0.00000000000E+00  0.25257121314E+03  0.25257121314E+03  0.00000000000E+00 0. -1.
         -2   -1    0    0    0  501 -0.00000000000E+00 -0.00000000000E+00 -0.12841530716E+03  0.12841530716E+03  0.00000000000E+00 0.  1.
         25    2    1    2    0    0  0.12112273351E+03  0.13839533631E+02  0.11531467327E+03  0.20930121684E+03  0.12508907320E+03 0.  0.
         23    2    1    2    0    0 -0.12112273351E+03 -0.13839533631E+02  0.88412327102E+01  0.17168530346E+03  0.12056295768E+03 0.  0.
          5    1    3    3  502    0  0.92252611890E+02 -0.40757613456E+02  0.32776292205E+02  0.10612956791E+03  0.41800000000E+01 0.  1.
         -5    1    3    3    0  502  0.28870121618E+02  0.54597147088E+02  0.82538381067E+02  0.10317164892E+03  0.41800000000E+01 0.  1.
        -11    1    4    4    0    0 -0.29323096471E+01  0.30545525568E+02 -0.26540583438E+02  0.40571297013E+02  0.00000000000E+00 0.  1.
         11    1    4    4    0    0 -0.11819042386E+03 -0.44385059200E+02  0.35381816148E+02  0.13111400645E+03  0.00000000000E+00 0. -1.
</event>
<event>
 8    1  0.6637272E-009  0.8778220E+02  0.7561462E-02  0.1308313E+00
          2   -1    0    0  501    0  0.00000000000E+00  0.00000000000E+00  0.18211505763E+03  0.18211505763E+03  0.00000000000E+00 0. -1.
         -2   -1    0    0    0  501 -0.00000000000E+00 -0.00000000000E+00 -0.79599956498E+02  0.79599956498E+02  0.00000000000E+00 0.  1.
         25    2    1    2    0    0  0.34840443816E+02  0.22411769509E+02  0.29637289621E+02  0.13506208278E+03  0.12508898166E+03 0.  0.
         23    2    1    2    0    0 -0.34840443816E+02 -0.22411769509E+02  0.72877811508E+02  0.12665293134E+03  0.94940221557E+02 0.  0.
          5    1    3    3  502    0 -0.32241870618E+02 -0.26950304838E+01 -0.28030027416E+02  0.43011117716E+02  0.41800000000E+01 0. -1.
         -5    1    3    3    0  502  0.67082314434E+02  0.25106799993E+02  0.57667317036E+02  0.92050965068E+02  0.41800000000E+01 0. -1.
        -11    1    4    4    0    0 -0.16478539568E+02 -0.41533000134E+02 -0.44533879332E+01  0.44903953395E+02  0.00000000000E+00 0.  1.
         11    1    4    4    0    0 -0.18361904249E+02  0.19121230625E+02  0.77331199441E+02  0.81748977946E+02  0.00000000000E+00 0. -1.
</event>
<event>
 8    1  0.6637272E-009  0.1095322E+03  0.7561462E-02  0.1261439E+00
          4   -1    0    0  501    0  0.00000000000E+00  0.00000000000E+00  0.40269958748E+03  0.40269958748E+03  0.00000000000E+00 0. -1.
         -4   -1    0    0    0  501 -0.00000000000E+00 -0.00000000000E+00 -0.41613202320E+02  0.41613202320E+02  0.00000000000E+00 0.  1.
         25    2    1    2    0    0  0.29306983583E+00 -0.72254198382E+02  0.21402723492E+03  0.25821642027E+03  0.12508919752E+03 0.  0.
         23    2    1    2    0    0 -0.29306983583E+00  0.72254198382E+02  0.14705915024E+03  0.18609636953E+03  0.88231003673E+02 0.  0.
          5    1    3    3  502    0 -0.44430856683E+02 -0.71861343036E+02  0.18835330917E+03  0.20647662125E+03  0.41800000000E+01 0. -1.
         -5    1    3    3    0  502  0.44723926519E+02 -0.39285534603E+00  0.25673925744E+02  0.51739799011E+02  0.41800000000E+01 0. -1.
        -11    1    4    4    0    0 -0.26207781905E+02  0.28646619644E+02  0.12480136223E+03  0.13070140268E+03  0.00000000000E+00 0. -1.
         11    1    4    4    0    0  0.25914712069E+02  0.43607578738E+02  0.22257788016E+02  0.55394966850E+02  0.00000000000E+00 0.  1.
</event>
<event>
 8    1  0.6637272E-009  0.1047009E+03  0.7561462E-02  0.1270710E+00
         -1   -1    0    0    0  501 -0.00000000000E+00  0.00000000000E+00  0.15233748558E+02  0.15233748558E+02  0.00000000000E+00 0.  1.
          1   -1    0    0  501    0  0.00000000000E+00 -0.00000000000E+00 -0.12528292121E+04  0.12528292121E+04  0.00000000000E+00 0. -1.
         25    2    1    2    0    0  0.30642462284E+02 -0.81216196142E+02 -0.70263692338E+03  0.71894489552E+03  0.12509230864E+03 0.  0.
         23    2    1    2    0    0 -0.30642462284E+02  0.81216196142E+02 -0.53495854013E+03  0.54911806511E+03  0.88402368530E+02 0.  0.
          5    1    3    3  502    0  0.11942294506E+02 -0.46185846325E+02 -0.65516867390E+03  0.65691644404E+03  0.41800000000E+01 0. -1.
         -5    1    3    3    0  502  0.18700167777E+02 -0.35030349818E+02 -0.47468249487E+02  0.62028451477E+02  0.41800000000E+01 0. -1.
        -11    1    4    4    0    0 -0.16176667600E+00 -0.17893742924E+02 -0.47637769407E+02  0.50887810705E+02  0.00000000000E+00 0.  1.
         11    1    4    4    0    0 -0.30480695608E+02  0.99109939066E+02 -0.48732077072E+03  0.49823025440E+03  0.00000000000E+00 0. -1.
</event>
<event>
 8    1  0.6637272E-009  0.1205127E+03  0.7561462E-02  0.1242254E+00
         -2   -1    0    0    0  501 -0.00000000000E+00  0.00000000000E+00  0.20821406878E+02  0.20821406878E+02  0.00000000000E+00 0.  1.
          2   -1    0    0  501    0  0.00000000000E+00 -0.00000000000E+00 -0.12248691048E+04  0.12248691048E+04  0.00000000000E+00 0. -1.
         25    2    1    2    0    0 -0.72980510886E+02  0.46647233145E+02 -0.94428377041E+03  0.95646291784E+03  0.12508938728E+03 0.  0.
         23    2    1    2    0    0  0.72980510886E+02 -0.46647233145E+02 -0.25976392749E+03  0.28922759382E+03  0.93129928979E+02 0.  0.
          5    1    3    3  502    0  0.10893997533E+02  0.36417649478E+02 -0.62476003807E+03  0.62592931066E+03  0.41800000000E+01 0. -1.
         -5    1    3    3    0  502 -0.83874508419E+02  0.10229583667E+02 -0.31952373234E+03  0.33053360718E+03  0.41800000000E+01 0. -1.
        -11    1    4    4    0    0 -0.13974754345E+02 -0.24896426181E+02 -0.11877472287E+03  0.12215793298E+03  0.00000000000E+00 0. -1.
         11    1    4    4    0    0  0.86955265232E+02 -0.21750806964E+02 -0.14098920461E+03  0.16706966084E+03  0.00000000000E+00 0.  1.
</event>
<event>
 8    1  0.6637272E-009  0.1365582E+03  0.7561462E-02  0.1218037E+00
          2   -1    0    0  501    0  0.00000000000E+00  0.00000000000E+00  0.32676464645E+03  0.32676464645E+03  0.00000000000E+00 0. -1.
         -2   -1    0    0    0  501 -0.00000000000E+00 -0.00000000000E+00 -0.77888531438E+02  0.77888531438E+02  0.00000000000E+00 0.  1.
         25    2    1    2    0    0 -0.76303885984E+02 -0.67436233086E+02  0.58646277695E+02  0.17163065955E+03  0.12509104228E+03 0.  0.
         23    2    1    2    0    0  0.76303885984E+02  0.67436233086E+02  0.19022983732E+03  0.23302251835E+03  0.87989627230E+02 0.  0.
          5    1    3    3  502    0 -0.53593949856E+02 -0.92900627031E+02  0.44161402718E+01  0.10742352005E+03  0.41800000000E+01 0.  1.
         -5    1    3    3    0  502 -0.22709936127E+02  0.25464393946E+02  0.54230137424E+02  0.64207139501E+02  0.41800000000E+01 0.  1.
        -11    1    4    4    0    0  0.35100563890E+02 -0.15830384646E+02  0.34572274306E+02  0.51748360497E+02  0.00000000000E+00 0.  1.
         11    1    4    4    0    0  0.41203322094E+02  0.83266617732E+02  0.15565756301E+03  0.18127415785E+03  0.00000000000E+00 0. -1.
</event>
<event>
 8    1  0.6637272E-009  0.1107613E+03  0.7561462E-02  0.1259167E+00
          1   -1    0    0  501    0  0.00000000000E+00  0.00000000000E+00  0.48151833645E+03  0.48151833645E+03  0.00000000000E+00 0. -1.
         -1   -1    0    0    0  501 -0.00000000000E+00 -0.00000000000E+00 -0.33849007021E+02  0.33849007021E+02  0.00000000000E+00 0.  1.
         25    2    1    2    0    0 -0.59096094013E+02  0.15457134926E+02  0.19168626118E+03  0.23690286559E+03  0.12509226055E+03 0.  0.
         23    2    1    2    0    0  0.59096094013E+02 -0.15457134926E+02  0.25598306825E+03  0.27846447789E+03  0.91015728681E+02 0.  0.
          5    1    3    3  502    0 -0.56913980815E+02  0.66680489357E+02  0.12006850567E+03  0.14872594705E+03  0.41800000000E+01 0. -1.
         -5    1    3    3    0  502 -0.21821131983E+01 -0.51223354431E+02  0.71617755513E+02  0.88176918533E+02  0.41800000000E+01 0. -1.
        -11    1    4    4    0    0 -0.12123556783E+01 -0.21655987396E+02  0.79045141642E+01  0.23085340382E+02  0.00000000000E+00 0.  1.
         11    1    4    4    0    0  0.60308449692E+02  0.61988524700E+01  0.24807855409E+03  0.25537913751E+03  0.00000000000E+00 0. -1.
</event>
<event>
 8    1  0.6637272E-009  0.1573549E+03  0.7561462E-02  0.1191716E+00
         -1   -1    0    0    0  501 -0.00000000000E+00  0.00000000000E+00  0.79392589963E+03  0.79392589963E+03  0.00000000000E+00 0.  1.
          1   -1    0    0  501    0  0.00000000000E+00 -0.00000000000E+00 -0.43141105186E+02  0.43141105186E+02  0.00000000000E+00 0. -1.
         25    2    1    2    0    0 -0.61638046805E+01 -0.12316365443E+03  0.58535264963E+03  0.61113880319E+03  0.12508250904E+03 0.  0.
         23    2    1    2    0    0  0.61638046805E+01  0.12316365443E+03  0.16543214481E+03  0.22592820163E+03  0.92024341849E+02 0.  0.
          5    1    3    3  502    0  0.38572975036E+02 -0.11118576522E+03  0.50264432958E+03  0.51625472710E+03  0.41800000000E+01 0.  1.
         -5    1    3    3    0  502 -0.44736779717E+02 -0.11977889210E+02  0.82708320048E+02  0.94884076085E+02  0.41800000000E+01 0.  1.
        -11    1    4    4    0    0  0.45702467311E+02  0.53655622114E+02  0.10137373615E+03  0.12346771110E+03  0.00000000000E+00 0. -1.
         11    1    4    4    0    0 -0.39538662630E+02  0.69508032319E+02  0.64058408660E+02  0.10246049053E+03  0.00000000000E+00 0.  1.
</event>
<event>
 8    1  0.6637272E-009  0.1322403E+03  0.7561462E-02  0.1224169E+00
          2   -1    0    0  501    0  0.00000000000E+00  0.00000000000E+00  0.36937342334E+03  0.36937342334E+03  0.00000000000E+00 0.  1.
         -2   -1    0    0    0  501 -0.00000000000E+00 -0.00000000000E+00 -0.58898642213E+02  0.58898642213E+02  0.00000000000E+00 0. -1.
         25    2    1    2    0    0  0.88131816863E+02  0.23177749799E+02  0.11010325694E+03  0.18997118077E+03  0.12514750139E+03 0.  0.
         23    2    1    2    0    0 -0.88131816863E+02 -0.23177749799E+02  0.20037152419E+03  0.23830088479E+03  0.91291504286E+02 0.  0.
          5    1    3    3  502    0 -0.10795012062E+02  0.38439655112E+02  0.72670951784E+02  0.83022159715E+02  0.41800000000E+01 0. -1.
         -5    1    3    3    0  502  0.98926828925E+02 -0.15261905313E+02  0.37432305154E+02  0.10694902105E+03  0.41800000000E+01 0. -1.
        -11    1    4    4    0    0 -0.23320975088E+02 -0.49093505680E+02  0.12073422282E+03  0.13240390002E+03  0.00000000000E+00 0.  1.
         11    1    4    4    0    0 -0.64810841775E+02  0.25915755881E+02  0.79637301367E+02  0.10589698477E+03  0.00000000000E+00 0. -1.
</event>
<event>
 8    1  0.6637272E-009  0.8435879E+02  0.7561462E-02  0.1317118E+00
         -1   -1    0    0    0  501 -0.00000000000E+00  0.00000000000E+00  0.34138476756E+02  0.34138476756E+02  0.00000000000E+00 0.  1.
          1   -1    0    0  501    0  0.00000000000E+00 -0.00000000000E+00 -0.49881828054E+03  0.49881828054E+03  0.00000000000E+00 0. -1.
         25    2    1    2    0    0 -0.24931524659E+02 -0.14887654361E+02 -0.39246407070E+03  0.41293905743E+03  0.12508954867E+03 0.  0.
         23    2    1    2    0    0  0.24931524659E+02  0.14887654361E+02 -0.72215733088E+02  0.12001769987E+03  0.91355968619E+02 0.  0.
          5    1    3    3  502    0  0.22316523540E+02  0.45957588323E+02 -0.15463536825E+03  0.16291008766E+03  0.41800000000E+01 0.  1.
         -5    1    3    3    0  502 -0.47248048199E+02 -0.60845242684E+02 -0.23782870245E+03  0.25002896977E+03  0.41800000000E+01 0.  1.
        -11    1    4    4    0    0  0.27812273831E+02  0.28812281584E+01 -0.92299642326E+02  0.96441941213E+02  0.00000000000E+00 0. -1.
         11    1    4    4    0    0 -0.28807491727E+01  0.12006426203E+02  0.20083909238E+02  0.23575758657E+02  0.00000000000E+00 0.  1.
</event>
<event>
 8    1  0.6637272E-009  0.1171477E+03  0.7561462E-02  0.1247878E+00
         -2   -1    0    0    0  501 -0.00000000000E+00  0.00000000000E+00  0.47926500437E+02  0.47926500437E+02  0.00000000000E+00 0.  1.
          2   -1    0    0  501    0  0.00000000000E+00 -0.00000000000E+00 -0.71133365091E+03  0.71133365091E+03  0.00000000000E+00 0. -1.
         25    2    1    2    0    0 -0.65075821226E+02 -0.96132817522E+02 -0.54194927988E+03  0.56818402951E+03  0.12509072034E+03 0.  0.
         23    2    1    2    0    0  0.65075821226E+02  0.96132817522E+02 -0.12145787059E+03  0.19107612184E+03  0.91003785058E+02 0.  0.
          5    1    3    3  502    0 -0.25749540431E+02 -0.36083359458E+02 -0.44633822326E+03  0.44855359725E+03  0.41800000000E+01 0.  1.
         -5    1    3    3    0  502 -0.39326280795E+02 -0.60049458064E+02 -0.95611056621E+02  0.11963043226E+03  0.41800000000E+01 0.  1.
        -11    1    4    4    0    0  0.18516847561E+02  0.45280504309E+02 -0.11105011811E+03  0.12134795608E+03  0.00000000000E+00 0. -1.
         11    1    4    4    0    0  0.46558973665E+02  0.50852313213E+02 -0.10407752488E+02  0.69728165756E+02  0.00000000000E+00 0.  1.
</event>
<event>
 8    1  0.6637272E-009  0.6702063E+02  0.7561462E-02  0.1370528E+00
         -1   -1    0    0    0  501 -0.00000000000E+00  0.00000000000E+00  0.21953820580E+03  0.21953820580E+03  0.00000000000E+00 0.  1.
          1   -1    0    0  501    0  0.00000000000E+00 -0.00000000000E+00 -0.60285110033E+02  0.60285110033E+02  0.00000000000E+00 0. -1.
         25    2    1    2    0    0 -0.26064142403E+02  0.14359748066E+00  0.82866793941E+02  0.15229718005E+03  0.12509262717E+03 0.  0.
         23    2    1    2    0    0  0.26064142403E+02 -0.14359748066E+00  0.76386301830E+02  0.12752613579E+03  0.98735444814E+02 0.  0.
          5    1    3    3  502    0  0.11919186932E+01  0.36331073374E+02 -0.18637338577E+02  0.41063248190E+02  0.41800000000E+01 0. -1.
         -5    1    3    3    0  502 -0.27256061096E+02 -0.36187475894E+02  0.10150413252E+03  0.11123393186E+03  0.41800000000E+01 0. -1.
        -11    1    4    4    0    0  0.24874227782E+02  0.19913013645E+02 -0.14094638808E+02  0.34841270977E+02  0.00000000000E+00 0. -1.
         11    1    4    4    0    0  0.11899146211E+01 -0.20056611125E+02  0.90480940638E+02  0.92684864813E+02  0.00000000000E+00 0.  1.
</event>
<event>
 8    1  0.6637272E-009  0.2345112E+03  0.7561462E-02  0.1123504E+00
         -2   -1    0    0    0  501 -0.00000000000E+00  0.00000000000E+00  0.47879165261E+03  0.47879165261E+03  0.00000000000E+00 0.  1.
          2   -1    0    0  501    0  0.00000000000E+00 -0.00000000000E+00 -0.13190229059E+03  0.13190229059E+03  0.00000000000E+00 0. -1.
         25    2    1    2    0    0  0.77713230670E+02 -0.21245085227E+03  0.19194027961E+03  0.32196896206E+03  0.12509288845E+03 0.  0.
         23    2    1    2    0    0 -0.77713230670E+02  0.21245085227E+03  0.15494908242E+03  0.28872498114E+03  0.90433322090E+02 0.  0.
          5    1    3    3  502    0  0.32268754872E+02 -0.65649696771E+02 -0.34493534314E+01  0.73352066544E+02  0.41800000000E+01 0.  1.
         -5    1    3    3    0  502  0.45444475798E+02 -0.14680115550E+03  0.19538963304E+03  0.24861689551E+03  0.41800000000E+01 0.  1.
        -11    1    4    4    0    0 -0.26367403013E+02  0.17856432195E+03  0.10062986762E+03  0.20665630228E+03  0.00000000000E+00 0.  1.
         11    1    4    4    0    0 -0.51345827657E+02  0.33886530324E+02  0.54319214793E+02  0.82068678866E+02  0.00000000000E+00 0. -1.
</event>
<event>
 8    1  0.6637272E-009  0.1055210E+03  0.7561462E-02  0.1269096E+00
          2   -1    0    0  501    0  0.00000000000E+00  0.00000000000E+00  0.27180820119E+03  0.27180820119E+03  0.00000000000E+00 0.  1.
         -2   -1    0    0    0  501 -0.00000000000E+00 -0.00000000000E+00 -0.52914395013E+02  0.52914395013E+02  0.00000000000E+00 0. -1.
         25    2    1    2    0    0 -0.41298804664E+02 -0.46387749198E+02  0.84850351175E+02  0.16341661817E+03  0.12509194402E+03 0.  0.
         23    2    1    2    0    0  0.41298804664E+02  0.46387749198E+02  0.13404345500E+03  0.16130597803E+03  0.64765393358E+02 0.  0.
          5    1    3    3  502    0  0.40353022961E+02  0.39783879132E+01  0.41119519249E+02  0.57900615677E+02  0.41800000000E+01 0.  1.
         -5    1    3    3    0  502 -0.81651827625E+02 -0.50366137111E+02  0.43730831926E+02  0.10551600250E+03  0.41800000000E+01 0.  1.
        -11    1    4    4    0    0  0.32521133294E+02  0.53731353525E+02  0.13590049589E+03  0.14971181398E+03  0.00000000000E+00 0.  1.
         11    1    4    4    0    0  0.87776713696E+01 -0.73436043270E+01 -0.18570408853E+01  0.11594164051E+02  0.00000000000E+00 0. -1.
</event>
<event>
 7    1  0.6637272E-009  0.1036912E+03  0.7561462E-02  0.1272720E+00
          2   -1    0    0  501    0  0.00000000000E+00  0.00000000000E+00  0.82231627307E+03  0.82231627307E+03  0.00000000000E+00 0. -1.
         -2   -1    0    0    0  501 -0.00000000000E+00 -0.00000000000E+00 -0.17166433716E+02  0.17166433716E+02  0.00000000000E+00 0.  1.
         23    2    1    2    0    0 -0.30108901699E+02 -0.42203243631E+02  0.30584864609E+03  0.32230404911E+03  0.87457681324E+02 0.  0.
          5    1    1    2  502    0 -0.24176019608E+02 -0.18043833414E+02  0.30602567314E+03  0.30753738776E+03  0.41800000000E+01 0.  1.
         -5    1    1    2    0  502  0.54284921307E+02  0.60247077044E+02  0.19327552013E+03  0.20964126992E+03  0.41800000000E+01 0.  1.
        -11    1    3    3    0    0  0.72015497503E+01 -0.55612174282E+02  0.12260558733E+03  0.13482101577E+03  0.00000000000E+00 0.  1.
         11    1    3    3    0    0 -0.37310451449E+02  0.13408930651E+02  0.18324305876E+03  0.18748303334E+03  0.00000000000E+00 0. -1.
</event>
<event>
 8    1  0.6637272E-009  0.9286532E+02  0.7561462E-02  0.1296058E+00
         -1   -1    0    0    0  501 -0.00000000000E+00  0.00000000000E+00  0.39163496250E+02  0.39163496250E+02  0.00000000000E+00 0.  1.
          1   -1    0    0  501    0  0.00000000000E+00 -0.00000000000E+00 -0.48337493506E+03  0.48337493506E+03  0.00000000000E+00 0. -1.
         25    2    1    2    0    0 -0.35732489552E+02  0.43658120537E+02 -0.36311693293E+03  0.38817843884E+03  0.12508297686E+03 0.  0.
         23    2    1    2    0    0  0.35732489552E+02 -0.43658120537E+02 -0.81094505878E+02  0.13435999247E+03  0.91068361107E+02 0.  0.
          5    1    3    3  502    0 -0.44636997452E+02  0.52042752598E+02 -0.82886789119E+02  0.10765036855E+03  0.41800000000E+01 0.  1.
         -5    1    3    3    0  502  0.89045078999E+01 -0.83846320608E+01 -0.28023014381E+03  0.28052807029E+03  0.41800000000E+01 0.  1.
        -11    1    4    4    0    0 -0.17893961422E+02 -0.47093451385E+02 -0.55124116409E+02  0.74677006023E+02  0.00000000000E+00 0.  1.
         11    1    4    4    0    0  0.53626450974E+02  0.34353308476E+01 -0.25970389469E+02  0.59682986447E+02  0.00000000000E+00 0. -1.
</event>
<event>
 8    1  0.6637272E-009  0.2516267E+03  0.7561462E-02  0.1112281E+00
         -1   -1    0    0    0  501 -0.00000000000E+00  0.00000000000E+00  0.12836909671E+03  0.12836909671E+03  0.00000000000E+00 0.  1.
          1   -1    0    0  501    0  0.00000000000E+00 -0.00000000000E+00 -0.51594883442E+03  0.51594883442E+03  0.00000000000E+00 0. -1.
         25    2    1    2    0    0  0.60458922678E+02 -0.22036906006E+03 -0.14224004595E+03  0.29681138331E+03  0.12508781967E+03 0.  0.
         23    2    1    2    0    0 -0.60458922678E+02  0.22036906006E+03 -0.24533969176E+03  0.34750654782E+03  0.91386172159E+02 0.  0.
          5    1    3    3  502    0 -0.30905539615E+02 -0.12253596744E+03 -0.64216156407E+02  0.14181467780E+03  0.41800000000E+01 0. -1.
         -5    1    3    3    0  502  0.91364462292E+02 -0.97833092617E+02 -0.78023889545E+02  0.15499670552E+03  0.41800000000E+01 0. -1.
        -11    1    4    4    0    0  0.19031776043E+02  0.73044183667E+02 -0.51452633074E+02  0.91351161553E+02  0.00000000000E+00 0.  1.
         11    1    4    4    0    0 -0.79490698721E+02  0.14732487639E+03 -0.19388705868E+03  0.25615538626E+03  0.00000000000E+00 0. -1.
</event>
<event>
 8    1  0.6637272E-009  0.1124632E+03  0.7561462E-02  0.1256075E+00
          2   -1    0    0  501    0  0.00000000000E+00  0.00000000000E+00  0.50287977347E+03  0.50287977347E+03  0.00000000000E+00 0. -1.
         -2   -1    0    0    0  501 -0.00000000000E+00 -0.00000000000E+00 -0.32016417727E+02  0.32016417727E+02  0.00000000000E+00 0.  1.
         25    2    1    2    0    0 -0.29846586169E+02 -0.15374341902E+02  0.29691810916E+03  0.32393860036E+03  0.12509462083E+03 0.  0.
         23    2    1    2    0    0  0.29846586169E+02  0.15374341902E+02  0.17394524658E+03  0.21095759083E+03  0.11453806017E+03 0.  0.
          5    1    3    3  502    0 -0.28139402858E+01  0.48228146529E+02  0.19350863184E+03  0.19949169249E+03  0.41800000000E+01 0.  1.
         -5    1    3    3    0  502 -0.27032645883E+02 -0.63602488431E+02  0.10340947732E+03  0.12444690787E+03  0.41800000000E+01 0.  1.
        -11    1    4    4    0    0  0.37826219635E+02 -0.37773486732E+02  0.40407179097E+02  0.67010441831E+02  0.00000000000E+00 0.  1.
         11    1    4    4    0    0 -0.79796334665E+01  0.53147828635E+02  0.13353806748E+03  0.14394714900E+03  0.00000000000E+00 0. -1.
</event>
<event>
 8    1  0.6637272E-009  0.9161482E+02  0.7561462E-02  0.1298988E+00
          1   -1    0    0  501    0  0.00000000000E+00  0.00000000000E+00  0.21393280571E+02  0.21393280571E+02  0.00000000000E+00 0. -1.
         -1   -1    0    0    0  501 -0.00000000000E+00 -0.00000000000E+00 -0.70800011607E+03  0.70800011607E+03  0.00000000000E+00 0.  1.
         25    2    1    2    0    0 -0.24699938592E+02  0.49606413248E+02 -0.35918271302E+03  0.38435731677E+03  0.12508973747E+03 0.  0.
         23    2    1    2    0    0  0.24699938592E+02 -0.49606413248E+02 -0.32742412248E+03  0.34503607987E+03  0.93661396688E+02 0.  0.
          5    1    3    3  502    0 -0.20044533492E+02  0.62612213014E+02 -0.36339906231E+03  0.36932157185E+03  0.41800000000E+01 0.  1.
         -5    1    3    3    0  502 -0.46554051003E+01 -0.13005799766E+02  0.42163492882E+01  0.15035744928E+02  0.41800000000E+01 0.  1.
        -11    1    4    4    0    0 -0.32577005752E+02 -0.13839774986E+02 -0.64440505782E+02  0.73521285767E+02  0.00000000000E+00 0. -1.
         11    1    4    4    0    0  0.57276944344E+02 -0.35766638262E+02 -0.26298361670E+03  0.27151479410E+03  0.00000000000E+00 0.  1.
</event>
<event>
 8    1  0.6637272E-009  0.1315312E+03  0.7561462E-02  0.1225201E+00
         -1   -1    0    0    0  501 -0.00000000000E+00  0.00000000000E+00  0.44276468846E+02  0.44276468846E+02  0.00000000000E+00 0.  1.
          1   -1    0    0  501    0  0.00000000000E+00 -0.00000000000E+00 -0.56729360185E+03  0.56729360185E+03  0.00000000000E+00 0. -1.
         25    2    1    2    0    0 -0.22618880390E+02  0.75221539457E+02 -0.44799569220E+03  0.47171930730E+03  0.12509624656E+03 0.  0.
         23    2    1    2    0    0  0.22618880390E+02 -0.75221539457E+02 -0.75021440800E+02  0.13985076339E+03  0.88091575605E+02 0.  0.
          5    1    3    3  502    0 -0.63192530841E+02  0.84044263081E+02 -0.34119390124E+03  0.35705389615E+03  0.41800000000E+01 0.  1.
         -5    1    3    3    0  502  0.40573650451E+02 -0.88227236236E+01 -0.10680179096E+03  0.11466541115E+03  0.41800000000E+01 0.  1.
        -11    1    4    4    0    0  0.53734621450E+02 -0.31032824167E+02 -0.27452971109E+02  0.67853602269E+02  0.00000000000E+00 0.  1.
         11    1    4    4    0    0 -0.31115741060E+02 -0.44188715290E+02 -0.47568469691E+02  0.71997161121E+02  0.00000000000E+00 0. -1.
</event>
<event>
 8    1  0.6637272E-009  0.4863395E+03  0.7561462E-02  0.1017407E+00
          1   -1    0    0  501    0  0.00000000000E+00  0.00000000000E+00  0.25553636359E+03  0.25553636359E+03  0.00000000000E+00 0. -1.
         -1   -1    0    0    0  501 -0.00000000000E+00 -0.00000000000E+00 -0.94855599109E+03  0.94855599109E+03  0.00000000000E+00 0.  1.
         25    2    1    2    0    0 -0.28536574770E+03  0.38407757749E+03 -0.37967354288E+03  0.62349645430E+03  0.12508650555E+03 0.  0.
         23    2    1    2    0    0  0.28536574770E+03 -0.38407757749E+03 -0.31334608463E+03  0.58059590038E+03  0.99782940902E+02 0.  0.
          5    1    3    3  502    0 -0.11368150523E+03  0.25480041148E+03 -0.22924449925E+03  0.36113328171E+03  0.41800000000E+01 0. -1.
         -5    1    3    3    0  502 -0.17168424247E+03  0.12927716601E+03 -0.15042904363E+03  0.26236317259E+03  0.41800000000E+01 0. -1.
        -11    1    4    4    0    0  0.24642682248E+03 -0.32345527353E+03 -0.21891075506E+03  0.46181317813E+03  0.00000000000E+00 0. -1.
         11    1    4    4    0    0  0.38938925216E+02 -0.60622303956E+02 -0.94435329565E+02  0.11878272225E+03  0.00000000000E+00 0.  1.
</event>
<event>
 8    1  0.6637272E-009  0.1058413E+03  0.7561462E-02  0.1268471E+00
         -2   -1    0    0    0  501 -0.00000000000E+00  0.00000000000E+00  0.10214715976E+03  0.10214715976E+03  0.00000000000E+00 0.  1.
          2   -1    0    0  501    0  0.00000000000E+00 -0.00000000000E+00 -0.18405684516E+03  0.18405684516E+03  0.00000000000E+00 0. -1.
         25    2    1    2    0    0  0.41706172767E+02  0.13165350700E+02  0.29112856152E+02  0.13567708552E+03  0.12509189356E+03 0.  0.
         23    2    1    2    0    0 -0.41706172767E+02 -0.13165350700E+02 -0.11102254155E+03  0.15052691940E+03  0.91758473326E+02 0.  0.
          5    1    3    3  502    0  0.19667759832E+02  0.57324414196E+02 -0.21899607040E+02  0.64575339164E+02  0.41800000000E+01 0. -1.
         -5    1    3    3    0  502  0.22038412935E+02 -0.44159063496E+02  0.51012463192E+02  0.71101746353E+02  0.41800000000E+01 0. -1.
        -11    1    4    4    0    0 -0.55311009272E+02  0.25138951809E+02 -0.61360432769E+02  0.86350317628E+02  0.00000000000E+00 0. -1.
         11    1    4    4    0    0  0.13604836506E+02 -0.38304302509E+02 -0.49662108777E+02  0.64176601774E+02  0.00000000000E+00 0.  1.
</event>
<event>
 8    1  0.6637272E-009  0.1436898E+03  0.7561462E-02  0.1208449E+00
          1   -1    0    0  501    0  0.00000000000E+00  0.00000000000E+00  0.23590917642E+03  0.23590917642E+03  0.00000000000E+00 0. -1.
         -1   -1    0    0    0  501 -0.00000000000E+00 -0.00000000000E+00 -0.10882202240E+03  0.10882202240E+03  0.00000000000E+00 0.  1.
         25    2    1    2    0    0  0.10644574155E+03 -0.56799231222E+02  0.97773888524E+02  0.19941071076E+03  0.12509216493E+03 0.  0.
         23    2    1    2    0    0 -0.10644574155E+03  0.56799231222E+02  0.29313265491E+02  0.14532048806E+03  0.75511112793E+02 0.  0.
          5    1    3    3  502    0  0.56458740247E+02 -0.89698745959E+02  0.32906965248E+02  0.11105762080E+03  0.41800000000E+01 0.  1.
         -5    1    3    3    0  502  0.49987001301E+02  0.32899514737E+02  0.64866923276E+02  0.88353089954E+02  0.41800000000E+01 0.  1.
        -11    1    4    4    0    0 -0.54321246973E+02  0.21776882622E+02 -0.23697729561E+02  0.63139629993E+02  0.00000000000E+00 0.  1.
         11    1    4    4    0    0 -0.52124494576E+02  0.35022348600E+02  0.53010995052E+02  0.82180858067E+02  0.00000000000E+00 0. -1.
</event>
<event>
 8    1  0.6637272E-009  0.1289824E+03  0.7561462E-02  0.1228974E+00
          1   -1    0    0  501    0  0.00000000000E+00  0.00000000000E+00  0.14525305947E+03  0.14525305947E+03  0.00000000000E+00 0. -1.
         -1   -1    0    0    0  501 -0.00000000000E+00 -0.00000000000E+00 -0.14006219603E+03  0.14006219603E+03  0.00000000000E+00 0.  1.
         25    2    1    2    0    0 -0.51809676808E+02  0.52669062519E+02 -0.52503438225E+02  0.15447559547E+03  0.12509126993E+03 0.  0.
         23    2    1    2    0    0  0.51809676808E+02 -0.52669062519E+02  0.57694301658E+02  0.13083966003E+03  0.91280400055E+02 0.  0.
          5    1    3    3  502    0 -0.71267809985E+02 -0.12660579687E+02 -0.79613646878E+01  0.72940021564E+02  0.41800000000E+01 0.  1.
         -5    1    3    3    0  502  0.19458133177E+02  0.65329642206E+02 -0.44542073538E+02  0.81535573909E+02  0.41800000000E+01 0.  1.
        -11    1    4    4    0    0 -0.21270378625E+02  0.74484453240E+01  0.77051973844E+01  0.23817607170E+02  0.00000000000E+00 0.  1.
         11    1    4    4    0    0  0.73080055433E+02 -0.60117507843E+02  0.49989104273E+02  0.10702205286E+03  0.00000000000E+00 0. -1.
</event>
<event>
 8    1  0.6637272E-009  0.9479673E+02  0.7561462E-02  0.1291635E+00
          2   -1    0    0  501    0  0.00000000000E+00  0.00000000000E+00  0.23272640810E+02  0.23272640810E+02  0.00000000000E+00 0. -1.
         -2   -1    0    0    0  501 -0.00000000000E+00 -0.00000000000E+00 -0.59596002813E+03  0.59596002813E+03  0.00000000000E+00 0.  1.
         25    2    1    2    0    0 -0.11603579487E+02 -0.46488232802E+02 -0.33425319745E+03  0.36009396168E+03  0.12508661952E+03 0.  0.
         23    2    1    2    0    0  0.11603579487E+02  0.46488232802E+02 -0.23843418987E+03  0.25913870726E+03  0.89477415346E+02 0.  0.
          5    1    3    3  502    0 -0.20312066467E+02  0.29939319954E+02 -0.32999346985E+02  0.49146436543E+02  0.41800000000E+01 0.  1.
         -5    1    3    3    0  502  0.87084869804E+01 -0.76427552757E+02 -0.30125385047E+03  0.31094752514E+03  0.41800000000E+01 0.  1.
        -11    1    4    4    0    0  0.72161436345E+01 -0.13862317854E+02 -0.28223643325E+01  0.15880879247E+02  0.00000000000E+00 0. -1.
         11    1    4    4    0    0  0.43874358524E+01  0.60350550656E+02 -0.23561182554E+03  0.24325782801E+03  0.00000000000E+00 0.  1.
</event>
<event>
 8    1  0.6637272E-009  0.1386414E+03  0.7561462E-02  0.1215169E+00
          2   -1    0    0  501    0  0.00000000000E+00  0.00000000000E+00  0.45517942076E+03  0.45517942076E+03  0.00000000000E+00 0. -1.
         -2   -1    0    0    0  501 -0.00000000000E+00 -0.00000000000E+00 -0.59460138326E+02  0.59460138326E+02  0.00000000000E+00 0.  1.
         25    2    1    2    0    0  0.16974112467E+01 -0.10413486557E+03  0.10844932286E+03  0.19559391204E+03  0.12509504932E+03 0.  0.
         23    2    1    2    0    0 -0.16974112467E+01  0.10413486557E+03  0.28726995958E+03  0.31904564705E+03  0.91755892427E+02 0.  0.
          5    1    3    3  502    0 -0.35290087121E+02  0.35207724759E+01 -0.35000083109E+01  0.35881869321E+02  0.41800000000E+01 0.  1.
         -5    1    3    3    0  502  0.36987498367E+02 -0.10765563805E+03  0.11194933117E+03  0.15971204271E+03  0.41800000000E+01 0.  1.
        -11    1    4    4    0    0 -0.37017556708E+02  0.66085578013E+02  0.10463132810E+03  0.12917166077E+03  0.00000000000E+00 0.  1.
         11    1    4    4    0    0  0.35320145461E+02  0.38049287558E+02  0.18263863148E+03  0.18987398628E+03  0.00000000000E+00 0. -1.
</event>
<event>
 8    1  0.6637272E-009  0.1072741E+03  0.7561462E-02  0.1265703E+00
          2   -1    0    0  501    0  0.00000000000E+00  0.00000000000E+00  0.31600767729E+03  0.31600767729E+03  0.00000000000E+00 0. -1.
         -2   -1    0    0    0  501 -0.00000000000E+00 -0.00000000000E+00 -0.51493215051E+02  0.51493215051E+02  0.00000000000E+00 0.  1.
         25    2    1    2    0    0 -0.13238902973E+02 -0.61980435869E+02  0.19321776726E+03  0.23874270567E+03  0.12509248956E+03 0.  0.
         23    2    1    2    0    0  0.13238902973E+02  0.61980435869E+02  0.71296694978E+02  0.12875818667E+03  0.86478950834E+02 0.  0.
          5    1    3    3  502    0  0.31913778989E+02 -0.56648350107E+02  0.17966757365E+03  0.19111628471E+03  0.41800000000E+01 0.  1.
         -5    1    3    3    0  502 -0.45152681962E+02 -0.53320857619E+01  0.13550193611E+02  0.47626420964E+02  0.41800000000E+01 0.  1.
        -11    1    4    4    0    0 -0.26349647316E+02 -0.41375554349E+01  0.33798870259E+02  0.43055625759E+02  0.00000000000E+00 0.  1.
         11    1    4    4    0    0  0.39588550289E+02  0.66117991304E+02  0.37497824719E+02  0.85702560911E+02  0.00000000000E+00 0. -1.
</event>
<event>
 8    1  0.6637272E-009  0.1283752E+03  0.7561462E-02  0.1229887E+00
         -1   -1    0    0    0  501 -0.00000000000E+00  0.00000000000E+00  0.37922708757E+02  0.37922708757E+02  0.00000000000E+00 0.  1.
          1   -1    0    0  501    0  0.00000000000E+00 -0.00000000000E+00 -0.50449941878E+03  0.50449941878E+03  0.00000000000E+00 0. -1.
         25    2    1    2    0    0  0.13688538438E+02  0.78422784748E+02 -0.31677091354E+03  0.34975502273E+03  0.12508898835E+03 0.  0.
         23    2    1    2    0    0 -0.13688538438E+02 -0.78422784748E+02 -0.14980579649E+03  0.19266710481E+03  0.91330867525E+02 0.  0.
          5    1    3    3  502    0  0.53939394521E+02  0.85533288887E+02 -0.26495105603E+03  0.28362287686E+03  0.41800000000E+01 0.  1.
         -5    1    3    3    0  502 -0.40250856083E+02 -0.71105041383E+01 -0.51819857515E+02  0.66132145870E+02  0.41800000000E+01 0.  1.
        -11    1    4    4    0    0  0.17536425872E+02 -0.81233616180E+02 -0.76565053656E+02  0.11299838084E+03  0.00000000000E+00 0.  1.
         11    1    4    4    0    0 -0.31224964310E+02  0.28108314319E+01 -0.73240742830E+02  0.79668723975E+02  0.00000000000E+00 0. -1.
</event>
<event>
 8    1  0.6637272E-009  0.9956840E+02  0.7561462E-02  0.1281206E+00
          4   -1    0    0  501    0  0.00000000000E+00  0.00000000000E+00  0.17229287883E+02  0.17229287883E+02  0.00000000000E+00 0. -1.
         -4   -1    0    0    0  501 -0.00000000000E+00 -0.00000000000E+00 -0.69066120813E+03  0.69066120813E+03  0.00000000000E+00 0.  1.
         25    2    1    2    0    0 -0.51403555226E+01 -0.26621908584E+01 -0.42959517717E+03  0.44747454830E+03  0.12509174479E+03 0.  0.
         23    2    1    2    0    0  0.51403555226E+01  0.26621908584E+01 -0.24383674308E+03  0.26041594771E+03  0.91250194704E+02 0.  0.
          5    1    3    3  502    0 -0.61529663903E+02  0.16882294071E+02 -0.25580298504E+03  0.26367318967E+03  0.41800000000E+01 0. -1.
         -5    1    3    3    0  502  0.56389308380E+02 -0.19544484930E+02 -0.17379219213E+03  0.18380135864E+03  0.41800000000E+01 0. -1.
        -11    1    4    4    0    0 -0.23026447309E+02 -0.26309392272E+02 -0.18951921005E+03  0.19271723425E+03  0.00000000000E+00 0.  1.
         11    1    4    4    0    0  0.28166802832E+02  0.28971583130E+02 -0.54317533024E+02  0.67698713464E+02  0.00000000000E+00 0. -1.
</event>
<event>
 8    1  0.6637272E-009  0.7552736E+02  0.7561462E-02  0.1342246E+00
          2   -1    0    0  501    0  0.00000000000E+00  0.00000000000E+00  0.67632145979E+02  0.67632145979E+02  0.00000000000E+00 0.  1.
         -2   -1    0    0    0  501 -0.00000000000E+00 -0.00000000000E+00 -0.26372658817E+03  0.26372658817E+03  0.00000000000E+00 0. -1.
         25    2    1    2    0    0  0.13792439485E+02  0.71890568776E+02 -0.91053901086E+02  0.17116015256E+03  0.12508596906E+03 0.  0.
         23    2    1    2    0    0 -0.13792439485E+02 -0.71890568776E+02 -0.10504054110E+03  0.16019858159E+03  0.96289070002E+02 0.  0.
          5    1    3    3  502    0  0.18804769884E+01  0.46925189671E+02 -0.12119126113E+03  0.13003962393E+03  0.41800000000E+01 0.  1.
         -5    1    3    3    0  502  0.11911962496E+02  0.24965379105E+02  0.30137360039E+02  0.41120528626E+02  0.41800000000E+01 0.  1.
        -11    1    4    4    0    0  0.26097527190E+01 -0.39853127501E+02  0.87206808463E+01  0.40879491867E+02  0.00000000000E+00 0.  1.
         11    1    4    4    0    0 -0.16402192204E+02 -0.32037441275E+02 -0.11376122195E+03  0.11931908972E+03  0.00000000000E+00 0. -1.
</event>
<event>
 8    1  0.6637272E-009  0.9336545E+02  0.7561462E-02  0.1294901E+00
         -1   -1    0    0    0  501 -0.00000000000E+00  0.00000000000E+00  0.47074326116E+02  0.47074326116E+02  0.00000000000E+00 0.  1.
          1   -1    0    0  501    0  0.00000000000E+00 -0.00000000000E+00 -0.32967429674E+03  0.32967429674E+03  0.00000000000E+00 0. -1.
         25    2    1    2    0    0  0.19278060195E+02 -0.49931444324E+02 -0.19845612860E+03  0.24061242862E+03  0.12507882749E+03 0.  0.
         23    2    1    2    0    0 -0.19278060195E+02  0.49931444324E+02 -0.84143842020E+02  0.13613619424E+03  0.92671918588E+02 0.  0.
          5    1    3    3  502    0  0.62708266334E+02 -0.50678849685E+02 -0.77046712101E+02  0.11159901755E+03  0.41800000000E+01 0. -1.
         -5    1    3    3    0  502 -0.43430206139E+02  0.74740536054E+00 -0.12140941650E+03  0.12901341107E+03  0.41800000000E+01 0. -1.
        -11    1    4    4    0    0  0.27230907566E+01  0.36458184636E+02 -0.99575077001E+02  0.10607455119E+03  0.00000000000E+00 0. -1.
         11    1    4    4    0    0 -0.22001150951E+02  0.13473259688E+02  0.15431234981E+02  0.30061643050E+02  0.00000000000E+00 0.  1.
</event>
<event>
 8    1  0.6637272E-009  0.1753890E+03  0.7561462E-02  0.1172342E+00
          2   -1    0    0  501    0  0.00000000000E+00  0.00000000000E+00  0.15037718362E+04  0.15037718362E+04  0.00000000000E+00 0. -1.
         -2   -1    0    0    0  501 -0.00000000000E+00 -0.00000000000E+00 -0.23038687612E+02  0.23038687612E+02  0.00000000000E+00 0.  1.
         25    2    1    2    0    0  0.53747232052E+02  0.13045656654E+03  0.55823745928E+03  0.58922755984E+03  0.12510945457E+03 0.  0.
         23    2    1    2    0    0 -0.53747232052E+02 -0.13045656654E+03  0.92249568932E+03  0.93758296398E+03  0.90309671880E+02 0.  0.
          5    1    3    3  502    0 -0.40605366497E+02  0.30077468083E+02  0.14454848735E+03  0.15318350913E+03  0.41800000000E+01 0. -1.
         -5    1    3    3    0  502  0.94352598549E+02  0.10037909846E+03  0.41368897193E+03  0.43604405071E+03  0.41800000000E+01 0. -1.
        -11    1    4    4    0    0  0.24044299407E+01  0.10367211145E+02  0.22289062365E+02  0.24699446378E+02  0.00000000000E+00 0.  1.
         11    1    4    4    0    0 -0.56151661993E+02 -0.14082377769E+03  0.90020662695E+03  0.91288351761E+03  0.00000000000E+00 0. -1.
</event>
<event>
 8    1  0.6637272E-009  0.1252573E+03  0.7561462E-02  0.1234668E+00
         -2   -1    0    0    0  501 -0.00000000000E+00  0.00000000000E+00  0.54672627764E+02  0.54672627764E+02  0.00000000000E+00 0.  1.
          2   -1    0    0  501    0  0.00000000000E+00 -0.00000000000E+00 -0.41204391772E+03  0.41204391772E+03  0.00000000000E+00 0. -1.
         25    2    1    2    0    0 -0.15781491655E+01 -0.10060382229E+03 -0.15600883100E+03  0.22385206100E+03  0.12508944901E+03 0.  0.
         23    2    1    2    0    0  0.15781491655E+01  0.10060382229E+03 -0.20136245895E+03  0.24286448448E+03  0.91174000294E+02 0.  0.
          5    1    3    3  502    0 -0.51493972622E+02 -0.79501924334E+02 -0.13630212361E+03  0.16603591928E+03  0.41800000000E+01 0. -1.
         -5    1    3    3    0  502  0.49915823456E+02 -0.21101897952E+02 -0.19706707388E+02  0.57816141730E+02  0.41800000000E+01 0. -1.
        -11    1    4    4    0    0 -0.52771457255E+01  0.36966023888E+02 -0.66842709838E+01  0.37934346807E+02  0.00000000000E+00 0.  1.
         11    1    4    4    0    0  0.68552948911E+01  0.63637798398E+02 -0.19467818797E+03  0.20493013767E+03  0.00000000000E+00 0. -1.
</event>
<event>
 8    1  0.6637272E-009  0.6811384E+02  0.7561462E-02  0.1366627E+00
          1   -1    0    0  501    0  0.00000000000E+00  0.00000000000E+00  0.56350570787E+02  0.56350570787E+02  0.00000000000E+00 0. -1.
         -1   -1    0    0    0  501 -0.00000000000E+00 -0.00000000000E+00 -0.19164345774E+03  0.19164345774E+03  0.00000000000E+00 0.  1.
         25    2    1    2    0    0  0.13677255558E+02  0.72446485179E+01 -0.77492506933E+02  0.14795822609E+03  0.12508795220E+03 0.  0.
         23    2    1    2    0    0 -0.13677255558E+02 -0.72446485179E+01 -0.57800380023E+02  0.10003580244E+03  0.80166860906E+02 0.  0.
          5    1    3    3  502    0 -0.19857411624E+02  0.34815677836E+02  0.17114795241E+02  0.43781695213E+02  0.41800000000E+01 0.  1.
         -5    1    3    3    0  502  0.33534667182E+02 -0.27571029318E+02 -0.94607302173E+02  0.10417653088E+03  0.41800000000E+01 0.  1.
        -11    1    4    4    0    0 -0.37543717607E+01  0.21541939221E+02 -0.65142229518E+02  0.68714339983E+02  0.00000000000E+00 0.  1.
         11    1    4    4    0    0 -0.99228837978E+01 -0.28786587739E+02  0.73418494950E+01  0.31321462459E+02  0.00000000000E+00 0. -1.
</event>
<event>
 8    1  0.6637272E-009  0.1329603E+03  0.7561462E-02  0.1223128E+00
         -2   -1    0    0    0  501 -0.00000000000E+00  0.00000000000E+00  0.92397844399E+03  0.92397844399E+03  0.00000000000E+00 0.  1.
          2   -1    0    0  501    0  0.00000000000E+00 -0.00000000000E+00 -0.22635915428E+02  0.22635915428E+02  0.00000000000E+00 0. -1.
         25    2    1    2    0    0  0.91188606470E+02 -0.24881642661E+02  0.52321152144E+03  0.54619842143E+03  0.12509181154E+03 0.  0.
         23    2    1    2    0    0 -0.91188606470E+02  0.24881642661E+02  0.37813100712E+03  0.40041593799E+03  0.91735526141E+02 0.  0.
          5    1    3    3  502    0  0.12105201998E+03 -0.31882033807E+02  0.43712858469E+03  0.45471851466E+03  0.41800000000E+01 0.  1.
         -5    1    3    3    0  502 -0.29863413515E+02  0.70003911462E+01  0.86082936754E+02  0.91479906773E+02  0.41800000000E+01 0.  1.
        -11    1    4    4    0    0 -0.77441867189E+02 -0.41913632071E+01  0.34733944960E+03  0.35589254497E+03  0.00000000000E+00 0.  1.
         11    1    4    4    0    0 -0.13746739280E+02  0.29073005868E+02  0.30791557528E+02  0.44523393020E+02  0.00000000000E+00 0. -1.
</event>
<event>
 8    1  0.6637272E-009  0.1045488E+03  0.7561462E-02  0.1271011E+00
          1   -1    0    0  501    0  0.00000000000E+00  0.00000000000E+00  0.62339840596E+03  0.62339840596E+03  0.00000000000E+00 0. -1.
         -1   -1    0    0    0  501 -0.00000000000E+00 -0.00000000000E+00 -0.21519071902E+02  0.21519071902E+02  0.00000000000E+00 0.  1.
         25    2    1    2    0    0 -0.25894557187E+02  0.17435464826E+02  0.24988305166E+03  0.28118270798E+03  0.12509057612E+03 0.  0.
         23    2    1    2    0    0  0.25894557187E+02 -0.17435464826E+02  0.35199628240E+03  0.36373476988E+03  0.86180487785E+02 0.  0.
          5    1    3    3  502    0 -0.70850440687E+02  0.46864559393E+01  0.20195493646E+03  0.21411449408E+03  0.41800000000E+01 0.  1.
         -5    1    3    3    0  502  0.44955883500E+02  0.12749008887E+02  0.47928115206E+02  0.67068213902E+02  0.41800000000E+01 0.  1.
        -11    1    4    4    0    0 -0.31522526618E+02 -0.10471255417E+02  0.14914761266E+03  0.15280159436E+03  0.00000000000E+00 0.  1.
         11    1    4    4    0    0  0.57417083805E+02 -0.69642094091E+01  0.20284866973E+03  0.21093317553E+03  0.00000000000E+00 0. -1.
</event>
<event>
 8    1  0.6637272E-009  0.1169875E+03  0.7561462E-02  0.1248151E+00
          3   -1    0    0  501    0  0.00000000000E+00  0.00000000000E+00  0.87898268451E+02  0.87898268451E+02  0.00000000000E+00 0. -1.
         -3   -1    0    0    0  501 -0.00000000000E+00 -0.00000000000E+00 -0.21967256330E+03  0.21967256330E+03  0.00000000000E+00 0.  1.
         25    2    1    2    0    0  0.97751187011E+01 -0.85308145002E+02 -0.85255357000E+02  0.17404007923E+03  0.12509372779E+03 0.  0.
         23    2    1    2    0    0 -0.97751187011E+01  0.85308145002E+02 -0.46518937851E+02  0.13353075252E+03  0.91068203790E+02 0.  0.
          5    1    3    3  502    0  0.37442250092E+02 -0.65122297977E+02  0.69845660052E+01  0.75558535904E+02  0.41800000000E+01 0. -1.
         -5    1    3    3    0  502 -0.27667131391E+02 -0.20185847025E+02 -0.92239923005E+02  0.98481543325E+02  0.41800000000E+01 0. -1.
        -11    1    4    4    0    0  0.30226874188E+02  0.77895622387E+02 -0.23543114669E+02  0.86808237850E+02  0.00000000000E+00 0. -1.
         11    1    4    4    0    0 -0.40001992889E+02  0.74125226149E+01 -0.22975823182E+02  0.46722514674E+02  0.00000000000E+00 0.  1.
</event>
<event>
 8    1  0.6637272E-009  0.7446014E+02  0.7561462E-02  0.1345551E+00
          1   -1    0    0  501    0  0.00000000000E+00  0.00000000000E+00  0.19133438713E+02  0.19133438713E+02  0.00000000000E+00 0. -1.
         -1   -1    0    0    0  501 -0.00000000000E+00 -0.00000000000E+00 -0.77771945551E+03  0.77771945551E+03  0.00000000000E+00 0.  1.
         25    2    1    2    0    0  0.46742032701E+02  0.12569305922E+02 -0.51345160893E+03  0.53068214549E+03  0.12509268463E+03 0.  0.
         23    2    1    2    0    0 -0.46742032701E+02 -0.12569305922E+02 -0.24513440786E+03  0.26617074873E+03  0.91723412998E+02 0.  0.
          5    1    3    3  502    0  0.23818716123E+01  0.39314188657E+02 -0.43362750502E+03  0.43543261735E+03  0.41800000000E+01 0. -1.
         -5    1    3    3    0  502  0.44360161089E+02 -0.26744882735E+02 -0.79824103911E+02  0.95249528133E+02  0.41800000000E+01 0. -1.
        -11    1    4    4    0    0 -0.30760839686E+01 -0.13322700065E+02  0.31857790050E+01  0.14039437933E+02  0.00000000000E+00 0. -1.
         11    1    4    4    0    0 -0.43665948733E+02  0.75339414276E+00 -0.24832018687E+03  0.25213131080E+03  0.00000000000E+00 0.  1.
</event>
<event>
 8    1  0.6637272E-009  0.9844918E+02  0.7561462E-02  0.1283591E+00
          2   -1    0    0  501    0  0.00000000000E+00  0.00000000000E+00  0.45366774508E+03  0.45366774508E+03  0.00000000000E+00 0.  1.
         -2   -1    0    0    0  501 -0.00000000000E+00 -0.00000000000E+00 -0.29582106351E+02  0.29582106351E+02  0.00000000000E+00 0. -1.
         25    2    1    2    0    0 -0.58273436139E+02 -0.81974563837E+01  0.23527679649E+03  0.27288448723E+03  0.12509108983E+03 0.  0.
         23    2    1    2    0    0  0.58273436139E+02  0.81974563837E+01  0.18880884225E+03  0.21036536421E+03  0.71706456448E+02 0.  0.
          5    1    3    3  502    0 -0.50977757774E+02 -0.57830156192E+02  0.87105766076E+02  0.11639564269E+03  0.41800000000E+01 0.  1.
         -5    1    3    3    0  502 -0.72956783657E+01  0.49632699808E+02  0.14817103041E+03  0.15648884454E+03  0.41800000000E+01 0.  1.
        -11    1    4    4    0    0  0.32013690056E+02  0.22804083134E+02  0.17094951066E+03  0.17540991350E+03  0.00000000000E+00 0.  1.
         11    1    4    4    0    0  0.26259746084E+02 -0.14606626751E+02  0.17859331586E+02  0.34955450707E+02  0.00000000000E+00 0. -1.
</event>
<event>
 8    1  0.6637272E-009  0.1214959E+03  0.7561462E-02  0.1240650E+00
          1   -1    0    0  501    0  0.00000000000E+00  0.00000000000E+00  0.88701520951E+02  0.88701520951E+02  0.00000000000E+00 0. -1.
         -1   -1    0    0    0  501 -0.00000000000E+00 -0.00000000000E+00 -0.27536697347E+03  0.27536697347E+03  0.00000000000E+00 0.  1.
         25    2    1    2    0    0 -0.22132589571E+02 -0.98663515687E+02 -0.16159488643E+03  0.22800432873E+03  0.12509486700E+03 0.  0.
         23    2    1    2    0    0  0.22132589571E+02  0.98663515687E+02 -0.25070566087E+02  0.13606416569E+03  0.87524756798E+02 0.  0.
          5    1    3    3  502    0 -0.27265195188E+02 -0.11261650190E+03 -0.70686863176E+02  0.13579385993E+03  0.41800000000E+01 0.  1.
         -5    1    3    3    0  502  0.51326056167E+01  0.13952986209E+02 -0.90908023254E+02  0.92210468801E+02  0.41800000000E+01 0.  1.
        -11    1    4    4    0    0 -0.14742615619E+02  0.35886298832E+02 -0.46127768099E+02  0.60273892764E+02  0.00000000000E+00 0.  1.
         11    1    4    4    0    0  0.36875205190E+02  0.62777216856E+02  0.21057202012E+02  0.75790272928E+02  0.00000000000E+00 0. -1.
</event>
<event>
 8    1  0.6637272E-009  0.1079717E+03  0.7561462E-02  0.1264373E+00
          1   -1    0    0  501    0  0.00000000000E+00  0.00000000000E+00  0.48236123812E+03  0.48236123812E+03  0.00000000000E+00 0. -1.
         -1   -1    0    0    0  501 -0.00000000000E+00 -0.00000000000E+00 -0.32469945968E+02  0.32469945968E+02  0.00000000000E+00 0.  1.
         25    2    1    2    0    0 -0.19120512401E+02 -0.35745005526E+02  0.16995928374E+03  0.21488804256E+03  0.12508962103E+03 0.  0.
         23    2    1    2    0    0  0.19120512401E+02  0.35745005526E+02  0.27993200841E+03  0.29994314153E+03  0.99803103175E+02 0.  0.
          5    1    3    3  502    0 -0.63682519393E+02  0.98916824255E+00  0.47934373066E+02  0.79822416972E+02  0.41800000000E+01 0.  1.
         -5    1    3    3    0  502  0.44562006991E+02 -0.36734173769E+02  0.12202491068E+03  0.13506562559E+03  0.41800000000E+01 0.  1.
        -11    1    4    4    0    0  0.51388083476E+02  0.87163569663E+01  0.78968950530E+02  0.94619264159E+02  0.00000000000E+00 0.  1.
         11    1    4    4    0    0 -0.32267571075E+02  0.27028648560E+02  0.20096305788E+03  0.20532387737E+03  0.00000000000E+00 0. -1.
</event>
<event>
 8    1  0.6637272E-009  0.9752778E+02  0.7561462E-02  0.1285582E+00
          2   -1    0    0  501    0  0.00000000000E+00  0.00000000000E+00  0.39279022608E+03  0.39279022608E+03  0.00000000000E+00 0. -1.
         -2   -1    0    0    0  501 -0.00000000000E+00 -0.00000000000E+00 -0.40110900003E+02  0.40110900003E+02  0.00000000000E+00 0.  1.
         25    2    1    2    0    0  0.50070574891E+02 -0.33150294514E+02  0.29011185502E+03  0.32158811444E+03  0.12509205583E+03 0.  0.
         23    2    1    2    0    0 -0.50070574891E+02  0.33150294514E+02  0.62567471055E+02  0.11131301164E+03  0.69784623159E+02 0.  0.
          5    1    3    3  502    0  0.40146399270E+02  0.40742509287E+02  0.17692381055E+03  0.18598707637E+03  0.41800000000E+01 0. -1.
         -5    1    3    3    0  502  0.99241756210E+01 -0.73892803801E+02  0.11318804447E+03  0.13560103807E+03  0.41800000000E+01 0. -1.
        -11    1    4    4    0    0 -0.12131445807E+02  0.18992490815E+02 -0.12681909449E+02  0.25859572928E+02  0.00000000000E+00 0.  1.
         11    1    4    4    0    0 -0.37939129084E+02  0.14157803698E+02  0.75249380504E+02  0.85453438711E+02  0.00000000000E+00 0. -1.
</event>
<event>
 8    1  0.6637272E-009  0.1241566E+03  0.7561462E-02  0.1236393E+00
         -3   -1    0    0    0  501 -0.00000000000E+00  0.00000000000E+00  0.33958446360E+03  0.33958446360E+03  0.00000000000E+00 0.  1.
          3   -1    0    0  501    0  0.00000000000E+00 -0.00000000000E+00 -0.57660789535E+02  0.57660789535E+02  0.00000000000E+00 0. -1.
         25    2    1    2    0    0 -0.58978864109E+02  0.59602293054E+02  0.10236876921E+03  0.18213462004E+03  0.12515076971E+03 0.  0.
         23    2    1    2    0    0  0.58978864109E+02 -0.59602293054E+02  0.17955490485E+03  0.21511063309E+03  0.83676047136E+02 0.  0.
          5    1    3    3  502    0 -0.93947237004E+02  0.25499561096E+02  0.46991016863E+02  0.10817550103E+03  0.41800000000E+01 0. -1.
         -5    1    3    3    0  502  0.34968372894E+02  0.34102731958E+02  0.55377752347E+02  0.73959119011E+02  0.41800000000E+01 0. -1.
        -11    1    4    4    0    0  0.16252141270E+02  0.10791094216E+02  0.95384160665E+02  0.97358707449E+02  0.00000000000E+00 0.  1.
         11    1    4    4    0    0  0.42726722839E+02 -0.70393387271E+02  0.84170744189E+02  0.11775192565E+03  0.00000000000E+00 0. -1.
</event>
<event>
 8    1  0.6637272E-009  0.1327763E+03  0.7561462E-02  0.1223393E+00
         -2   -1    0    0    0  501 -0.00000000000E+00  0.00000000000E+00  0.55032886845E+02  0.55032886845E+02  0.00000000000E+00 0.  1.
          2   -1    0    0  501    0  0.00000000000E+00 -0.00000000000E+00 -0.32582566524E+03  0.32582566524E+03  0.00000000000E+00 0. -1.
         25    2    1    2    0    0 -0.55358338440E+02  0.65041977298E+02 -0.15832685126E+03  0.21911614429E+03  0.12509791530E+03 0.  0.
         23    2    1    2    0    0  0.55358338440E+02 -0.65041977298E+02 -0.11246592713E+03  0.16174240779E+03  0.78848064443E+02 0.  0.
          5    1    3    3  502    0 -0.84046181461E+02  0.45868271223E+01 -0.93041007318E+02  0.12553446158E+03  0.41800000000E+01 0. -1.
         -5    1    3    3    0  502  0.28687843021E+02  0.60455150176E+02 -0.65285843945E+02  0.93581682714E+02  0.41800000000E+01 0. -1.
        -11    1    4    4    0    0  0.19023068883E+02  0.16358105645E+02 -0.13285643993E+02  0.28389665484E+02  0.00000000000E+00 0. -1.
         11    1    4    4    0    0  0.36335269557E+02 -0.81400082943E+02 -0.99180283138E+02  0.13335274230E+03  0.00000000000E+00 0.  1.
</event>
<event>
 8    1  0.6637272E-009  0.2523980E+03  0.7561462E-02  0.1111799E+00
         -2   -1    0    0    0  501 -0.00000000000E+00  0.00000000000E+00  0.11745908549E+03  0.11745908549E+03  0.00000000000E+00 0.  1.
          2   -1    0    0  501    0  0.00000000000E+00 -0.00000000000E+00 -0.57528433411E+03  0.57528433411E+03  0.00000000000E+00 0. -1.
         25    2    1    2    0    0 -0.11953068755E+02 -0.22665258520E+03 -0.15399466547E+03  0.30145870008E+03  0.12509484654E+03 0.  0.
         23    2    1    2    0    0  0.11953068755E+02  0.22665258520E+03 -0.30383058314E+03  0.39128471952E+03  0.96314268139E+02 0.  0.
          5    1    3    3  502    0  0.55042580869E+02 -0.82505101238E+02 -0.71377682422E+02  0.12226619887E+03  0.41800000000E+01 0. -1.
         -5    1    3    3    0  502 -0.66995649624E+02 -0.14414748396E+03 -0.82616983053E+02  0.17919250121E+03  0.41800000000E+01 0. -1.
        -11    1    4    4    0    0 -0.13385264379E+02  0.21988244882E+03 -0.27366762313E+03  0.35131385477E+03  0.00000000000E+00 0.  1.
         11    1    4    4    0    0  0.25338333134E+02  0.67701363846E+01 -0.30162960004E+02  0.39970864750E+02  0.00000000000E+00 0. -1.
</event>
<event>
 8    1  0.6637272E-009  0.9586320E+02  0.7561462E-02  0.1289244E+00
         -2   -1    0    0    0  501 -0.00000000000E+00  0.00000000000E+00  0.12054592307E+03  0.12054592307E+03  0.00000000000E+00 0. -1.
          2   -1    0    0  501    0  0.00000000000E+00 -0.00000000000E+00 -0.12414647800E+03  0.12414647800E+03  0.00000000000E+00 0.  1.
         25    2    1    2    0    0 -0.36083692579E+02 -0.43884155032E+02  0.46770439456E+01  0.13746782682E+03  0.12509067406E+03 0.  0.
         23    2    1    2    0    0  0.36083692579E+02  0.43884155032E+02 -0.82775988719E+01  0.10722457425E+03  0.90557930333E+02 0.  0.
          5    1    3    3  502    0  0.56069855577E+01  0.18724883752E+02 -0.43618839331E+02  0.47980570059E+02  0.41800000000E+01 0. -1.
         -5    1    3    3    0  502 -0.41690678136E+02 -0.62609038785E+02  0.48295883277E+02  0.89487256760E+02  0.41800000000E+01 0. -1.
        -11    1    4    4    0    0  0.60722170493E+02  0.35705355445E+02  0.15380231178E+02  0.72101358572E+02  0.00000000000E+00 0. -1.
         11    1    4    4    0    0 -0.24638477915E+02  0.81787995871E+01 -0.23657830050E+02  0.35123215674E+02  0.00000000000E+00 0.  1.
</event>
<event>
 7    1  0.6637272E-009  0.3144733E+03  0.7561462E-02  0.1078221E+00
          1   -1    0    0  501    0  0.00000000000E+00  0.00000000000E+00  0.17339166873E+04  0.17339166873E+04  0.00000000000E+00 0. -1.
         -1   -1    0    0    0  501 -0.00000000000E+00 -0.00000000000E+00 -0.72810014277E+02  0.72810014277E+02  0.00000000000E+00 0.  1.
         25    2    1    2    0    0  0.25207456347E+03 -0.17324729015E+03  0.50713944500E+03  0.60530861572E+03  0.12510753172E+03 0.  0.
          5    1    3    3  502    0  0.13023817728E+03 -0.14469095284E+03  0.23106918640E+03  0.30217196421E+03  0.41800000000E+01 0. -1.
         -5    1    3    3    0  502  0.12183638619E+03 -0.28556337317E+02  0.27607025860E+03  0.30313665151E+03  0.41800000000E+01 0. -1.
        -11    1    1    2    0    0 -0.84936785660E+02  0.84383365183E+02  0.24182063725E+03  0.26983704431E+03  0.00000000000E+00 0. -1.
         11    1    1    2    0    0 -0.16713777781E+03  0.88863924970E+02  0.91214659075E+03  0.93158104154E+03  0.00000000000E+00 0.  1.
</event>
<event>
 8    1  0.6637272E-009  0.1072048E+03  0.7561462E-02  0.1265835E+00
          1   -1    0    0  501    0  0.00000000000E+00  0.00000000000E+00  0.12845248357E+03  0.12845248357E+03  0.00000000000E+00 0. -1.
         -1   -1    0    0    0  501 -0.00000000000E+00 -0.00000000000E+00 -0.16466987913E+03  0.16466987913E+03  0.00000000000E+00 0.  1.
         25    2    1    2    0    0 -0.83176379459E+02 -0.33863768541E+02 -0.57477929720E+02  0.16436563053E+03  0.12508910095E+03 0.  0.
         23    2    1    2    0    0  0.83176379459E+02  0.33863768541E+02  0.21260534157E+02  0.12875673217E+03  0.89784301789E+02 0.  0.
          5    1    3    3  502    0 -0.15402421423E+01  0.47284676120E+01  0.34675190035E+02  0.35278491405E+02  0.41800000000E+01 0.  1.
         -5    1    3    3    0  502 -0.81636137317E+02 -0.38592236153E+02 -0.92153119755E+02  0.12908713913E+03  0.41800000000E+01 0.  1.
        -11    1    4    4    0    0  0.42160109349E+02  0.56635087304E+02 -0.11502446228E+02  0.71535405244E+02  0.00000000000E+00 0.  1.
         11    1    4    4    0    0  0.41016270110E+02 -0.22771318763E+02  0.32762980385E+02  0.57221326930E+02  0.00000000000E+00 0. -1.
</event>
<event>
 8    1  0.6637272E-009  0.1050425E+03  0.7561462E-02  0.1270036E+00
          1   -1    0    0  501    0  0.00000000000E+00  0.00000000000E+00  0.68197285396E+03  0.68197285396E+03  0.00000000000E+00 0. -1.
         -1   -1    0    0    0  501 -0.00000000000E+00 -0.00000000000E+00 -0.20134256218E+02  0.20134256218E+02  0.00000000000E+00 0.  1.
         25    2    1    2    0    0  0.20329153829E+02  0.29454556336E+02  0.29177633880E+03  0.31947773107E+03  0.12510692780E+03 0.  0.
         23    2    1    2    0    0 -0.20329153829E+02 -0.29454556336E+02  0.37006225894E+03  0.38262937910E+03  0.90434069220E+02 0.  0.
          5    1    3    3  502    0  0.65350585225E+02  0.18646667997E+00  0.94434900754E+02  0.11491804314E+03  0.41800000000E+01 0. -1.
         -5    1    3    3    0  502 -0.45021431395E+02  0.29268089656E+02  0.19734143804E+03  0.20455968793E+03  0.41800000000E+01 0. -1.
        -11    1    4    4    0    0  0.16767278692E+02 -0.46855040797E+02  0.26921374200E+03  0.27377467992E+03  0.00000000000E+00 0.  1.
         11    1    4    4    0    0 -0.37096432521E+02  0.17400484461E+02  0.10084851694E+03  0.10885469918E+03  0.00000000000E+00 0. -1.
</event>
<event>
 8    1  0.6637272E-009  0.2139820E+03  0.7561462E-02  0.1138451E+00
          2   -1    0    0  501    0  0.00000000000E+00  0.00000000000E+00  0.24043270428E+04  0.24043270428E+04  0.00000000000E+00 0. -1.
         -2   -1    0    0    0  501 -0.00000000000E+00 -0.00000000000E+00 -0.26275983758E+02  0.26275983758E+02  0.00000000000E+00 0.  1.
         25    2    1    2    0    0  0.15016010481E+03  0.11955964015E+03  0.18026776651E+04  0.18171803470E+04  0.12512028051E+03 0.  0.
         23    2    1    2    0    0 -0.15016010481E+03 -0.11955964015E+03  0.57537339388E+03  0.61342267951E+03  0.91598453716E+02 0.  0.
          5    1    3    3  502    0  0.85609406639E+01  0.81697545357E+02  0.60850091511E+03  0.61403470155E+03  0.41800000000E+01 0. -1.
         -5    1    3    3    0  502  0.14159916414E+03  0.37862094797E+02  0.11941767500E+04  0.12031456455E+04  0.41800000000E+01 0. -1.
        -11    1    4    4    0    0 -0.52345206207E+02 -0.75325529486E+02  0.16027451574E+03  0.18466693369E+03  0.00000000000E+00 0. -1.
         11    1    4    4    0    0 -0.97814898599E+02 -0.44234110668E+02  0.41509887815E+03  0.42875574582E+03  0.00000000000E+00 0.  1.
</event>
<event>
 8    1  0.6637272E-009  0.1399013E+03  0.7561462E-02  0.1213462E+00
          2   -1    0    0  501    0  0.00000000000E+00  0.00000000000E+00  0.60953129025E+03  0.60953129025E+03  0.00000000000E+00 0.  1.
         -2   -1    0    0    0  501 -0.00000000000E+00 -0.00000000000E+00 -0.41596139435E+02  0.41596139435E+02  0.00000000000E+00 0. -1.
         25    2    1    2    0    0  0.10409619288E+02  0.11626208706E+03  0.33880766503E+03  0.37955585428E+03  0.12508708796E+03 0.  0.
         23    2    1    2    0    0 -0.10409619288E+02 -0.11626208706E+03  0.22912748579E+03  0.27157157540E+03  0.87329735842E+02 0.  0.
          5    1    3    3  502    0 -0.16063065782E+02  0.13128180878E+03  0.31153857730E+03  0.33847701982E+03  0.41800000000E+01 0.  1.
         -5    1    3    3    0  502  0.26472685070E+02 -0.15019721716E+02  0.27269087726E+02  0.41078834460E+02  0.41800000000E+01 0.  1.
        -11    1    4    4    0    0 -0.93262986982E+01 -0.93136450135E+02  0.23009012703E+03  0.24840057316E+03  0.00000000000E+00 0.  1.
         11    1    4    4    0    0 -0.10833205897E+01 -0.23125636930E+02 -0.96264123852E+00  0.23171002245E+02  0.00000000000E+00 0. -1.
</event>
<event>
 8    1  0.6637272E-009  0.8933140E+02  0.7561462E-02  0.1304479E+00
          1   -1    0    0  501    0  0.00000000000E+00  0.00000000000E+00  0.81451489201E+02  0.81451489201E+02  0.00000000000E+00 0. -1.
         -1   -1    0    0    0  501 -0.00000000000E+00 -0.00000000000E+00 -0.17761572019E+03  0.17761572019E+03  0.00000000000E+00 0.  1.
         25    2    1    2    0    0  0.77988873259E+01  0.50251538731E+02 -0.49824846634E+02  0.14392732169E+03  0.12508604558E+03 0.  0.
         23    2    1    2    0    0 -0.77988873259E+01 -0.50251538731E+02 -0.46339384355E+02  0.11513988770E+03  0.92324511416E+02 0.  0.
          5    1    3    3  502    0 -0.35154259983E+01 -0.13271431563E+02  0.34675090587E+02  0.37527635456E+02  0.41800000000E+01 0.  1.
         -5    1    3    3    0  502  0.11314313324E+02  0.63522970294E+02 -0.84499937221E+02  0.10639968624E+03  0.41800000000E+01 0.  1.
        -11    1    4    4    0    0 -0.12254284769E+02  0.23109352582E+02  0.34252610113E+01  0.26380714262E+02  0.00000000000E+00 0. -1.
         11    1    4    4    0    0  0.44553974435E+01 -0.73360891313E+02 -0.49764645367E+02  0.88759173436E+02  0.00000000000E+00 0.  1.
</event>
<event>
 8    1  0.6637272E-009  0.8959046E+02  0.7561462E-02  0.1303847E+00
          2   -1    0    0  501    0  0.00000000000E+00  0.00000000000E+00  0.42082813603E+02  0.42082813603E+02  0.00000000000E+00 0.  1.
         -2   -1    0    0    0  501 -0.00000000000E+00 -0.00000000000E+00 -0.38570359739E+03  0.38570359739E+03  0.00000000000E+00 0. -1.
         25    2    1    2    0    0  0.38492385225E+02 -0.52895919939E+02 -0.21351164205E+03  0.25595972437E+03  0.12509403320E+03 0.  0.
         23    2    1    2    0    0 -0.38492385225E+02  0.52895919939E+02 -0.13010914173E+03  0.17182668662E+03  0.91194185151E+02 0.  0.
          5    1    3    3  502    0 -0.13521801707E+01 -0.25980211694E+02 -0.20532076877E+03  0.20700456584E+03  0.41800000000E+01 0. -1.
         -5    1    3    3    0  502  0.39844565395E+02 -0.26915708246E+02 -0.81908732859E+01  0.48955158534E+02  0.41800000000E+01 0. -1.
        -11    1    4    4    0    0  0.13420196881E+02 -0.14328168382E+02 -0.44077796355E+01  0.20120303547E+02  0.00000000000E+00 0.  1.
         11    1    4    4    0    0 -0.51912582106E+02  0.67224088322E+02 -0.12570136210E+03  0.15170638307E+03  0.00000000000E+00 0. -1.
</event>
<event>
 8    1  0.6637272E-009  0.1100498E+03  0.7561462E-02  0.1260478E+00
          2   -1    0    0  501    0  0.00000000000E+00  0.00000000000E+00  0.11668896925E+04  0.11668896925E+04  0.00000000000E+00 0. -1.
         -2   -1    0    0    0  501 -0.00000000000E+00 -0.00000000000E+00 -0.17523626751E+02  0.17523626751E+02  0.00000000000E+00 0.  1.
         25    2    1    2    0    0  0.52564894119E+02 -0.55725838030E+02  0.83530974008E+03  0.84809055953E+03  0.12508716236E+03 0.  0.
         23    2    1    2    0    0 -0.52564894119E+02  0.55725838030E+02  0.31405632568E+03  0.33632275972E+03  0.92807251280E+02 0.  0.
          5    1    3    3  502    0  0.58234280740E+02  0.55673491907E+01  0.65291167250E+03  0.65554050318E+03  0.41800000000E+01 0. -1.
         -5    1    3    3    0  502 -0.56693866215E+01 -0.61293187221E+02  0.18239806758E+03  0.19255005635E+03  0.41800000000E+01 0. -1.
        -11    1    4    4    0    0 -0.48567939487E+02  0.49482224183E+01  0.60695079684E+02  0.77892376707E+02  0.00000000000E+00 0.  1.
         11    1    4    4    0    0 -0.39969546316E+01  0.50777615612E+02  0.25336124599E+03  0.25843038301E+03  0.00000000000E+00 0. -1.
</event>
<event>
 8    1  0.6637272E-009  0.9712956E+02  0.7561462E-02  0.1286451E+00
         -1   -1    0    0    0  501 -0.00000000000E+00  0.00000000000E+00  0.37222715414E+02  0.37222715414E+02  0.00000000000E+00 0.  1.
          1   -1    0    0  501    0  0.00000000000E+00 -0.00000000000E+00 -0.46635516276E+03  0.46635516276E+03  0.00000000000E+00 0. -1.
         25    2    1    2    0    0  0.66214452039E+02  0.39826581316E+02 -0.23621053588E+03  0.27821755921E+03  0.12505631833E+03 0.  0.
         23    2    1    2    0    0 -0.66214452039E+02 -0.39826581316E+02 -0.19292191147E+03  0.22536031896E+03  0.87165929126E+02 0.  0.
          5    1    3    3  502    0  0.36249261670E+02  0.44232489496E+02 -0.24059200090E+03  0.24733076112E+03  0.41800000000E+01 0.  1.
         -5    1    3    3    0  502  0.29965190370E+02 -0.44059081797E+01  0.43814650193E+01  0.30886798094E+02  0.41800000000E+01 0.  1.
        -11    1    4    4    0    0 -0.44548499612E+02  0.15307680071E+02 -0.13301926130E+03  0.14111349249E+03  0.00000000000E+00 0.  1.
         11    1    4    4    0    0 -0.21665952427E+02 -0.55134261387E+02 -0.59902650174E+02  0.84246826475E+02  0.00000000000E+00 0. -1.
</event>
<event>
 8    1  0.6637272E-009  0.1808290E+03  0.7561462E-02  0.1167003E+00
         -1   -1    0    0    0  501 -0.00000000000E+00  0.00000000000E+00  0.28486295031E+02  0.28486295031E+02  0.00000000000E+00 0.  1.
          1   -1    0    0  501    0  0.00000000000E+00 -0.00000000000E+00 -0.18909837336E+04  0.18909837336E+04  0.00000000000E+00 0. -1.
         25    2    1    2    0    0  0.14887153177E+03  0.98246955317E+02 -0.13791608549E+04  0.13962620146E+04  0.12509097700E+03 0.  0.
         23    2    1    2    0    0 -0.14887153177E+03 -0.98246955317E+02 -0.48333658372E+03  0.52320801408E+03  0.91198550626E+02 0.  0.
          5    1    3    3  502    0  0.76048168753E+02  0.64257107481E+02 -0.34856573072E+03  0.36252977928E+03  0.41800000000E+01 0.  1.
         -5    1    3    3    0  502  0.72823363017E+02  0.33989847837E+02 -0.10305951242E+04  0.10337322353E+04  0.41800000000E+01 0.  1.
        -11    1    4    4    0    0 -0.69164585857E+02 -0.65844322113E+02 -0.14149617912E+03  0.17070554589E+03  0.00000000000E+00 0.  1.
         11    1    4    4    0    0 -0.79706945913E+02 -0.32402633204E+02 -0.34184040460E+03  0.35250246820E+03  0.00000000000E+00 0. -1.
</event>
<event>
 8    1  0.6637272E-009  0.8990067E+02  0.7561462E-02  0.1303092E+00
          2   -1    0    0  501    0  0.00000000000E+00  0.00000000000E+00  0.23894871077E+03  0.23894871077E+03  0.00000000000E+00 0. -1.
         -2   -1    0    0    0  501 -0.00000000000E+00 -0.00000000000E+00 -0.56623739100E+02  0.56623739100E+02  0.00000000000E+00 0.  1.
         25    2    1    2    0    0 -0.31792093162E+02 -0.15116195385E+01  0.14540612159E+03  0.19443189286E+03  0.12509116110E+03 0.  0.
         23    2    1    2    0    0  0.31792093162E+02  0.15116195385E+01  0.36918850080E+02  0.10114055701E+03  0.88619346641E+02 0.  0.
          5    1    3    3  502    0  0.25707104755E+02 -0.28329753844E+02  0.11989867412E+03  0.12592297107E+03  0.41800000000E+01 0. -1.
         -5    1    3    3    0  502 -0.57499197916E+02  0.26818134305E+02  0.25507447471E+02  0.68508921792E+02  0.41800000000E+01 0. -1.
        -11    1    4    4    0    0  0.35752031598E+01 -0.32979560148E+02 -0.11712379830E+02  0.35179728630E+02  0.00000000000E+00 0.  1.
         11    1    4    4    0    0  0.28216890002E+02  0.34491179686E+02  0.48631229911E+02  0.65960828377E+02  0.00000000000E+00 0. -1.
</event>
<event>
 8    1  0.6637272E-009  0.8416796E+02  0.7561462E-02  0.1317623E+00
          3   -1    0    0  501    0  0.00000000000E+00  0.00000000000E+00  0.99680533213E+02  0.99680533213E+02  0.00000000000E+00 0. -1.
         -3   -1    0    0    0  501 -0.00000000000E+00 -0.00000000000E+00 -0.13787553622E+03  0.13787553622E+03  0.00000000000E+00 0.  1.
         25    2    1    2    0    0 -0.72285124218E+01  0.17842138413E+02  0.19611073978E+02  0.12808364100E+03  0.12510088559E+03 0.  0.
         23    2    1    2    0    0  0.72285124218E+01 -0.17842138413E+02 -0.57806076989E+02  0.10947242844E+03  0.90950957970E+02 0.  0.
          5    1    3    3  502    0 -0.31180603970E+02 -0.42189218046E+02  0.32764578100E+02  0.61993146083E+02  0.41800000000E+01 0. -1.
         -5    1    3    3    0  502  0.23952091548E+02  0.60031356459E+02 -0.13153504121E+02  0.66090494918E+02  0.41800000000E+01 0. -1.
        -11    1    4    4    0    0  0.26858499974E+02 -0.45698458270E+01 -0.75261822997E+02  0.80041267559E+02  0.00000000000E+00 0.  1.
         11    1    4    4    0    0 -0.19629987552E+02 -0.13272292586E+02  0.17455746008E+02  0.29431160876E+02  0.00000000000E+00 0. -1.
</event>
<event>
 8    1  0.6637272E-009  0.1365609E+03  0.7561462E-02  0.1218033E+00
          1   -1    0    0  501    0  0.00000000000E+00  0.00000000000E+00  0.63342251063E+03  0.63342251063E+03  0.00000000000E+00 0. -1.
         -1   -1    0    0    0  501 -0.00000000000E+00 -0.00000000000E+00 -0.46794959938E+02  0.46794959938E+02  0.00000000000E+00 0.  1.
         25    2    1    2    0    0  0.10288796240E+03 -0.11574866592E+01  0.14497614914E+03  0.21736832048E+03  0.12507449919E+03 0.  0.
         23    2    1    2    0    0 -0.10288796240E+03  0.11574866592E+01  0.44165140156E+03  0.46284915009E+03  0.92661225215E+02 0.  0.
          5    1    3    3  502    0  0.12809813691E+02 -0.46771694159E+02  0.90019398550E+02  0.10233595271E+03  0.41800000000E+01 0. -1.
         -5    1    3    3    0  502  0.90078148709E+02  0.45614207500E+02  0.54956750586E+02  0.11503236777E+03  0.41800000000E+01 0. -1.
        -11    1    4    4    0    0  0.93722965859E+01  0.58253688984E+01  0.52583194087E+01  0.12223943271E+02  0.00000000000E+00 0.  1.
         11    1    4    4    0    0 -0.11226025899E+03 -0.46678822392E+01  0.43639308215E+03  0.45062520682E+03  0.00000000000E+00 0. -1.
</event>
<event>
 8    1  0.6637272E-009  0.1930369E+03  0.7561462E-02  0.1155750E+00
          2   -1    0    0  501    0  0.00000000000E+00  0.00000000000E+00  0.23379791897E+04  0.23379791897E+04  0.00000000000E+00 0. -1.
         -2   -1    0    0    0  501 -0.00000000000E+00 -0.00000000000E+00 -0.25608816906E+02  0.25608816906E+02  0.00000000000E+00 0.  1.
         25    2    1    2    0    0  0.45760834845E+02 -0.18424297969E+03  0.17168248098E+04  0.17318126525E+04  0.12509239058E+03 0.  0.
         23    2    1    2    0    0 -0.45760834845E+02  0.18424297969E+03  0.59554556294E+03  0.63177535407E+03  0.91793523196E+02 0.  0.
          5    1    3    3  502    0 -0.32815693132E+01  0.16484460693E+00  0.50675826405E+03  0.50678615456E+03  0.41800000000E+01 0. -1.
         -5    1    3    3    0  502  0.49042404158E+02 -0.18440782430E+03  0.12100665458E+04  0.12250264980E+04  0.41800000000E+01 0. -1.
        -11    1    4    4    0    0 -0.17532705156E+02  0.61801933030E+02  0.88285290481E+02  0.10918409770E+03  0.00000000000E+00 0.  1.
         11    1    4    4    0    0 -0.28228129689E+02  0.12244104666E+03  0.50726027246E+03  0.52259125636E+03  0.00000000000E+00 0. -1.
</event>
<event>
 7    1  0.6637272E-009  0.1239982E+03  0.7561462E-02  0.1236643E+00
          2   -1    0    0  501    0  0.00000000000E+00  0.00000000000E+00  0.83142975477E+02  0.83142975477E+02  0.00000000000E+00 0. -1.
         -2   -1    0    0    0  501 -0.00000000000E+00 -0.00000000000E+00 -0.33680215096E+03  0.33680215096E+03  0.00000000000E+00 0.  1.
         25    2    1    2    0    0 -0.69135061941E+02 -0.36297436376E+02 -0.21020790230E+03  0.25676908064E+03  0.12508332386E+03 0.  0.
          5    1    3    3  502    0 -0.21487327441E+02 -0.78304285527E+02 -0.14079847169E+03  0.16258827880E+03  0.41800000000E+01 0. -1.
         -5    1    3    3    0  502 -0.47647734499E+02  0.42006849151E+02 -0.69409430607E+02  0.94180801843E+02  0.41800000000E+01 0. -1.
        -11    1    1    2    0    0  0.75246152211E+02  0.48404014574E+02 -0.82585163542E+02  0.12175894746E+03  0.00000000000E+00 0.  1.
         11    1    1    2    0    0 -0.61110902707E+01 -0.12106578199E+02  0.39133890357E+02  0.41417098335E+02  0.00000000000E+00 0. -1.
</event>
<event>
 8    1  0.6637272E-009  0.8737185E+02  0.7561462E-02  0.1309344E+00
          1   -1    0    0  501    0  0.00000000000E+00  0.00000000000E+00  0.72519372716E+03  0.72519372716E+03  0.00000000000E+00 0. -1.
         -1   -1    0    0    0  501 -0.00000000000E+00 -0.00000000000E+00 -0.16483920028E+02  0.16483920028E+02  0.00000000000E+00 0.  1.
         25    2    1    2    0    0  0.12402296876E+02 -0.11572209776E+02  0.39672492259E+03  0.41632223638E+03  0.12508320147E+03 0.  0.
         23    2    1    2    0    0 -0.12402296876E+02  0.11572209776E+02  0.31198488454E+03  0.32535541081E+03  0.90740521026E+02 0.  0.
          5    1    3    3  502    0  0.31542848212E+02  0.25622557345E+02  0.40156679053E+02  0.57284360787E+02  0.41800000000E+01 0. -1.
         -5    1    3    3    0  502 -0.19140551337E+02 -0.37194767122E+02  0.35656824354E+03  0.35903787559E+03  0.41800000000E+01 0. -1.
        -11    1    4    4    0    0 -0.39188955230E+02  0.37738796609E+02  0.20045947501E+03  0.20771131914E+03  0.00000000000E+00 0. -1.
         11    1    4    4    0    0  0.26786658354E+02 -0.26166586832E+02  0.11152540953E+03  0.11764409167E+03  0.00000000000E+00 0.  1.
</event>
<event>
 8    1  0.6637272E-009  0.2193476E+03  0.7561462E-02  0.1134370E+00
         -1   -1    0    0    0  501 -0.00000000000E+00  0.00000000000E+00  0.19808791738E+03  0.19808791738E+03  0.00000000000E+00 0.  1.
          1   -1    0    0  501    0  0.00000000000E+00 -0.00000000000E+00 -0.28642606724E+03  0.28642606724E+03  0.00000000000E+00 0. -1.
         25    2    1    2    0    0  0.17342805016E+03 -0.12151271080E+03 -0.23213056701E+02  0.24705232018E+03  0.12511345026E+03 0.  0.
         23    2    1    2    0    0 -0.17342805016E+03  0.12151271080E+03 -0.65125093163E+02  0.23746166444E+03  0.85464243119E+02 0.  0.
          5    1    3    3  502    0  0.14375395415E+03 -0.13184502555E+03 -0.54438793029E+02  0.20255706525E+03  0.41800000000E+01 0. -1.
         -5    1    3    3    0  502  0.29674096007E+02  0.10332314749E+02  0.31225736328E+02  0.44495254928E+02  0.41800000000E+01 0. -1.
        -11    1    4    4    0    0 -0.60980648779E+02  0.38406243596E+02 -0.65869580499E+02  0.97634423785E+02  0.00000000000E+00 0.  1.
         11    1    4    4    0    0 -0.11244740138E+03  0.83106467207E+02  0.74448733623E+00  0.13982724066E+03  0.00000000000E+00 0. -1.
</event>
<event>
 8    1  0.6637272E-009  0.1024698E+03  0.7561462E-02  0.1275186E+00
          1   -1    0    0  501    0  0.00000000000E+00  0.00000000000E+00  0.53561188646E+03  0.53561188646E+03  0.00000000000E+00 0. -1.
         -1   -1    0    0    0  501 -0.00000000000E+00 -0.00000000000E+00 -0.24333146455E+02  0.24333146455E+02  0.00000000000E+00 0.  1.
         25    2    1    2    0    0  0.33712403352E+02  0.54623184052E+01  0.25241464802E+03  0.28377014426E+03  0.12508388055E+03 0.  0.
         23    2    1    2    0    0 -0.33712403352E+02 -0.54623184052E+01  0.25886409199E+03  0.27617488866E+03  0.89975485243E+02 0.  0.
          5    1    3    3  502    0  0.59125971530E+02 -0.29565169952E+02  0.21939452170E+03  0.22917549681E+03  0.41800000000E+01 0. -1.
         -5    1    3    3    0  502 -0.25413568179E+02  0.35027488357E+02  0.33020126320E+02  0.54594647452E+02  0.41800000000E+01 0. -1.
        -11    1    4    4    0    0 -0.49191979154E+02 -0.36020260889E+02  0.18419149146E+03  0.19402014209E+03  0.00000000000E+00 0. -1.
         11    1    4    4    0    0  0.15479575802E+02  0.30557942484E+02  0.74672600525E+02  0.82154746576E+02  0.00000000000E+00 0.  1.
</event>
<event>
 8    1  0.6637272E-009  0.9664506E+02  0.7561462E-02  0.1287513E+00
         -3   -1    0    0    0  501 -0.00000000000E+00  0.00000000000E+00  0.35557463030E+02  0.35557463030E+02  0.00000000000E+00 0.  1.
          3   -1    0    0  501    0  0.00000000000E+00 -0.00000000000E+00 -0.37337564129E+03  0.37337564129E+03  0.00000000000E+00 0. -1.
         25    2    1    2    0    0  0.36455642802E+01  0.87305168108E+01 -0.12191799175E+03  0.17493184602E+03  0.12509053512E+03 0.  0.
         23    2    1    2    0    0 -0.36455642802E+01 -0.87305168108E+01 -0.21590018651E+03  0.23400125830E+03  0.89745118468E+02 0.  0.
          5    1    3    3  502    0  0.18997723058E+02 -0.55699977455E+02 -0.54208466216E+02  0.80121352830E+02  0.41800000000E+01 0.  1.
         -5    1    3    3    0  502 -0.15352158777E+02  0.64430494266E+02 -0.67709525530E+02  0.94810493185E+02  0.41800000000E+01 0.  1.
        -11    1    4    4    0    0 -0.29018257457E+02 -0.24562608943E+02 -0.38535677707E+02  0.54132979599E+02  0.00000000000E+00 0. -1.
         11    1    4    4    0    0  0.25372693177E+02  0.15832092132E+02 -0.17736450880E+03  0.17986827870E+03  0.00000000000E+00 0.  1.
</event>
<event>
 8    1  0.6637272E-009  0.1865897E+03  0.7561462E-02  0.1161574E+00
         -2   -1    0    0    0  501 -0.00000000000E+00  0.00000000000E+00  0.42547868792E+03  0.42547868792E+03  0.00000000000E+00 0.  1.
          2   -1    0    0  501    0  0.00000000000E+00 -0.00000000000E+00 -0.15400839091E+03  0.15400839091E+03  0.00000000000E+00 0. -1.
         25    2    1    2    0    0 -0.27692685535E+02  0.16723554328E+03 -0.38987528501E+02  0.21424649858E+03  0.12508766129E+03 0.  0.
         23    2    1    2    0    0  0.27692685535E+02 -0.16723554328E+03  0.31045782551E+03  0.36524058025E+03  0.91005539818E+02 0.  0.
          5    1    3    3  502    0 -0.43012311919E+02  0.84131308391E+01  0.13785864035E+02  0.46134175991E+02  0.41800000000E+01 0.  1.
         -5    1    3    3    0  502  0.15319626384E+02  0.15882241244E+03 -0.52773392536E+02  0.16811232259E+03  0.41800000000E+01 0.  1.
        -11    1    4    4    0    0  0.19127736547E+02 -0.12349817059E+03  0.29082686605E+03  0.31654057317E+03  0.00000000000E+00 0.  1.
         11    1    4    4    0    0  0.85649489880E+01 -0.43737372687E+02  0.19630959452E+02  0.48700007081E+02  0.00000000000E+00 0. -1.
</event>
<event>
 8    1  0.6637272E-009  0.1171644E+03  0.7561462E-02  0.1247850E+00
         -2   -1    0    0    0  501 -0.00000000000E+00  0.00000000000E+00  0.37423463172E+03  0.37423463172E+03  0.00000000000E+00 0.  1.
          2   -1    0    0  501    0  0.00000000000E+00 -0.00000000000E+00 -0.52057690986E+02  0.52057690986E+02  0.00000000000E+00 0. -1.
         25    2    1    2    0    0 -0.22373002335E+02 -0.66043178644E+02  0.92739538972E+02  0.17061770240E+03  0.12509006997E+03 0.  0.
         23    2    1    2    0    0  0.22373002335E+02  0.66043178644E+02  0.22943740176E+03  0.25567462031E+03  0.88688992907E+02 0.  0.
          5    1    3    3  502    0 -0.21011870380E+02  0.31678808990E+02  0.38388290230E+01  0.38435070497E+02  0.41800000000E+01 0.  1.
         -5    1    3    3    0  502 -0.13611319552E+01 -0.97721987634E+02  0.88900709949E+02  0.13218263190E+03  0.41800000000E+01 0.  1.
        -11    1    4    4    0    0  0.39093883617E+02  0.70803962806E+02  0.22286696038E+03  0.23708904427E+03  0.00000000000E+00 0.  1.
         11    1    4    4    0    0 -0.16720881281E+02 -0.47607841621E+01  0.65704413871E+01  0.18585576039E+02  0.00000000000E+00 0. -1.
</event>
<event>
 8    1  0.6637272E-009  0.1044395E+03  0.7561462E-02  0.1271228E+00
         -2   -1    0    0    0  501 -0.00000000000E+00  0.00000000000E+00  0.28911169798E+02  0.28911169798E+02  0.00000000000E+00 0.  1.
          2   -1    0    0  501    0  0.00000000000E+00 -0.00000000000E+00 -0.55576495927E+03  0.55576495927E+03  0.00000000000E+00 0. -1.
         25    2    1    2    0    0  0.50491448282E+02  0.18543695787E+02 -0.20371972012E+03  0.24504138482E+03  0.12510116268E+03 0.  0.
         23    2    1    2    0    0 -0.50491448282E+02 -0.18543695787E+02 -0.32313406935E+03  0.33963474425E+03  0.89682092540E+02 0.  0.
          5    1    3    3  502    0 -0.23998801406E+02  0.49202377515E+02 -0.94062836028E+02  0.10891329553E+03  0.41800000000E+01 0. -1.
         -5    1    3    3    0  502  0.74490249688E+02 -0.30658681729E+02 -0.10965688409E+03  0.13612808928E+03  0.41800000000E+01 0. -1.
        -11    1    4    4    0    0 -0.56015601544E+01  0.15820005434E+02 -0.65059999932E+01  0.17999391212E+02  0.00000000000E+00 0.  1.
         11    1    4    4    0    0 -0.44889888128E+02 -0.34363701220E+02 -0.31662806936E+03  0.32163535304E+03  0.00000000000E+00 0. -1.
</event>
<event>
 8    1  0.6637272E-009  0.6001187E+02  0.7561462E-02  0.1397782E+00
          1   -1    0    0  501    0  0.00000000000E+00  0.00000000000E+00  0.41571892112E+03  0.41571892112E+03  0.00000000000E+00 0. -1.
         -1   -1    0    0    0  501 -0.00000000000E+00 -0.00000000000E+00 -0.52505842405E+02  0.52505842405E+02  0.00000000000E+00 0.  1.
         25    2    1    2    0    0  0.19483299111E+02 -0.31957983539E+02  0.33331571674E+03  0.35797714538E+03  0.12508939975E+03 0.  0.
         23    2    1    2    0    0 -0.19483299111E+02  0.31957983539E+02  0.29897361977E+02  0.11024761815E+03  0.99296391669E+02 0.  0.
          5    1    3    3  502    0 -0.30817334314E+01 -0.21258816643E+02  0.33189624916E+03  0.33261693729E+03  0.41800000000E+01 0.  1.
         -5    1    3    3    0  502  0.22565032542E+02 -0.10699166896E+02  0.14194675792E+01  0.25360208085E+02  0.41800000000E+01 0.  1.
        -11    1    4    4    0    0 -0.42243311461E+02  0.16733638876E+02  0.56206020489E+02  0.72274675872E+02  0.00000000000E+00 0. -1.
         11    1    4    4    0    0  0.22760012350E+02  0.15224344663E+02 -0.26308658512E+02  0.37972942278E+02  0.00000000000E+00 0.  1.
</event>
<event>
 8    1  0.6637272E-009  0.1145864E+03  0.7561462E-02  0.1252305E+00
          1   -1    0    0  501    0  0.00000000000E+00  0.00000000000E+00  0.42250621852E+03  0.42250621852E+03  0.00000000000E+00 0. -1.
         -1   -1    0    0    0  501 -0.00000000000E+00 -0.00000000000E+00 -0.59985974078E+02  0.59985974078E+02  0.00000000000E+00 0.  1.
         25    2    1    2    0    0  0.24403619085E+02  0.10027321344E+03  0.27846263954E+03  0.32224226030E+03  0.12509348003E+03 0.  0.
         23    2    1    2    0    0 -0.24403619085E+02 -0.10027321344E+03  0.84057604903E+02  0.16024993230E+03  0.89241839408E+02 0.  0.
          5    1    3    3  502    0  0.44318639578E+02  0.42540043474E+02  0.24471329740E+03  0.25234077641E+03  0.41800000000E+01 0. -1.
         -5    1    3    3    0  502 -0.19915020493E+02  0.57733169970E+02  0.33749342142E+02  0.69901483897E+02  0.41800000000E+01 0. -1.
        -11    1    4    4    0    0  0.22820349660E+01 -0.44479418584E+02 -0.11888868712E+02  0.46097413815E+02  0.00000000000E+00 0.  1.
         11    1    4    4    0    0 -0.26685654051E+02 -0.55793794860E+02  0.95946473615E+02  0.11415251848E+03  0.00000000000E+00 0. -1.
</event>
<event>
 8    1  0.6637272E-009  0.2056357E+03  0.7561462E-02  0.1145069E+00
          2   -1    0    0  501    0  0.00000000000E+00  0.00000000000E+00  0.88621000171E+03  0.88621000171E+03  0.00000000000E+00 0. -1.
         -2   -1    0    0    0  501 -0.00000000000E+00 -0.00000000000E+00 -0.54016550103E+02  0.54016550103E+02  0.00000000000E+00 0.  1.
         25    2    1    2    0    0 -0.10646552538E+03  0.14762415885E+03  0.50939827198E+03  0.55521354073E+03  0.12509067089E+03 0.  0.
         23    2    1    2    0    0  0.10646552538E+03 -0.14762415885E+03  0.32279517963E+03  0.38501301108E+03  0.10445329264E+03 0.  0.
          5    1    3    3  502    0 -0.28704662686E+01 -0.21064540494E+02  0.35154961822E+02  0.41295256186E+02  0.41800000000E+01 0. -1.
         -5    1    3    3    0  502 -0.10359505911E+03  0.16868869934E+03  0.47424331016E+03  0.51391828454E+03  0.41800000000E+01 0. -1.
        -11    1    4    4    0    0 -0.68334227811E+01 -0.19011266411E+02  0.10967716164E+03  0.11152221170E+03  0.00000000000E+00 0. -1.
         11    1    4    4    0    0  0.11329894816E+03 -0.12861289244E+03  0.21311801799E+03  0.27349079938E+03  0.00000000000E+00 0.  1.
</event>
<event>
 8    1  0.6637272E-009  0.1450068E+03  0.7561462E-02  0.1206746E+00
         -2   -1    0    0    0  501 -0.00000000000E+00  0.00000000000E+00  0.13277486170E+03  0.13277486170E+03  0.00000000000E+00 0.  1.
          2   -1    0    0  501    0  0.00000000000E+00 -0.00000000000E+00 -0.23208019979E+03  0.23208019979E+03  0.00000000000E+00 0. -1.
         25    2    1    2    0    0 -0.11369231258E+03 -0.28450735027E+02 -0.12893536007E+03  0.21449494218E+03  0.12509343260E+03 0.  0.
         23    2    1    2    0    0  0.11369231258E+03  0.28450735027E+02  0.29630021986E+02  0.15036011932E+03  0.89413874851E+02 0.  0.
          5    1    3    3  502    0 -0.10199603460E+03  0.33892020214E+02 -0.74978501712E+02  0.13111486654E+03  0.41800000000E+01 0. -1.
         -5    1    3    3    0  502 -0.11696277977E+02 -0.62342755241E+02 -0.53956858361E+02  0.83380075640E+02  0.41800000000E+01 0. -1.
        -11    1    4    4    0    0  0.90994345605E+02  0.14231060792E+02 -0.19740364460E+02  0.94192229045E+02  0.00000000000E+00 0. -1.
         11    1    4    4    0    0  0.22697966971E+02  0.14219674236E+02  0.49370386446E+02  0.56167890273E+02  0.00000000000E+00 0.  1.
</event>
<event>
 8    1  0.6637272E-009  0.1117648E+03  0.7561462E-02  0.1257336E+00
         -2   -1    0    0    0  501 -0.00000000000E+00  0.00000000000E+00  0.39875866411E+02  0.39875866411E+02  0.00000000000E+00 0.  1.
          2   -1    0    0  501    0  0.00000000000E+00 -0.00000000000E+00 -0.42781727417E+03  0.42781727417E+03  0.00000000000E+00 0. -1.
         25    2    1    2    0    0 -0.51868439100E+02  0.42794803264E+02 -0.17299854387E+03  0.22382506208E+03  0.12508969612E+03 0.  0.
         23    2    1    2    0    0  0.51868439100E+02 -0.42794803264E+02 -0.21494286389E+03  0.24386807850E+03  0.93538627379E+02 0.  0.
          5    1    3    3  502    0 -0.77381132870E+02  0.25552495552E+02 -0.17458161426E+03  0.19270957991E+03  0.41800000000E+01 0. -1.
         -5    1    3    3    0  502  0.25512693771E+02  0.17242307712E+02  0.15830703922E+01  0.31115482168E+02  0.41800000000E+01 0. -1.
        -11    1    4    4    0    0  0.46878333018E+00  0.25431269174E+02 -0.81939122528E+02  0.85796206269E+02  0.00000000000E+00 0. -1.
         11    1    4    4    0    0  0.51399655769E+02 -0.68226072438E+02 -0.13300374136E+03  0.15807187223E+03  0.00000000000E+00 0.  1.
</event>
<event>
 8    1  0.6637272E-009  0.9518563E+02  0.7561462E-02  0.1290759E+00
          2   -1    0    0  501    0  0.00000000000E+00  0.00000000000E+00  0.35337960441E+03  0.35337960441E+03  0.00000000000E+00 0.  1.
         -2   -1    0    0    0  501 -0.00000000000E+00 -0.00000000000E+00 -0.49026837915E+02  0.49026837915E+02  0.00000000000E+00 0. -1.
         25    2    1    2    0    0 -0.30806135037E+02  0.24719950978E+02  0.71473435057E+02  0.14938719299E+03  0.12509191652E+03 0.  0.
         23    2    1    2    0    0  0.30806135037E+02 -0.24719950978E+02  0.23287933144E+03  0.25301924933E+03  0.90696546735E+02 0.  0.
          5    1    3    3  502    0  0.16365759951E+02  0.46619772065E+02  0.82316167677E+02  0.96097164928E+02  0.41800000000E+01 0. -1.
         -5    1    3    3    0  502 -0.47171894988E+02 -0.21899821087E+02 -0.10842732620E+02  0.53290028064E+02  0.41800000000E+01 0. -1.
        -11    1    4    4    0    0 -0.83729450820E+01 -0.44108747820E+02  0.17392466346E+03  0.17962593466E+03  0.00000000000E+00 0.  1.
         11    1    4    4    0    0  0.39179080119E+02  0.19388796843E+02  0.58954667980E+02  0.73393314673E+02  0.00000000000E+00 0. -1.
</event>
<event>
 8    1  0.6637272E-009  0.1015913E+03  0.7561462E-02  0.1276985E+00
         -1   -1    0    0    0  501 -0.00000000000E+00  0.00000000000E+00  0.39579992574E+02  0.39579992574E+02  0.00000000000E+00 0.  1.
          1   -1    0    0  501    0  0.00000000000E+00 -0.00000000000E+00 -0.32536711562E+03  0.32536711562E+03  0.00000000000E+00 0. -1.
         25    2    1    2    0    0 -0.75575712937E+01  0.29515044785E+02 -0.18116941643E+03  0.22225671550E+03  0.12508970934E+03 0.  0.
         23    2    1    2    0    0  0.75575712937E+01 -0.29515044785E+02 -0.10461770661E+03  0.14269039269E+03  0.92127242863E+02 0.  0.
          5    1    3    3  502    0 -0.44611094894E+02  0.48848959696E+02 -0.16398337697E+03  0.17687394091E+03  0.41800000000E+01 0. -1.
         -5    1    3    3    0  502  0.37053523601E+02 -0.19333914911E+02 -0.17186039465E+02  0.45382774590E+02  0.41800000000E+01 0. -1.
        -11    1    4    4    0    0 -0.32377261967E+02  0.14487970578E+02 -0.54124540108E+02  0.64712087170E+02  0.00000000000E+00 0. -1.
         11    1    4    4    0    0  0.39934833261E+02 -0.44003015363E+02 -0.50493166499E+02  0.77978305520E+02  0.00000000000E+00 0.  1.
</event>
<event>
 8    1  0.6637272E-009  0.1504492E+03  0.7561462E-02  0.1199922E+00
         -1   -1    0    0    0  501 -0.00000000000E+00  0.00000000000E+00  0.76981858247E+02  0.76981858247E+02  0.00000000000E+00 0.  1.
          1   -1    0    0  501    0  0.00000000000E+00 -0.00000000000E+00 -0.36094814209E+03  0.36094814209E+03  0.00000000000E+00 0. -1.
         25    2    1    2    0    0  0.71040998757E+02 -0.10479312883E+03 -0.14320827129E+03  0.22843636984E+03  0.12508454239E+03 0.  0.
         23    2    1    2    0    0 -0.71040998757E+02  0.10479312883E+03 -0.14075801255E+03  0.20949363049E+03  0.89701392214E+02 0.  0.
          5    1    3    3  502    0  0.33592138894E+01 -0.98586160759E+02 -0.12235232860E+03  0.15721984647E+03  0.41800000000E+01 0. -1.
         -5    1    3    3    0  502  0.67681784867E+02 -0.62069680748E+01 -0.20855942695E+02  0.71216523372E+02  0.41800000000E+01 0. -1.
        -11    1    4    4    0    0 -0.27961025340E+02  0.79136731747E+02 -0.13508057223E+03  0.15903207929E+03  0.00000000000E+00 0. -1.
         11    1    4    4    0    0 -0.43079973417E+02  0.25656397087E+02 -0.56774403189E+01  0.50461551201E+02  0.00000000000E+00 0.  1.
</event>
<event>
 8    1  0.6637272E-009  0.1180510E+03  0.7561462E-02  0.1246347E+00
         -1   -1    0    0    0  501 -0.00000000000E+00  0.00000000000E+00  0.44708336357E+02  0.44708336357E+02  0.00000000000E+00 0.  1.
          1   -1    0    0  501    0  0.00000000000E+00 -0.00000000000E+00 -0.49639031382E+03  0.49639031382E+03  0.00000000000E+00 0. -1.
         25    2    1    2    0    0 -0.75929470058E+02  0.44643137701E+02 -0.15246994784E+03  0.21599363177E+03  0.12509144576E+03 0.  0.
         23    2    1    2    0    0  0.75929470058E+02 -0.44643137701E+02 -0.29921202962E+03  0.32510501841E+03  0.91690458386E+02 0.  0.
          5    1    3    3  502    0  0.23476222366E+02  0.26943033112E+02 -0.37306472507E+01  0.36172505841E+02  0.41800000000E+01 0.  1.
         -5    1    3    3    0  502 -0.99405692424E+02  0.17700104589E+02 -0.14873930059E+03  0.17982112593E+03  0.41800000000E+01 0.  1.
        -11    1    4    4    0    0  0.80533052414E+02 -0.33897341124E+02 -0.30086718334E+03  0.31329804385E+03  0.00000000000E+00 0. -1.
         11    1    4    4    0    0 -0.46035823560E+01 -0.10745796577E+02  0.16551537183E+01  0.11806974566E+02  0.00000000000E+00 0.  1.
</event>
<event>
 8    1  0.6637272E-009  0.9853902E+02  0.7561462E-02  0.1283399E+00
         -1   -1    0    0    0  501 -0.00000000000E+00  0.00000000000E+00  0.47938177386E+03  0.47938177386E+03  0.00000000000E+00 0.  1.
          1   -1    0    0  501    0  0.00000000000E+00 -0.00000000000E+00 -0.29495175184E+02  0.29495175184E+02  0.00000000000E+00 0. -1.
         25    2    1    2    0    0 -0.26191775520E+02 -0.22817126984E+02  0.32816931649E+03  0.35291454938E+03  0.12508776313E+03 0.  0.
         23    2    1    2    0    0  0.26191775520E+02  0.22817126984E+02  0.12171728218E+03  0.15596239966E+03  0.91118290915E+02 0.  0.
          5    1    3    3  502    0 -0.61332635772E+02  0.20961795457E+02  0.11136762825E+03  0.12892365998E+03  0.41800000000E+01 0. -1.
         -5    1    3    3    0  502  0.35140860252E+02 -0.43778922441E+02  0.21680168824E+03  0.22399088940E+03  0.41800000000E+01 0. -1.
        -11    1    4    4    0    0 -0.22613589870E+02  0.12890408121E+02  0.96865183293E+02  0.10030154935E+03  0.00000000000E+00 0.  1.
         11    1    4    4    0    0  0.48805365390E+02  0.99267188625E+01  0.24852098884E+02  0.55660850309E+02  0.00000000000E+00 0. -1.
</event>
<event>
 8    1  0.6637272E-009  0.1195683E+03  0.7561462E-02  0.1243811E+00
          2   -1    0    0  501    0  0.00000000000E+00  0.00000000000E+00  0.51291332820E+03  0.51291332820E+03  0.00000000000E+00 0. -1.
         -2   -1    0    0    0  501 -0.00000000000E+00 -0.00000000000E+00 -0.40708867842E+02  0.40708867842E+02  0.00000000000E+00 0.  1.
         25    2    1    2    0    0 -0.50028254995E+02 -0.63453428377E+02  0.35773960671E+03  0.38749715314E+03  0.12508898278E+03 0.  0.
         23    2    1    2    0    0  0.50028254995E+02  0.63453428377E+02  0.11446485365E+03  0.16612504290E+03  0.89253365692E+02 0.  0.
          5    1    3    3  502    0  0.48025444404E+01  0.34264764035E+02  0.60625073944E+02  0.69928609869E+02  0.41800000000E+01 0. -1.
         -5    1    3    3    0  502 -0.54830799436E+02 -0.97718192412E+02  0.29711453276E+03  0.31756854327E+03  0.41800000000E+01 0. -1.
        -11    1    4    4    0    0  0.47868853381E+02  0.25680086013E+02  0.10284427158E+02  0.55287099613E+02  0.00000000000E+00 0.  1.
         11    1    4    4    0    0  0.21594016141E+01  0.37773342364E+02  0.10418042649E+03  0.11083794329E+03  0.00000000000E+00 0. -1.
</event>
<event>
 8    1  0.6637272E-009  0.1158260E+03  0.7561462E-02  0.1250146E+00
          2   -1    0    0  501    0  0.00000000000E+00  0.00000000000E+00  0.12502657061E+04  0.12502657061E+04  0.00000000000E+00 0. -1.
         -2   -1    0    0    0  501 -0.00000000000E+00 -0.00000000000E+00 -0.14561731767E+02  0.14561731767E+02  0.00000000000E+00 0.  1.
         25    2    1    2    0    0 -0.22007063571E+01 -0.79184666341E+02  0.72032424786E+03  0.73538414466E+03  0.12509102155E+03 0.  0.
         23    2    1    2    0    0  0.22007063571E+01  0.79184666341E+02  0.51537972649E+03  0.52944329322E+03  0.91754475469E+02 0.  0.
          5    1    3    3  502    0 -0.33029913624E+01  0.16557850101E+02  0.13305963185E+02  0.21899616623E+02  0.41800000000E+01 0.  1.
         -5    1    3    3    0  502  0.11022850052E+01 -0.95742516443E+02  0.70701828468E+03  0.71348452804E+03  0.41800000000E+01 0.  1.
        -11    1    4    4    0    0  0.45037392111E+02  0.44308834367E+02  0.21772833671E+03  0.22670965594E+03  0.00000000000E+00 0.  1.
         11    1    4    4    0    0 -0.42836685754E+02  0.34875831974E+02  0.29765138978E+03  0.30273363728E+03  0.00000000000E+00 0. -1.
</event>
<event>
 8    1  0.6637272E-009  0.7015017E+02  0.7561462E-02  0.1359583E+00
          4   -1    0    0  501    0  0.00000000000E+00  0.00000000000E+00  0.18343609362E+03  0.18343609362E+03  0.00000000000E+00 0. -1.
         -4   -1    0    0    0  501 -0.00000000000E+00 -0.00000000000E+00 -0.82149434552E+02  0.82149434552E+02  0.00000000000E+00 0.  1.
         25    2    1    2    0    0  0.13946730536E+02  0.11098046508E+02  0.11720202686E+03  0.17233980251E+03  0.12508802701E+03 0.  0.
         23    2    1    2    0    0 -0.13946730536E+02 -0.11098046508E+02 -0.15915367785E+02  0.93245725661E+02  0.90132061406E+02 0.  0.
          5    1    3    3  502    0 -0.33346025367E+02 -0.24726254465E+02  0.92394643798E+00  0.41733333735E+02  0.41800000000E+01 0. -1.
         -5    1    3    3    0  502  0.47292755903E+02  0.35824300973E+02  0.11627808042E+03  0.13060646878E+03  0.41800000000E+01 0. -1.
        -11    1    4    4    0    0  0.11211390468E+01 -0.21026204894E+02 -0.50236132426E+02  0.54470425427E+02  0.00000000000E+00 0.  1.
         11    1    4    4    0    0 -0.15067869583E+02  0.99281583860E+01  0.34320764641E+02  0.38775300234E+02  0.00000000000E+00 0. -1.
</event>
<event>
 8    1  0.6637272E-009  0.8154724E+02  0.7561462E-02  0.1324717E+00
         -2   -1    0    0    0  501 -0.00000000000E+00  0.00000000000E+00  0.29806238887E+02  0.29806238887E+02  0.00000000000E+00 0.  1.
          2   -1    0    0  501    0  0.00000000000E+00 -0.00000000000E+00 -0.72255442293E+03  0.72255442293E+03  0.00000000000E+00 0. -1.
         25    2    1    2    0    0 -0.31985098465E+02 -0.56621762454E+02 -0.56315110929E+03  0.58052955916E+03  0.12508527755E+03 0.  0.
         23    2    1    2    0    0  0.31985098465E+02  0.56621762454E+02 -0.12959707475E+03  0.17183110265E+03  0.92203338049E+02 0.  0.
          5    1    3    3  502    0  0.18760302585E+02 -0.31264428668E+02 -0.39961428187E+02  0.54256811515E+02  0.41800000000E+01 0. -1.
         -5    1    3    3    0  502 -0.50745401051E+02 -0.25357333786E+02 -0.52318968110E+03  0.52627274764E+03  0.41800000000E+01 0. -1.
        -11    1    4    4    0    0 -0.26062533707E+01  0.15765172535E+02  0.12304339249E+02  0.20167547844E+02  0.00000000000E+00 0.  1.
         11    1    4    4    0    0  0.34591351836E+02  0.40856589918E+02 -0.14190141400E+03  0.15166355481E+03  0.00000000000E+00 0. -1.
</event>
<event>
 8    1  0.6637272E-009  0.1041239E+03  0.7561462E-02  0.1271855E+00
         -4   -1    0    0    0  501 -0.00000000000E+00  0.00000000000E+00  0.18943907084E+03  0.18943907084E+03  0.00000000000E+00 0.  1.
          4   -1    0    0  501    0  0.00000000000E+00 -0.00000000000E+00 -0.97848847245E+02  0.97848847245E+02  0.00000000000E+00 0. -1.
         25    2    1    2    0    0  0.16064395477E+02  0.61937722570E+02 -0.26491602476E+01  0.14053223550E+03  0.12509174587E+03 0.  0.
         23    2    1    2    0    0 -0.16064395477E+02 -0.61937722570E+02  0.94239383840E+02  0.14675568259E+03  0.92530117398E+02 0.  0.
          5    1    3    3  502    0  0.38475680898E+02 -0.11947319857E+02  0.35908456164E+02  0.54129530724E+02  0.41800000000E+01 0.  1.
         -5    1    3    3    0  502 -0.22411285421E+02  0.73885042427E+02 -0.38557616412E+02  0.86402704773E+02  0.41800000000E+01 0.  1.
        -11    1    4    4    0    0 -0.40153903739E+02 -0.48036219912E+02  0.10035036354E+03  0.11827937213E+03  0.00000000000E+00 0.  1.
         11    1    4    4    0    0  0.24089508263E+02 -0.13901502658E+02 -0.61109796971E+01  0.28476310459E+02  0.00000000000E+00 0. -1.
</event>
<event>
 8    1  0.6637272E-009  0.1758007E+03  0.7561462E-02  0.1171930E+00
         -2   -1    0    0    0  501 -0.00000000000E+00  0.00000000000E+00  0.11632585645E+03  0.11632585645E+03  0.00000000000E+00 0.  1.
          2   -1    0    0  501    0  0.00000000000E+00 -0.00000000000E+00 -0.32567579899E+03  0.32567579899E+03  0.00000000000E+00 0. -1.
         25    2    1    2    0    0 -0.80582792504E+02  0.13705484430E+03 -0.14084603381E+03  0.24650122650E+03  0.12509049775E+03 0.  0.
         23    2    1    2    0    0  0.80582792504E+02 -0.13705484430E+03 -0.68503908725E+02  0.19550042894E+03  0.90829595454E+02 0.  0.
          5    1    3    3  502    0 -0.39859277341E+02  0.18785413191E+02  0.14897982991E+02  0.46701991779E+02  0.41800000000E+01 0. -1.
         -5    1    3    3    0  502 -0.40723515163E+02  0.11826943111E+03 -0.15574401681E+03  0.19979923472E+03  0.41800000000E+01 0. -1.
        -11    1    4    4    0    0  0.26435210033E+02 -0.12359420401E+03 -0.56422207712E+02  0.13841175210E+03  0.00000000000E+00 0. -1.
         11    1    4    4    0    0  0.54147582471E+02 -0.13460640289E+02 -0.12081701013E+02  0.57088676844E+02  0.00000000000E+00 0.  1.
</event>
<event>
 8    1  0.6637272E-009  0.7775756E+02  0.7561462E-02  0.1335538E+00
         -1   -1    0    0    0  501 -0.00000000000E+00  0.00000000000E+00  0.46375115643E+02  0.46375115643E+02  0.00000000000E+00 0.  1.
          1   -1    0    0  501    0  0.00000000000E+00 -0.00000000000E+00 -0.39581087977E+03  0.39581087977E+03  0.00000000000E+00 0. -1.
         25    2    1    2    0    0  0.23961659096E+02  0.24987744599E+02 -0.31172591319E+03  0.33766608838E+03  0.12508714483E+03 0.  0.
         23    2    1    2    0    0 -0.23961659096E+02 -0.24987744599E+02 -0.37709850938E+02  0.10451990703E+03  0.91125351147E+02 0.  0.
          5    1    3    3  502    0  0.46686612264E+02  0.69998091314E+01 -0.30360029540E+03  0.30727715317E+03  0.41800000000E+01 0.  1.
         -5    1    3    3    0  502 -0.22724953168E+02  0.17987935467E+02 -0.81256177896E+01  0.30388935212E+02  0.41800000000E+01 0.  1.
        -11    1    4    4    0    0 -0.32363725376E+02  0.16627056297E+02  0.12769927750E+02  0.38560871050E+02  0.00000000000E+00 0.  1.
         11    1    4    4    0    0  0.84020662808E+01 -0.41614800896E+02 -0.50479778688E+02  0.65959035983E+02  0.00000000000E+00 0. -1.
</event>
<event>
 8    1  0.6637272E-009  0.1808898E+03  0.7561462E-02  0.1166945E+00
         -1   -1    0    0    0  501 -0.00000000000E+00  0.00000000000E+00  0.20401532202E+03  0.20401532202E+03  0.00000000000E+00 0.  1.
          1   -1    0    0  501    0  0.00000000000E+00 -0.00000000000E+00 -0.19175012321E+03  0.19175012321E+03  0.00000000000E+00 0. -1.
         25    2    1    2    0    0  0.13181308730E+02  0.15653755242E+03  0.56903997058E+02  0.20871760611E+03  0.12508885643E+03 0.  0.
         23    2    1    2    0    0 -0.13181308730E+02 -0.15653755242E+03 -0.44638798243E+02  0.18704783912E+03  0.91194953785E+02 0.  0.
          5    1    3    3  502    0 -0.49067730207E+02  0.30079125040E+02  0.30927762749E+01  0.57787832421E+02  0.41800000000E+01 0. -1.
         -5    1    3    3    0  502  0.62249038937E+02  0.12645842738E+03  0.53811220783E+02  0.15092977369E+03  0.41800000000E+01 0. -1.
        -11    1    4    4    0    0  0.16221325010E+02 -0.52216628465E+02 -0.55757702814E+02  0.78093719955E+02  0.00000000000E+00 0. -1.
         11    1    4    4    0    0 -0.29402633740E+02 -0.10432092395E+03  0.11118904571E+02  0.10895411917E+03  0.00000000000E+00 0.  1.
</event>
<event>
 8    1  0.6637272E-009  0.1092421E+03  0.7561462E-02  0.1261980E+00
          1   -1    0    0  501    0  0.00000000000E+00  0.00000000000E+00  0.17551309943E+03  0.17551309943E+03  0.00000000000E+00 0. -1.
         -1   -1    0    0    0  501 -0.00000000000E+00 -0.00000000000E+00 -0.10005221080E+03  0.10005221080E+03  0.00000000000E+00 0.  1.
         25    2    1    2    0    0  0.25407215078E+02  0.39902949123E+02 -0.20320460125E+02  0.13527094257E+03  0.12509010704E+03 0.  0.
         23    2    1    2    0    0 -0.25407215078E+02 -0.39902949123E+02  0.95781348756E+02  0.14029436766E+03  0.90943229000E+02 0.  0.
          5    1    3    3  502    0  0.68800823493E+02  0.43817665991E+02  0.96193988748E+01  0.82240783076E+02  0.41800000000E+01 0. -1.
         -5    1    3    3    0  502 -0.43393608415E+02 -0.39147168672E+01 -0.29939859000E+02  0.53030159498E+02  0.41800000000E+01 0. -1.
        -11    1    4    4    0    0 -0.19466386675E+02  0.22842476599E+02  0.61774670297E+02  0.68679173246E+02  0.00000000000E+00 0.  1.
         11    1    4    4    0    0 -0.59408284039E+01 -0.62745425723E+02  0.34006678458E+02  0.71615194414E+02  0.00000000000E+00 0. -1.
</event>
<event>
 8    1  0.6637272E-009  0.9400942E+02  0.7561462E-02  0.1293423E+00
         -2   -1    0    0    0  501 -0.00000000000E+00  0.00000000000E+00  0.13159884910E+02  0.13159884910E+02  0.00000000000E+00 0.  1.
          2   -1    0    0  501    0  0.00000000000E+00 -0.00000000000E+00 -0.14200737580E+04  0.14200737580E+04  0.00000000000E+00 0. -1.
         25    2    1    2    0    0 -0.15009467326E+02 -0.34947775886E+02 -0.11586433853E+04  0.11659976214E+04  0.12509727298E+03 0.  0.
         23    2    1    2    0    0  0.15009467326E+02  0.34947775886E+02 -0.24827048780E+03  0.26723602150E+03  0.91270065886E+02 0.  0.
          5    1    3    3  502    0  0.22915549130E+02  0.18293468651E+02 -0.84831366476E+03  0.84883056001E+03  0.41800000000E+01 0.  1.
         -5    1    3    3    0  502 -0.37925016456E+02 -0.53241244536E+02 -0.31032972054E+03  0.31716706141E+03  0.41800000000E+01 0.  1.
        -11    1    4    4    0    0  0.46345508164E+02  0.39924104064E+02 -0.20254520564E+03  0.21158071873E+03  0.00000000000E+00 0.  1.
         11    1    4    4    0    0 -0.31336040838E+02 -0.49763281788E+01 -0.45725282163E+02  0.55655302770E+02  0.00000000000E+00 0. -1.
</event>
<event>
 8    1  0.6637272E-009  0.1234641E+03  0.7561462E-02  0.1237489E+00
          1   -1    0    0  501    0  0.00000000000E+00  0.00000000000E+00  0.20737639479E+04  0.20737639479E+04  0.00000000000E+00 0. -1.
         -1   -1    0    0    0  501 -0.00000000000E+00 -0.00000000000E+00 -0.22508495444E+02  0.22508495444E+02  0.00000000000E+00 0.  1.
         25    2    1    2    0    0  0.65909001962E+01  0.81556951627E+02  0.18797193777E+04  0.18856531221E+04  0.12509109328E+03 0.  0.
         23    2    1    2    0    0 -0.65909001962E+01 -0.81556951627E+02  0.17153607478E+03  0.21061932128E+03  0.90779387646E+02 0.  0.
          5    1    3    3  502    0  0.25126115833E+02  0.97396624624E+02  0.17823411064E+04  0.17851819840E+04  0.41800000000E+01 0.  1.
         -5    1    3    3    0  502 -0.18535215637E+02 -0.15839672997E+02  0.97378271363E+02  0.10047113811E+03  0.41800000000E+01 0.  1.
        -11    1    4    4    0    0 -0.43700148841E+02 -0.16673411440E+02  0.55342841424E+02  0.72460580695E+02  0.00000000000E+00 0.  1.
         11    1    4    4    0    0  0.37109248645E+02 -0.64883540187E+02  0.11619323336E+03  0.13815874059E+03  0.00000000000E+00 0. -1.
</event>
<event>
 8    1  0.6637272E-009  0.2057551E+03  0.7561462E-02  0.1144972E+00
         -2   -1    0    0    0  501 -0.00000000000E+00  0.00000000000E+00  0.74548469875E+02  0.74548469875E+02  0.00000000000E+00 0. -1.
          2   -1    0    0  501    0  0.00000000000E+00 -0.00000000000E+00 -0.71132902164E+03  0.71132902164E+03  0.00000000000E+00 0.  1.
         25    2    1    2    0    0  0.16648082337E+03 -0.10788586293E+03 -0.25699659182E+03  0.34792180351E+03  0.12508840546E+03 0.  0.
         23    2    1    2    0    0 -0.16648082337E+03  0.10788586293E+03 -0.37978395994E+03  0.43795568800E+03  0.90631696747E+02 0.  0.
          5    1    3    3  502    0  0.17205306542E+03 -0.91023989725E+02 -0.16824943577E+03  0.25731880822E+03  0.41800000000E+01 0. -1.
         -5    1    3    3    0  502 -0.55722420474E+01 -0.16861873205E+02 -0.88747156047E+02  0.90602995292E+02  0.41800000000E+01 0. -1.
        -11    1    4    4    0    0 -0.12911549010E+03  0.87935346630E+02 -0.35739584497E+03  0.39004515761E+03  0.00000000000E+00 0.  1.
         11    1    4    4    0    0 -0.37365333264E+02  0.19950516300E+02 -0.22388114969E+02  0.47910530392E+02  0.00000000000E+00 0. -1.
</event>
<event>
 8    1  0.6637272E-009  0.1271691E+03  0.7561462E-02  0.1231718E+00
         -2   -1    0    0    0  501 -0.00000000000E+00  0.00000000000E+00  0.66551077550E+02  0.66551077550E+02  0.00000000000E+00 0.  1.
          2   -1    0    0  501    0  0.00000000000E+00 -0.00000000000E+00 -0.43086746805E+03  0.43086746805E+03  0.00000000000E+00 0. -1.
         25    2    1    2    0    0  0.73777550168E+02 -0.96032537786E+02 -0.12347719908E+03  0.21344370437E+03  0.12508485528E+03 0.  0.
         23    2    1    2    0    0 -0.73777550168E+02  0.96032537786E+02 -0.24083919142E+03  0.28397484123E+03  0.89290643986E+02 0.  0.
          5    1    3    3  502    0  0.31088366684E+02 -0.80246044027E+02 -0.14038047319E+03  0.16471206324E+03  0.41800000000E+01 0.  1.
         -5    1    3    3    0  502  0.42689183484E+02 -0.15786493759E+02  0.16903274108E+02  0.48731641131E+02  0.41800000000E+01 0.  1.
        -11    1    4    4    0    0 -0.65474934102E+02  0.73366917093E+02 -0.97004409380E+02  0.13812866089E+03  0.00000000000E+00 0.  1.
         11    1    4    4    0    0 -0.83026160660E+01  0.22665620692E+02 -0.14383478204E+03  0.14584618034E+03  0.00000000000E+00 0. -1.
</event>
<event>
 8    1  0.6637272E-009  0.9470447E+02  0.7561462E-02  0.1291843E+00
         -2   -1    0    0    0  501 -0.00000000000E+00  0.00000000000E+00  0.80710951919E+02  0.80710951919E+02  0.00000000000E+00 0.  1.
          2   -1    0    0  501    0  0.00000000000E+00 -0.00000000000E+00 -0.15529313412E+03  0.15529313412E+03  0.00000000000E+00 0. -1.
         25    2    1    2    0    0  0.18826440684E+02  0.19718162825E+02 -0.49825172912E+02  0.13738104056E+03  0.12509101341E+03 0.  0.
         23    2    1    2    0    0 -0.18826440684E+02 -0.19718162825E+02 -0.24757009293E+02  0.98623045485E+02  0.91489643007E+02 0.  0.
          5    1    3    3  502    0  0.57717821084E+02  0.49499387873E+02 -0.16300983821E+02  0.77876381169E+02  0.41800000000E+01 0.  1.
         -5    1    3    3    0  502 -0.38891380400E+02 -0.29781225048E+02 -0.33524189091E+02  0.59504659389E+02  0.41800000000E+01 0.  1.
        -11    1    4    4    0    0 -0.39906720335E+02 -0.12883266094E+02 -0.49851909493E+02  0.65143977106E+02  0.00000000000E+00 0. -1.
         11    1    4    4    0    0  0.21080279651E+02 -0.68348967313E+01  0.25094900200E+02  0.33479068379E+02  0.00000000000E+00 0.  1.
</event>
<event>
 8    1  0.6637272E-009  0.1495822E+03  0.7561462E-02  0.1200987E+00
         -1   -1    0    0    0  501 -0.00000000000E+00  0.00000000000E+00  0.70702676128E+02  0.70702676128E+02  0.00000000000E+00 0.  1.
          1   -1    0    0  501    0  0.00000000000E+00 -0.00000000000E+00 -0.45651108508E+03  0.45651108508E+03  0.00000000000E+00 0. -1.
         25    2    1    2    0    0  0.94304015457E+02  0.79311403490E+02 -0.97140224083E+02  0.20067206975E+03  0.12509800314E+03 0.  0.
         23    2    1    2    0    0 -0.94304015457E+02 -0.79311403490E+02 -0.28866818487E+03  0.32654169146E+03  0.90092226344E+02 0.  0.
          5    1    3    3  502    0  0.10893785266E+03  0.50651054238E+02 -0.11261579238E+03  0.16472029059E+03  0.41800000000E+01 0.  1.
         -5    1    3    3    0  502 -0.14633837207E+02  0.28660349251E+02  0.15475568301E+02  0.35951779161E+02  0.41800000000E+01 0.  1.
        -11    1    4    4    0    0  0.11026092519E+02 -0.26443551795E+02 -0.26180399186E+02  0.38810429646E+02  0.00000000000E+00 0.  1.
         11    1    4    4    0    0 -0.10533010798E+03 -0.52867851695E+02 -0.26248778569E+03  0.28773126181E+03  0.00000000000E+00 0. -1.
</event>
<event>
 8    1  0.6637272E-009  0.1743670E+03  0.7561462E-02  0.1173369E+00
          1   -1    0    0  501    0  0.00000000000E+00  0.00000000000E+00  0.28079720606E+03  0.28079720606E+03  0.00000000000E+00 0. -1.
         -1   -1    0    0    0  501 -0.00000000000E+00 -0.00000000000E+00 -0.28834854594E+03  0.28834854594E+03  0.00000000000E+00 0.  1.
         25    2    1    2    0    0 -0.59194489861E+02 -0.14184821242E+03  0.21127804249E+03  0.28967245451E+03  0.12508723622E+03 0.  0.
         23    2    1    2    0    0  0.59194489861E+02  0.14184821242E+03 -0.21882938236E+03  0.27947329749E+03  0.81204202035E+02 0.  0.
          5    1    3    3  502    0 -0.25444359762E+02  0.11015444234E+02  0.17570317775E+01  0.28094750685E+02  0.41800000000E+01 0. -1.
         -5    1    3    3    0  502 -0.33750130099E+02 -0.15286365666E+03  0.20952101071E+03  0.26157770382E+03  0.41800000000E+01 0. -1.
        -11    1    4    4    0    0 -0.88207578748E+01  0.44329358411E+02 -0.23854965133E+02  0.51107310124E+02  0.00000000000E+00 0. -1.
         11    1    4    4    0    0  0.68015247736E+02  0.97518854012E+02 -0.19497441723E+03  0.22836598737E+03  0.00000000000E+00 0.  1.
</event>
<event>
 8    1  0.6637272E-009  0.9829936E+02  0.7561462E-02  0.1283913E+00
         -4   -1    0    0    0  501 -0.00000000000E+00  0.00000000000E+00  0.24307565973E+02  0.24307565973E+02  0.00000000000E+00 0.  1.
          4   -1    0    0  501    0  0.00000000000E+00 -0.00000000000E+00 -0.58142147906E+03  0.58142147906E+03  0.00000000000E+00 0. -1.
         25    2    1    2    0    0 -0.24617553480E+02 -0.41154321182E+02 -0.32732607475E+03  0.35367601182E+03  0.12507861543E+03 0.  0.
         23    2    1    2    0    0  0.24617553480E+02  0.41154321182E+02 -0.22978783834E+03  0.25205303321E+03  0.91807291711E+02 0.  0.
          5    1    3    3  502    0  0.31069806831E+02 -0.61111919404E+02 -0.22668723271E+03  0.23686404004E+03  0.41800000000E+01 0. -1.
         -5    1    3    3    0  502 -0.55687360311E+02  0.19957598221E+02 -0.10063884204E+03  0.11681197178E+03  0.41800000000E+01 0. -1.
        -11    1    4    4    0    0  0.38839729409E+02  0.37361448303E+02 -0.23107620943E+03  0.23727751045E+03  0.00000000000E+00 0. -1.
         11    1    4    4    0    0 -0.14222175929E+02  0.37928728793E+01  0.12883710924E+01  0.14775522762E+02  0.00000000000E+00 0.  1.
</event>
<event>
 8    1  0.6637272E-009  0.1806366E+03  0.7561462E-02  0.1167188E+00
          1   -1    0    0  501    0  0.00000000000E+00  0.00000000000E+00  0.81218918112E+03  0.81218918112E+03  0.00000000000E+00 0. -1.
         -1   -1    0    0    0  501 -0.00000000000E+00 -0.00000000000E+00 -0.52028817207E+02  0.52028817207E+02  0.00000000000E+00 0.  1.
         25    2    1    2    0    0 -0.89745066392E+02  0.14521035636E+03  0.32432925387E+03  0.38726826862E+03  0.12508805868E+03 0.  0.
         23    2    1    2    0    0  0.89745066392E+02 -0.14521035636E+03  0.43583111004E+03  0.47694972971E+03  0.91608207345E+02 0.  0.
          5    1    3    3  502    0 -0.81462176943E+02  0.15612734937E+03  0.21939287085E+03  0.28135838298E+03  0.41800000000E+01 0.  1.
         -5    1    3    3    0  502 -0.82828894496E+01 -0.10916993008E+02  0.10493638302E+03  0.10590988564E+03  0.41800000000E+01 0.  1.
        -11    1    4    4    0    0  0.42590772840E+02 -0.74181878647E+02  0.33075483751E+03  0.34163677728E+03  0.00000000000E+00 0. -1.
         11    1    4    4    0    0  0.47154293552E+02 -0.71028477716E+02  0.10507627253E+03  0.13531295243E+03  0.00000000000E+00 0.  1.
</event>
<event>
 8    1  0.6637272E-009  0.2924921E+03  0.7561462E-02  0.1089055E+00
         -1   -1    0    0    0  501 -0.00000000000E+00  0.00000000000E+00  0.15299230489E+03  0.15299230489E+03  0.00000000000E+00 0.  1.
          1   -1    0    0  501    0  0.00000000000E+00 -0.00000000000E+00 -0.67216786014E+03  0.67216786014E+03  0.00000000000E+00 0. -1.
         25    2    1    2    0    0  0.22362469924E+03 -0.15470555919E+03 -0.43143326003E+03  0.52509322223E+03  0.12508564271E+03 0.  0.
         23    2    1    2    0    0 -0.22362469924E+03  0.15470555919E+03 -0.87742295218E+02  0.30006694280E+03  0.91649569751E+02 0.  0.
          5    1    3    3  502    0 -0.10102027858E+02 -0.32461301180E+02 -0.66437186275E+02  0.74747302033E+02  0.41800000000E+01 0. -1.
         -5    1    3    3    0  502  0.23372672710E+03 -0.12224425801E+03 -0.36499607375E+03  0.45034592019E+03  0.41800000000E+01 0. -1.
        -11    1    4    4    0    0 -0.77155342982E+02  0.10891251138E+03 -0.42520553548E+02  0.14008168888E+03  0.00000000000E+00 0. -1.
         11    1    4    4    0    0 -0.14646935626E+03  0.45793047808E+02 -0.45221741670E+02  0.15998525392E+03  0.00000000000E+00 0.  1.
</event>
<event>
 8    1  0.6637272E-009  0.1123447E+03  0.7561462E-02  0.1256288E+00
          2   -1    0    0  501    0  0.00000000000E+00  0.00000000000E+00  0.80988623092E+03  0.80988623092E+03  0.00000000000E+00 0. -1.
         -2   -1    0    0    0  501 -0.00000000000E+00 -0.00000000000E+00 -0.22648511401E+02  0.22648511401E+02  0.00000000000E+00 0.  1.
         25    2    1    2    0    0 -0.33456997123E+02  0.46516273834E+02  0.61100684438E+03  0.62630686112E+03  0.12509111087E+03 0.  0.
         23    2    1    2    0    0  0.33456997123E+02 -0.46516273834E+02  0.17623087514E+03  0.20622788120E+03  0.90495763682E+02 0.  0.
          5    1    3    3  502    0 -0.39222705295E+02 -0.31670417693E+02  0.14125901520E+03  0.15004338620E+03  0.41800000000E+01 0.  1.
         -5    1    3    3    0  502  0.57657081727E+01  0.78186691527E+02  0.46974782918E+03  0.47626347492E+03  0.41800000000E+01 0.  1.
        -11    1    4    4    0    0 -0.21348964325E+02 -0.32734938070E+02  0.29423794359E+02  0.48919465683E+02  0.00000000000E+00 0.  1.
         11    1    4    4    0    0  0.54805961448E+02 -0.13781335764E+02  0.14680708078E+03  0.15730841552E+03  0.00000000000E+00 0. -1.
</event>
<event>
 8    1  0.6637272E-009  0.1359806E+03  0.7561462E-02  0.1218842E+00
          1   -1    0    0  501    0  0.00000000000E+00  0.00000000000E+00  0.12116116344E+03  0.12116116344E+03  0.00000000000E+00 0. -1.
         -1   -1    0    0    0  501 -0.00000000000E+00 -0.00000000000E+00 -0.19315274999E+03  0.19315274999E+03  0.00000000000E+00 0.  1.
         25    2    1    2    0    0  0.17784734068E+02  0.85797650509E+02  0.25235097079E+02  0.15479772991E+03  0.12509194004E+03 0.  0.
         23    2    1    2    0    0 -0.17784734068E+02 -0.85797650509E+02 -0.97226683622E+02  0.15951618352E+03  0.91185805893E+02 0.  0.
          5    1    3    3  502    0  0.39776356282E+02 -0.18926683207E+02  0.16966282123E+02  0.47388869848E+02  0.41800000000E+01 0. -1.
         -5    1    3    3    0  502 -0.21991622214E+02  0.10472433372E+03  0.82688149561E+01  0.10740886007E+03  0.41800000000E+01 0. -1.
        -11    1    4    4    0    0  0.30949590756E+02 -0.54590881913E+02 -0.74339094522E+02  0.97284852523E+02  0.00000000000E+00 0.  1.
         11    1    4    4    0    0 -0.48734324824E+02 -0.31206768596E+02 -0.22887589100E+02  0.62231330993E+02  0.00000000000E+00 0. -1.
</event>
<event>
 8    1  0.6637272E-009  0.1206045E+03  0.7561462E-02  0.1242103E+00
         -2   -1    0    0    0  501 -0.00000000000E+00  0.00000000000E+00  0.60136576522E+02  0.60136576522E+02  0.00000000000E+00 0.  1.
          2   -1    0    0  501    0  0.00000000000E+00 -0.00000000000E+00 -0.33864257036E+03  0.33864257036E+03  0.00000000000E+00 0. -1.
         25    2    1    2    0    0  0.66999340412E+01 -0.87004509696E+02 -0.14704529021E+03  0.21185948388E+03  0.12508976661E+03 0.  0.
         23    2    1    2    0    0 -0.66999340412E+01  0.87004509696E+02 -0.13146070363E+03  0.18691966300E+03  0.10021162605E+03 0.  0.
          5    1    3    3  502    0 -0.25179534664E+02 -0.12310451516E+02  0.13879964324E+02  0.31554429040E+02  0.41800000000E+01 0. -1.
         -5    1    3    3    0  502  0.31879468706E+02 -0.74694058181E+02 -0.16092525453E+03  0.18030505484E+03  0.41800000000E+01 0. -1.
        -11    1    4    4    0    0 -0.51820570943E+02  0.58637255069E+02 -0.90901266631E+02  0.11994473532E+03  0.00000000000E+00 0. -1.
         11    1    4    4    0    0  0.45120636901E+02  0.28367254627E+02 -0.40559436994E+02  0.66974927687E+02  0.00000000000E+00 0.  1.
</event>
<event>
 8    1  0.6637272E-009  0.4355118E+03  0.7561462E-02  0.1032133E+00
         -1   -1    0    0    0  501 -0.00000000000E+00  0.00000000000E+00  0.40548443412E+03  0.40548443412E+03  0.00000000000E+00 0.  1.
          1   -1    0    0  501    0  0.00000000000E+00 -0.00000000000E+00 -0.48987264425E+03  0.48987264425E+03  0.00000000000E+00 0. -1.
         25    2    1    2    0    0  0.34448998165E+03 -0.25338359246E+03  0.18078001346E+02  0.44592710169E+03  0.12509026146E+03 0.  0.
         23    2    1    2    0    0 -0.34448998165E+03  0.25338359246E+03 -0.10246621148E+03  0.44942997668E+03  0.92797559587E+02 0.  0.
          5    1    3    3  502    0  0.14566716388E+03 -0.15251229812E+03  0.59396973709E+02  0.21914469329E+03  0.41800000000E+01 0. -1.
         -5    1    3    3    0  502  0.19882281777E+03 -0.10087129434E+03 -0.41318972363E+02  0.22678240841E+03  0.41800000000E+01 0. -1.
        -11    1    4    4    0    0 -0.95325820471E+02  0.12380300017E+03 -0.26388364790E+02  0.15846305783E+03  0.00000000000E+00 0.  1.
         11    1    4    4    0    0 -0.24916416118E+03  0.12958059229E+03 -0.76077846687E+02  0.29096691886E+03  0.00000000000E+00 0. -1.
</event>
<event>
 8    1  0.6637272E-009  0.8887709E+02  0.7561462E-02  0.1305594E+00
          1   -1    0    0  501    0  0.00000000000E+00  0.00000000000E+00  0.32037507326E+02  0.32037507326E+02  0.00000000000E+00 0. -1.
         -1   -1    0    0    0  501 -0.00000000000E+00 -0.00000000000E+00 -0.36504556615E+03  0.36504556615E+03  0.00000000000E+00 0.  1.
         25    2    1    2    0    0 -0.15202972008E+01  0.85288298076E+01 -0.18967950372E+03  0.22738003559E+03  0.12509322208E+03 0.  0.
         23    2    1    2    0    0  0.15202972008E+01 -0.85288298076E+01 -0.14332855511E+03  0.16970303789E+03  0.90448848079E+02 0.  0.
          5    1    3    3  502    0  0.14577221273E+02 -0.48993022160E+02 -0.14155690869E+03  0.15056109191E+03  0.41800000000E+01 0. -1.
         -5    1    3    3    0  502 -0.16097518474E+02  0.57521851968E+02 -0.48122595034E+02  0.76818943677E+02  0.41800000000E+01 0. -1.
        -11    1    4    4    0    0 -0.11372643374E+02 -0.35186180944E+02 -0.18381544366E+02  0.41295102858E+02  0.00000000000E+00 0. -1.
         11    1    4    4    0    0  0.12892940575E+02  0.26657351137E+02 -0.12494701074E+03  0.12840793503E+03  0.00000000000E+00 0.  1.
</event>
<event>
 8    1  0.6637272E-009  0.1134208E+03  0.7561462E-02  0.1254363E+00
         -3   -1    0    0    0  501 -0.00000000000E+00  0.00000000000E+00  0.32564913060E+03  0.32564913060E+03  0.00000000000E+00 0.  1.
          3   -1    0    0  501    0  0.00000000000E+00 -0.00000000000E+00 -0.57453030388E+02  0.57453030388E+02  0.00000000000E+00 0. -1.
         25    2    1    2    0    0 -0.72679752945E+02  0.36766824118E+02  0.12625006748E+03  0.19550267799E+03  0.12509225283E+03 0.  0.
         23    2    1    2    0    0  0.72679752945E+02 -0.36766824118E+02  0.14194603273E+03  0.18759948300E+03  0.91710108330E+02 0.  0.
          5    1    3    3  502    0 -0.10081327950E+02 -0.20347563672E+02 -0.17233933786E+02  0.28812104997E+02  0.41800000000E+01 0. -1.
         -5    1    3    3    0  502 -0.62598424996E+02  0.57114387790E+02  0.14348400126E+03  0.16669057299E+03  0.41800000000E+01 0. -1.
        -11    1    4    4    0    0  0.98658691018E+01 -0.53099210237E+02  0.41944715687E+02  0.68382897533E+02  0.00000000000E+00 0. -1.
         11    1    4    4    0    0  0.62813883843E+02  0.16332386119E+02  0.10000131705E+03  0.11921658547E+03  0.00000000000E+00 0.  1.
</event>
<event>
 8    1  0.6637272E-009  0.1384157E+03  0.7561462E-02  0.1215477E+00
          1   -1    0    0  501    0  0.00000000000E+00  0.00000000000E+00  0.11494492784E+03  0.11494492784E+03  0.00000000000E+00 0.  1.
         -1   -1    0    0    0  501 -0.00000000000E+00 -0.00000000000E+00 -0.19267502492E+03  0.19267502492E+03  0.00000000000E+00 0. -1.
         25    2    1    2    0    0 -0.91723575035E+02  0.37116708750E+01  0.30472065206E+01  0.15519019295E+03  0.12509084620E+03 0.  0.
         23    2    1    2    0    0  0.91723575035E+02 -0.37116708750E+01 -0.80777303594E+02  0.15242975981E+03  0.91010264159E+02 0.  0.
          5    1    3    3  502    0 -0.37742177726E+02  0.59942261868E+02  0.23050775579E+02  0.74608024985E+02  0.41800000000E+01 0.  1.
         -5    1    3    3    0  502 -0.53981397310E+02 -0.56230590993E+02 -0.20003569059E+02  0.80582167966E+02  0.41800000000E+01 0.  1.
        -11    1    4    4    0    0  0.28037800506E+02 -0.44203279028E+02 -0.22034074725E+02  0.56793913257E+02  0.00000000000E+00 0.  1.
         11    1    4    4    0    0  0.63685774529E+02  0.40491608153E+02 -0.58743228868E+02  0.95635846554E+02  0.00000000000E+00 0. -1.
</event>
<event>
 8    1  0.6637272E-009  0.1024806E+03  0.7561462E-02  0.1275164E+00
         -1   -1    0    0    0  501 -0.00000000000E+00  0.00000000000E+00  0.98704053152E+02  0.98704053152E+02  0.00000000000E+00 0.  1.
          1   -1    0    0  501    0  0.00000000000E+00 -0.00000000000E+00 -0.15714768501E+03  0.15714768501E+03  0.00000000000E+00 0. -1.
         25    2    1    2    0    0  0.33970169138E+01  0.55525307927E+02 -0.58014915226E+02  0.14868931396E+03  0.12509269424E+03 0.  0.
         23    2    1    2    0    0 -0.33970169138E+01 -0.55525307927E+02 -0.42871663317E+00  0.10716242420E+03  0.91591494250E+02 0.  0.
          5    1    3    3  502    0 -0.53261917860E+02  0.58088715342E+02 -0.42974833026E+02  0.89863448731E+02  0.41800000000E+01 0.  1.
         -5    1    3    3    0  502  0.56658934774E+02 -0.25634074147E+01 -0.15040082200E+02  0.58825865229E+02  0.41800000000E+01 0.  1.
        -11    1    4    4    0    0  0.18817729090E+02 -0.21979541405E+02 -0.40896404076E+02  0.50097135994E+02  0.00000000000E+00 0. -1.
         11    1    4    4    0    0 -0.22214746004E+02 -0.33545766522E+02  0.40467687442E+02  0.57065288210E+02  0.00000000000E+00 0.  1.
</event>
<event>
 8    1  0.6637272E-009  0.1304046E+03  0.7561462E-02  0.1226857E+00
         -2   -1    0    0    0  501 -0.00000000000E+00  0.00000000000E+00  0.78897274056E+02  0.78897274056E+02  0.00000000000E+00 0.  1.
          2   -1    0    0  501    0  0.00000000000E+00 -0.00000000000E+00 -0.28636553799E+03  0.28636553799E+03  0.00000000000E+00 0. -1.
         25    2    1    2    0    0  0.85511988283E+02  0.56319965560E+02 -0.12505965638E+03  0.20438066721E+03  0.12508917145E+03 0.  0.
         23    2    1    2    0    0 -0.85511988283E+02 -0.56319965560E+02 -0.82408607553E+02  0.16088214484E+03  0.92777407104E+02 0.  0.
          5    1    3    3  502    0  0.79140881631E+01  0.75805127811E+02 -0.35397675293E+02  0.84139871702E+02  0.41800000000E+01 0. -1.
         -5    1    3    3    0  502  0.77597900120E+02 -0.19485162250E+02 -0.89661981090E+02  0.12024079551E+03  0.41800000000E+01 0. -1.
        -11    1    4    4    0    0 -0.65456397573E+02 -0.52581774789E+02 -0.10233114643E+03  0.13236709014E+03  0.00000000000E+00 0. -1.
         11    1    4    4    0    0 -0.20055590710E+02 -0.37381907707E+01  0.19922538879E+02  0.28515054697E+02  0.00000000000E+00 0.  1.
</event>
<event>
 8    1  0.6637272E-009  0.1096197E+03  0.7561462E-02  0.1261276E+00
          2   -1    0    0  501    0  0.00000000000E+00  0.00000000000E+00  0.21154038227E+03  0.21154038227E+03  0.00000000000E+00 0. -1.
         -2   -1    0    0    0  501 -0.00000000000E+00 -0.00000000000E+00 -0.10464417006E+03  0.10464417006E+03  0.00000000000E+00 0.  1.
         25    2    1    2    0    0 -0.82755110472E+02  0.49603104103E+02  0.88911127817E+02  0.18127750080E+03  0.12508983732E+03 0.  0.
         23    2    1    2    0    0  0.82755110472E+02 -0.49603104103E+02  0.17985084387E+02  0.13490705153E+03  0.92561185420E+02 0.  0.
          5    1    3    3  502    0 -0.91251886886E+02  0.28017805257E+02  0.11272484481E+03  0.14777099617E+03  0.41800000000E+01 0.  1.
         -5    1    3    3    0  502  0.84967764135E+01  0.21585298846E+02 -0.23813716993E+02  0.33506504633E+02  0.41800000000E+01 0.  1.
        -11    1    4    4    0    0  0.58391019364E+02 -0.19868101608E+02 -0.33862566511E+02  0.70362816989E+02  0.00000000000E+00 0.  1.
         11    1    4    4    0    0  0.24364091108E+02 -0.29735002495E+02  0.51847650898E+02  0.64544234542E+02  0.00000000000E+00 0. -1.
</event>
<event>
 8    1  0.6637272E-009  0.1106085E+03  0.7561462E-02  0.1259447E+00
         -1   -1    0    0    0  501 -0.00000000000E+00  0.00000000000E+00  0.48040258732E+03  0.48040258732E+03  0.00000000000E+00 0.  1.
          1   -1    0    0  501    0  0.00000000000E+00 -0.00000000000E+00 -0.30065566558E+02  0.30065566558E+02  0.00000000000E+00 0. -1.
         25    2    1    2    0    0 -0.79044755385E+01 -0.34972234620E+02  0.33463522467E+03  0.35904521495E+03  0.12508874791E+03 0.  0.
         23    2    1    2    0    0  0.79044755385E+01  0.34972234620E+02  0.11570179609E+03  0.15142293893E+03  0.90865080694E+02 0.  0.
          5    1    3    3  502    0  0.54725040185E+02 -0.35555920336E+02  0.13961228478E+03  0.15416911479E+03  0.41800000000E+01 0.  1.
         -5    1    3    3    0  502 -0.62629515724E+02  0.58368571572E+00  0.19502293990E+03  0.20487610015E+03  0.41800000000E+01 0.  1.
        -11    1    4    4    0    0  0.43576964646E+02  0.37217852597E+02  0.92487499464E+02  0.10880283984E+03  0.00000000000E+00 0.  1.
         11    1    4    4    0    0 -0.35672489107E+02 -0.22456179774E+01  0.23214296625E+02  0.42620099096E+02  0.00000000000E+00 0. -1.
</event>
<event>
 8    1  0.6637272E-009  0.2067074E+03  0.7561462E-02  0.1144200E+00
          2   -1    0    0  501    0  0.00000000000E+00  0.00000000000E+00  0.13390191679E+04  0.13390191679E+04  0.00000000000E+00 0. -1.
         -2   -1    0    0    0  501 -0.00000000000E+00 -0.00000000000E+00 -0.33718227356E+02  0.33718227356E+02  0.00000000000E+00 0.  1.
         25    2    1    2    0    0 -0.14152367993E+03  0.10633752174E+03  0.82091543345E+03  0.84905004830E+03  0.12508882891E+03 0.  0.
         23    2    1    2    0    0  0.14152367993E+03 -0.10633752174E+03  0.48438550707E+03  0.52368734694E+03  0.91008226961E+02 0.  0.
          5    1    3    3  502    0 -0.81157294830E+02 -0.13305855276E+02  0.33558620256E+03  0.34554178335E+03  0.41800000000E+01 0.  1.
         -5    1    3    3    0  502 -0.60366385104E+02  0.11964337701E+03  0.48532923089E+03  0.50350826495E+03  0.41800000000E+01 0.  1.
        -11    1    4    4    0    0 -0.10074967973E+02 -0.20345592650E+02  0.83958302164E+02  0.86973815728E+02  0.00000000000E+00 0. -1.
         11    1    4    4    0    0  0.15159864791E+03 -0.85991929087E+02  0.40042720491E+03  0.43671353121E+03  0.00000000000E+00 0.  1.
</event>
<event>
 8    1  0.6637272E-009  0.1032745E+03  0.7561462E-02  0.1273557E+00
         -1   -1    0    0    0  501 -0.00000000000E+00  0.00000000000E+00  0.15320062541E+03  0.15320062541E+03  0.00000000000E+00 0.  1.
          1   -1    0    0  501    0  0.00000000000E+00 -0.00000000000E+00 -0.91687006476E+02  0.91687006476E+02  0.00000000000E+00 0. -1.
         25    2    1    2    0    0  0.43013831244E+02  0.16303714864E+02  0.55003886901E+02  0.14418480584E+03  0.12509128612E+03 0.  0.
         23    2    1    2    0    0 -0.43013831244E+02 -0.16303714864E+02  0.65097320362E+01  0.10070282605E+03  0.89345854787E+02 0.  0.
          5    1    3    3  502    0  0.24937261778E+02  0.56437228475E+02  0.73674660661E+02  0.96189686591E+02  0.41800000000E+01 0. -1.
         -5    1    3    3    0  502  0.18076569466E+02 -0.40133513611E+02 -0.18670773761E+02  0.47995119244E+02  0.41800000000E+01 0. -1.
        -11    1    4    4    0    0  0.19263434890E+02  0.20517661211E+02  0.16840396692E+01  0.28193799583E+02  0.00000000000E+00 0. -1.
         11    1    4    4    0    0 -0.62277266134E+02 -0.36821376074E+02  0.48256923670E+01  0.72509026472E+02  0.00000000000E+00 0.  1.
</event>
<event>
 8    1  0.6637272E-009  0.1086029E+03  0.7561462E-02  0.1263179E+00
         -2   -1    0    0    0  501 -0.00000000000E+00  0.00000000000E+00  0.21897108312E+02  0.21897108312E+02  0.00000000000E+00 0. -1.
          2   -1    0    0  501    0  0.00000000000E+00 -0.00000000000E+00 -0.59849281532E+03  0.59849281532E+03  0.00000000000E+00 0.  1.
         25    2    1    2    0    0  0.16182262743E+02 -0.31302064421E+02 -0.33106713504E+03  0.35566137987E+03  0.12509150396E+03 0.  0.
         23    2    1    2    0    0 -0.16182262743E+02  0.31302064421E+02 -0.24552857197E+03  0.26472854376E+03  0.92494526134E+02 0.  0.
          5    1    3    3  502    0 -0.18108323041E+02 -0.68256675848E+02 -0.25245971053E+03  0.26218364365E+03  0.41800000000E+01 0. -1.
         -5    1    3    3    0  502  0.34290585784E+02  0.36954611427E+02 -0.78607424512E+02  0.93477736213E+02  0.41800000000E+01 0. -1.
        -11    1    4    4    0    0 -0.50039990976E+02  0.36071854503E+02 -0.18737689524E+03  0.19726956241E+03  0.00000000000E+00 0. -1.
         11    1    4    4    0    0  0.33857728233E+02 -0.47697900818E+01 -0.58151676729E+02  0.67458981351E+02  0.00000000000E+00 0.  1.
</event>
<event>
 8    1  0.6637272E-009  0.1217990E+03  0.7561462E-02  0.1240158E+00
          1   -1    0    0  501    0  0.00000000000E+00  0.00000000000E+00  0.19811837311E+02  0.19811837311E+02  0.00000000000E+00 0. -1.
         -1   -1    0    0    0  501 -0.00000000000E+00 -0.00000000000E+00 -0.83327568707E+03  0.83327568707E+03  0.00000000000E+00 0.  1.
         25    2    1    2    0    0  0.46191766657E+02 -0.42948047741E+02 -0.51510647447E+03  0.53381640205E+03  0.12508819666E+03 0.  0.
         23    2    1    2    0    0 -0.46191766657E+02  0.42948047741E+02 -0.29835737529E+03  0.31927112234E+03  0.94544762172E+02 0.  0.
          5    1    3    3  502    0  0.83402638795E+02 -0.53696725508E+02 -0.40602974055E+03  0.41799158018E+03  0.41800000000E+01 0.  1.
         -5    1    3    3    0  502 -0.37210872138E+02  0.10748677766E+02 -0.10907673392E+03  0.11582482187E+03  0.41800000000E+01 0.  1.
        -11    1    4    4    0    0 -0.69322663457E+01 -0.25514245456E+02 -0.13841673369E+03  0.14091921516E+03  0.00000000000E+00 0.  1.
         11    1    4    4    0    0 -0.39259500312E+02  0.68462293197E+02 -0.15994064161E+03  0.17835190717E+03  0.00000000000E+00 0. -1.
</event>
<event>
 8    1  0.6637272E-009  0.3910698E+03  0.7561462E-02  0.1046917E+00
          1   -1    0    0  501    0  0.00000000000E+00  0.00000000000E+00  0.66191756418E+03  0.66191756418E+03  0.00000000000E+00 0. -1.
         -1   -1    0    0    0  501 -0.00000000000E+00 -0.00000000000E+00 -0.48495441169E+03  0.48495441169E+03  0.00000000000E+00 0.  1.
         25    2    1    2    0    0 -0.10416862875E+03 -0.37002565647E+03  0.49555027019E+03  0.63952134377E+03  0.12508952468E+03 0.  0.
         23    2    1    2    0    0  0.10416862875E+03  0.37002565647E+03 -0.31858711770E+03  0.50735063209E+03  0.90204338345E+02 0.  0.
          5    1    3    3  502    0 -0.21369255047E+02 -0.27304299359E+02  0.48308190195E+01  0.35255907833E+02  0.41800000000E+01 0.  1.
         -5    1    3    3    0  502 -0.82799373703E+02 -0.34272135712E+03  0.49071945117E+03  0.60426543593E+03  0.41800000000E+01 0.  1.
        -11    1    4    4    0    0 -0.16190085511E+02  0.56570842246E+02 -0.41331432903E+02  0.71907345989E+02  0.00000000000E+00 0. -1.
         11    1    4    4    0    0  0.12035871426E+03  0.31345481423E+03 -0.27725568480E+03  0.43544328610E+03  0.00000000000E+00 0.  1.
</event>
<event>
 7    1  0.6637272E-009  0.1217654E+03  0.7561462E-02  0.1240213E+00
          2   -1    0    0  501    0  0.00000000000E+00  0.00000000000E+00  0.18280037856E+03  0.18280037856E+03  0.00000000000E+00 0. -1.
         -2   -1    0    0    0  501 -0.00000000000E+00 -0.00000000000E+00 -0.92715436740E+02  0.92715436740E+02  0.00000000000E+00 0.  1.
         23    2    1    2    0    0 -0.73032060709E+02 -0.53500520667E+01  0.35129577577E+02  0.12064096717E+03  0.89206786683E+02 0.  0.
          5    1    1    2  502    0  0.71259974617E+02 -0.49643469947E+02  0.18957616788E+02  0.88990570989E+02  0.41800000000E+01 0. -1.
         -5    1    1    2    0  502  0.17720860917E+01  0.54993522014E+02  0.35997747453E+02  0.65884277140E+02  0.41800000000E+01 0. -1.
        -11    1    3    3    0    0 -0.36561895238E+02 -0.37797514103E+02  0.46859854176E+02  0.70436284607E+02  0.00000000000E+00 0. -1.
         11    1    3    3    0    0 -0.36470165471E+02  0.32447462037E+02 -0.11730276599E+02  0.50204682562E+02  0.00000000000E+00 0.  1.
</event>
<event>
 8    1  0.6637272E-009  0.1484227E+03  0.7561462E-02  0.1202425E+00
          1   -1    0    0  501    0  0.00000000000E+00  0.00000000000E+00  0.34077750905E+02  0.34077750905E+02  0.00000000000E+00 0. -1.
         -1   -1    0    0    0  501 -0.00000000000E+00 -0.00000000000E+00 -0.94327613667E+03  0.94327613667E+03  0.00000000000E+00 0.  1.
         25    2    1    2    0    0 -0.30662850435E+02  0.13311098604E+03 -0.36396298229E+03  0.40838171311E+03  0.12509127117E+03 0.  0.
         23    2    1    2    0    0  0.30662850435E+02 -0.13311098604E+03 -0.54523540348E+03  0.56897217447E+03  0.88255000485E+02 0.  0.
          5    1    3    3  502    0 -0.54596138339E+02  0.10343933481E+03 -0.34744207150E+03  0.36662501246E+03  0.41800000000E+01 0. -1.
         -5    1    3    3    0  502  0.23933287904E+02  0.29671651229E+02 -0.16520910791E+02  0.41756700659E+02  0.41800000000E+01 0. -1.
        -11    1    4    4    0    0  0.19046300144E+02 -0.12682983872E+03 -0.53956896422E+03  0.55460187224E+03  0.00000000000E+00 0.  1.
         11    1    4    4    0    0  0.11616550291E+02 -0.62811473190E+01 -0.56664392567E+01  0.14370302229E+02  0.00000000000E+00 0. -1.
</event>
<event>
 8    1  0.6637272E-009  0.1131851E+03  0.7561462E-02  0.1254783E+00
         -1   -1    0    0    0  501 -0.00000000000E+00  0.00000000000E+00  0.33220551169E+03  0.33220551169E+03  0.00000000000E+00 0.  1.
          1   -1    0    0  501    0  0.00000000000E+00 -0.00000000000E+00 -0.63645382216E+02  0.63645382216E+02  0.00000000000E+00 0. -1.
         25    2    1    2    0    0  0.78203933686E+02 -0.46738193193E+02  0.18535301635E+03  0.24146243550E+03  0.12509217857E+03 0.  0.
         23    2    1    2    0    0 -0.78203933686E+02  0.46738193193E+02  0.83207113120E+02  0.15438845840E+03  0.92801177082E+02 0.  0.
          5    1    3    3  502    0  0.66643198587E+02 -0.52459751041E+02  0.20251064418E+03  0.21959365838E+03  0.41800000000E+01 0. -1.
         -5    1    3    3    0  502  0.11560735098E+02  0.57215578478E+01 -0.17157627822E+02  0.21868777119E+02  0.41800000000E+01 0. -1.
        -11    1    4    4    0    0 -0.51335989335E+02 -0.20660565645E+02  0.50052331430E+02  0.74615538968E+02  0.00000000000E+00 0. -1.
         11    1    4    4    0    0 -0.26867944350E+02  0.67398758838E+02  0.33154781690E+02  0.79772919437E+02  0.00000000000E+00 0.  1.
</event>
<event>
 8    1  0.6637272E-009  0.7237390E+02  0.7561462E-02  0.1352202E+00
          2   -1    0    0  501    0  0.00000000000E+00  0.00000000000E+00  0.47044685261E+03  0.47044685261E+03  0.00000000000E+00 0. -1.
         -2   -1    0    0    0  501 -0.00000000000E+00 -0.00000000000E+00 -0.33231790977E+02  0.33231790977E+02  0.00000000000E+00 0.  1.
         25    2    1    2    0    0 -0.25070685533E+02  0.92235653666E+01  0.13042669450E+03  0.18269761848E+03  0.12511468232E+03 0.  0.
         23    2    1    2    0    0  0.25070685533E+02 -0.92235653666E+01  0.30678836714E+03  0.32098102510E+03  0.90532330327E+02 0.  0.
          5    1    3    3  502    0 -0.40264443487E+02  0.30171576409E+01 -0.95489182540E+01  0.41701113766E+02  0.41800000000E+01 0.  1.
         -5    1    3    3    0  502  0.15193757954E+02  0.62064077257E+01  0.13997561275E+03  0.14099650472E+03  0.41800000000E+01 0.  1.
        -11    1    4    4    0    0  0.48758697408E+02  0.17225780163E+02  0.23818505603E+03  0.24373399228E+03  0.00000000000E+00 0. -1.
         11    1    4    4    0    0 -0.23688011876E+02 -0.26449345530E+02  0.68603311106E+02  0.77247032825E+02  0.00000000000E+00 0.  1.
</event>
<event>
 8    1  0.6637272E-009  0.1098827E+03  0.7561462E-02  0.1260787E+00
         -3   -1    0    0    0  501 -0.00000000000E+00  0.00000000000E+00  0.57723879509E+03  0.57723879509E+03  0.00000000000E+00 0.  1.
          3   -1    0    0  501    0  0.00000000000E+00 -0.00000000000E+00 -0.38787223864E+02  0.38787223864E+02  0.00000000000E+00 0. -1.
         25    2    1    2    0    0  0.17494563882E+02 -0.83594871884E+02  0.17238487322E+03  0.22947089896E+03  0.12508471762E+03 0.  0.
         23    2    1    2    0    0 -0.17494563882E+02  0.83594871884E+02  0.36606669800E+03  0.38655512000E+03  0.90143613408E+02 0.  0.
          5    1    3    3  502    0  0.35137411054E+02 -0.18822467220E+02 -0.44018133397E+01  0.40320854263E+02  0.41800000000E+01 0.  1.
         -5    1    3    3    0  502 -0.17642847172E+02 -0.64772404664E+02  0.17678668656E+03  0.18915004469E+03  0.41800000000E+01 0.  1.
        -11    1    4    4    0    0 -0.41863465073E+02  0.24510894434E+02  0.24392876507E+03  0.24870580227E+03  0.00000000000E+00 0.  1.
         11    1    4    4    0    0  0.24368901192E+02  0.59083977450E+02  0.12213793293E+03  0.13784931772E+03  0.00000000000E+00 0. -1.
</event>
<event>
 8    1  0.6637272E-009  0.1225409E+03  0.7561462E-02  0.1238963E+00
         -1   -1    0    0    0  501 -0.00000000000E+00  0.00000000000E+00  0.24119687933E+03  0.24119687933E+03  0.00000000000E+00 0.  1.
          1   -1    0    0  501    0  0.00000000000E+00 -0.00000000000E+00 -0.10623278035E+03  0.10623278035E+03  0.00000000000E+00 0. -1.
         25    2    1    2    0    0 -0.74360978207E+02 -0.17701210347E+02  0.16874678162E+03  0.22352844054E+03  0.12508636815E+03 0.  0.
         23    2    1    2    0    0  0.74360978207E+02  0.17701210347E+02 -0.33782682639E+02  0.12390121914E+03  0.91473244886E+02 0.  0.
          5    1    3    3  502    0 -0.69570814571E+02  0.33721455101E+02  0.14930570309E+03  0.16818709864E+03  0.41800000000E+01 0. -1.
         -5    1    3    3    0  502 -0.47901636358E+01 -0.51422665447E+02  0.19441078537E+02  0.55341341907E+02  0.41800000000E+01 0. -1.
        -11    1    4    4    0    0 -0.13586972489E+02  0.24095283580E+02  0.40332174430E+01  0.27954522982E+02  0.00000000000E+00 0.  1.
         11    1    4    4    0    0  0.87947950697E+02 -0.63940732330E+01 -0.37815900082E+02  0.95946696156E+02  0.00000000000E+00 0. -1.
</event>
<event>
 8    1  0.6637272E-009  0.1176148E+03  0.7561462E-02  0.1247085E+00
         -1   -1    0    0    0  501 -0.00000000000E+00  0.00000000000E+00  0.31317059189E+02  0.31317059189E+02  0.00000000000E+00 0.  1.
          1   -1    0    0  501    0  0.00000000000E+00 -0.00000000000E+00 -0.50376574818E+03  0.50376574818E+03  0.00000000000E+00 0. -1.
         25    2    1    2    0    0 -0.41296532754E+02  0.29416225822E+02 -0.18058239406E+03  0.22545172220E+03  0.12509100702E+03 0.  0.
         23    2    1    2    0    0  0.41296532754E+02 -0.29416225822E+02 -0.29186629493E+03  0.30963108517E+03  0.90081945080E+02 0.  0.
          5    1    3    3  502    0 -0.46580483562E+02 -0.41557388442E+02 -0.98957600091E+02  0.11707620168E+03  0.41800000000E+01 0.  1.
         -5    1    3    3    0  502  0.52839508084E+01  0.70973614264E+02 -0.81624793969E+02  0.10837552052E+03  0.41800000000E+01 0.  1.
        -11    1    4    4    0    0  0.36872589077E+02  0.26420639015E+02 -0.10106094342E+03  0.11077433040E+03  0.00000000000E+00 0. -1.
         11    1    4    4    0    0  0.44239436766E+01 -0.55836864837E+02 -0.19080535151E+03  0.19885675477E+03  0.00000000000E+00 0.  1.
</event>
<event>
 8    1  0.6637272E-009  0.1679448E+03  0.7561462E-02  0.1180008E+00
         -2   -1    0    0    0  501 -0.00000000000E+00  0.00000000000E+00  0.16716147242E+03  0.16716147242E+03  0.00000000000E+00 0.  1.
          2   -1    0    0  501    0  0.00000000000E+00 -0.00000000000E+00 -0.20481743483E+03  0.20481743483E+03  0.00000000000E+00 0. -1.
         25    2    1    2    0    0  0.12413137261E+03 -0.58325154323E+02 -0.79805727809E+02  0.20205918148E+03  0.12509411392E+03 0.  0.
         23    2    1    2    0    0 -0.12413137261E+03  0.58325154323E+02  0.42149765401E+02  0.16991972576E+03  0.91025761112E+02 0.  0.
          5    1    3    3  502    0  0.13314612638E+03 -0.83945486401E+02 -0.73977863720E+02  0.17396819358E+03  0.41800000000E+01 0. -1.
         -5    1    3    3    0  502 -0.90147537725E+01  0.25620332077E+02 -0.58278640893E+01  0.28090987900E+02  0.41800000000E+01 0. -1.
        -11    1    4    4    0    0 -0.80182433560E+02  0.29209281682E+01  0.56015589102E+02  0.97854487355E+02  0.00000000000E+00 0.  1.
         11    1    4    4    0    0 -0.43948939052E+02  0.55404226155E+02 -0.13865823702E+02  0.72065238406E+02  0.00000000000E+00 0. -1.
</event>
<event>
 8    1  0.6637272E-009  0.1121143E+03  0.7561462E-02  0.1256704E+00
         -1   -1    0    0    0  501 -0.00000000000E+00  0.00000000000E+00  0.23767700774E+02  0.23767700774E+02  0.00000000000E+00 0.  1.
          1   -1    0    0  501    0  0.00000000000E+00 -0.00000000000E+00 -0.61045868512E+03  0.61045868512E+03  0.00000000000E+00 0. -1.
         25    2    1    2    0    0  0.31349844441E+02 -0.46906652607E+02 -0.34081903354E+03  0.36740711963E+03  0.12508929262E+03 0.  0.
         23    2    1    2    0    0 -0.31349844441E+02  0.46906652607E+02 -0.24587195080E+03  0.26681926626E+03  0.86927888794E+02 0.  0.
          5    1    3    3  502    0 -0.41963511729E+01 -0.83910473953E+02 -0.18309440638E+03  0.20149345163E+03  0.41800000000E+01 0. -1.
         -5    1    3    3    0  502  0.35546195614E+02  0.37003821346E+02 -0.15772462716E+03  0.16591366800E+03  0.41800000000E+01 0. -1.
        -11    1    4    4    0    0  0.41702256531E+01 -0.15919363664E+02 -0.81129126803E+01  0.18347650357E+02  0.00000000000E+00 0.  1.
         11    1    4    4    0    0 -0.35520070094E+02  0.62826016272E+02 -0.23775903812E+03  0.24847161590E+03  0.00000000000E+00 0. -1.
</event>
<event>
 8    1  0.6637272E-009  0.1546639E+03  0.7561462E-02  0.1194856E+00
         -1   -1    0    0    0  501 -0.00000000000E+00  0.00000000000E+00  0.20339709851E+03  0.20339709851E+03  0.00000000000E+00 0.  1.
          1   -1    0    0  501    0  0.00000000000E+00 -0.00000000000E+00 -0.15197119604E+03  0.15197119604E+03  0.00000000000E+00 0. -1.
         25    2    1    2    0    0 -0.12809093495E+03 -0.40969435047E+02  0.57575483746E+02  0.19248301886E+03  0.12509593916E+03 0.  0.
         23    2    1    2    0    0  0.12809093495E+03  0.40969435047E+02 -0.61495812757E+01  0.16288527569E+03  0.91695220496E+02 0.  0.
          5    1    3    3  502    0 -0.82068632849E+02 -0.72081828746E+02 -0.40823712969E+01  0.10938550493E+03  0.41800000000E+01 0.  1.
         -5    1    3    3    0  502 -0.46022302101E+02  0.31112393699E+02  0.61657855043E+02  0.83097513927E+02  0.41800000000E+01 0.  1.
        -11    1    4    4    0    0  0.79875525489E+01  0.21115763448E+02  0.28460722476E+02  0.36327526555E+02  0.00000000000E+00 0. -1.
         11    1    4    4    0    0  0.12010338240E+03  0.19853671599E+02 -0.34610303752E+02  0.12655774913E+03  0.00000000000E+00 0.  1.
</event>
<event>
 8    1  0.6637272E-009  0.1292367E+03  0.7561462E-02  0.1228593E+00
          2   -1    0    0  501    0  0.00000000000E+00  0.00000000000E+00  0.19562484621E+04  0.19562484621E+04  0.00000000000E+00 0.  1.
         -2   -1    0    0    0  501 -0.00000000000E+00 -0.00000000000E+00 -0.17657827567E+02  0.17657827567E+02  0.00000000000E+00 0. -1.
         25    2    1    2    0    0  0.82412634527E+02  0.77792383742E+01  0.16999475055E+04  0.17065521426E+04  0.12508531120E+03 0.  0.
         23    2    1    2    0    0 -0.82412634527E+02 -0.77792383742E+01  0.23864312903E+03  0.26735414707E+03  0.87609006614E+02 0.  0.
          5    1    3    3  502    0  0.47006885704E+02  0.59361568618E+02  0.12445159665E+04  0.12468243286E+04  0.41800000000E+01 0. -1.
         -5    1    3    3    0  502  0.35405748823E+02 -0.51582330244E+02  0.45543153898E+03  0.45972781397E+03  0.41800000000E+01 0.  1.
        -11    1    4    4    0    0 -0.39028371423E+02  0.39664154081E+02  0.12405173415E+03  0.13596062533E+03  0.00000000000E+00 0.  1.
         11    1    4    4    0    0 -0.43384263104E+02 -0.47443392455E+02  0.11459139488E+03  0.13139352173E+03  0.00000000000E+00 0. -1.
</event>
<event>
 8    1  0.6637272E-009  0.1170384E+03  0.7561462E-02  0.1248064E+00
          2   -1    0    0  501    0  0.00000000000E+00  0.00000000000E+00  0.67036735661E+03  0.67036735661E+03  0.00000000000E+00 0. -1.
         -2   -1    0    0    0  501 -0.00000000000E+00 -0.00000000000E+00 -0.27816042191E+02  0.27816042191E+02  0.00000000000E+00 0.  1.
         25    2    1    2    0    0  0.78320045140E+02  0.22243426104E+02  0.31927054504E+03  0.35243427726E+03  0.12508972532E+03 0.  0.
         23    2    1    2    0    0 -0.78320045140E+02 -0.22243426104E+02  0.32328076938E+03  0.34574912155E+03  0.91668968148E+02 0.  0.
          5    1    3    3  502    0  0.86085909973E+02 -0.55024223941E+01  0.10390709459E+03  0.13511186940E+03  0.41800000000E+01 0.  1.
         -5    1    3    3    0  502 -0.77658648329E+01  0.27745848498E+02  0.21536345045E+03  0.21732240785E+03  0.41800000000E+01 0.  1.
        -11    1    4    4    0    0 -0.13848073187E+02 -0.47409528957E+02  0.93117524731E+02  0.10540543619E+03  0.00000000000E+00 0.  1.
         11    1    4    4    0    0 -0.64471971954E+02  0.25166102853E+02  0.23016324465E+03  0.24034368535E+03  0.00000000000E+00 0. -1.
</event>
<event>
 8    1  0.6637272E-009  0.7482567E+02  0.7561462E-02  0.1344412E+00
          1   -1    0    0  501    0  0.00000000000E+00  0.00000000000E+00  0.16831607481E+03  0.16831607481E+03  0.00000000000E+00 0. -1.
         -1   -1    0    0    0  501 -0.00000000000E+00 -0.00000000000E+00 -0.90627688048E+02  0.90627688048E+02  0.00000000000E+00 0.  1.
         25    2    1    2    0    0 -0.23462146149E+02  0.32259382902E+02  0.74988174282E+02  0.15120845660E+03  0.12509848512E+03 0.  0.
         23    2    1    2    0    0  0.23462146149E+02 -0.32259382902E+02  0.27002124760E+01  0.10773530625E+03  0.10004231594E+03 0.  0.
          5    1    3    3  502    0  0.21490729404E+02  0.32530247565E+02  0.94282087686E+02  0.10211098332E+03  0.41800000000E+01 0. -1.
         -5    1    3    3    0  502 -0.44952875553E+02 -0.27086466296E+00 -0.19293913404E+02  0.49097473281E+02  0.41800000000E+01 0. -1.
        -11    1    4    4    0    0  0.70707348827E+01 -0.44358849941E+02 -0.40176196791E+02  0.60264663348E+02  0.00000000000E+00 0.  1.
         11    1    4    4    0    0  0.16391411267E+02  0.12099467040E+02  0.42876409266E+02  0.47470642902E+02  0.00000000000E+00 0. -1.
</event>
<event>
 8    1  0.6637272E-009  0.7588830E+02  0.7561462E-02  0.1341142E+00
         -2   -1    0    0    0  501 -0.00000000000E+00  0.00000000000E+00  0.24793718713E+02  0.24793718713E+02  0.00000000000E+00 0.  1.
          2   -1    0    0  501    0  0.00000000000E+00 -0.00000000000E+00 -0.61035551648E+03  0.61035551648E+03  0.00000000000E+00 0. -1.
         25    2    1    2    0    0  0.21504202890E+00  0.48796965874E+02 -0.39641377384E+03  0.41853131955E+03  0.12507355929E+03 0.  0.
         23    2    1    2    0    0 -0.21504202890E+00 -0.48796965874E+02 -0.18914802393E+03  0.21661791564E+03  0.93622413446E+02 0.  0.
          5    1    3    3  502    0 -0.40655530950E+02  0.21829940185E+02 -0.34234398504E+03  0.34546533108E+03  0.41800000000E+01 0.  1.
         -5    1    3    3    0  502  0.40870572979E+02  0.26967025690E+02 -0.54069788795E+02  0.73065988466E+02  0.41800000000E+01 0.  1.
        -11    1    4    4    0    0  0.13794011809E+02 -0.20284714866E+02  0.29249761883E+00  0.24532223174E+02  0.00000000000E+00 0.  1.
         11    1    4    4    0    0 -0.14009053838E+02 -0.28512251008E+02 -0.18944052155E+03  0.19208569247E+03  0.00000000000E+00 0. -1.
</event>
<event>
 8    1  0.6637272E-009  0.1410387E+03  0.7561462E-02  0.1211938E+00
          1   -1    0    0  501    0  0.00000000000E+00  0.00000000000E+00  0.21924019592E+02  0.21924019592E+02  0.00000000000E+00 0. -1.
         -1   -1    0    0    0  501 -0.00000000000E+00 -0.00000000000E+00 -0.94499105281E+03  0.94499105281E+03  0.00000000000E+00 0.  1.
         25    2    1    2    0    0  0.19921441841E+02 -0.91314320815E+02 -0.54181247332E+03  0.56386204562E+03  0.12507790060E+03 0.  0.
         23    2    1    2    0    0 -0.19921441841E+02  0.91314320815E+02 -0.38125455990E+03  0.40305302678E+03  0.91441423447E+02 0.  0.
          5    1    3    3  502    0 -0.38912301229E+01 -0.11844687425E+03 -0.38266337913E+03  0.40061644726E+03  0.41800000000E+01 0. -1.
         -5    1    3    3    0  502  0.23812671964E+02  0.27132553434E+02 -0.15914909419E+03  0.16324559836E+03  0.41800000000E+01 0. -1.
        -11    1    4    4    0    0 -0.54171957753E+02  0.58217796771E+02 -0.28140742770E+03  0.29242785987E+03  0.00000000000E+00 0.  1.
         11    1    4    4    0    0  0.34250515912E+02  0.33096524043E+02 -0.99847132207E+02  0.11062516691E+03  0.00000000000E+00 0. -1.
</event>
<event>
 8    1  0.6637272E-009  0.2033800E+03  0.7561462E-02  0.1146918E+00
          2   -1    0    0  501    0  0.00000000000E+00  0.00000000000E+00  0.39435554329E+02  0.39435554329E+02  0.00000000000E+00 0.  1.
         -2   -1    0    0    0  501 -0.00000000000E+00 -0.00000000000E+00 -0.10861349902E+04  0.10861349902E+04  0.00000000000E+00 0. -1.
         25    2    1    2    0    0 -0.17310237224E+03  0.27834983406E+02 -0.59059332445E+03  0.62863876729E+03  0.12508799814E+03 0.  0.
         23    2    1    2    0    0  0.17310237224E+03 -0.27834983406E+02 -0.45610611145E+03  0.49693177727E+03  0.90383564787E+02 0.  0.
          5    1    3    3  502    0 -0.18578680350E+03  0.72491084752E+01 -0.55559769540E+03  0.58589722431E+03  0.41800000000E+01 0. -1.
         -5    1    3    3    0  502  0.12684431262E+02  0.20585874930E+02 -0.34995629054E+02  0.42741542976E+02  0.41800000000E+01 0. -1.
        -11    1    4    4    0    0  0.51659578103E+02  0.32098367490E+02 -0.16543634661E+03  0.17626174283E+03  0.00000000000E+00 0.  1.
         11    1    4    4    0    0  0.12144279413E+03 -0.59933350896E+02 -0.29066976484E+03  0.32067003445E+03  0.00000000000E+00 0. -1.
</event>
<event>
 8    1  0.6637272E-009  0.1433264E+03  0.7561462E-02  0.1208922E+00
          2   -1    0    0  501    0  0.00000000000E+00  0.00000000000E+00  0.34306842541E+03  0.34306842541E+03  0.00000000000E+00 0. -1.
         -2   -1    0    0    0  501 -0.00000000000E+00 -0.00000000000E+00 -0.66932461389E+02  0.66932461389E+02  0.00000000000E+00 0.  1.
         25    2    1    2    0    0  0.31287444045E+02  0.10028973732E+03  0.11077521448E+03  0.19737122966E+03  0.12508924249E+03 0.  0.
         23    2    1    2    0    0 -0.31287444045E+02 -0.10028973732E+03  0.16536074954E+03  0.21262965714E+03  0.82645375186E+02 0.  0.
          5    1    3    3  502    0  0.41684644834E+02  0.12474537409E+03  0.10817020996E+03  0.17034460571E+03  0.41800000000E+01 0.  1.
         -5    1    3    3    0  502 -0.10397200789E+02 -0.24455636766E+02  0.26050045269E+01  0.27026623955E+02  0.41800000000E+01 0.  1.
        -11    1    4    4    0    0  0.20335823013E+02 -0.69408705343E+01  0.55437796748E+02  0.59456460453E+02  0.00000000000E+00 0.  1.
         11    1    4    4    0    0 -0.51623267058E+02 -0.93348866789E+02  0.10992295279E+03  0.15317319669E+03  0.00000000000E+00 0. -1.
</event>
<event>
 8    1  0.6637272E-009  0.1304688E+03  0.7561462E-02  0.1226762E+00
          2   -1    0    0  501    0  0.00000000000E+00  0.00000000000E+00  0.32142828427E+03  0.32142828427E+03  0.00000000000E+00 0. -1.
         -2   -1    0    0    0  501 -0.00000000000E+00 -0.00000000000E+00 -0.80165724050E+02  0.80165724050E+02  0.00000000000E+00 0.  1.
         25    2    1    2    0    0 -0.32048529070E+02 -0.10681307167E+03  0.17985150247E+03  0.24582561189E+03  0.12509007965E+03 0.  0.
         23    2    1    2    0    0  0.32048529070E+02  0.10681307167E+03  0.61411057752E+02  0.15576839643E+03  0.89757087846E+02 0.  0.
          5    1    3    3  502    0  0.63325564820E+01 -0.53222653825E+02 -0.49675520552E+00  0.53763103681E+02  0.41800000000E+01 0.  1.
         -5    1    3    3    0  502 -0.38381085553E+02 -0.53590417842E+02  0.18034825768E+03  0.19206250821E+03  0.41800000000E+01 0.  1.
        -11    1    4    4    0    0 -0.28951664199E+02  0.49952324131E+02  0.38120784752E+02  0.69185459282E+02  0.00000000000E+00 0.  1.
         11    1    4    4    0    0  0.61000193269E+02  0.56860747535E+02  0.23290273001E+02  0.86582937151E+02  0.00000000000E+00 0. -1.
</event>
<event>
 8    1  0.6637272E-009  0.1930385E+03  0.7561462E-02  0.1155749E+00
         -3   -1    0    0    0  501 -0.00000000000E+00  0.00000000000E+00  0.11898951214E+04  0.11898951214E+04  0.00000000000E+00 0.  1.
          3   -1    0    0  501    0  0.00000000000E+00 -0.00000000000E+00 -0.41798691684E+02  0.41798691684E+02  0.00000000000E+00 0. -1.
         25    2    1    2    0    0 -0.17530962547E+03 -0.19035895895E+02  0.82305365283E+03  0.85097613973E+03  0.12508894772E+03 0.  0.
         23    2    1    2    0    0  0.17530962547E+03  0.19035895895E+02  0.32504277690E+03  0.38071767337E+03  0.90538996467E+02 0.  0.
          5    1    3    3  502    0 -0.29408524500E+02  0.40190801657E+02  0.11137888386E+03  0.12207739357E+03  0.41800000000E+01 0. -1.
         -5    1    3    3    0  502 -0.14590110097E+03 -0.59226697552E+02  0.71167476897E+03  0.72889874616E+03  0.41800000000E+01 0. -1.
        -11    1    4    4    0    0  0.12497689254E+03  0.60030546704E+00  0.29232036634E+03  0.31791631070E+03  0.00000000000E+00 0.  1.
         11    1    4    4    0    0  0.50332732940E+02  0.18435590428E+02  0.32722410567E+02  0.62801362668E+02  0.00000000000E+00 0. -1.
</event>
<event>
 8    1  0.6637272E-009  0.7978006E+02  0.7561462E-02  0.1329677E+00
         -2   -1    0    0    0  501 -0.00000000000E+00  0.00000000000E+00  0.23163793219E+02  0.23163793219E+02  0.00000000000E+00 0.  1.
          2   -1    0    0  501    0  0.00000000000E+00 -0.00000000000E+00 -0.12254103416E+04  0.12254103416E+04  0.00000000000E+00 0. -1.
         25    2    1    2    0    0  0.41254666964E+02  0.22268644112E+02 -0.11326138108E+04  0.11404645471E+04  0.12508996271E+03 0.  0.
         23    2    1    2    0    0 -0.41254666964E+02 -0.22268644112E+02 -0.69632737597E+02  0.10810958771E+03  0.68125800936E+02 0.  0.
          5    1    3    3  502    0  0.61218265755E+02 -0.20149652192E+02 -0.31800137897E+03  0.32449350374E+03  0.41800000000E+01 0.  1.
         -5    1    3    3    0  502 -0.19963598791E+02  0.42418296304E+02 -0.81461243185E+03  0.81597104340E+03  0.41800000000E+01 0.  1.
        -11    1    4    4    0    0 -0.15332952687E+02 -0.30352299722E+01  0.12402104896E+02  0.19953051520E+02  0.00000000000E+00 0.  1.
         11    1    4    4    0    0 -0.25921714277E+02 -0.19233414140E+02 -0.82034842493E+02  0.88156536193E+02  0.00000000000E+00 0. -1.
</event>
<event>
 8    1  0.6637272E-009  0.1817372E+03  0.7561462E-02  0.1166132E+00
         -3   -1    0    0    0  501 -0.00000000000E+00  0.00000000000E+00  0.12753739735E+03  0.12753739735E+03  0.00000000000E+00 0.  1.
          3   -1    0    0  501    0  0.00000000000E+00 -0.00000000000E+00 -0.29510544286E+03  0.29510544286E+03  0.00000000000E+00 0. -1.
         25    2    1    2    0    0  0.97198219122E+02 -0.12787176620E+03 -0.81961909681E+02  0.21945762753E+03  0.12508082688E+03 0.  0.
         23    2    1    2    0    0 -0.97198219122E+02  0.12787176620E+03 -0.85606135836E+02  0.20318521268E+03  0.90316874207E+02 0.  0.
          5    1    3    3  502    0  0.12016536603E+02  0.14005102272E+02  0.17970854007E+02  0.26095287608E+02  0.41800000000E+01 0.  1.
         -5    1    3    3    0  502  0.85181682518E+02 -0.14187686847E+03 -0.99932763688E+02  0.19336233993E+03  0.41800000000E+01 0.  1.
        -11    1    4    4    0    0 -0.28323958518E+02 -0.55534917394E+01  0.27013816371E+01  0.28989400810E+02  0.00000000000E+00 0.  1.
         11    1    4    4    0    0 -0.68874260604E+02  0.13342525794E+03 -0.88307517473E+02  0.17419581186E+03  0.00000000000E+00 0. -1.
</event>
<event>
 8    1  0.6637272E-009  0.1407272E+03  0.7561462E-02  0.1212354E+00
         -2   -1    0    0    0  501 -0.00000000000E+00  0.00000000000E+00  0.45804156572E+02  0.45804156572E+02  0.00000000000E+00 0.  1.
          2   -1    0    0  501    0  0.00000000000E+00 -0.00000000000E+00 -0.66590976413E+03  0.66590976413E+03  0.00000000000E+00 0. -1.
         25    2    1    2    0    0  0.75254161926E+01 -0.11139019977E+03 -0.16867500408E+03  0.23783066331E+03  0.12509100253E+03 0.  0.
         23    2    1    2    0    0 -0.75254161926E+01  0.11139019977E+03 -0.45143060347E+03  0.47388325739E+03  0.91166569470E+02 0.  0.
          5    1    3    3  502    0 -0.51578908756E+02 -0.65118385432E+02 -0.49103301772E+02  0.96588791247E+02  0.41800000000E+01 0. -1.
         -5    1    3    3    0  502  0.59104324949E+02 -0.46271814342E+02 -0.11957170231E+03  0.14124187206E+03  0.41800000000E+01 0. -1.
        -11    1    4    4    0    0 -0.19756522369E+02  0.10882277026E+03 -0.44722293818E+03  0.46069629035E+03  0.00000000000E+00 0. -1.
         11    1    4    4    0    0  0.12231106177E+02  0.25674295122E+01 -0.42076652909E+01  0.13186967044E+02  0.00000000000E+00 0.  1.
</event>
<event>
 8    1  0.6637272E-009  0.1065021E+03  0.7561462E-02  0.1267188E+00
          2   -1    0    0  501    0  0.00000000000E+00  0.00000000000E+00  0.40630262915E+03  0.40630262915E+03  0.00000000000E+00 0. -1.
         -2   -1    0    0    0  501 -0.00000000000E+00 -0.00000000000E+00 -0.67270095757E+02  0.67270095757E+02  0.00000000000E+00 0.  1.
         25    2    1    2    0    0  0.53320420282E+02  0.37389871165E+02  0.34022982025E+03  0.36829986836E+03  0.12508953898E+03 0.  0.
         23    2    1    2    0    0 -0.53320420282E+02 -0.37389871165E+02 -0.11972868601E+01  0.10527285655E+03  0.82703513496E+02 0.  0.
          5    1    3    3  502    0  0.59285730828E+02  0.62558469899E+02  0.32840775572E+03  0.33955483571E+03  0.41800000000E+01 0.  1.
         -5    1    3    3    0  502 -0.59653105468E+01 -0.25168598734E+02  0.11822064524E+02  0.28745032645E+02  0.41800000000E+01 0.  1.
        -11    1    4    4    0    0 -0.66238938148E+02 -0.59292088001E+01  0.14098568537E+02  0.67981777549E+02  0.00000000000E+00 0.  1.
         11    1    4    4    0    0  0.12918517866E+02 -0.31460662365E+02 -0.15295855397E+02  0.37291078996E+02  0.00000000000E+00 0. -1.
</event>
<event>
 8    1  0.6637272E-009  0.1215519E+03  0.7561462E-02  0.1240559E+00
         -2   -1    0    0    0  501 -0.00000000000E+00  0.00000000000E+00  0.13780737002E+02  0.13780737002E+02  0.00000000000E+00 0.  1.
          2   -1    0    0  501    0  0.00000000000E+00 -0.00000000000E+00 -0.12734666413E+04  0.12734666413E+04  0.00000000000E+00 0. -1.
         25    2    1    2    0    0 -0.40898099609E+02  0.60588437361E+02 -0.75285536195E+03  0.76666967401E+03  0.12509028637E+03 0.  0.
         23    2    1    2    0    0  0.40898099609E+02 -0.60588437361E+02 -0.50683054238E+03  0.52057770432E+03  0.93703437772E+02 0.  0.
          5    1    3    3  502    0 -0.28233730420E+02  0.88832701178E+02 -0.33805806540E+03  0.35069804721E+03  0.41800000000E+01 0. -1.
         -5    1    3    3    0  502 -0.12664369189E+02 -0.28244263817E+02 -0.41479729654E+03  0.41597162680E+03  0.41800000000E+01 0. -1.
        -11    1    4    4    0    0 -0.20317322522E+02  0.12009981662E+02 -0.11589503823E+03  0.11827380581E+03  0.00000000000E+00 0.  1.
         11    1    4    4    0    0  0.61215422130E+02 -0.72598419023E+02 -0.39093550415E+03  0.40230389851E+03  0.00000000000E+00 0. -1.
</event>
<event>
 8    1  0.6637272E-009  0.8613221E+02  0.7561462E-02  0.1312498E+00
         -1   -1    0    0    0  501 -0.00000000000E+00  0.00000000000E+00  0.36240873847E+02  0.36240873847E+02  0.00000000000E+00 0.  1.
          1   -1    0    0  501    0  0.00000000000E+00 -0.00000000000E+00 -0.31773879543E+03  0.31773879543E+03  0.00000000000E+00 0. -1.
         25    2    1    2    0    0  0.83081660339E-01 -0.23211545166E+01 -0.18019331678E+03  0.21936921164E+03  0.12509126645E+03 0.  0.
         23    2    1    2    0    0 -0.83081660339E-01  0.23211545166E+01 -0.10130460481E+03  0.13461045764E+03  0.88611272927E+02 0.  0.
          5    1    3    3  502    0  0.59230162522E+00  0.43704966661E+02 -0.12834480476E+02  0.45745723528E+02  0.41800000000E+01 0.  1.
         -5    1    3    3    0  502 -0.50921996488E+00 -0.46026121177E+02 -0.16735883630E+03  0.17362348811E+03  0.41800000000E+01 0.  1.
        -11    1    4    4    0    0 -0.26614102130E+02  0.32466015364E+02 -0.26317191900E+02  0.49547423498E+02  0.00000000000E+00 0.  1.
         11    1    4    4    0    0  0.26531020470E+02 -0.30144860848E+02 -0.74987412907E+02  0.85063034140E+02  0.00000000000E+00 0. -1.
</event>
<event>
 8    1  0.6637272E-009  0.1030921E+03  0.7561462E-02  0.1273925E+00
          1   -1    0    0  501    0  0.00000000000E+00  0.00000000000E+00  0.83884774801E+03  0.83884774801E+03  0.00000000000E+00 0. -1.
         -1   -1    0    0    0  501 -0.00000000000E+00 -0.00000000000E+00 -0.17298433364E+02  0.17298433364E+02  0.00000000000E+00 0.  1.
         25    2    1    2    0    0  0.42642835743E+02  0.27975049734E+02  0.51277146028E+03  0.53026719762E+03  0.12509082917E+03 0.  0.
         23    2    1    2    0    0 -0.42642835743E+02 -0.27975049734E+02  0.30877785436E+03  0.32587898375E+03  0.90842357192E+02 0.  0.
          5    1    3    3  502    0  0.10963919692E+02  0.60043843080E+02  0.44227640142E+03  0.44648780306E+03  0.41800000000E+01 0.  1.
         -5    1    3    3    0  502  0.31678916051E+02 -0.32068793347E+02  0.70495058860E+02  0.83779394559E+02  0.41800000000E+01 0.  1.
        -11    1    4    4    0    0 -0.20336670383E+02  0.30777454503E+02  0.71961042654E+02  0.80865465606E+02  0.00000000000E+00 0.  1.
         11    1    4    4    0    0 -0.22306165360E+02 -0.58752504237E+02  0.23681681171E+03  0.24501351815E+03  0.00000000000E+00 0. -1.
</event>
<event>
 8    1  0.6637272E-009  0.1156894E+03  0.7561462E-02  0.1250382E+00
          2   -1    0    0  501    0  0.00000000000E+00  0.00000000000E+00  0.53831193158E+03  0.53831193158E+03  0.00000000000E+00 0. -1.
         -2   -1    0    0    0  501 -0.00000000000E+00 -0.00000000000E+00 -0.25500476504E+02  0.25500476504E+02  0.00000000000E+00 0.  1.
         25    2    1    2    0    0  0.36026463696E+02  0.23831570885E+02  0.33165874781E+03  0.35708674796E+03  0.12509025025E+03 0.  0.
         23    2    1    2    0    0 -0.36026463696E+02 -0.23831570885E+02  0.18115270726E+03  0.20672566013E+03  0.89740433191E+02 0.  0.
          5    1    3    3  502    0  0.82314114238E+02  0.22929168817E+02  0.22621235552E+03  0.24184884199E+03  0.41800000000E+01 0. -1.
         -5    1    3    3    0  502 -0.46287650542E+02  0.90240206729E+00  0.10544639230E+03  0.11523790596E+03  0.41800000000E+01 0. -1.
        -11    1    4    4    0    0  0.27639276238E+02  0.71367682411E+01  0.58892144384E+02  0.65445761682E+02  0.00000000000E+00 0. -1.
         11    1    4    4    0    0 -0.63665739934E+02 -0.30968339126E+02  0.12226056288E+03  0.14127989844E+03  0.00000000000E+00 0.  1.
</event>
<event>
 8    1  0.6637272E-009  0.1812440E+03  0.7561462E-02  0.1166605E+00
          1   -1    0    0  501    0  0.00000000000E+00  0.00000000000E+00  0.32067181838E+03  0.32067181838E+03  0.00000000000E+00 0. -1.
         -1   -1    0    0    0  501 -0.00000000000E+00 -0.00000000000E+00 -0.16923533263E+03  0.16923533263E+03  0.00000000000E+00 0.  1.
         25    2    1    2    0    0  0.17440040359E+03 -0.34067282111E+02 -0.30925105478E+02  0.21950230198E+03  0.12509523549E+03 0.  0.
         23    2    1    2    0    0 -0.17440040359E+03  0.34067282111E+02  0.18236159123E+03  0.27040484903E+03  0.91032697085E+02 0.  0.
          5    1    3    3  502    0  0.17073580550E+03 -0.30001613880E+02  0.14080470321E+02  0.17397282592E+03  0.41800000000E+01 0. -1.
         -5    1    3    3    0  502  0.36645980946E+01 -0.40656682303E+01 -0.45005575799E+02  0.45529476061E+02  0.41800000000E+01 0. -1.
        -11    1    4    4    0    0 -0.10428732470E+03  0.91520838675E-01  0.47366911418E+02  0.11454029320E+03  0.00000000000E+00 0.  1.
         11    1    4    4    0    0 -0.70113078891E+02  0.33975761272E+02  0.13499467981E+03  0.15586455583E+03  0.00000000000E+00 0. -1.
</event>
<event>
 8    1  0.6637272E-009  0.1045576E+03  0.7561462E-02  0.1270994E+00
          1   -1    0    0  501    0  0.00000000000E+00  0.00000000000E+00  0.21066264038E+03  0.21066264038E+03  0.00000000000E+00 0. -1.
         -1   -1    0    0    0  501 -0.00000000000E+00 -0.00000000000E+00 -0.58671132709E+02  0.58671132709E+02  0.00000000000E+00 0.  1.
         25    2    1    2    0    0  0.14686856176E+02 -0.37476407371E+01  0.11252517573E+03  0.16893806896E+03  0.12509359462E+03 0.  0.
         23    2    1    2    0    0 -0.14686856176E+02  0.37476407371E+01  0.39466331942E+02  0.10039570413E+03  0.91060186118E+02 0.  0.
          5    1    3    3  502    0  0.10637246937E+02  0.57665330437E+02  0.79774000192E+02  0.99094928546E+02  0.41800000000E+01 0. -1.
         -5    1    3    3    0  502  0.40496092390E+01 -0.61412971174E+02  0.32751175536E+02  0.69843140411E+02  0.41800000000E+01 0. -1.
        -11    1    4    4    0    0 -0.23800434312E+02  0.42565032848E+02  0.76051349668E+01  0.49356668978E+02  0.00000000000E+00 0.  1.
         11    1    4    4    0    0  0.91135781360E+01 -0.38817392111E+02  0.31861196975E+02  0.51039035154E+02  0.00000000000E+00 0. -1.
</event>
<event>
 8    1  0.6637272E-009  0.1405219E+03  0.7561462E-02  0.1212628E+00
         -2   -1    0    0    0  501 -0.00000000000E+00  0.00000000000E+00  0.25554020684E+03  0.25554020684E+03  0.00000000000E+00 0. -1.
          2   -1    0    0  501    0  0.00000000000E+00 -0.00000000000E+00 -0.13456387185E+03  0.13456387185E+03  0.00000000000E+00 0.  1.
         25    2    1    2    0    0  0.10921093221E+03  0.39664388883E+02 -0.45100380673E+02  0.17658197252E+03  0.12508739834E+03 0.  0.
         23    2    1    2    0    0 -0.10921093221E+03 -0.39664388883E+02  0.16607671566E+03  0.21352210616E+03  0.67155959344E+02 0.  0.
          5    1    3    3  502    0  0.26694808434E+02  0.57738072525E+02 -0.63554562804E+02  0.90016402224E+02  0.41800000000E+01 0. -1.
         -5    1    3    3    0  502  0.82516123774E+02 -0.18073683642E+02  0.18454182130E+02  0.86565570299E+02  0.41800000000E+01 0. -1.
        -11    1    4    4    0    0 -0.42421427552E+02  0.16437863329E+02  0.42465799802E+02  0.62234435959E+02  0.00000000000E+00 0.  1.
         11    1    4    4    0    0 -0.66789504657E+02 -0.56102252212E+02  0.12361091586E+03  0.15128767020E+03  0.00000000000E+00 0. -1.
</event>
<event>
 8    1  0.6637272E-009  0.9435185E+02  0.7561462E-02  0.1292643E+00
         -1   -1    0    0    0  501 -0.00000000000E+00  0.00000000000E+00  0.33478285605E+02  0.33478285605E+02  0.00000000000E+00 0.  1.
          1   -1    0    0  501    0  0.00000000000E+00 -0.00000000000E+00 -0.86041085712E+03  0.86041085712E+03  0.00000000000E+00 0. -1.
         25    2    1    2    0    0 -0.15821069569E+02  0.27842685583E+02 -0.77149837979E+03  0.78222940337E+03  0.12509023980E+03 0.  0.
         23    2    1    2    0    0  0.15821069569E+02 -0.27842685583E+02 -0.55434191725E+02  0.11165973936E+03  0.91484569179E+02 0.  0.
          5    1    3    3  502    0 -0.40786389599E+00 -0.41246327897E+02 -0.12159270838E+03  0.12846666902E+03  0.41800000000E+01 0. -1.
         -5    1    3    3    0  502 -0.15413205674E+02  0.69089013480E+02 -0.64990567141E+03  0.65376273435E+03  0.41800000000E+01 0. -1.
        -11    1    4    4    0    0 -0.12171208816E+02  0.18528369882E+02  0.11966396070E+02  0.25191932229E+02  0.00000000000E+00 0.  1.
         11    1    4    4    0    0  0.27992278385E+02 -0.46371055465E+02 -0.67400587795E+02  0.86467807127E+02  0.00000000000E+00 0. -1.
</event>
<event>
 8    1  0.6637272E-009  0.2193886E+03  0.7561462E-02  0.1134340E+00
          1   -1    0    0  501    0  0.00000000000E+00  0.00000000000E+00  0.92695231624E+02  0.92695231624E+02  0.00000000000E+00 0. -1.
         -1   -1    0    0    0  501 -0.00000000000E+00 -0.00000000000E+00 -0.59905809923E+03  0.59905809923E+03  0.00000000000E+00 0.  1.
         25    2    1    2    0    0 -0.17923429269E+03 -0.10593880491E+03 -0.22877950941E+03  0.33367044137E+03  0.12509171618E+03 0.  0.
         23    2    1    2    0    0  0.17923429269E+03  0.10593880491E+03 -0.27758335819E+03  0.35808288948E+03  0.88447006320E+02 0.  0.
          5    1    3    3  502    0 -0.40618225367E+02  0.16787349880E+02 -0.96418948350E+02  0.10604593980E+03  0.41800000000E+01 0. -1.
         -5    1    3    3    0  502 -0.13861606733E+03 -0.12272615479E+03 -0.13236056106E+03  0.22762450157E+03  0.41800000000E+01 0. -1.
        -11    1    4    4    0    0  0.81089898061E+02  0.61147160174E+02 -0.20281916264E+03  0.22682627603E+03  0.00000000000E+00 0.  1.
         11    1    4    4    0    0  0.98144394632E+02  0.44791644739E+02 -0.74764195552E+02  0.13125661344E+03  0.00000000000E+00 0. -1.
</event>
<event>
 8    1  0.6637272E-009  0.9365777E+02  0.7561462E-02  0.1294228E+00
          1   -1    0    0  501    0  0.00000000000E+00  0.00000000000E+00  0.46472639664E+02  0.46472639664E+02  0.00000000000E+00 0. -1.
         -1   -1    0    0    0  501 -0.00000000000E+00 -0.00000000000E+00 -0.40468855952E+03  0.40468855952E+03  0.00000000000E+00 0.  1.
         25    2    1    2    0    0  0.14090257364E+02  0.26048452026E+02 -0.35186365248E+03  0.37461028810E+03  0.12509109005E+03 0.  0.
         23    2    1    2    0    0 -0.14090257364E+02 -0.26048452026E+02 -0.63522673762E+01  0.76550911081E+02  0.70303865335E+02 0.  0.
          5    1    3    3  502    0  0.35824320965E+02 -0.42906432797E+02 -0.15998728588E+03  0.16952211652E+03  0.41800000000E+01 0.  1.
         -5    1    3    3    0  502 -0.21734063601E+02  0.68954884822E+02 -0.19187636660E+03  0.20508817158E+03  0.41800000000E+01 0.  1.
        -11    1    4    4    0    0  0.11855837632E+02  0.92486233593E+01  0.20308004474E+02  0.25268814094E+02  0.00000000000E+00 0. -1.
         11    1    4    4    0    0 -0.25946094996E+02 -0.35297075385E+02 -0.26660271851E+02  0.51282096987E+02  0.00000000000E+00 0.  1.
</event>
<event>
 8    1  0.6637272E-009  0.1070489E+03  0.7561462E-02  0.1266135E+00
         -2   -1    0    0    0  501 -0.00000000000E+00  0.00000000000E+00  0.24777616396E+02  0.24777616396E+02  0.00000000000E+00 0.  1.
          2   -1    0    0  501    0  0.00000000000E+00 -0.00000000000E+00 -0.69410705555E+03  0.69410705555E+03  0.00000000000E+00 0. -1.
         25    2    1    2    0    0  0.48267423302E+02 -0.18244108088E+02 -0.51308243916E+03  0.53062616073E+03  0.12509173211E+03 0.  0.
         23    2    1    2    0    0 -0.48267423302E+02  0.18244108088E+02 -0.15624699999E+03  0.18825851121E+03  0.91463382874E+02 0.  0.
          5    1    3    3  502    0 -0.29458402488E+02 -0.54261312941E+01 -0.35786065643E+02  0.46854618472E+02  0.41800000000E+01 0. -1.
         -5    1    3    3    0  502  0.77725825790E+02 -0.12817976794E+02 -0.47729637352E+03  0.48377154226E+03  0.41800000000E+01 0. -1.
        -11    1    4    4    0    0 -0.48443615761E+02 -0.29830924040E+02 -0.81847020218E+02  0.99677493225E+02  0.00000000000E+00 0.  1.
         11    1    4    4    0    0  0.17619245932E+00  0.48075032128E+02 -0.74399979770E+02  0.88581017988E+02  0.00000000000E+00 0. -1.
</event>
<event>
 8    1  0.6637272E-009  0.9513775E+02  0.7561462E-02  0.1290866E+00
         -1   -1    0    0    0  501 -0.00000000000E+00  0.00000000000E+00  0.65992780421E+02  0.65992780421E+02  0.00000000000E+00 0.  1.
          1   -1    0    0  501    0  0.00000000000E+00 -0.00000000000E+00 -0.23494686052E+03  0.23494686052E+03  0.00000000000E+00 0. -1.
         25    2    1    2    0    0  0.40099148263E+02 -0.22834090278E+02 -0.49193918750E+02  0.14211514089E+03  0.12508930513E+03 0.  0.
         23    2    1    2    0    0 -0.40099148263E+02  0.22834090278E+02 -0.11976016135E+03  0.15882450005E+03  0.93559543605E+02 0.  0.
          5    1    3    3  502    0  0.48064943978E+02  0.34895185093E+02  0.83308407557E+01  0.60123107787E+02  0.41800000000E+01 0. -1.
         -5    1    3    3    0  502 -0.79657957150E+01 -0.57729275371E+02 -0.57524759505E+02  0.81992033103E+02  0.41800000000E+01 0. -1.
        -11    1    4    4    0    0 -0.24595585090E+02 -0.16774795044E+02  0.20100627113E+01  0.29839184083E+02  0.00000000000E+00 0.  1.
         11    1    4    4    0    0 -0.15503563174E+02  0.39608885321E+02 -0.12177022406E+03  0.12898531596E+03  0.00000000000E+00 0. -1.
</event>
<event>
 8    1  0.6637272E-009  0.2074243E+03  0.7561462E-02  0.1143622E+00
         -1   -1    0    0    0  501 -0.00000000000E+00  0.00000000000E+00  0.62232742904E+02  0.62232742904E+02  0.00000000000E+00 0.  1.
          1   -1    0    0  501    0  0.00000000000E+00 -0.00000000000E+00 -0.86649978525E+03  0.86649978525E+03  0.00000000000E+00 0. -1.
         25    2    1    2    0    0 -0.35924049364E+01 -0.19761186456E+03 -0.52365791525E+03  0.57352236097E+03  0.12508769699E+03 0.  0.
         23    2    1    2    0    0  0.35924049364E+01  0.19761186456E+03 -0.28060912710E+03  0.35521016719E+03  0.91484568499E+02 0.  0.
          5    1    3    3  502    0 -0.28324209054E+02 -0.17115162747E+03 -0.50192845924E+03  0.53107889339E+03  0.41800000000E+01 0.  1.
         -5    1    3    3    0  502  0.24731804118E+02 -0.26460237092E+02 -0.21729456006E+02  0.42443467580E+02  0.41800000000E+01 0.  1.
        -11    1    4    4    0    0  0.25381525684E+02  0.15432109128E+03 -0.15334239123E+03  0.21902764667E+03  0.00000000000E+00 0.  1.
         11    1    4    4    0    0 -0.21789120747E+02  0.43290773282E+02 -0.12726673587E+03  0.13618252051E+03  0.00000000000E+00 0. -1.
</event>
<event>
 8    1  0.6637272E-009  0.1412595E+03  0.7561462E-02  0.1211644E+00
          2   -1    0    0  501    0  0.00000000000E+00  0.00000000000E+00  0.10033558529E+04  0.10033558529E+04  0.00000000000E+00 0. -1.
         -2   -1    0    0    0  501 -0.00000000000E+00 -0.00000000000E+00 -0.36006764534E+02  0.36006764534E+02  0.00000000000E+00 0.  1.
         25    2    1    2    0    0 -0.90310605134E+02  0.74659039034E+02  0.22679449960E+03  0.28427653378E+03  0.12508966824E+03 0.  0.
         23    2    1    2    0    0  0.90310605134E+02 -0.74659039034E+02  0.74055458874E+03  0.75508608363E+03  0.89464614639E+02 0.  0.
          5    1    3    3  502    0 -0.76374711284E+02  0.87219494050E+02  0.23599528554E+03  0.26296688739E+03  0.41800000000E+01 0. -1.
         -5    1    3    3    0  502 -0.13935893850E+02 -0.12560455015E+02 -0.92007859372E+01  0.21309646394E+02  0.41800000000E+01 0. -1.
        -11    1    4    4    0    0  0.81832633830E+00 -0.55833152242E+02  0.29653533425E+03  0.30174693868E+03  0.00000000000E+00 0. -1.
         11    1    4    4    0    0  0.89492278796E+02 -0.18825886792E+02  0.44401925449E+03  0.45333914494E+03  0.00000000000E+00 0.  1.
</event>
<event>
 8    1  0.6637272E-009  0.1677420E+03  0.7561462E-02  0.1180223E+00
          2   -1    0    0  501    0  0.00000000000E+00  0.00000000000E+00  0.94175676302E+03  0.94175676302E+03  0.00000000000E+00 0.  1.
         -2   -1    0    0    0  501 -0.00000000000E+00 -0.00000000000E+00 -0.33738989199E+02  0.33738989199E+02  0.00000000000E+00 0. -1.
         25    2    1    2    0    0 -0.14168789923E+02 -0.12784972490E+03  0.62537436294E+03  0.65060475323E+03  0.12508854601E+03 0.  0.
         23    2    1    2    0    0  0.14168789923E+02  0.12784972490E+03  0.28264341088E+03  0.32489099899E+03  0.95501605977E+02 0.  0.
          5    1    3    3  502    0 -0.65607105792E+02 -0.94655047596E+02  0.45990008224E+03  0.47411963513E+03  0.41800000000E+01 0.  1.
         -5    1    3    3    0  502  0.51438315869E+02 -0.33194677301E+02  0.16547428069E+03  0.17648511810E+03  0.41800000000E+01 0.  1.
        -11    1    4    4    0    0  0.38554071865E+02  0.11837715183E+02  0.91136956774E+02  0.99661892658E+02  0.00000000000E+00 0.  1.
         11    1    4    4    0    0 -0.24385281942E+02  0.11601200971E+03  0.19150645411E+03  0.22522910633E+03  0.00000000000E+00 0. -1.
</event>
<event>
 8    1  0.6637272E-009  0.1631319E+03  0.7561462E-02  0.1185206E+00
         -2   -1    0    0    0  501 -0.00000000000E+00  0.00000000000E+00  0.39845219078E+02  0.39845219078E+02  0.00000000000E+00 0. -1.
          2   -1    0    0  501    0  0.00000000000E+00 -0.00000000000E+00 -0.10966014940E+04  0.10966014940E+04  0.00000000000E+00 0.  1.
         25    2    1    2    0    0  0.75632534086E+02  0.11789310682E+03 -0.86475932544E+03  0.88491538145E+03  0.12508987392E+03 0.  0.
         23    2    1    2    0    0 -0.75632534086E+02 -0.11789310682E+03 -0.19199694944E+03  0.25153133158E+03  0.82377893424E+02 0.  0.
          5    1    3    3  502    0  0.75038685201E+02  0.72934035143E+01 -0.40880270646E+03  0.41571760033E+03  0.41800000000E+01 0.  1.
         -5    1    3    3    0  502  0.59384888491E+00  0.11059970330E+03 -0.45595661898E+03  0.46919778113E+03  0.41800000000E+01 0.  1.
        -11    1    4    4    0    0 -0.34645916907E+02 -0.52673030946E+02 -0.25366420333E+02  0.67957656138E+02  0.00000000000E+00 0. -1.
         11    1    4    4    0    0 -0.40986617180E+02 -0.65220075870E+02 -0.16663052911E+03  0.18357367544E+03  0.00000000000E+00 0.  1.
</event>
<event>
 8    1  0.6637272E-009  0.1083790E+03  0.7561462E-02  0.1263601E+00
         -1   -1    0    0    0  501 -0.00000000000E+00  0.00000000000E+00  0.18163141398E+02  0.18163141398E+02  0.00000000000E+00 0.  1.
          1   -1    0    0  501    0  0.00000000000E+00 -0.00000000000E+00 -0.77801543958E+03  0.77801543958E+03  0.00000000000E+00 0. -1.
         25    2    1    2    0    0 -0.23352175998E+02  0.30071835630E+02 -0.52977128258E+03  0.54566869516E+03  0.12508826326E+03 0.  0.
         23    2    1    2    0    0  0.23352175998E+02 -0.30071835630E+02 -0.23008101560E+03  0.25050988583E+03  0.91478356634E+02 0.  0.
          5    1    3    3  502    0  0.72156694122E+01  0.75303983517E+02 -0.29114066773E+03  0.30083735909E+03  0.41800000000E+01 0. -1.
         -5    1    3    3    0  502 -0.30567845410E+02 -0.45232147887E+02 -0.23863061485E+03  0.24483133607E+03  0.41800000000E+01 0. -1.
        -11    1    4    4    0    0  0.24693372877E+02  0.22646748911E+02 -0.15611004355E+03  0.15966522350E+03  0.00000000000E+00 0. -1.
         11    1    4    4    0    0 -0.13411968798E+01 -0.52718584541E+02 -0.73970972057E+02  0.90844662321E+02  0.00000000000E+00 0.  1.
</event>
<event>
 8    1  0.6637272E-009  0.1406780E+03  0.7561462E-02  0.1212420E+00
          1   -1    0    0  501    0  0.00000000000E+00  0.00000000000E+00  0.18635357492E+03  0.18635357492E+03  0.00000000000E+00 0. -1.
         -1   -1    0    0    0  501 -0.00000000000E+00 -0.00000000000E+00 -0.29948952171E+03  0.29948952171E+03  0.00000000000E+00 0.  1.
         25    2    1    2    0    0 -0.67020654482E+02 -0.84775350571E+02 -0.24322960776E+03  0.29408718948E+03  0.12509198508E+03 0.  0.
         23    2    1    2    0    0  0.67020654482E+02  0.84775350571E+02  0.13009366097E+03  0.19175590716E+03  0.90373331872E+02 0.  0.
          5    1    3    3  502    0 -0.34702037396E+02  0.13231780437E+02 -0.95111566965E+01  0.38564827429E+02  0.41800000000E+01 0.  1.
         -5    1    3    3    0  502 -0.32318617086E+02 -0.98007131008E+02 -0.23371845106E+03  0.25552236205E+03  0.41800000000E+01 0.  1.
        -11    1    4    4    0    0 -0.17855077414E+02  0.42035037803E+02  0.37795397272E+02  0.59281027720E+02  0.00000000000E+00 0.  1.
         11    1    4    4    0    0  0.84875731896E+02  0.42740312767E+02  0.92298263700E+02  0.13247487944E+03  0.00000000000E+00 0. -1.
</event>
<event>
 8    1  0.6637272E-009  0.1343596E+03  0.7561462E-02  0.1221127E+00
         -1   -1    0    0    0  501 -0.00000000000E+00  0.00000000000E+00  0.33308803938E+02  0.33308803938E+02  0.00000000000E+00 0.  1.
          1   -1    0    0  501    0  0.00000000000E+00 -0.00000000000E+00 -0.62850298530E+03  0.62850298530E+03  0.00000000000E+00 0. -1.
         25    2    1    2    0    0  0.40095683877E+02  0.70466688093E+02 -0.43208580339E+03  0.45707340874E+03  0.12507894102E+03 0.  0.
         23    2    1    2    0    0 -0.40095683877E+02 -0.70466688093E+02 -0.16310837797E+03  0.20473838050E+03  0.93489269381E+02 0.  0.
          5    1    3    3  502    0 -0.44892048524E+02  0.17592285230E+02 -0.12404970995E+03  0.13315625205E+03  0.41800000000E+01 0.  1.
         -5    1    3    3    0  502  0.84987732401E+02  0.52874402863E+02 -0.30803609344E+03  0.32391715669E+03  0.41800000000E+01 0.  1.
        -11    1    4    4    0    0 -0.50316192510E+02 -0.14129293883E+01 -0.93321978367E+02  0.10603163323E+03  0.00000000000E+00 0.  1.
         11    1    4    4    0    0  0.10220508633E+02 -0.69053758705E+02 -0.69786399606E+02  0.98706747277E+02  0.00000000000E+00 0. -1.
</event>
<event>
 8    1  0.6637272E-009  0.6991741E+02  0.7561462E-02  0.1360374E+00
         -2   -1    0    0    0  501 -0.00000000000E+00  0.00000000000E+00  0.23332939346E+02  0.23332939346E+02  0.00000000000E+00 0.  1.
          2   -1    0    0  501    0  0.00000000000E+00 -0.00000000000E+00 -0.60378456479E+03  0.60378456479E+03  0.00000000000E+00 0. -1.
         25    2    1    2    0    0  0.11319796926E+01  0.27372419474E+01 -0.45696858858E+03  0.47379229173E+03  0.12510024333E+03 0.  0.
         23    2    1    2    0    0 -0.11319796926E+01 -0.27372419474E+01 -0.12348303686E+03  0.15332521241E+03  0.90839344424E+02 0.  0.
          5    1    3    3  502    0  0.22571780863E+01  0.28856853910E+02 -0.44279789976E+03  0.44376262269E+03  0.41800000000E+01 0.  1.
         -5    1    3    3    0  502 -0.11251983937E+01 -0.26119611963E+02 -0.14170688821E+02  0.30029669032E+02  0.41800000000E+01 0.  1.
        -11    1    4    4    0    0  0.20067840834E+02  0.35278212356E+02 -0.30866451508E+02  0.50990276833E+02  0.00000000000E+00 0.  1.
         11    1    4    4    0    0 -0.21199820527E+02 -0.38015454303E+02 -0.92616585354E+02  0.10233493557E+03  0.00000000000E+00 0. -1.
</event>
<event>
 8    1  0.6637272E-009  0.7080821E+02  0.7561462E-02  0.1357366E+00
         -1   -1    0    0    0  501 -0.00000000000E+00  0.00000000000E+00  0.39509420982E+02  0.39509420982E+02  0.00000000000E+00 0.  1.
          1   -1    0    0  501    0  0.00000000000E+00 -0.00000000000E+00 -0.31763147087E+03  0.31763147087E+03  0.00000000000E+00 0. -1.
         25    2    1    2    0    0  0.16117074791E+02  0.12958484250E+02 -0.21422642110E+03  0.24893452096E+03  0.12509098215E+03 0.  0.
         23    2    1    2    0    0 -0.16117074791E+02 -0.12958484250E+02 -0.63895628790E+02  0.10820637089E+03  0.84842706870E+02 0.  0.
          5    1    3    3  502    0  0.84717006542E+00  0.31464948887E+02 -0.22130583807E+03  0.22357215182E+03  0.41800000000E+01 0.  1.
         -5    1    3    3    0  502  0.15269904726E+02 -0.18506464638E+02  0.70794169735E+01  0.25362369140E+02  0.41800000000E+01 0.  1.
        -11    1    4    4    0    0  0.50195370784E+01  0.33813104281E+02 -0.15040430820E+02  0.37346168918E+02  0.00000000000E+00 0.  1.
         11    1    4    4    0    0 -0.21136611870E+02 -0.46771588530E+02 -0.48855197969E+02  0.70860201973E+02  0.00000000000E+00 0. -1.
</event>
<event>
 8    1  0.6637272E-009  0.1103319E+03  0.7561462E-02  0.1259957E+00
         -3   -1    0    0    0  501 -0.00000000000E+00  0.00000000000E+00  0.39102681690E+03  0.39102681690E+03  0.00000000000E+00 0.  1.
          3   -1    0    0  501    0  0.00000000000E+00 -0.00000000000E+00 -0.74400799504E+02  0.74400799504E+02  0.00000000000E+00 0. -1.
         25    2    1    2    0    0  0.71187801294E+02 -0.27380449622E+02  0.22703107128E+02  0.14826424922E+03  0.12509781952E+03 0.  0.
         23    2    1    2    0    0 -0.71187801294E+02  0.27380449622E+02  0.29392291027E+03  0.31716336719E+03  0.91567091419E+02 0.  0.
          5    1    3    3  502    0  0.22732332404E+02  0.47557239205E+02 -0.86623683495E+01  0.53581330357E+02  0.41800000000E+01 0. -1.
         -5    1    3    3    0  502  0.48455468889E+02 -0.74937688827E+02  0.31365475478E+02  0.94682918861E+02  0.41800000000E+01 0. -1.
        -11    1    4    4    0    0 -0.28163754229E+02  0.14169232082E+01  0.11747590542E+02  0.30548495989E+02  0.00000000000E+00 0. -1.
         11    1    4    4    0    0 -0.43024047065E+02  0.25963526414E+02  0.28217531973E+03  0.28661487120E+03  0.00000000000E+00 0.  1.
</event>
<event>
 8    1  0.6637272E-009  0.1570088E+03  0.7561462E-02  0.1192116E+00
         -2   -1    0    0    0  501 -0.00000000000E+00  0.00000000000E+00  0.74987848067E+02  0.74987848067E+02  0.00000000000E+00 0.  1.
          2   -1    0    0  501    0  0.00000000000E+00 -0.00000000000E+00 -0.47573393194E+03  0.47573393194E+03  0.00000000000E+00 0. -1.
         25    2    1    2    0    0 -0.19605790469E+02 -0.12868922440E+03 -0.33270344883E+03  0.37852627451E+03  0.12508098230E+03 0.  0.
         23    2    1    2    0    0  0.19605790469E+02  0.12868922440E+03 -0.68042635040E+02  0.17219550550E+03  0.89867616152E+02 0.  0.
          5    1    3    3  502    0 -0.13803744763E+02  0.18460642168E+02 -0.13679146862E+02  0.27128032322E+02  0.41800000000E+01 0. -1.
         -5    1    3    3    0  502 -0.58020457056E+01 -0.14714986657E+03 -0.31902430197E+03  0.35139824219E+03  0.41800000000E+01 0. -1.
        -11    1    4    4    0    0 -0.20701471882E+02  0.28094254515E+02 -0.52029339721E+02  0.62648944657E+02  0.00000000000E+00 0. -1.
         11    1    4    4    0    0  0.40307262351E+02  0.10059496989E+03 -0.16013295319E+02  0.10954656084E+03  0.00000000000E+00 0.  1.
</event>
<event>
 8    1  0.6637272E-009  0.1026014E+03  0.7561462E-02  0.1274919E+00
          2   -1    0    0  501    0  0.00000000000E+00  0.00000000000E+00  0.14599700159E+04  0.14599700159E+04  0.00000000000E+00 0. -1.
         -2   -1    0    0    0  501 -0.00000000000E+00 -0.00000000000E+00 -0.10328364398E+02  0.10328364398E+02  0.00000000000E+00 0.  1.
         25    2    1    2    0    0 -0.17541959462E+02  0.27588049378E+02  0.11555319796E+04  0.11627426076E+04  0.12508954679E+03 0.  0.
         23    2    1    2    0    0  0.17541959462E+02 -0.27588049378E+02  0.29410967184E+03  0.30755577269E+03  0.83792800615E+02 0.  0.
          5    1    3    3  502    0  0.34961215566E+02 -0.23160173980E+02  0.70977278975E+03  0.71102290099E+03  0.41800000000E+01 0. -1.
         -5    1    3    3    0  502 -0.52503175028E+02  0.50748223358E+02  0.44575918987E+03  0.45171970659E+03  0.41800000000E+01 0. -1.
        -11    1    4    4    0    0  0.51504357676E+02 -0.18897416033E+02  0.17579894016E+03  0.18416046958E+03  0.00000000000E+00 0.  1.
         11    1    4    4    0    0 -0.33962398215E+02 -0.86906333447E+01  0.11831073168E+03  0.12339530312E+03  0.00000000000E+00 0. -1.
</event>
<event>
 8    1  0.6637272E-009  0.1208325E+03  0.7561462E-02  0.1241730E+00
          2   -1    0    0  501    0  0.00000000000E+00  0.00000000000E+00  0.25473789630E+04  0.25473789630E+04  0.00000000000E+00 0.  1.
         -2   -1    0    0    0  501 -0.00000000000E+00 -0.00000000000E+00 -0.12813349470E+02  0.12813349470E+02  0.00000000000E+00 0. -1.
         25    2    1    2    0    0  0.10415312134E+03 -0.11530222287E+02  0.20399302796E+04  0.20464464220E+04  0.12508634526E+03 0.  0.
         23    2    1    2    0    0 -0.10415312134E+03  0.11530222287E+02  0.49463533389E+03  0.51374589043E+03  0.91048930203E+02 0.  0.
          5    1    3    3  502    0  0.35833866497E+02  0.10963871547E+02  0.13535300889E+03  0.14050687486E+03  0.41800000000E+01 0. -1.
         -5    1    3    3    0  502  0.68319254846E+02 -0.22494093834E+02  0.19045772707E+04  0.19059395472E+04  0.41800000000E+01 0. -1.
        -11    1    4    4    0    0 -0.26339383177E+02  0.40976291364E+02  0.26645078972E+03  0.27086683611E+03  0.00000000000E+00 0.  1.
         11    1    4    4    0    0 -0.77813738167E+02 -0.29446069077E+02  0.22818454417E+03  0.24287905433E+03  0.00000000000E+00 0. -1.
</event>
<event>
 8    1  0.6637272E-009  0.1311052E+03  0.7561462E-02  0.1225825E+00
          2   -1    0    0  501    0  0.00000000000E+00  0.00000000000E+00  0.25173081232E+03  0.25173081232E+03  0.00000000000E+00 0. -1.
         -2   -1    0    0    0  501 -0.00000000000E+00 -0.00000000000E+00 -0.90534469989E+02  0.90534469989E+02  0.00000000000E+00 0.  1.
         25    2    1    2    0    0 -0.72508140150E+02  0.32805172312E+02  0.10210325573E+02  0.14860782960E+03  0.12508567685E+03 0.  0.
         23    2    1    2    0    0  0.72508140150E+02 -0.32805172312E+02  0.15098601675E+03  0.19365745271E+03  0.91503125711E+02 0.  0.
          5    1    3    3  502    0 -0.64332884513E+02  0.75947238376E+02  0.23856424205E+02  0.10243683138E+03  0.41800000000E+01 0.  1.
         -5    1    3    3    0  502 -0.81752556366E+01 -0.43142066065E+02 -0.13646098632E+02  0.46170998223E+02  0.41800000000E+01 0.  1.
        -11    1    4    4    0    0  0.27133203083E+01 -0.47150099327E+02  0.40645515633E+02  0.62310126904E+02  0.00000000000E+00 0.  1.
         11    1    4    4    0    0  0.69794819841E+02  0.14344927015E+02  0.11034050112E+03  0.13134732580E+03  0.00000000000E+00 0. -1.
</event>
<event>
 8    1  0.6637272E-009  0.1264678E+03  0.7561462E-02  0.1232793E+00
         -1   -1    0    0    0  501 -0.00000000000E+00  0.00000000000E+00  0.36749085061E+02  0.36749085061E+02  0.00000000000E+00 0.  1.
          1   -1    0    0  501    0  0.00000000000E+00 -0.00000000000E+00 -0.46429535731E+03  0.46429535731E+03  0.00000000000E+00 0. -1.
         25    2    1    2    0    0 -0.69994007698E+01 -0.70827305383E+02 -0.24564384379E+03  0.28469905183E+03  0.12508858190E+03 0.  0.
         23    2    1    2    0    0  0.69994007698E+01  0.70827305383E+02 -0.18190242846E+03  0.21634539054E+03  0.93012556839E+02 0.  0.
          5    1    3    3  502    0 -0.56391447792E+02 -0.33205955948E+00 -0.11565007709E+03  0.12873429371E+03  0.41800000000E+01 0.  1.
         -5    1    3    3    0  502  0.49392047023E+02 -0.70495245824E+02 -0.12999376670E+03  0.15596475812E+03  0.41800000000E+01 0.  1.
        -11    1    4    4    0    0 -0.38718703179E+02  0.32832218777E+02 -0.48106599872E+02  0.69938097751E+02  0.00000000000E+00 0.  1.
         11    1    4    4    0    0  0.45718103949E+02  0.37995086606E+02 -0.13379582858E+03  0.14640729279E+03  0.00000000000E+00 0. -1.
</event>
<event>
 8    1  0.6637272E-009  0.1193012E+03  0.7561462E-02  0.1244254E+00
          1   -1    0    0  501    0  0.00000000000E+00  0.00000000000E+00  0.36451278762E+02  0.36451278762E+02  0.00000000000E+00 0. -1.
         -1   -1    0    0    0  501 -0.00000000000E+00 -0.00000000000E+00 -0.42319491373E+03  0.42319491373E+03  0.00000000000E+00 0.  1.
         25    2    1    2    0    0  0.11649739871E+02  0.61270262634E+02 -0.21108516997E+03  0.25316911448E+03  0.12509152659E+03 0.  0.
         23    2    1    2    0    0 -0.11649739871E+02 -0.61270262634E+02 -0.17565846500E+03  0.20647707801E+03  0.88809492143E+02 0.  0.
          5    1    3    3  502    0 -0.25072713440E+02  0.89114383177E+02 -0.12733865435E+03  0.15748847431E+03  0.41800000000E+01 0.  1.
         -5    1    3    3    0  502  0.36722453311E+02 -0.27844120543E+02 -0.83746515621E+02  0.95680640177E+02  0.41800000000E+01 0.  1.
        -11    1    4    4    0    0  0.20896737684E+02 -0.63682763544E+02 -0.74631984357E+02  0.10031002496E+03  0.00000000000E+00 0.  1.
         11    1    4    4    0    0 -0.32546477555E+02  0.24125009104E+01 -0.10102648065E+03  0.10616705305E+03  0.00000000000E+00 0. -1.
</event>
<event>
 8    1  0.6637272E-009  0.8528643E+02  0.7561462E-02  0.1314685E+00
         -1   -1    0    0    0  501 -0.00000000000E+00  0.00000000000E+00  0.95642692626E+02  0.95642692626E+02  0.00000000000E+00 0.  1.
          1   -1    0    0  501    0  0.00000000000E+00 -0.00000000000E+00 -0.17406648982E+03  0.17406648982E+03  0.00000000000E+00 0. -1.
         25    2    1    2    0    0  0.15793180640E+02 -0.33104145994E+02 -0.10574347363E+03  0.16785798367E+03  0.12509720792E+03 0.  0.
         23    2    1    2    0    0 -0.15793180640E+02  0.33104145994E+02  0.27319676438E+02  0.10185119877E+03  0.91005455518E+02 0.  0.
          5    1    3    3  502    0  0.40060338311E+01  0.32704408371E+02  0.95136543895E+01  0.34548641851E+02  0.41800000000E+01 0.  1.
         -5    1    3    3    0  502  0.11787146809E+02 -0.65808554364E+02 -0.11525712802E+03  0.13330934182E+03  0.41800000000E+01 0.  1.
        -11    1    4    4    0    0 -0.25616057563E+02 -0.89905286311E+01  0.47061765188E+02  0.54330670461E+02  0.00000000000E+00 0.  1.
         11    1    4    4    0    0  0.98228769223E+01  0.42094674625E+02 -0.19742088750E+02  0.47520528312E+02  0.00000000000E+00 0. -1.
</event>
<event>
 8    1  0.6637272E-009  0.1145237E+03  0.7561462E-02  0.1252415E+00
         -1   -1    0    0    0  501 -0.00000000000E+00  0.00000000000E+00  0.47291604494E+03  0.47291604494E+03  0.00000000000E+00 0.  1.
          1   -1    0    0  501    0  0.00000000000E+00 -0.00000000000E+00 -0.48421793799E+02  0.48421793799E+02  0.00000000000E+00 0. -1.
         25    2    1    2    0    0  0.35262748370E+02 -0.71670439954E+02  0.11007019360E+03  0.18478411842E+03  0.12509839934E+03 0.  0.
         23    2    1    2    0    0 -0.35262748370E+02  0.71670439954E+02  0.31442405755E+03  0.33655372032E+03  0.89586859022E+02 0.  0.
          5    1    3    3  502    0  0.70776554680E+02 -0.84238757015E+02  0.75689041979E+02  0.13361059970E+03  0.41800000000E+01 0.  1.
         -5    1    3    3    0  502 -0.35513806310E+02  0.12568317061E+02  0.34381151617E+02  0.51173518727E+02  0.41800000000E+01 0.  1.
        -11    1    4    4    0    0 -0.34403191243E+02  0.58685235537E+02  0.31618635443E+03  0.32342131527E+03  0.00000000000E+00 0.  1.
         11    1    4    4    0    0 -0.85955712688E+00  0.12985204417E+02 -0.17622968845E+01  0.13132405054E+02  0.00000000000E+00 0. -1.
</event>
<event>
 8    1  0.6637272E-009  0.1044863E+03  0.7561462E-02  0.1271135E+00
         -1   -1    0    0    0  501 -0.00000000000E+00  0.00000000000E+00  0.44710259561E+02  0.44710259561E+02  0.00000000000E+00 0.  1.
          1   -1    0    0  501    0  0.00000000000E+00 -0.00000000000E+00 -0.30433987463E+03  0.30433987463E+03  0.00000000000E+00 0. -1.
         25    2    1    2    0    0  0.14689386722E+02 -0.34268512477E+02 -0.10433878180E+03  0.16710604740E+03  0.12509092957E+03 0.  0.
         23    2    1    2    0    0 -0.14689386722E+02  0.34268512477E+02 -0.15529083327E+03  0.18194408679E+03  0.87168221224E+02 0.  0.
          5    1    3    3  502    0  0.31202478017E+02 -0.68800471526E+02 -0.26329159471E+02  0.80111151252E+02  0.41800000000E+01 0.  1.
         -5    1    3    3    0  502 -0.16513091295E+02  0.34531959049E+02 -0.78009622328E+02  0.86994896147E+02  0.41800000000E+01 0.  1.
        -11    1    4    4    0    0 -0.48439190397E+02  0.25732277804E+01 -0.79666592656E+02  0.93272410996E+02  0.00000000000E+00 0.  1.
         11    1    4    4    0    0  0.33749803675E+02  0.31695284696E+02 -0.75624240611E+02  0.88671675794E+02  0.00000000000E+00 0. -1.
</event>
<event>
 8    1  0.6637272E-009  0.1134766E+03  0.7561462E-02  0.1254264E+00
         -2   -1    0    0    0  501 -0.00000000000E+00  0.00000000000E+00  0.51434855077E+02  0.51434855077E+02  0.00000000000E+00 0.  1.
          2   -1    0    0  501    0  0.00000000000E+00 -0.00000000000E+00 -0.40362886419E+03  0.40362886419E+03  0.00000000000E+00 0. -1.
         25    2    1    2    0    0 -0.50722719711E+02 -0.60632456019E+02 -0.23488076536E+03  0.27760121974E+03  0.12507747297E+03 0.  0.
         23    2    1    2    0    0  0.50722719711E+02  0.60632456019E+02 -0.11731324375E+03  0.17746249953E+03  0.10715154017E+03 0.  0.
          5    1    3    3  502    0  0.32552378482E+02 -0.44649277705E+02 -0.13842503872E+03  0.14910459110E+03  0.41800000000E+01 0.  1.
         -5    1    3    3    0  502 -0.83275098193E+02 -0.15983178315E+02 -0.96455726647E+02  0.12849662864E+03  0.41800000000E+01 0.  1.
        -11    1    4    4    0    0  0.47879943246E+02  0.31370112379E+02 -0.74745225329E+00  0.57246236564E+02  0.00000000000E+00 0.  1.
         11    1    4    4    0    0  0.28427764656E+01  0.29262343640E+02 -0.11656579150E+03  0.12021626296E+03  0.00000000000E+00 0. -1.
</event>
<event>
 8    1  0.6637272E-009  0.8552806E+02  0.7561462E-02  0.1314057E+00
         -1   -1    0    0    0  501 -0.00000000000E+00  0.00000000000E+00  0.14256130578E+03  0.14256130578E+03  0.00000000000E+00 0.  1.
          1   -1    0    0  501    0  0.00000000000E+00 -0.00000000000E+00 -0.11441940925E+03  0.11441940925E+03  0.00000000000E+00 0. -1.
         25    2    1    2    0    0  0.49704887753E+02 -0.22034504194E+02 -0.24238920478E+02  0.13853419312E+03  0.12509237449E+03 0.  0.
         23    2    1    2    0    0 -0.49704887753E+02  0.22034504194E+02  0.52380817006E+02  0.11844652191E+03  0.91267372701E+02 0.  0.
          5    1    3    3  502    0  0.16847836745E+02  0.17438760377E+02  0.45557404712E+02  0.51777499849E+02  0.41800000000E+01 0.  1.
         -5    1    3    3    0  502  0.32857051008E+02 -0.39473264571E+02 -0.69796325190E+02  0.86756693268E+02  0.41800000000E+01 0.  1.
        -11    1    4    4    0    0 -0.19423924416E+02 -0.29399246314E+02  0.46684534682E+02  0.58489745272E+02  0.00000000000E+00 0.  1.
         11    1    4    4    0    0 -0.30280963337E+02  0.51433750508E+02  0.56962823241E+01  0.59956776633E+02  0.00000000000E+00 0. -1.
</event>
<event>
 8    1  0.6637272E-009  0.1072509E+03  0.7561462E-02  0.1265747E+00
          2   -1    0    0  501    0  0.00000000000E+00  0.00000000000E+00  0.65095284852E+02  0.65095284852E+02  0.00000000000E+00 0. -1.
         -2   -1    0    0    0  501 -0.00000000000E+00 -0.00000000000E+00 -0.22262852760E+03  0.22262852760E+03  0.00000000000E+00 0.  1.
         25    2    1    2    0    0  0.13225432856E+02  0.39673537328E+02 -0.12980720013E+03  0.18502909911E+03  0.12504781755E+03 0.  0.
         23    2    1    2    0    0 -0.13225432856E+02 -0.39673537328E+02 -0.27726042619E+02  0.10269471334E+03  0.89602282734E+02 0.  0.
          5    1    3    3  502    0 -0.18776038603E+02 -0.32356356708E+02 -0.58766266525E+01  0.38098301614E+02  0.41800000000E+01 0. -1.
         -5    1    3    3    0  502  0.32001471459E+02  0.72029894036E+02 -0.12393057348E+03  0.14693079750E+03  0.41800000000E+01 0. -1.
        -11    1    4    4    0    0  0.24473336690E+02 -0.52650161502E+02 -0.94048040615E+01  0.58816953801E+02  0.00000000000E+00 0.  1.
         11    1    4    4    0    0 -0.37698769546E+02  0.12976624174E+02 -0.18321238558E+02  0.43877759543E+02  0.00000000000E+00 0. -1.
</event>
<event>
 8    1  0.6637272E-009  0.1181882E+03  0.7561462E-02  0.1246116E+00
          3   -1    0    0  501    0  0.00000000000E+00  0.00000000000E+00  0.10877746977E+03  0.10877746977E+03  0.00000000000E+00 0. -1.
         -3   -1    0    0    0  501 -0.00000000000E+00 -0.00000000000E+00 -0.15807006183E+03  0.15807006183E+03  0.00000000000E+00 0.  1.
         25    2    1    2    0    0  0.62109722504E+02 -0.14097167809E+02  0.86956613972E+01  0.14064118685E+03  0.12509189079E+03 0.  0.
         23    2    1    2    0    0 -0.62109722504E+02  0.14097167809E+02 -0.57988253453E+02  0.12620634475E+03  0.92244545349E+02 0.  0.
          5    1    3    3  502    0  0.18009863806E+02 -0.59053508899E+02 -0.27687054907E+02  0.67791721597E+02  0.41800000000E+01 0. -1.
         -5    1    3    3    0  502  0.44099858698E+02  0.44956341090E+02  0.36382716304E+02  0.72849465249E+02  0.41800000000E+01 0. -1.
        -11    1    4    4    0    0 -0.20425839257E+02 -0.38912000897E+02 -0.29905693280E+02  0.53157400367E+02  0.00000000000E+00 0.  1.
         11    1    4    4    0    0 -0.41683883247E+02  0.53009168707E+02 -0.28082560173E+02  0.73048944382E+02  0.00000000000E+00 0. -1.
</event>
<event>
 8    1  0.6637272E-009  0.1198591E+03  0.7561462E-02  0.1243330E+00
          2   -1    0    0  501    0  0.00000000000E+00  0.00000000000E+00  0.86737078034E+03  0.86737078034E+03  0.00000000000E+00 0. -1.
         -2   -1    0    0    0  501 -0.00000000000E+00 -0.00000000000E+00 -0.17702522097E+02  0.17702522097E+02  0.00000000000E+00 0.  1.
         25    2    1    2    0    0 -0.43013940272E+02 -0.41295114579E+02  0.43433946228E+03  0.45591089251E+03  0.12509391621E+03 0.  0.
         23    2    1    2    0    0  0.43013940272E+02  0.41295114579E+02  0.41532879597E+03  0.42916240993E+03  0.90149208474E+02 0.  0.
          5    1    3    3  502    0  0.24871431380E+02 -0.57780197535E+02  0.14294171998E+03  0.15622722886E+03  0.41800000000E+01 0.  1.
         -5    1    3    3    0  502 -0.67885371652E+02  0.16485082956E+02  0.29139774230E+03  0.29968366365E+03  0.41800000000E+01 0.  1.
        -11    1    4    4    0    0  0.26753106551E+02 -0.26091444485E+02  0.11424508237E+03  0.12020162658E+03  0.00000000000E+00 0.  1.
         11    1    4    4    0    0  0.16260833721E+02  0.67386559065E+02  0.30108371360E+03  0.30896078335E+03  0.00000000000E+00 0. -1.
</event>
<event>
 8    1  0.6637272E-009  0.1835457E+03  0.7561462E-02  0.1164415E+00
         -2   -1    0    0    0  501 -0.00000000000E+00  0.00000000000E+00  0.92327969950E+02  0.92327969950E+02  0.00000000000E+00 0.  1.
          2   -1    0    0  501    0  0.00000000000E+00 -0.00000000000E+00 -0.49952580888E+03  0.49952580888E+03  0.00000000000E+00 0. -1.
         25    2    1    2    0    0  0.15076803696E+03 -0.72099246810E+02 -0.10332657469E+03  0.23292282195E+03  0.12508939838E+03 0.  0.
         23    2    1    2    0    0 -0.15076803696E+03  0.72099246810E+02 -0.30387126424E+03  0.35893095689E+03  0.92543958302E+02 0.  0.
          5    1    3    3  502    0  0.62672939474E+02 -0.38686791455E+00 -0.10134889091E+03  0.11923555299E+03  0.41800000000E+01 0. -1.
         -5    1    3    3    0  502  0.88095097489E+02 -0.71712378895E+02 -0.19776837766E+01  0.11368726895E+03  0.41800000000E+01 0. -1.
        -11    1    4    4    0    0 -0.88649613468E+02  0.89628616946E+02 -0.21208473166E+03  0.24672246827E+03  0.00000000000E+00 0.  1.
         11    1    4    4    0    0 -0.62118423495E+02 -0.17529370136E+02 -0.91786532582E+02  0.11220848862E+03  0.00000000000E+00 0. -1.
</event>
<event>
 8    1  0.6637272E-009  0.6158287E+02  0.7561462E-02  0.1391307E+00
          2   -1    0    0  501    0  0.00000000000E+00  0.00000000000E+00  0.15815740245E+03  0.15815740245E+03  0.00000000000E+00 0. -1.
         -2   -1    0    0    0  501 -0.00000000000E+00 -0.00000000000E+00 -0.95189100565E+02  0.95189100565E+02  0.00000000000E+00 0.  1.
         25    2    1    2    0    0 -0.49739387741E+02 -0.25427194821E+02  0.41090804862E+02  0.14302661561E+03  0.12509040571E+03 0.  0.
         23    2    1    2    0    0  0.49739387741E+02  0.25427194821E+02  0.21877497022E+02  0.11031988740E+03  0.92581335865E+02 0.  0.
          5    1    3    3  502    0 -0.11933233549E+02 -0.14827622805E+02  0.83111227328E+02  0.85365150788E+02  0.41800000000E+01 0.  1.
         -5    1    3    3    0  502 -0.37806154192E+02 -0.10599572016E+02 -0.42020422466E+02  0.57661464827E+02  0.41800000000E+01 0.  1.
        -11    1    4    4    0    0  0.49026301265E+02  0.11642057304E+02 -0.28633444043E+02  0.57956792801E+02  0.00000000000E+00 0.  1.
         11    1    4    4    0    0  0.71308647580E+00  0.13785137517E+02  0.50510941065E+02  0.52363094599E+02  0.00000000000E+00 0. -1.
</event>
<event>
 8    1  0.6637272E-009  0.1107730E+03  0.7561462E-02  0.1259145E+00
          2   -1    0    0  501    0  0.00000000000E+00  0.00000000000E+00  0.26793542526E+03  0.26793542526E+03  0.00000000000E+00 0. -1.
         -2   -1    0    0    0  501 -0.00000000000E+00 -0.00000000000E+00 -0.50549014897E+02  0.50549014897E+02  0.00000000000E+00 0.  1.
         25    2    1    2    0    0 -0.41762664097E+02 -0.13514573975E+02  0.12896257199E+03  0.18494676380E+03  0.12508875506E+03 0.  0.
         23    2    1    2    0    0  0.41762664097E+02  0.13514573975E+02  0.88423838381E+02  0.13353767636E+03  0.89926481042E+02 0.  0.
          5    1    3    3  502    0 -0.57153570983E+00  0.52279167152E+02  0.35275057428E+02  0.63207911275E+02  0.41800000000E+01 0. -1.
         -5    1    3    3    0  502 -0.41191128387E+02 -0.65793741127E+02  0.93687514558E+02  0.12173885252E+03  0.41800000000E+01 0. -1.
        -11    1    4    4    0    0 -0.10910301950E+02 -0.24221038661E+02  0.36157268562E+01  0.26809828108E+02  0.00000000000E+00 0.  1.
         11    1    4    4    0    0  0.52672966047E+02  0.37735612636E+02  0.84808111525E+02  0.10672784826E+03  0.00000000000E+00 0. -1.
</event>
<event>
 8    1  0.6637272E-009  0.1232365E+03  0.7561462E-02  0.1237851E+00
         -2   -1    0    0    0  501 -0.00000000000E+00  0.00000000000E+00  0.17451054766E+02  0.17451054766E+02  0.00000000000E+00 0. -1.
          2   -1    0    0  501    0  0.00000000000E+00 -0.00000000000E+00 -0.23879317522E+04  0.23879317522E+04  0.00000000000E+00 0.  1.
         25    2    1    2    0    0 -0.96988635891E+02  0.28532325030E+02 -0.20595364746E+04  0.20658076728E+04  0.12509980703E+03 0.  0.
         23    2    1    2    0    0  0.96988635891E+02 -0.28532325030E+02 -0.31094422285E+03  0.33957513418E+03  0.91673731071E+02 0.  0.
          5    1    3    3  502    0 -0.10192960216E+03  0.49622409031E+02 -0.10647069957E+04  0.10707336207E+04  0.41800000000E+01 0. -1.
         -5    1    3    3    0  502  0.49409662705E+01 -0.21090084001E+02 -0.99482947891E+03  0.99507405217E+03  0.41800000000E+01 0. -1.
        -11    1    4    4    0    0  0.49968324400E+02 -0.38282958618E+02 -0.71058186867E+02  0.94929891418E+02  0.00000000000E+00 0. -1.
         11    1    4    4    0    0  0.47020311491E+02  0.97506335889E+01 -0.23988603598E+03  0.24464524276E+03  0.00000000000E+00 0.  1.
</event>
<event>
 8    1  0.6637272E-009  0.8457259E+02  0.7561462E-02  0.1316554E+00
          1   -1    0    0  501    0  0.00000000000E+00  0.00000000000E+00  0.79351623365E+03  0.79351623365E+03  0.00000000000E+00 0. -1.
         -1   -1    0    0    0  501 -0.00000000000E+00 -0.00000000000E+00 -0.15293126620E+02  0.15293126620E+02  0.00000000000E+00 0.  1.
         25    2    1    2    0    0  0.73095232556E+01 -0.16532849346E+02  0.41034375942E+03  0.42936650030E+03  0.12508727534E+03 0.  0.
         23    2    1    2    0    0 -0.73095232556E+01  0.16532849346E+02  0.36787934761E+03  0.37944285996E+03  0.91186102796E+02 0.  0.
          5    1    3    3  502    0  0.16748292966E+02 -0.43815308328E+02  0.53263788364E+02  0.71097047140E+02  0.41800000000E+01 0.  1.
         -5    1    3    3    0  502 -0.94387697103E+01  0.27282458982E+02  0.35707997106E+03  0.35826945316E+03  0.41800000000E+01 0.  1.
        -11    1    4    4    0    0  0.12070107951E+01  0.54225618160E+02  0.22246290031E+03  0.22897951121E+03  0.00000000000E+00 0.  1.
         11    1    4    4    0    0 -0.85165340506E+01 -0.37692768815E+02  0.14541644730E+03  0.15046334875E+03  0.00000000000E+00 0. -1.
</event>
<event>
 8    1  0.6637272E-009  0.8283230E+02  0.7561462E-02  0.1321201E+00
          2   -1    0    0  501    0  0.00000000000E+00  0.00000000000E+00  0.23896766840E+03  0.23896766840E+03  0.00000000000E+00 0.  1.
         -2   -1    0    0    0  501 -0.00000000000E+00 -0.00000000000E+00 -0.57790116954E+02  0.57790116954E+02  0.00000000000E+00 0. -1.
         25    2    1    2    0    0 -0.27010128772E+02  0.25119641593E+02  0.73099056466E+02  0.14950678015E+03  0.12509301261E+03 0.  0.
         23    2    1    2    0    0  0.27010128772E+02 -0.25119641593E+02  0.10807849498E+03  0.14725100520E+03  0.92958883419E+02 0.  0.
          5    1    3    3  502    0  0.15763630284E+02  0.13498049837E+02  0.96787702408E+02  0.99075835230E+02  0.41800000000E+01 0. -1.
         -5    1    3    3    0  502 -0.42773759056E+02  0.11621591755E+02 -0.23688645942E+02  0.50430944918E+02  0.41800000000E+01 0. -1.
        -11    1    4    4    0    0 -0.34796292614E+02 -0.11850692363E+02  0.37848885215E+02  0.52761340024E+02  0.00000000000E+00 0. -1.
         11    1    4    4    0    0  0.61806421386E+02 -0.13268949230E+02  0.70229609760E+02  0.94489665177E+02  0.00000000000E+00 0.  1.
</event>
<event>
 8    1  0.6637272E-009  0.1202641E+03  0.7561462E-02  0.1242662E+00
         -1   -1    0    0    0  501 -0.00000000000E+00  0.00000000000E+00  0.59089866305E+03  0.59089866305E+03  0.00000000000E+00 0.  1.
          1   -1    0    0  501    0  0.00000000000E+00 -0.00000000000E+00 -0.33413022565E+02  0.33413022565E+02  0.00000000000E+00 0. -1.
         25    2    1    2    0    0  0.68553356808E+02  0.10581896691E+02  0.18468965659E+03  0.23360230264E+03  0.12509287461E+03 0.  0.
         23    2    1    2    0    0 -0.68553356808E+02 -0.10581896691E+02  0.37279598389E+03  0.39070938297E+03  0.94156449974E+02 0.  0.
          5    1    3    3  502    0  0.36151197253E+00  0.59024528805E+02  0.81059312257E+02  0.10035990332E+03  0.41800000000E+01 0.  1.
         -5    1    3    3    0  502  0.68191844835E+02 -0.48442632113E+02  0.10363034434E+03  0.13324239932E+03  0.41800000000E+01 0.  1.
        -11    1    4    4    0    0 -0.51849769240E+02  0.25545741239E+02  0.31667515510E+03  0.32190703211E+03  0.00000000000E+00 0.  1.
         11    1    4    4    0    0 -0.16703587567E+02 -0.36127637930E+02  0.56120828794E+02  0.68802350865E+02  0.00000000000E+00 0. -1.
</event>
<event>
 8    1  0.6637272E-009  0.1117247E+03  0.7561462E-02  0.1257409E+00
          1   -1    0    0  501    0  0.00000000000E+00  0.00000000000E+00  0.60934728082E+03  0.60934728082E+03  0.00000000000E+00 0. -1.
         -1   -1    0    0    0  501 -0.00000000000E+00 -0.00000000000E+00 -0.27933137476E+02  0.27933137476E+02  0.00000000000E+00 0.  1.
         25    2    1    2    0    0  0.16669272510E+02 -0.58144830857E+02  0.42458934871E+03  0.44674572186E+03  0.12508772506E+03 0.  0.
         23    2    1    2    0    0 -0.16669272510E+02  0.58144830857E+02  0.15682479463E+03  0.19053469643E+03  0.89726073867E+02 0.  0.
          5    1    3    3  502    0 -0.41440223922E+02 -0.36900068738E+02  0.32274881095E+03  0.32751057174E+03  0.41800000000E+01 0. -1.
         -5    1    3    3    0  502  0.58109496433E+02 -0.21244762120E+02  0.10184053777E+03  0.11923515013E+03  0.41800000000E+01 0. -1.
        -11    1    4    4    0    0  0.30540712324E+02  0.48948350429E+02  0.65262818908E+02  0.87108619842E+02  0.00000000000E+00 0.  1.
         11    1    4    4    0    0 -0.47209984835E+02  0.91964804284E+01  0.91561975718E+02  0.10342607659E+03  0.00000000000E+00 0. -1.
</event>
<event>
 8    1  0.6637272E-009  0.1007934E+03  0.7561462E-02  0.1278636E+00
          2   -1    0    0  501    0  0.00000000000E+00  0.00000000000E+00  0.14678066991E+03  0.14678066991E+03  0.00000000000E+00 0. -1.
         -2   -1    0    0    0  501 -0.00000000000E+00 -0.00000000000E+00 -0.11907475403E+03  0.11907475403E+03  0.00000000000E+00 0.  1.
         25    2    1    2    0    0  0.14330793445E+02 -0.15803963040E+02  0.87182326451E+02  0.15395787411E+03  0.12508849694E+03 0.  0.
         23    2    1    2    0    0 -0.14330793445E+02  0.15803963040E+02 -0.59476410569E+02  0.11189754983E+03  0.92349777237E+02 0.  0.
          5    1    3    3  502    0 -0.16771561176E+02 -0.54663271261E+02  0.86779811828E+02  0.10400753160E+03  0.41800000000E+01 0.  1.
         -5    1    3    3    0  502  0.31102354621E+02  0.38859308221E+02  0.40251462272E+00  0.49950342505E+02  0.41800000000E+01 0.  1.
        -11    1    4    4    0    0 -0.52345494240E+02 -0.18827490892E+01 -0.38560274227E+02  0.65042219057E+02  0.00000000000E+00 0.  1.
         11    1    4    4    0    0  0.38014700796E+02  0.17686712129E+02 -0.20916136342E+02  0.46855330774E+02  0.00000000000E+00 0. -1.
</event>
<event>
 8    1  0.6637272E-009  0.1346881E+03  0.7561462E-02  0.1220661E+00
          1   -1    0    0  501    0  0.00000000000E+00  0.00000000000E+00  0.36358366960E+03  0.36358366960E+03  0.00000000000E+00 0. -1.
         -1   -1    0    0    0  501 -0.00000000000E+00 -0.00000000000E+00 -0.13385840765E+03  0.13385840765E+03  0.00000000000E+00 0.  1.
         25    2    1    2    0    0  0.85165306613E+02 -0.62373675977E+02 -0.61300821185E+02  0.17478431304E+03  0.12509260770E+03 0.  0.
         23    2    1    2    0    0 -0.85165306613E+02  0.62373675977E+02  0.29102608314E+03  0.32265776421E+03  0.90929900677E+02 0.  0.
          5    1    3    3  502    0  0.55999855161E+02  0.31455554351E+02 -0.15031624111E+02  0.66097335809E+02  0.41800000000E+01 0.  1.
         -5    1    3    3    0  502  0.29165451452E+02 -0.93829230328E+02 -0.46269197073E+02  0.10868697723E+03  0.41800000000E+01 0.  1.
        -11    1    4    4    0    0 -0.55751969885E+02  0.31556189739E+02  0.60120801676E+02  0.87855483899E+02  0.00000000000E+00 0.  1.
         11    1    4    4    0    0 -0.29413336728E+02  0.30817486238E+02  0.23090528146E+03  0.23480228032E+03  0.00000000000E+00 0. -1.
</event>
<event>
 8    1  0.6637272E-009  0.1041058E+03  0.7561462E-02  0.1271892E+00
         -2   -1    0    0    0  501 -0.00000000000E+00  0.00000000000E+00  0.44270527560E+02  0.44270527560E+02  0.00000000000E+00 0.  1.
          2   -1    0    0  501    0  0.00000000000E+00 -0.00000000000E+00 -0.34416314380E+03  0.34416314380E+03  0.00000000000E+00 0. -1.
         25    2    1    2    0    0 -0.34333019922E+02  0.34868568357E+02 -0.21736357699E+03  0.25551772401E+03  0.12509120418E+03 0.  0.
         23    2    1    2    0    0  0.34333019922E+02 -0.34868568357E+02 -0.82529039248E+02  0.13291594735E+03  0.91983875899E+02 0.  0.
          5    1    3    3  502    0  0.50518652082E+00 -0.41895444328E+02 -0.35698313036E+02  0.55202585288E+02  0.41800000000E+01 0.  1.
         -5    1    3    3    0  502 -0.34838206442E+02  0.76764012686E+02 -0.18166526395E+03  0.20031513872E+03  0.41800000000E+01 0.  1.
        -11    1    4    4    0    0 -0.62988300131E+01  0.15650471639E+02  0.10242350338E+02  0.19736217026E+02  0.00000000000E+00 0.  1.
         11    1    4    4    0    0  0.40631849935E+02 -0.50519039997E+02 -0.92771389586E+02  0.11317973033E+03  0.00000000000E+00 0. -1.
</event>
<event>
 8    1  0.6637272E-009  0.9531616E+02  0.7561462E-02  0.1290466E+00
         -1   -1    0    0    0  501 -0.00000000000E+00  0.00000000000E+00  0.17089365820E+03  0.17089365820E+03  0.00000000000E+00 0.  1.
          1   -1    0    0  501    0  0.00000000000E+00 -0.00000000000E+00 -0.88785769504E+02  0.88785769504E+02  0.00000000000E+00 0. -1.
         25    2    1    2    0    0 -0.44430816817E+02  0.42826749540E+00  0.85815084821E+02  0.15807052789E+03  0.12509109524E+03 0.  0.
         23    2    1    2    0    0  0.44430816817E+02 -0.42826749540E+00 -0.37071961253E+01  0.10160889982E+03  0.91303583296E+02 0.  0.
          5    1    3    3  502    0 -0.11458562597E+02  0.46062185226E+02 -0.82560326068E+01  0.48359673685E+02  0.41800000000E+01 0. -1.
         -5    1    3    3    0  502 -0.32972254220E+02 -0.45633917730E+02  0.94071117428E+02  0.10971085420E+03  0.41800000000E+01 0. -1.
        -11    1    4    4    0    0 -0.14026362849E+02 -0.20397165197E+02 -0.26033908371E+02  0.35924192238E+02  0.00000000000E+00 0. -1.
         11    1    4    4    0    0  0.58457179665E+02  0.19968897702E+02  0.22326712246E+02  0.65684707578E+02  0.00000000000E+00 0.  1.
</event>
<event>
 8    1  0.6637272E-009  0.1606904E+03  0.7561462E-02  0.1187919E+00
         -2   -1    0    0    0  501 -0.00000000000E+00  0.00000000000E+00  0.12361202297E+03  0.12361202297E+03  0.00000000000E+00 0. -1.
          2   -1    0    0  501    0  0.00000000000E+00 -0.00000000000E+00 -0.28653290691E+03  0.28653290691E+03  0.00000000000E+00 0.  1.
         25    2    1    2    0    0  0.72656898684E+02  0.10088177481E+03  0.10963875226E+02  0.17670045108E+03  0.12508671168E+03 0.  0.
         23    2    1    2    0    0 -0.72656898684E+02 -0.10088177481E+03 -0.17388475917E+03  0.23344447879E+03  0.93831006557E+02 0.  0.
          5    1    3    3  502    0 -0.34392931215E+02  0.40805664983E+02  0.27884391053E+01  0.53602460810E+02  0.41800000000E+01 0.  1.
         -5    1    3    3    0  502  0.10704982990E+03  0.60076109830E+02  0.81754361208E+01  0.12309799027E+03  0.41800000000E+01 0.  1.
        -11    1    4    4    0    0 -0.78581256905E+02 -0.48572987099E+02 -0.66426319058E+02  0.11378402733E+03  0.00000000000E+00 0. -1.
         11    1    4    4    0    0  0.59243582213E+01 -0.52308787714E+02 -0.10745844011E+03  0.11966045146E+03  0.00000000000E+00 0.  1.
</event>
<event>
 8    1  0.6637272E-009  0.6017731E+02  0.7561462E-02  0.1397089E+00
          1   -1    0    0  501    0  0.00000000000E+00  0.00000000000E+00  0.14243705779E+02  0.14243705779E+02  0.00000000000E+00 0. -1.
         -1   -1    0    0    0  501 -0.00000000000E+00 -0.00000000000E+00 -0.87041396820E+03  0.87041396820E+03  0.00000000000E+00 0.  1.
         25    2    1    2    0    0  0.11555651392E+02 -0.30738474743E+01 -0.56333729609E+03  0.57718249760E+03  0.12509094592E+03 0.  0.
         23    2    1    2    0    0 -0.11555651392E+02  0.30738474743E+01 -0.29283296633E+03  0.30747517638E+03  0.92988474028E+02 0.  0.
          5    1    3    3  502    0  0.15389080933E+02  0.13855771190E+02 -0.96801722001E+01  0.23237563148E+02  0.41800000000E+01 0.  1.
         -5    1    3    3    0  502 -0.38334295410E+01 -0.16929618664E+02 -0.55365712389E+03  0.55394493445E+03  0.41800000000E+01 0.  1.
        -11    1    4    4    0    0 -0.46308681217E+02 -0.14331184338E+01 -0.85919901528E+02  0.97615456067E+02  0.00000000000E+00 0. -1.
         11    1    4    4    0    0  0.34753029825E+02  0.45069659081E+01 -0.20691306480E+03  0.20985972031E+03  0.00000000000E+00 0.  1.
</event>
<event>
 8    1  0.6637272E-009  0.1096449E+03  0.7561462E-02  0.1261229E+00
          1   -1    0    0  501    0  0.00000000000E+00  0.00000000000E+00  0.55664150602E+02  0.55664150602E+02  0.00000000000E+00 0. -1.
         -1   -1    0    0    0  501 -0.00000000000E+00 -0.00000000000E+00 -0.24716729779E+03  0.24716729779E+03  0.00000000000E+00 0.  1.
         25    2    1    2    0    0 -0.26743083875E+02  0.36736765168E+02 -0.80586874976E+02  0.15559724893E+03  0.12510586320E+03 0.  0.
         23    2    1    2    0    0  0.26743083875E+02 -0.36736765168E+02 -0.11091627221E+03  0.14723419946E+03  0.85502675975E+02 0.  0.
          5    1    3    3  502    0 -0.14760159424E+02 -0.45049989865E+02 -0.45028887271E+02  0.65516692391E+02  0.41800000000E+01 0. -1.
         -5    1    3    3    0  502 -0.11982924451E+02  0.81786755033E+02 -0.35557987705E+02  0.90080556542E+02  0.41800000000E+01 0. -1.
        -11    1    4    4    0    0  0.21219620946E+02 -0.60721041199E+02 -0.10289990523E+03  0.12134952679E+03  0.00000000000E+00 0.  1.
         11    1    4    4    0    0  0.55234629285E+01  0.23984276031E+02 -0.80163669877E+01  0.25884672668E+02  0.00000000000E+00 0. -1.
</event>
<event>
 8    1  0.6637272E-009  0.1549860E+03  0.7561462E-02  0.1194477E+00
          2   -1    0    0  501    0  0.00000000000E+00  0.00000000000E+00  0.19223054813E+04  0.19223054813E+04  0.00000000000E+00 0. -1.
         -2   -1    0    0    0  501 -0.00000000000E+00 -0.00000000000E+00 -0.13153779230E+02  0.13153779230E+02  0.00000000000E+00 0.  1.
         25    2    1    2    0    0 -0.10169843912E+03 -0.45499123352E+02  0.11914161153E+04  0.12031343344E+04  0.12508846524E+03 0.  0.
         23    2    1    2    0    0  0.10169843912E+03  0.45499123352E+02  0.71773558677E+03  0.73232492610E+03  0.93502310834E+02 0.  0.
          5    1    3    3  502    0 -0.13154128126E+01  0.36617722722E+02  0.31816391260E+03  0.32029413921E+03  0.41800000000E+01 0. -1.
         -5    1    3    3    0  502 -0.10038302630E+03 -0.82116846074E+02  0.87325220269E+03  0.88284019522E+03  0.41800000000E+01 0. -1.
        -11    1    4    4    0    0 -0.55546283538E+01  0.35146190142E+02  0.12937557137E+03  0.13417953289E+03  0.00000000000E+00 0.  1.
         11    1    4    4    0    0  0.10725306747E+03  0.10352933210E+02  0.58836001540E+03  0.59814539322E+03  0.00000000000E+00 0. -1.
</event>
<event>
 8    1  0.6637272E-009  0.1183557E+03  0.7561462E-02  0.1245835E+00
          2   -1    0    0  501    0  0.00000000000E+00  0.00000000000E+00  0.28508584256E+03  0.28508584256E+03  0.00000000000E+00 0. -1.
         -2   -1    0    0    0  501 -0.00000000000E+00 -0.00000000000E+00 -0.51623764465E+02  0.51623764465E+02  0.00000000000E+00 0.  1.
         25    2    1    2    0    0 -0.47683706106E+02  0.18101403851E+02  0.10765116185E+03  0.17273554997E+03  0.12508957162E+03 0.  0.
         23    2    1    2    0    0  0.47683706106E+02 -0.18101403851E+02  0.12581091624E+03  0.16397405705E+03  0.91965798481E+02 0.  0.
          5    1    3    3  502    0 -0.89327984509E+02  0.43779428458E+00  0.66531379118E+02  0.11146110213E+03  0.41800000000E+01 0.  1.
         -5    1    3    3    0  502  0.41644278403E+02  0.17663609566E+02  0.41119782729E+02  0.61274447841E+02  0.41800000000E+01 0.  1.
        -11    1    4    4    0    0 -0.30922996788E+01 -0.44514166591E+02  0.35349276286E+02  0.56926660525E+02  0.00000000000E+00 0. -1.
         11    1    4    4    0    0  0.50776005785E+02  0.26412762740E+02  0.90461639958E+02  0.10704739653E+03  0.00000000000E+00 0.  1.
</event>
<event>
 8    1  0.6637272E-009  0.9011778E+02  0.7561462E-02  0.1302567E+00
         -1   -1    0    0    0  501 -0.00000000000E+00  0.00000000000E+00  0.13861674462E+02  0.13861674462E+02  0.00000000000E+00 0.  1.
          1   -1    0    0  501    0  0.00000000000E+00 -0.00000000000E+00 -0.10976522419E+04  0.10976522419E+04  0.00000000000E+00 0. -1.
         25    2    1    2    0    0 -0.29511240159E+02  0.91447208177E+01 -0.82620506558E+03  0.83619175240E+03  0.12508915690E+03 0.  0.
         23    2    1    2    0    0  0.29511240159E+02 -0.91447208177E+01 -0.25758550184E+03  0.27532216395E+03  0.92181690086E+02 0.  0.
          5    1    3    3  502    0 -0.61070581545E+02  0.57303882240E+01 -0.76170467553E+03  0.76418187521E+03  0.41800000000E+01 0.  1.
         -5    1    3    3    0  502  0.31559341385E+02  0.34143325937E+01 -0.64500390049E+02  0.72009877185E+02  0.41800000000E+01 0.  1.
        -11    1    4    4    0    0 -0.16023716914E+02 -0.32000210515E+02 -0.17229789710E+03  0.17597539124E+03  0.00000000000E+00 0. -1.
         11    1    4    4    0    0  0.45534957073E+02  0.22855489697E+02 -0.85287604741E+02  0.99346772708E+02  0.00000000000E+00 0.  1.
</event>
<event>
 8    1  0.6637272E-009  0.9575264E+02  0.7561462E-02  0.1289490E+00
          1   -1    0    0  501    0  0.00000000000E+00  0.00000000000E+00  0.89341884311E+03  0.89341884311E+03  0.00000000000E+00 0. -1.
         -1   -1    0    0    0  501 -0.00000000000E+00 -0.00000000000E+00 -0.31096271001E+02  0.31096271001E+02  0.00000000000E+00 0.  1.
         25    2    1    2    0    0  0.45809349009E+02  0.11552745450E+02  0.78292076380E+03  0.79425694461E+03  0.12508880556E+03 0.  0.
         23    2    1    2    0    0 -0.45809349009E+02 -0.11552745450E+02  0.79401808307E+02  0.13025816951E+03  0.91818196326E+02 0.  0.
          5    1    3    3  502    0  0.16886954017E+02 -0.32308995576E+02  0.65331248086E+03  0.65434219675E+03  0.41800000000E+01 0.  1.
         -5    1    3    3    0  502  0.28922394993E+02  0.43861741026E+02  0.12960828295E+03  0.13991474785E+03  0.41800000000E+01 0.  1.
        -11    1    4    4    0    0  0.12051840988E+02  0.29029056560E+02  0.33764170294E+02  0.46129732187E+02  0.00000000000E+00 0. -1.
         11    1    4    4    0    0 -0.57861189998E+02 -0.40581802010E+02  0.45637638013E+02  0.84128437319E+02  0.00000000000E+00 0.  1.
</event>
<event>
 8    1  0.6637272E-009  0.2247292E+03  0.7561462E-02  0.1130406E+00
          2   -1    0    0  501    0  0.00000000000E+00  0.00000000000E+00  0.38001817954E+03  0.38001817954E+03  0.00000000000E+00 0. -1.
         -2   -1    0    0    0  501 -0.00000000000E+00 -0.00000000000E+00 -0.15117639129E+03  0.15117639129E+03  0.00000000000E+00 0.  1.
         25    2    1    2    0    0  0.14689186025E+03 -0.15347368630E+03  0.13973291869E+03  0.28337902951E+03  0.12508794830E+03 0.  0.
         23    2    1    2    0    0 -0.14689186025E+03  0.15347368630E+03  0.89108869555E+02  0.24781554132E+03  0.91327766268E+02 0.  0.
          5    1    3    3  502    0 -0.53126372765E+01 -0.24375348639E+02  0.65814525711E+02  0.70508197613E+02  0.41800000000E+01 0.  1.
         -5    1    3    3    0  502  0.15220449752E+03 -0.12909833766E+03  0.73918392978E+02  0.21287083190E+03  0.41800000000E+01 0.  1.
        -11    1    4    4    0    0 -0.67280345190E+02  0.21901792785E+02  0.56661470874E+02  0.90646873402E+02  0.00000000000E+00 0. -1.
         11    1    4    4    0    0 -0.79611515056E+02  0.13157189351E+03  0.32447398681E+02  0.15716866791E+03  0.00000000000E+00 0.  1.
</event>
<event>
 8    1  0.6637272E-009  0.1239372E+03  0.7561462E-02  0.1236740E+00
          1   -1    0    0  501    0  0.00000000000E+00  0.00000000000E+00  0.69544962838E+03  0.69544962838E+03  0.00000000000E+00 0. -1.
         -1   -1    0    0    0  501 -0.00000000000E+00 -0.00000000000E+00 -0.25409012637E+02  0.25409012637E+02  0.00000000000E+00 0.  1.
         25    2    1    2    0    0 -0.39033078853E+02  0.50351238979E+02  0.43680424530E+03  0.45880708287E+03  0.12508861685E+03 0.  0.
         23    2    1    2    0    0  0.39033078853E+02 -0.50351238979E+02  0.23323637045E+03  0.26205155815E+03  0.10105931981E+03 0.  0.
          5    1    3    3  502    0 -0.49751829486E+02  0.87313166956E+02  0.28833548114E+03  0.30537461542E+03  0.41800000000E+01 0. -1.
         -5    1    3    3    0  502  0.10718750633E+02 -0.36961927977E+02  0.14846876416E+03  0.15343246745E+03  0.41800000000E+01 0. -1.
        -11    1    4    4    0    0  0.66273686657E+02 -0.46755488675E+02  0.11538144052E+03  0.14103600278E+03  0.00000000000E+00 0.  1.
         11    1    4    4    0    0 -0.27240607803E+02 -0.35957503037E+01  0.11785492992E+03  0.12101555537E+03  0.00000000000E+00 0. -1.
</event>
<event>
 8    1  0.6637272E-009  0.1100804E+03  0.7561462E-02  0.1260421E+00
         -1   -1    0    0    0  501 -0.00000000000E+00  0.00000000000E+00  0.33581035330E+03  0.33581035330E+03  0.00000000000E+00 0.  1.
          1   -1    0    0  501    0  0.00000000000E+00 -0.00000000000E+00 -0.44271074542E+02  0.44271074542E+02  0.00000000000E+00 0. -1.
         25    2    1    2    0    0  0.25420622193E+02 -0.42293054906E+02  0.12758007034E+03  0.18536044773E+03  0.12508761214E+03 0.  0.
         23    2    1    2    0    0 -0.25420622193E+02  0.42293054906E+02  0.16395920842E+03  0.19472098011E+03  0.92729324073E+02 0.  0.
          5    1    3    3  502    0  0.23701177236E+02  0.42730418870E+02  0.52491639053E+02  0.71836474508E+02  0.41800000000E+01 0.  1.
         -5    1    3    3    0  502  0.17194449567E+01 -0.85023473776E+02  0.75088431285E+02  0.11352397323E+03  0.41800000000E+01 0.  1.
        -11    1    4    4    0    0 -0.15154257928E+02 -0.18731056511E+02  0.56503256741E+01  0.24747326958E+02  0.00000000000E+00 0. -1.
         11    1    4    4    0    0 -0.10266364265E+02  0.61024111416E+02  0.15830888274E+03  0.16997365315E+03  0.00000000000E+00 0.  1.
</event>
<event>
 8    1  0.6637272E-009  0.1136577E+03  0.7561462E-02  0.1253942E+00
         -3   -1    0    0    0  501 -0.00000000000E+00  0.00000000000E+00  0.28434721792E+02  0.28434721792E+02  0.00000000000E+00 0.  1.
          3   -1    0    0  501    0  0.00000000000E+00 -0.00000000000E+00 -0.59238304602E+03  0.59238304602E+03  0.00000000000E+00 0. -1.
         25    2    1    2    0    0  0.49042419226E+02  0.10028745193E+02 -0.43387958810E+03  0.45431722205E+03  0.12508759597E+03 0.  0.
         23    2    1    2    0    0 -0.49042419226E+02 -0.10028745193E+02 -0.13006873612E+03  0.16650054576E+03  0.91097865000E+02 0.  0.
          5    1    3    3  502    0  0.68891514651E+01 -0.49588198409E+02 -0.93218819085E+02  0.10589461960E+03  0.41800000000E+01 0. -1.
         -5    1    3    3    0  502  0.42153267761E+02  0.59616943603E+02 -0.34066076902E+03  0.34842260245E+03  0.41800000000E+01 0. -1.
        -11    1    4    4    0    0  0.12034143055E+02 -0.35712702615E+02 -0.47657903995E+02  0.60757662400E+02  0.00000000000E+00 0.  1.
         11    1    4    4    0    0 -0.61076562281E+02  0.25683957422E+02 -0.82410832125E+02  0.10574288336E+03  0.00000000000E+00 0. -1.
</event>
<event>
 8    1  0.6637272E-009  0.1035704E+03  0.7561462E-02  0.1272962E+00
          1   -1    0    0  501    0  0.00000000000E+00  0.00000000000E+00  0.33240743265E+03  0.33240743265E+03  0.00000000000E+00 0. -1.
         -1   -1    0    0    0  501 -0.00000000000E+00 -0.00000000000E+00 -0.59299892269E+02  0.59299892269E+02  0.00000000000E+00 0.  1.
         25    2    1    2    0    0  0.50687991525E+02 -0.73402850870E+02  0.14212146482E+03  0.20929612822E+03  0.12509639293E+03 0.  0.
         23    2    1    2    0    0 -0.50687991525E+02  0.73402850870E+02  0.13098607556E+03  0.18241119670E+03  0.90328520914E+02 0.  0.
          5    1    3    3  502    0  0.23875602105E+02 -0.22962720402E+02  0.14799942649E+03  0.15171892942E+03  0.41800000000E+01 0.  1.
         -5    1    3    3    0  502  0.26812389420E+02 -0.50440130468E+02 -0.58779616645E+01  0.57577198797E+02  0.41800000000E+01 0.  1.
        -11    1    4    4    0    0 -0.46316131739E+02  0.35129479021E+01  0.89980581880E+02  0.10126218434E+03  0.00000000000E+00 0. -1.
         11    1    4    4    0    0 -0.43718597866E+01  0.69889902968E+02  0.41005493677E+02  0.81149012357E+02  0.00000000000E+00 0.  1.
</event>
<event>
 8    1  0.6637272E-009  0.6402322E+02  0.7561462E-02  0.1381684E+00
         -2   -1    0    0    0  501 -0.00000000000E+00  0.00000000000E+00  0.14326930858E+03  0.14326930858E+03  0.00000000000E+00 0.  1.
          2   -1    0    0  501    0  0.00000000000E+00 -0.00000000000E+00 -0.10039912797E+03  0.10039912797E+03  0.00000000000E+00 0. -1.
         25    2    1    2    0    0  0.17563952297E+02 -0.26199114509E+02 -0.13321155346E+02  0.12969057916E+03  0.12508919667E+03 0.  0.
         23    2    1    2    0    0 -0.17563952297E+02  0.26199114509E+02  0.56191335951E+02  0.11397785738E+03  0.94013827263E+02 0.  0.
          5    1    3    3  502    0 -0.27573352640E+02  0.36273880883E+01  0.43065559780E+02  0.51435032413E+02  0.41800000000E+01 0.  1.
         -5    1    3    3    0  502  0.45137304937E+02 -0.29826502598E+02 -0.56386715127E+02  0.78255546749E+02  0.41800000000E+01 0.  1.
        -11    1    4    4    0    0 -0.26743151622E+02  0.13407387118E+02  0.80013399997E+02  0.85423055243E+02  0.00000000000E+00 0.  1.
         11    1    4    4    0    0  0.91791993250E+01  0.12791727391E+02 -0.23822064046E+02  0.28554802141E+02  0.00000000000E+00 0. -1.
</event>
<event>
 8    1  0.6637272E-009  0.9739678E+02  0.7561462E-02  0.1285867E+00
         -1   -1    0    0    0  501 -0.00000000000E+00  0.00000000000E+00  0.11552141456E+03  0.11552141456E+03  0.00000000000E+00 0.  1.
          1   -1    0    0  501    0  0.00000000000E+00 -0.00000000000E+00 -0.14655277730E+03  0.14655277730E+03  0.00000000000E+00 0. -1.
         25    2    1    2    0    0  0.57368050193E+01 -0.71871840338E+02 -0.64422280709E+02  0.15810227996E+03  0.12509048050E+03 0.  0.
         23    2    1    2    0    0 -0.57368050193E+01  0.71871840338E+02  0.33390917969E+02  0.10397191190E+03  0.67057681863E+02 0.  0.
          5    1    3    3  502    0 -0.23327442618E+02 -0.69015780808E+02 -0.92199038718E+02  0.11758181288E+03  0.41800000000E+01 0.  1.
         -5    1    3    3    0  502  0.29064247637E+02 -0.28560595302E+01  0.27776758009E+02  0.40520467078E+02  0.41800000000E+01 0.  1.
        -11    1    4    4    0    0 -0.31350474280E+02  0.47844356907E+02  0.37821467146E+02  0.68574033733E+02  0.00000000000E+00 0. -1.
         11    1    4    4    0    0  0.25613669260E+02  0.24027483431E+02 -0.44305491769E+01  0.35397878171E+02  0.00000000000E+00 0.  1.
</event>
<event>
 8    1  0.6637272E-009  0.1173006E+03  0.7561462E-02  0.1247618E+00
         -1   -1    0    0    0  501 -0.00000000000E+00  0.00000000000E+00  0.36069880451E+02  0.36069880451E+02  0.00000000000E+00 0.  1.
          1   -1    0    0  501    0  0.00000000000E+00 -0.00000000000E+00 -0.73584082494E+03  0.73584082494E+03  0.00000000000E+00 0. -1.
         25    2    1    2    0    0 -0.10688556128E+03  0.38313531310E+02 -0.47778895676E+03  0.50677732943E+03  0.12509406274E+03 0.  0.
         23    2    1    2    0    0  0.10688556128E+03 -0.38313531310E+02 -0.22198198773E+03  0.26513337595E+03  0.90151285510E+02 0.  0.
          5    1    3    3  502    0 -0.20349325735E+02 -0.47640363103E+01 -0.21780431256E+01  0.21424457326E+02  0.41800000000E+01 0. -1.
         -5    1    3    3    0  502 -0.86536235544E+02  0.43077567621E+02 -0.47561091363E+03  0.48535287211E+03  0.41800000000E+01 0. -1.
        -11    1    4    4    0    0  0.47146959019E+02 -0.32397702986E+01 -0.19489536363E+02  0.51119212474E+02  0.00000000000E+00 0.  1.
         11    1    4    4    0    0  0.59738602260E+02 -0.35073761012E+02 -0.20249245136E+03  0.21401416348E+03  0.00000000000E+00 0. -1.
</event>
<event>
 8    1  0.6637272E-009  0.1616009E+03  0.7561462E-02  0.1186901E+00
         -2   -1    0    0    0  501 -0.00000000000E+00  0.00000000000E+00  0.50514126719E+02  0.50514126719E+02  0.00000000000E+00 0. -1.
          2   -1    0    0  501    0  0.00000000000E+00 -0.00000000000E+00 -0.82829540156E+03  0.82829540156E+03  0.00000000000E+00 0.  1.
         25    2    1    2    0    0 -0.19951578002E+02  0.15788917077E+03 -0.24377089327E+03  0.31685163732E+03  0.12507460155E+03 0.  0.
         23    2    1    2    0    0  0.19951578002E+02 -0.15788917077E+03 -0.53401038157E+03  0.56195789096E+03  0.72818458358E+02 0.  0.
          5    1    3    3  502    0  0.28618056498E+01  0.90408783871E+02 -0.22578350281E+03  0.24326446653E+03  0.41800000000E+01 0.  1.
         -5    1    3    3    0  502 -0.22813383652E+02  0.67480386898E+02 -0.17987390461E+02  0.73587170792E+02  0.41800000000E+01 0.  1.
        -11    1    4    4    0    0  0.26107740459E+02 -0.11239309093E+03 -0.26460705170E+03  0.28867059568E+03  0.00000000000E+00 0. -1.
         11    1    4    4    0    0 -0.61561624573E+01 -0.45496079838E+02 -0.26940332987E+03  0.27328729528E+03  0.00000000000E+00 0.  1.
</event>
<event>
 8    1  0.6637272E-009  0.1541603E+03  0.7561462E-02  0.1195452E+00
         -2   -1    0    0    0  501 -0.00000000000E+00  0.00000000000E+00  0.46274149062E+02  0.46274149062E+02  0.00000000000E+00 0.  1.
          2   -1    0    0  501    0  0.00000000000E+00 -0.00000000000E+00 -0.58532949190E+03  0.58532949190E+03  0.00000000000E+00 0. -1.
         25    2    1    2    0    0  0.75729127499E+02  0.97088665462E+02 -0.29347292955E+03  0.34195519398E+03  0.12508351051E+03 0.  0.
         23    2    1    2    0    0 -0.75729127499E+02 -0.97088665462E+02 -0.24558241329E+03  0.28964844698E+03  0.91784483474E+02 0.  0.
          5    1    3    3  502    0  0.38934535758E+02  0.11980362187E+03 -0.25263658238E+03  0.28233228835E+03  0.41800000000E+01 0. -1.
         -5    1    3    3    0  502  0.36794591740E+02 -0.22714956410E+02 -0.40836347161E+02  0.59622905628E+02  0.41800000000E+01 0. -1.
        -11    1    4    4    0    0 -0.87831630122E+01 -0.63190641242E+02 -0.52924343600E+02  0.82892624754E+02  0.00000000000E+00 0.  1.
         11    1    4    4    0    0 -0.66945964486E+02 -0.33898024220E+02 -0.19265806969E+03  0.20675582222E+03  0.00000000000E+00 0. -1.
</event>
<event>
 8    1  0.6637272E-009  0.2106812E+03  0.7561462E-02  0.1141028E+00
          2   -1    0    0  501    0  0.00000000000E+00  0.00000000000E+00  0.94520856538E+03  0.94520856538E+03  0.00000000000E+00 0. -1.
         -2   -1    0    0    0  501 -0.00000000000E+00 -0.00000000000E+00 -0.48860498661E+02  0.48860498661E+02  0.00000000000E+00 0.  1.
         25    2    1    2    0    0  0.18506241625E+03  0.80630260564E+01  0.47287947528E+03  0.52304465870E+03  0.12509039355E+03 0.  0.
         23    2    1    2    0    0 -0.18506241625E+03 -0.80630260564E+01  0.42346859144E+03  0.47102440534E+03  0.90693065829E+02 0.  0.
          5    1    3    3  502    0  0.65601935755E+02 -0.57139752351E+02  0.17228495403E+03  0.19304958705E+03  0.41800000000E+01 0.  1.
         -5    1    3    3    0  502  0.11946048050E+03  0.65202778408E+02  0.30059452124E+03  0.32999507165E+03  0.41800000000E+01 0.  1.
        -11    1    4    4    0    0 -0.88652590619E+02 -0.39000398279E+02  0.14188245580E+03  0.17178749708E+03  0.00000000000E+00 0. -1.
         11    1    4    4    0    0 -0.96409825635E+02  0.30937372223E+02  0.28158613564E+03  0.29923690826E+03  0.00000000000E+00 0.  1.
</event>
<event>
 8    1  0.6637272E-009  0.9931919E+02  0.7561462E-02  0.1281734E+00
         -1   -1    0    0    0  501 -0.00000000000E+00  0.00000000000E+00  0.42596062986E+02  0.42596062986E+02  0.00000000000E+00 0.  1.
          1   -1    0    0  501    0  0.00000000000E+00 -0.00000000000E+00 -0.41552212100E+03  0.41552212100E+03  0.00000000000E+00 0. -1.
         25    2    1    2    0    0  0.40691894755E+02  0.62439364157E+02 -0.23239575918E+03  0.27424822456E+03  0.12509914188E+03 0.  0.
         23    2    1    2    0    0 -0.40691894755E+02 -0.62439364157E+02 -0.14053029884E+03  0.18386995942E+03  0.92221974557E+02 0.  0.
          5    1    3    3  502    0 -0.12984984768E+02  0.68555508294E+02 -0.55541684609E+02  0.89279441509E+02  0.41800000000E+01 0. -1.
         -5    1    3    3    0  502  0.53676879524E+02 -0.61161441368E+01 -0.17685407457E+03  0.18496878306E+03  0.41800000000E+01 0. -1.
        -11    1    4    4    0    0 -0.18609015822E+02 -0.26812305483E+02  0.44615932016E+01  0.32940871407E+02  0.00000000000E+00 0.  1.
         11    1    4    4    0    0 -0.22082878934E+02 -0.35627058674E+02 -0.14499189204E+03  0.15092908802E+03  0.00000000000E+00 0. -1.
</event>
<event>
 8    1  0.6637272E-009  0.3451079E+03  0.7561462E-02  0.1064641E+00
         -1   -1    0    0    0  501 -0.00000000000E+00  0.00000000000E+00  0.32466738796E+03  0.32466738796E+03  0.00000000000E+00 0.  1.
          1   -1    0    0  501    0  0.00000000000E+00 -0.00000000000E+00 -0.47239851495E+03  0.47239851495E+03  0.00000000000E+00 0. -1.
         25    2    1    2    0    0 -0.33226853315E+03 -0.78791038889E+02 -0.23505479130E+03  0.43302404540E+03  0.12509461638E+03 0.  0.
         23    2    1    2    0    0  0.33226853315E+03  0.78791038889E+02  0.87323664320E+02  0.36404185751E+03  0.91052983145E+02 0.  0.
          5    1    3    3  502    0 -0.17362559299E+03 -0.68971227661E+02 -0.59377051280E+02  0.19607647336E+03  0.41800000000E+01 0.  1.
         -5    1    3    3    0  502 -0.15864294016E+03 -0.98198112282E+01 -0.17567774002E+03  0.23694757204E+03  0.41800000000E+01 0.  1.
        -11    1    4    4    0    0  0.21975376206E+03  0.30329599270E+02  0.94937471942E+02  0.24129799856E+03  0.00000000000E+00 0. -1.
         11    1    4    4    0    0  0.11251477109E+03  0.48461439618E+02 -0.76138076221E+01  0.12274385895E+03  0.00000000000E+00 0.  1.
</event>
<event>
 8    1  0.6637272E-009  0.6379738E+02  0.7561462E-02  0.1382553E+00
         -2   -1    0    0    0  501 -0.00000000000E+00  0.00000000000E+00  0.34161634107E+02  0.34161634107E+02  0.00000000000E+00 0.  1.
          2   -1    0    0  501    0  0.00000000000E+00 -0.00000000000E+00 -0.40816178841E+03  0.40816178841E+03  0.00000000000E+00 0. -1.
         25    2    1    2    0    0  0.22514544279E+02 -0.38283118367E+02 -0.18286867210E+03  0.22596654675E+03  0.12508967646E+03 0.  0.
         23    2    1    2    0    0 -0.22514544279E+02  0.38283118367E+02 -0.19113148221E+03  0.21635687577E+03  0.91140289380E+02 0.  0.
          5    1    3    3  502    0  0.24937554595E+02 -0.28435598690E+02 -0.20111166299E+03  0.20467984340E+03  0.41800000000E+01 0.  1.
         -5    1    3    3    0  502 -0.24230103163E+01 -0.98475196766E+01  0.18242990892E+02  0.21286703349E+02  0.41800000000E+01 0.  1.
        -11    1    4    4    0    0 -0.25355853845E+02 -0.12111126902E+02 -0.12542080375E+02  0.30771780890E+02  0.00000000000E+00 0.  1.
         11    1    4    4    0    0  0.28413095664E+01  0.50394245268E+02 -0.17858940183E+03  0.18558509488E+03  0.00000000000E+00 0. -1.
</event>
<event>
 7    1  0.6637272E-009  0.1031135E+03  0.7561462E-02  0.1273882E+00
         -2   -1    0    0    0  501 -0.00000000000E+00  0.00000000000E+00  0.17520194000E+03  0.17520194000E+03  0.00000000000E+00 0.  1.
          2   -1    0    0  501    0  0.00000000000E+00 -0.00000000000E+00 -0.65756000110E+02  0.65756000110E+02  0.00000000000E+00 0. -1.
         25    2    1    2    0    0  0.40148996726E+02  0.40373688335E+02  0.85249685538E+02  0.16172751409E+03  0.12508518411E+03 0.  0.
          5    1    3    3  502    0 -0.39966648612E+02  0.40669958452E+02  0.37292023722E+02  0.68260866937E+02  0.41800000000E+01 0.  1.
         -5    1    3    3    0  502  0.80115645338E+02 -0.29627011646E+00  0.47957661817E+02  0.93466647157E+02  0.41800000000E+01 0.  1.
        -11    1    1    2    0    0 -0.20562341523E+02 -0.44310980511E+02  0.13323454113E+01  0.48867658293E+02  0.00000000000E+00 0.  1.
         11    1    1    2    0    0 -0.19586655203E+02  0.39372921763E+01  0.22863908937E+02  0.30362767720E+02  0.00000000000E+00 0. -1.
</event>
<event>
 8    1  0.6637272E-009  0.9221808E+02  0.7561462E-02  0.1297567E+00
         -1   -1    0    0    0  501 -0.00000000000E+00  0.00000000000E+00  0.32561222788E+02  0.32561222788E+02  0.00000000000E+00 0.  1.
          1   -1    0    0  501    0  0.00000000000E+00 -0.00000000000E+00 -0.40826096557E+03  0.40826096557E+03  0.00000000000E+00 0. -1.
         25    2    1    2    0    0  0.19223496599E+02 -0.29810740862E+02 -0.22964727205E+03  0.26390090597E+03  0.12509034943E+03 0.  0.
         23    2    1    2    0    0 -0.19223496599E+02  0.29810740862E+02 -0.14605247074E+03  0.17692128239E+03  0.93335914110E+02 0.  0.
          5    1    3    3  502    0 -0.35851537486E+02  0.12714454675E+02 -0.16309669040E+03  0.16752609623E+03  0.41800000000E+01 0.  1.
         -5    1    3    3    0  502  0.55075034084E+02 -0.42525195537E+02 -0.66550581646E+02  0.96374809739E+02  0.41800000000E+01 0.  1.
        -11    1    4    4    0    0 -0.30043791296E+02 -0.12682692082E+02 -0.10202403993E+02  0.34169710580E+02  0.00000000000E+00 0.  1.
         11    1    4    4    0    0  0.10820294697E+02  0.42493432944E+02 -0.13585006674E+03  0.14275157181E+03  0.00000000000E+00 0. -1.
</event>
<event>
 8    1  0.6637272E-009  0.1458761E+03  0.7561462E-02  0.1205634E+00
         -1   -1    0    0    0  501 -0.00000000000E+00  0.00000000000E+00  0.51537491364E+02  0.51537491364E+02  0.00000000000E+00 0.  1.
          1   -1    0    0  501    0  0.00000000000E+00 -0.00000000000E+00 -0.57668157227E+03  0.57668157227E+03  0.00000000000E+00 0. -1.
         25    2    1    2    0    0 -0.12739776703E+03 -0.40142821400E+02 -0.26418084317E+03  0.32137251745E+03  0.12508852832E+03 0.  0.
         23    2    1    2    0    0  0.12739776703E+03  0.40142821400E+02 -0.26096323774E+03  0.30684654619E+03  0.90616523342E+02 0.  0.
          5    1    3    3  502    0 -0.49524582161E+01  0.20482766777E+02 -0.12298594739E+03  0.12484825282E+03  0.41800000000E+01 0.  1.
         -5    1    3    3    0  502 -0.12244530882E+03 -0.60625588177E+02 -0.14119489578E+03  0.19652426463E+03  0.41800000000E+01 0.  1.
        -11    1    4    4    0    0  0.59400635632E+02  0.18780890945E+02 -0.38478001267E+02  0.73223725388E+02  0.00000000000E+00 0.  1.
         11    1    4    4    0    0  0.67997131399E+02  0.21361930455E+02 -0.22248523647E+03  0.23362282080E+03  0.00000000000E+00 0. -1.
</event>
<event>
 8    1  0.6637272E-009  0.8914701E+02  0.7561462E-02  0.1304931E+00
         -2   -1    0    0    0  501 -0.00000000000E+00  0.00000000000E+00  0.33133573841E+02  0.33133573841E+02  0.00000000000E+00 0.  1.
          2   -1    0    0  501    0  0.00000000000E+00 -0.00000000000E+00 -0.47108371946E+03  0.47108371946E+03  0.00000000000E+00 0. -1.
         25    2    1    2    0    0  0.28545634659E+01 -0.66771594243E+02 -0.16864820709E+03  0.22035383512E+03  0.12508797132E+03 0.  0.
         23    2    1    2    0    0 -0.28545634659E+01  0.66771594243E+02 -0.26930193853E+03  0.28386345818E+03  0.59902708310E+02 0.  0.
          5    1    3    3  502    0  0.38758099656E+02 -0.60977852195E+02 -0.32438983773E+02  0.79311088856E+02  0.41800000000E+01 0. -1.
         -5    1    3    3    0  502 -0.35903536190E+02 -0.57937420478E+01 -0.13620922331E+03  0.14104274626E+03  0.41800000000E+01 0. -1.
        -11    1    4    4    0    0  0.70830265947E+01  0.14899454360E+02 -0.10117930310E+02  0.19352920186E+02  0.00000000000E+00 0.  1.
         11    1    4    4    0    0 -0.99375900606E+01  0.51872139883E+02 -0.25918400822E+03  0.26451053799E+03  0.00000000000E+00 0. -1.
</event>
<event>
 8    1  0.6637272E-009  0.1043472E+03  0.7561462E-02  0.1271411E+00
         -2   -1    0    0    0  501 -0.00000000000E+00  0.00000000000E+00  0.12650923805E+03  0.12650923805E+03  0.00000000000E+00 0.  1.
          2   -1    0    0  501    0  0.00000000000E+00 -0.00000000000E+00 -0.17329769076E+03  0.17329769076E+03  0.00000000000E+00 0. -1.
         25    2    1    2    0    0  0.62523533868E+02  0.71576197387E+02 -0.62086480077E+02  0.16892376351E+03  0.12509261589E+03 0.  0.
         23    2    1    2    0    0 -0.62523533868E+02 -0.71576197387E+02  0.15298027361E+02  0.13088316530E+03  0.88679360614E+02 0.  0.
          5    1    3    3  502    0  0.66696219548E+02  0.50720518121E+02  0.18128570507E+02  0.85831661577E+02  0.41800000000E+01 0. -1.
         -5    1    3    3    0  502 -0.41726856796E+01  0.20855679266E+02 -0.80215050584E+02  0.83092101933E+02  0.41800000000E+01 0. -1.
        -11    1    4    4    0    0 -0.11386019327E+02 -0.43127054343E+02  0.46610041653E+02  0.64514186311E+02  0.00000000000E+00 0.  1.
         11    1    4    4    0    0 -0.51137514541E+02 -0.28449143044E+02 -0.31312014292E+02  0.66368978992E+02  0.00000000000E+00 0. -1.
</event>
<event>
 8    1  0.6637272E-009  0.4871164E+02  0.7561462E-02  0.1452417E+00
         -1   -1    0    0    0  501 -0.00000000000E+00  0.00000000000E+00  0.67646546810E+02  0.67646546810E+02  0.00000000000E+00 0.  1.
          1   -1    0    0  501    0  0.00000000000E+00 -0.00000000000E+00 -0.18283036119E+03  0.18283036119E+03  0.00000000000E+00 0. -1.
         25    2    1    2    0    0 -0.79274517026E+01  0.82986433725E+01 -0.20195710492E+02  0.12724740010E+03  0.12510924081E+03 0.  0.
         23    2    1    2    0    0  0.79274517026E+01 -0.82986433725E+01 -0.94988103889E+02  0.12322950790E+03  0.77659898051E+02 0.  0.
          5    1    3    3  502    0 -0.16484121652E+01  0.25384844949E+02 -0.69711912747E+02  0.74325842038E+02  0.41800000000E+01 0.  1.
         -5    1    3    3    0  502 -0.62790395374E+01 -0.17086201576E+02  0.49516202255E+02  0.52921558061E+02  0.41800000000E+01 0.  1.
        -11    1    4    4    0    0  0.24783647278E+02 -0.20495568578E+02 -0.71299735336E+01  0.32941372563E+02  0.00000000000E+00 0.  1.
         11    1    4    4    0    0 -0.16856195575E+02  0.12196925205E+02 -0.87858130355E+02  0.90288135341E+02  0.00000000000E+00 0. -1.
</event>
<event>
 8    1  0.6637272E-009  0.8902484E+02  0.7561462E-02  0.1305231E+00
          1   -1    0    0  501    0  0.00000000000E+00  0.00000000000E+00  0.87052682655E+03  0.87052682655E+03  0.00000000000E+00 0.  1.
         -1   -1    0    0    0  501 -0.00000000000E+00 -0.00000000000E+00 -0.21137749478E+02  0.21137749478E+02  0.00000000000E+00 0. -1.
         25    2    1    2    0    0  0.42249014422E+02  0.34252454118E+02  0.30255255755E+03  0.33187778876E+03  0.12508639719E+03 0.  0.
         23    2    1    2    0    0 -0.42249014422E+02 -0.34252454118E+02  0.54683651952E+03  0.55978678726E+03  0.10664360404E+03 0.  0.
          5    1    3    3  502    0  0.42837618424E+02  0.25908268576E+02  0.31348887097E+03  0.31748865264E+03  0.41800000000E+01 0. -1.
         -5    1    3    3    0  502 -0.58860400231E+00  0.83441855425E+01 -0.10936313422E+02  0.14389136121E+02  0.41800000000E+01 0. -1.
        -11    1    4    4    0    0 -0.24997086773E+01  0.36886182486E+02  0.21026416890E+03  0.21348971808E+03  0.00000000000E+00 0.  1.
         11    1    4    4    0    0 -0.39749305745E+02 -0.71138636605E+02  0.33657235061E+03  0.34629706918E+03  0.00000000000E+00 0. -1.
</event>
<event>
 8    1  0.6637272E-009  0.5985504E+02  0.7561462E-02  0.1398441E+00
         -1   -1    0    0    0  501 -0.00000000000E+00  0.00000000000E+00  0.38446861115E+02  0.38446861115E+02  0.00000000000E+00 0.  1.
          1   -1    0    0  501    0  0.00000000000E+00 -0.00000000000E+00 -0.37325842018E+03  0.37325842018E+03  0.00000000000E+00 0. -1.
         25    2    1    2    0    0  0.17034978604E+02 -0.48539286990E+02 -0.19432645055E+03  0.23676347486E+03  0.12509164946E+03 0.  0.
         23    2    1    2    0    0 -0.17034978604E+02  0.48539286990E+02 -0.14048510851E+03  0.17494180644E+03  0.90676992939E+02 0.  0.
          5    1    3    3  502    0 -0.14338837554E+01 -0.33048702838E+02  0.69049948289E+01  0.34050317700E+02  0.41800000000E+01 0. -1.
         -5    1    3    3    0  502  0.18468862359E+02 -0.15490584152E+02 -0.20123144538E+03  0.20271315715E+03  0.41800000000E+01 0. -1.
        -11    1    4    4    0    0  0.64198918807E+01  0.33341935115E+02 -0.14291049821E+03  0.14688876795E+03  0.00000000000E+00 0. -1.
         11    1    4    4    0    0 -0.23454870485E+02  0.15197351875E+02  0.24253897000E+01  0.28053038493E+02  0.00000000000E+00 0.  1.
</event>
<event>
 8    1  0.6637272E-009  0.2580066E+03  0.7561462E-02  0.1108347E+00
          1   -1    0    0  501    0  0.00000000000E+00  0.00000000000E+00  0.60173056779E+03  0.60173056779E+03  0.00000000000E+00 0. -1.
         -1   -1    0    0    0  501 -0.00000000000E+00 -0.00000000000E+00 -0.16492414388E+03  0.16492414388E+03  0.00000000000E+00 0.  1.
         25    2    1    2    0    0  0.14903889758E+03  0.19913426757E+03  0.28538062242E+02  0.27987261663E+03  0.12508881257E+03 0.  0.
         23    2    1    2    0    0 -0.14903889758E+03 -0.19913426757E+03  0.40826836167E+03  0.48678209504E+03  0.91688076676E+02 0.  0.
          5    1    3    3  502    0  0.36584979921E+02  0.12340786930E+03  0.57724172284E+02  0.14112942793E+03  0.41800000000E+01 0. -1.
         -5    1    3    3    0  502  0.11245391766E+03  0.75726398270E+02 -0.29186110042E+02  0.13874318870E+03  0.41800000000E+01 0. -1.
        -11    1    4    4    0    0 -0.49893050807E+02 -0.97966727584E+02  0.10482403275E+03  0.15190416082E+03  0.00000000000E+00 0.  1.
         11    1    4    4    0    0 -0.99145846769E+02 -0.10116753999E+03  0.30344432891E+03  0.33487793422E+03  0.00000000000E+00 0. -1.
</event>
<event>
 8    1  0.6637272E-009  0.1035076E+03  0.7561462E-02  0.1273088E+00
          2   -1    0    0  501    0  0.00000000000E+00  0.00000000000E+00  0.35817218870E+03  0.35817218870E+03  0.00000000000E+00 0. -1.
         -2   -1    0    0    0  501 -0.00000000000E+00 -0.00000000000E+00 -0.65566283683E+02  0.65566283683E+02  0.00000000000E+00 0.  1.
         25    2    1    2    0    0 -0.13379787037E+02 -0.94370048863E+02  0.88798139783E+02  0.18060714914E+03  0.12509639430E+03 0.  0.
         23    2    1    2    0    0  0.13379787037E+02  0.94370048863E+02  0.20380776524E+03  0.24313132325E+03  0.92143965343E+02 0.  0.
          5    1    3    3  502    0  0.36566126605E+01 -0.82533868671E+02  0.11826834268E+03  0.14432630936E+03  0.41800000000E+01 0. -1.
         -5    1    3    3    0  502 -0.17036399697E+02 -0.11836180192E+02 -0.29470202897E+02  0.36280839777E+02  0.41800000000E+01 0. -1.
        -11    1    4    4    0    0 -0.12570831088E+02  0.14693659094E+02 -0.33883778211E+01  0.19631875001E+02  0.00000000000E+00 0.  1.
         11    1    4    4    0    0  0.25950618125E+02  0.79676389769E+02  0.20719614306E+03  0.22349944825E+03  0.00000000000E+00 0. -1.
</event>
<event>
 8    1  0.6637272E-009  0.1062226E+03  0.7561462E-02  0.1267729E+00
          1   -1    0    0  501    0  0.00000000000E+00  0.00000000000E+00  0.30273140695E+02  0.30273140695E+02  0.00000000000E+00 0. -1.
         -1   -1    0    0    0  501 -0.00000000000E+00 -0.00000000000E+00 -0.55004764887E+03  0.55004764887E+03  0.00000000000E+00 0.  1.
         25    2    1    2    0    0 -0.58113992323E+01  0.96326717301E+01 -0.44323131626E+03  0.46068190490E+03  0.12508899658E+03 0.  0.
         23    2    1    2    0    0  0.58113992323E+01 -0.96326717301E+01 -0.76543191915E+02  0.11963888466E+03  0.91258105224E+02 0.  0.
          5    1    3    3  502    0  0.49389416352E+02  0.34536415406E+02 -0.28209133905E+03  0.28848756369E+03  0.41800000000E+01 0. -1.
         -5    1    3    3    0  502 -0.55200815584E+02 -0.24903743676E+02 -0.16113997720E+03  0.17219434121E+03  0.41800000000E+01 0. -1.
        -11    1    4    4    0    0  0.48214839904E+02 -0.20744137059E+01 -0.47327356081E+02  0.67593288223E+02  0.00000000000E+00 0.  1.
         11    1    4    4    0    0 -0.42403440672E+02 -0.75582580242E+01 -0.29215835834E+02  0.52045596439E+02  0.00000000000E+00 0. -1.
</event>
<event>
 8    1  0.6637272E-009  0.2116709E+03  0.7561462E-02  0.1140250E+00
          2   -1    0    0  501    0  0.00000000000E+00  0.00000000000E+00  0.25897343217E+03  0.25897343217E+03  0.00000000000E+00 0. -1.
         -2   -1    0    0    0  501 -0.00000000000E+00 -0.00000000000E+00 -0.18943859535E+03  0.18943859535E+03  0.00000000000E+00 0.  1.
         25    2    1    2    0    0 -0.15405398673E+03  0.11250469852E+03  0.66711404336E+02  0.23768762120E+03  0.12512016540E+03 0.  0.
         23    2    1    2    0    0  0.15405398673E+03 -0.11250469852E+03  0.28234324810E+01  0.21072440631E+03  0.89481090900E+02 0.  0.
          5    1    3    3  502    0 -0.16882864246E+03  0.12261264317E+03  0.67344682910E+02  0.21929375161E+03  0.41800000000E+01 0. -1.
         -5    1    3    3    0  502  0.14774655726E+02 -0.10107944652E+02 -0.63327857389E+00  0.18393869595E+02  0.41800000000E+01 0. -1.
        -11    1    4    4    0    0  0.14056693245E+03 -0.81581940597E+02  0.32557885148E+02  0.16575491370E+03  0.00000000000E+00 0.  1.
         11    1    4    4    0    0  0.13487054282E+02 -0.30922757919E+02 -0.29734452667E+02  0.44969492614E+02  0.00000000000E+00 0. -1.
</event>
<event>
 8    1  0.6637272E-009  0.2155076E+03  0.7561462E-02  0.1137277E+00
          2   -1    0    0  501    0  0.00000000000E+00  0.00000000000E+00  0.18483034069E+03  0.18483034069E+03  0.00000000000E+00 0.  1.
         -2   -1    0    0    0  501 -0.00000000000E+00 -0.00000000000E+00 -0.32684993396E+03  0.32684993396E+03  0.00000000000E+00 0. -1.
         25    2    1    2    0    0  0.20154982594E+03 -0.20825770938E+02 -0.16205086944E+03  0.28803423084E+03  0.12508872362E+03 0.  0.
         23    2    1    2    0    0 -0.20154982594E+03  0.20825770938E+02  0.20031276167E+02  0.22364604382E+03  0.92521650527E+02 0.  0.
          5    1    3    3  502    0  0.10265968713E+03 -0.62121890489E+02 -0.12802912644E+03  0.17551942985E+03  0.41800000000E+01 0. -1.
         -5    1    3    3    0  502  0.98890138810E+02  0.41296119551E+02 -0.34021743006E+02  0.11251480099E+03  0.41800000000E+01 0. -1.
        -11    1    4    4    0    0 -0.38160345782E+02 -0.42631854054E+01  0.41978499172E+02  0.56890958269E+02  0.00000000000E+00 0.  1.
         11    1    4    4    0    0 -0.16338948016E+03  0.25088956344E+02 -0.21947223005E+02  0.16675508555E+03  0.00000000000E+00 0. -1.
</event>
<event>
 8    1  0.6637272E-009  0.1036119E+03  0.7561462E-02  0.1272879E+00
          2   -1    0    0  501    0  0.00000000000E+00  0.00000000000E+00  0.50460171038E+02  0.50460171038E+02  0.00000000000E+00 0. -1.
         -2   -1    0    0    0  501 -0.00000000000E+00 -0.00000000000E+00 -0.24862235538E+03  0.24862235538E+03  0.00000000000E+00 0.  1.
         25    2    1    2    0    0 -0.25935699737E+02  0.70465014244E+01 -0.10078420573E+03  0.16286900002E+03  0.12508613568E+03 0.  0.
         23    2    1    2    0    0  0.25935699737E+02 -0.70465014244E+01 -0.97377978611E+02  0.13621352640E+03  0.91374724905E+02 0.  0.
          5    1    3    3  502    0  0.14118081232E+02  0.56035315020E+02 -0.22576573612E+02  0.62180791433E+02  0.41800000000E+01 0.  1.
         -5    1    3    3    0  502 -0.40053780970E+02 -0.48988813596E+02 -0.78207632118E+02  0.10068820859E+03  0.41800000000E+01 0.  1.
        -11    1    4    4    0    0 -0.15627262950E+02  0.27628331246E+02 -0.97309488388E+01  0.33199810241E+02  0.00000000000E+00 0.  1.
         11    1    4    4    0    0  0.41562962688E+02 -0.34674832670E+02 -0.87647029772E+02  0.10301371615E+03  0.00000000000E+00 0. -1.
</event>
<event>
 8    1  0.6637272E-009  0.1617659E+03  0.7561462E-02  0.1186717E+00
          2   -1    0    0  501    0  0.00000000000E+00  0.00000000000E+00  0.16569077493E+04  0.16569077493E+04  0.00000000000E+00 0.  1.
         -2   -1    0    0    0  501 -0.00000000000E+00 -0.00000000000E+00 -0.21458980469E+02  0.21458980469E+02  0.00000000000E+00 0. -1.
         25    2    1    2    0    0 -0.10864916265E+03  0.10130577523E+03  0.10302196417E+04  0.10483646552E+04  0.12509372289E+03 0.  0.
         23    2    1    2    0    0  0.10864916265E+03 -0.10130577523E+03  0.60522912718E+03  0.63000207461E+03  0.92373248215E+02 0.  0.
          5    1    3    3  502    0 -0.12000780768E+03  0.88249751461E+02  0.10119189224E+04  0.10228329631E+04  0.41800000000E+01 0.  1.
         -5    1    3    3    0  502  0.11358645028E+02  0.13056023768E+02  0.18300719266E+02  0.25531692054E+02  0.41800000000E+01 0.  1.
        -11    1    4    4    0    0  0.50645768606E+02 -0.80458431690E+02  0.49183336579E+03  0.50093773346E+03  0.00000000000E+00 0.  1.
         11    1    4    4    0    0  0.58003394043E+02 -0.20847343539E+02  0.11339576139E+03  0.12906434115E+03  0.00000000000E+00 0. -1.
</event>
<event>
 8    1  0.6637272E-009  0.2004634E+03  0.7561462E-02  0.1149349E+00
          3   -1    0    0  501    0  0.00000000000E+00  0.00000000000E+00  0.33091739606E+03  0.33091739606E+03  0.00000000000E+00 0. -1.
         -3   -1    0    0    0  501 -0.00000000000E+00 -0.00000000000E+00 -0.15141186195E+03  0.15141186195E+03  0.00000000000E+00 0.  1.
         25    2    1    2    0    0 -0.15616927369E+03 -0.89215720532E+02  0.98541601918E+01  0.21930010973E+03  0.12508855591E+03 0.  0.
         23    2    1    2    0    0  0.15616927369E+03  0.89215720532E+02  0.16965137391E+03  0.26302914828E+03  0.89746628578E+02 0.  0.
          5    1    3    3  502    0 -0.43113903529E+02 -0.95333061630E+02  0.15542361137E+02  0.10585952346E+03  0.41800000000E+01 0.  1.
         -5    1    3    3    0  502 -0.11305537016E+03  0.61173410976E+01 -0.56882009452E+01  0.11344058627E+03  0.41800000000E+01 0.  1.
        -11    1    4    4    0    0  0.29319663967E+02  0.28519375394E+01 -0.57065678278E+01  0.30005685449E+02  0.00000000000E+00 0.  1.
         11    1    4    4    0    0  0.12684960972E+03  0.86363782993E+02  0.17535794174E+03  0.23302346283E+03  0.00000000000E+00 0. -1.
</event>
<event>
 8    1  0.6637272E-009  0.2084848E+03  0.7561462E-02  0.1142772E+00
          1   -1    0    0  501    0  0.00000000000E+00  0.00000000000E+00  0.24840152693E+03  0.24840152693E+03  0.00000000000E+00 0.  1.
         -1   -1    0    0    0  501 -0.00000000000E+00 -0.00000000000E+00 -0.21059386569E+03  0.21059386569E+03  0.00000000000E+00 0. -1.
         25    2    1    2    0    0  0.18514728580E+03 -0.75262576782E+01  0.98136465779E+02  0.24416133599E+03  0.12509128700E+03 0.  0.
         23    2    1    2    0    0 -0.18514728580E+03  0.75262576782E+01 -0.60328804535E+02  0.21483405663E+03  0.90431992348E+02 0.  0.
          5    1    3    3  502    0  0.16546510074E+03  0.36331818351E+02  0.51641368042E+02  0.17715248765E+03  0.41800000000E+01 0. -1.
         -5    1    3    3    0  502  0.19682185056E+02 -0.43858076029E+02  0.46495097738E+02  0.67008848335E+02  0.41800000000E+01 0. -1.
        -11    1    4    4    0    0 -0.54311457847E+02  0.36260648730E+02  0.55836787956E+01  0.65541945109E+02  0.00000000000E+00 0.  1.
         11    1    4    4    0    0 -0.13083582795E+03 -0.28734391051E+02 -0.65912483331E+02  0.14929211152E+03  0.00000000000E+00 0. -1.
</event>
<event>
 8    1  0.6637272E-009  0.1487341E+03  0.7561462E-02  0.1202037E+00
         -2   -1    0    0    0  501 -0.00000000000E+00  0.00000000000E+00  0.15755492115E+03  0.15755492115E+03  0.00000000000E+00 0.  1.
          2   -1    0    0  501    0  0.00000000000E+00 -0.00000000000E+00 -0.17623595452E+03  0.17623595452E+03  0.00000000000E+00 0. -1.
         25    2    1    2    0    0  0.10878214265E+03 -0.44377312395E+02 -0.55346265475E+02  0.18031689827E+03  0.12509226310E+03 0.  0.
         23    2    1    2    0    0 -0.10878214265E+03  0.44377312395E+02  0.36665232103E+02  0.15347397739E+03  0.91689814469E+02 0.  0.
          5    1    3    3  502    0  0.76071854154E+02 -0.72782471730E+02  0.54985723007E+01  0.10550792332E+03  0.41800000000E+01 0.  1.
         -5    1    3    3    0  502  0.32710288492E+02  0.28405159335E+02 -0.60844837776E+02  0.74808974957E+02  0.41800000000E+01 0.  1.
        -11    1    4    4    0    0 -0.58104957760E+02  0.70668625108E+02  0.16755381519E+02  0.93010663371E+02  0.00000000000E+00 0. -1.
         11    1    4    4    0    0 -0.50677184886E+02 -0.26291312713E+02  0.19909850584E+02  0.60463314021E+02  0.00000000000E+00 0.  1.
</event>
<event>
 8    1  0.6637272E-009  0.9220106E+02  0.7561462E-02  0.1297607E+00
          3   -1    0    0  501    0  0.00000000000E+00  0.00000000000E+00  0.88081202739E+02  0.88081202739E+02  0.00000000000E+00 0. -1.
         -3   -1    0    0    0  501 -0.00000000000E+00 -0.00000000000E+00 -0.18070533124E+03  0.18070533124E+03  0.00000000000E+00 0.  1.
         25    2    1    2    0    0  0.60136537699E+02 -0.45812566531E+01 -0.73447355386E+02  0.15709547061E+03  0.12508829600E+03 0.  0.
         23    2    1    2    0    0 -0.60136537699E+02  0.45812566531E+01 -0.19176773115E+02  0.11169106337E+03  0.92031266044E+02 0.  0.
          5    1    3    3  502    0  0.63309353803E+02 -0.38221847583E+02  0.22380835296E+01  0.74104421795E+02  0.41800000000E+01 0.  1.
         -5    1    3    3    0  502 -0.31728161039E+01  0.33640590930E+02 -0.75685438915E+02  0.82991048818E+02  0.41800000000E+01 0.  1.
        -11    1    4    4    0    0 -0.10696382213E+02 -0.18772242119E+02 -0.45975105190E+02  0.50798818528E+02  0.00000000000E+00 0.  1.
         11    1    4    4    0    0 -0.49440155486E+02  0.23353498772E+02  0.26798332075E+02  0.60892244838E+02  0.00000000000E+00 0. -1.
</event>
<event>
 8    1  0.6637272E-009  0.1333782E+03  0.7561462E-02  0.1222527E+00
          1   -1    0    0  501    0  0.00000000000E+00  0.00000000000E+00  0.88372485445E+03  0.88372485445E+03  0.00000000000E+00 0. -1.
         -1   -1    0    0    0  501 -0.00000000000E+00 -0.00000000000E+00 -0.32292733900E+02  0.32292733900E+02  0.00000000000E+00 0.  1.
         25    2    1    2    0    0 -0.11507852250E+03  0.55222027739E+02  0.50728361092E+03  0.53784412015E+03  0.12508835671E+03 0.  0.
         23    2    1    2    0    0  0.11507852250E+03 -0.55222027739E+02  0.34414850963E+03  0.37817346820E+03  0.91018880913E+02 0.  0.
          5    1    3    3  502    0 -0.11686599467E+03  0.49301865222E+02  0.51298593157E+03  0.52845091826E+03  0.41800000000E+01 0.  1.
         -5    1    3    3    0  502  0.17874721685E+01  0.59201625173E+01 -0.57023206474E+01  0.93932018902E+01  0.41800000000E+01 0.  1.
        -11    1    4    4    0    0  0.40378614778E+02 -0.15633179845E+01  0.21992721968E+03  0.22360871729E+03  0.00000000000E+00 0. -1.
         11    1    4    4    0    0  0.74699907719E+02 -0.53658709755E+02  0.12422128996E+03  0.15456475091E+03  0.00000000000E+00 0.  1.
</event>
<event>
 8    1  0.6637272E-009  0.1291388E+03  0.7561462E-02  0.1228739E+00
          2   -1    0    0  501    0  0.00000000000E+00  0.00000000000E+00  0.13882163782E+04  0.13882163782E+04  0.00000000000E+00 0.  1.
         -2   -1    0    0    0  501 -0.00000000000E+00 -0.00000000000E+00 -0.14637571275E+02  0.14637571275E+02  0.00000000000E+00 0. -1.
         25    2    1    2    0    0  0.86534802334E+02 -0.25102783860E+01  0.90321859624E+03  0.91594008211E+03  0.12509127834E+03 0.  0.
         23    2    1    2    0    0 -0.86534802334E+02  0.25102783860E+01  0.47036021072E+03  0.48691386740E+03  0.91388253740E+02 0.  0.
          5    1    3    3  502    0 -0.18654678307E+02  0.35229003209E+02  0.21760296445E+03  0.22126364868E+03  0.41800000000E+01 0.  1.
         -5    1    3    3    0  502  0.10518948064E+03 -0.37739281595E+02  0.68561563179E+03  0.69467643344E+03  0.41800000000E+01 0.  1.
        -11    1    4    4    0    0 -0.24179627534E+02 -0.27956916844E+02  0.58157145395E+02  0.68909340061E+02  0.00000000000E+00 0. -1.
         11    1    4    4    0    0 -0.62355174799E+02  0.30467195230E+02  0.41220306533E+03  0.41800452734E+03  0.00000000000E+00 0.  1.
</event>
<event>
 8    1  0.6637272E-009  0.1446231E+03  0.7561462E-02  0.1207240E+00
          2   -1    0    0  501    0  0.00000000000E+00  0.00000000000E+00  0.49200487796E+02  0.49200487796E+02  0.00000000000E+00 0.  1.
         -2   -1    0    0    0  501 -0.00000000000E+00 -0.00000000000E+00 -0.49805932601E+03  0.49805932601E+03  0.00000000000E+00 0. -1.
         25    2    1    2    0    0  0.10238450064E+03 -0.81199430994E+00 -0.32305188883E+03  0.36123556276E+03  0.12508142797E+03 0.  0.
         23    2    1    2    0    0 -0.10238450064E+03  0.81199430994E+00 -0.12580694939E+03  0.18602425105E+03  0.91073531590E+02 0.  0.
          5    1    3    3  502    0  0.74660977642E+02  0.57348022879E+02 -0.22380064200E+03  0.24283174642E+03  0.41800000000E+01 0. -1.
         -5    1    3    3    0  502  0.27723523001E+02 -0.58160017189E+02 -0.99251246825E+02  0.11840381634E+03  0.41800000000E+01 0. -1.
        -11    1    4    4    0    0  0.14023893797E+02 -0.40590746911E+00  0.77264041929E+00  0.14051025989E+02  0.00000000000E+00 0. -1.
         11    1    4    4    0    0 -0.11640839444E+03  0.12179017790E+01 -0.12657958981E+03  0.17197322506E+03  0.00000000000E+00 0.  1.
</event>
<event>
 8    1  0.6637272E-009  0.1265409E+03  0.7561462E-02  0.1232681E+00
         -2   -1    0    0    0  501 -0.00000000000E+00  0.00000000000E+00  0.56804720072E+03  0.56804720072E+03  0.00000000000E+00 0.  1.
          2   -1    0    0  501    0  0.00000000000E+00 -0.00000000000E+00 -0.38751378117E+02  0.38751378117E+02  0.00000000000E+00 0. -1.
         25    2    1    2    0    0 -0.69196012994E+02 -0.65554209910E+02  0.26454844018E+03  0.30776459968E+03  0.12509088280E+03 0.  0.
         23    2    1    2    0    0  0.69196012994E+02  0.65554209910E+02  0.26474738242E+03  0.29903397916E+03  0.10121611306E+03 0.  0.
          5    1    3    3  502    0 -0.28933934363E+01  0.35733822800E+02  0.63796482296E+02  0.73298986151E+02  0.41800000000E+01 0.  1.
         -5    1    3    3    0  502 -0.66302619557E+02 -0.10128803271E+03  0.20075195789E+03  0.23446561353E+03  0.41800000000E+01 0.  1.
        -11    1    4    4    0    0  0.55001435224E+02  0.46047645725E+02  0.26537737217E+03  0.27490124265E+03  0.00000000000E+00 0.  1.
         11    1    4    4    0    0  0.14194577770E+02  0.19506564185E+02 -0.62998974513E+00  0.24132736510E+02  0.00000000000E+00 0. -1.
</event>
<event>
 8    1  0.6637272E-009  0.2139384E+03  0.7561462E-02  0.1138485E+00
         -4   -1    0    0    0  501 -0.00000000000E+00  0.00000000000E+00  0.17994896989E+03  0.17994896989E+03  0.00000000000E+00 0.  1.
          4   -1    0    0  501    0  0.00000000000E+00 -0.00000000000E+00 -0.31405597558E+03  0.31405597558E+03  0.00000000000E+00 0. -1.
         25    2    1    2    0    0 -0.19848869814E+03  0.26550029398E+02 -0.13136304568E+03  0.27017573712E+03  0.12504403948E+03 0.  0.
         23    2    1    2    0    0  0.19848869814E+03 -0.26550029398E+02 -0.27439600165E+01  0.22382920835E+03  0.99946574959E+02 0.  0.
          5    1    3    3  502    0 -0.18732373796E+03  0.53647747895E+02 -0.79564676304E+02  0.21051430776E+03  0.41800000000E+01 0. -1.
         -5    1    3    3    0  502 -0.11164960178E+02 -0.27097718497E+02 -0.51798369373E+02  0.59661429360E+02  0.41800000000E+01 0. -1.
        -11    1    4    4    0    0  0.18517448826E+02 -0.13525721708E+02 -0.33689265501E+02  0.40753008095E+02  0.00000000000E+00 0. -1.
         11    1    4    4    0    0  0.17997124931E+03 -0.13024307690E+02  0.30945305485E+02  0.18307620026E+03  0.00000000000E+00 0.  1.
</event>
<event>
 8    1  0.6637272E-009  0.1017332E+03  0.7561462E-02  0.1276693E+00
         -1   -1    0    0    0  501 -0.00000000000E+00  0.00000000000E+00  0.46651633819E+02  0.46651633819E+02  0.00000000000E+00 0.  1.
          1   -1    0    0  501    0  0.00000000000E+00 -0.00000000000E+00 -0.44852584539E+03  0.44852584539E+03  0.00000000000E+00 0. -1.
         25    2    1    2    0    0  0.11001360133E+01  0.81338172361E+02 -0.30419415530E+03  0.33881879979E+03  0.12508791465E+03 0.  0.
         23    2    1    2    0    0 -0.11001360133E+01 -0.81338172361E+02 -0.97680056269E+02  0.15635867942E+03  0.91046881625E+02 0.  0.
          5    1    3    3  502    0  0.77511498029E+01 -0.48291860283E+01 -0.21253248777E+03  0.21276966917E+03  0.41800000000E+01 0.  1.
         -5    1    3    3    0  502 -0.66510137896E+01  0.86167358390E+02 -0.91661667533E+02  0.12604913062E+03  0.41800000000E+01 0.  1.
        -11    1    4    4    0    0  0.33953418776E+02 -0.34614438292E+02 -0.77184339176E+01  0.49097537688E+02  0.00000000000E+00 0.  1.
         11    1    4    4    0    0 -0.35053554789E+02 -0.46723734069E+02 -0.89961622352E+02  0.10726114173E+03  0.00000000000E+00 0. -1.
</event>
<event>
 8    1  0.6637272E-009  0.1777519E+03  0.7561462E-02  0.1169997E+00
         -2   -1    0    0    0  501 -0.00000000000E+00  0.00000000000E+00  0.24624313706E+02  0.24624313706E+02  0.00000000000E+00 0.  1.
          2   -1    0    0  501    0  0.00000000000E+00 -0.00000000000E+00 -0.16431630693E+04  0.16431630693E+04  0.00000000000E+00 0. -1.
         25    2    1    2    0    0 -0.13832094867E+03 -0.91709353689E+02 -0.93558363702E+03  0.95838803517E+03  0.12509034214E+03 0.  0.
         23    2    1    2    0    0  0.13832094867E+03  0.91709353689E+02 -0.68295511852E+03  0.70939934779E+03  0.96314330869E+02 0.  0.
          5    1    3    3  502    0 -0.13392425464E+03 -0.44153478173E+02 -0.83653066189E+03  0.84834324203E+03  0.41800000000E+01 0.  1.
         -5    1    3    3    0  502 -0.43966940301E+01 -0.47555875516E+02 -0.99052975137E+02  0.11004479314E+03  0.41800000000E+01 0.  1.
        -11    1    4    4    0    0  0.91678687632E+02  0.53171062280E+02 -0.58303103931E+03  0.59258529887E+03  0.00000000000E+00 0. -1.
         11    1    4    4    0    0  0.46642261040E+02  0.38538291409E+02 -0.99924079208E+02  0.11681404892E+03  0.00000000000E+00 0.  1.
</event>
<event>
 8    1  0.6637272E-009  0.3161152E+03  0.7561462E-02  0.1077451E+00
          2   -1    0    0  501    0  0.00000000000E+00  0.00000000000E+00  0.10144016164E+04  0.10144016164E+04  0.00000000000E+00 0. -1.
         -2   -1    0    0    0  501 -0.00000000000E+00 -0.00000000000E+00 -0.10882950288E+03  0.10882950288E+03  0.00000000000E+00 0.  1.
         25    2    1    2    0    0  0.30088059136E+03 -0.85361474585E+02  0.50263607171E+03  0.60506751229E+03  0.12509181526E+03 0.  0.
         23    2    1    2    0    0 -0.30088059136E+03  0.85361474585E+02  0.40293604176E+03  0.51816360694E+03  0.91215997525E+02 0.  0.
          5    1    3    3  502    0  0.12251027067E+03 -0.47397493331E+02  0.32449208536E+03  0.35009695036E+03  0.41800000000E+01 0. -1.
         -5    1    3    3    0  502  0.17837032069E+03 -0.37963981254E+02  0.17814398635E+03  0.25497056193E+03  0.41800000000E+01 0. -1.
        -11    1    4    4    0    0 -0.12342875646E+03  0.48372840218E+01  0.10479631809E+03  0.16198865862E+03  0.00000000000E+00 0.  1.
         11    1    4    4    0    0 -0.17745183490E+03  0.80524190563E+02  0.29813972368E+03  0.35617494832E+03  0.00000000000E+00 0. -1.
</event>
<event>
 8    1  0.6637272E-009  0.9242038E+02  0.7561462E-02  0.1297094E+00
          2   -1    0    0  501    0  0.00000000000E+00  0.00000000000E+00  0.18231544942E+03  0.18231544942E+03  0.00000000000E+00 0. -1.
         -2   -1    0    0    0  501 -0.00000000000E+00 -0.00000000000E+00 -0.71931429111E+02  0.71931429111E+02  0.00000000000E+00 0.  1.
         25    2    1    2    0    0 -0.14430288148E+02  0.91144240012E+01  0.10245043614E+03  0.16258703469E+03  0.12508855280E+03 0.  0.
         23    2    1    2    0    0  0.14430288148E+02 -0.91144240012E+01  0.79335841604E+01  0.91659843841E+02  0.89706628932E+02 0.  0.
          5    1    3    3  502    0  0.37785508597E+02 -0.29202007040E+02  0.81202747536E+02  0.94296662096E+02  0.41800000000E+01 0. -1.
         -5    1    3    3    0  502 -0.52215796745E+02  0.38316431041E+02  0.21247688609E+02  0.68290372591E+02  0.41800000000E+01 0. -1.
        -11    1    4    4    0    0  0.39898137330E+02 -0.19610215955E+02  0.32245304316E+02  0.54919774058E+02  0.00000000000E+00 0.  1.
         11    1    4    4    0    0 -0.25467849181E+02  0.10495791954E+02 -0.24311720156E+02  0.36740069782E+02  0.00000000000E+00 0. -1.
</event>
<event>
 8    1  0.6637272E-009  0.1018472E+03  0.7561462E-02  0.1276459E+00
          1   -1    0    0  501    0  0.00000000000E+00  0.00000000000E+00  0.18017286348E+03  0.18017286348E+03  0.00000000000E+00 0. -1.
         -1   -1    0    0    0  501 -0.00000000000E+00 -0.00000000000E+00 -0.99276835218E+02  0.99276835218E+02  0.00000000000E+00 0.  1.
         25    2    1    2    0    0 -0.65219813425E+02  0.29814172798E+01  0.23065834388E+00  0.14110074998E+03  0.12508739157E+03 0.  0.
         23    2    1    2    0    0  0.65219813425E+02 -0.29814172798E+01  0.80665369919E+02  0.13834894872E+03  0.91493260926E+02 0.  0.
          5    1    3    3  502    0 -0.33872723352E+02  0.60489536559E+02  0.20493215173E+02  0.72414015830E+02  0.41800000000E+01 0. -1.
         -5    1    3    3    0  502 -0.31347090073E+02 -0.57508119279E+02 -0.20262556830E+02  0.68686734151E+02  0.41800000000E+01 0. -1.
        -11    1    4    4    0    0  0.47681218267E+02  0.73665409248E+01  0.99519043080E+02  0.11059748838E+03  0.00000000000E+00 0. -1.
         11    1    4    4    0    0  0.17538595158E+02 -0.10347958205E+02 -0.18853673161E+02  0.27751460336E+02  0.00000000000E+00 0.  1.
</event>
<event>
 8    1  0.6637272E-009  0.1381472E+03  0.7561462E-02  0.1215844E+00
         -1   -1    0    0    0  501 -0.00000000000E+00  0.00000000000E+00  0.15987586956E+02  0.15987586956E+02  0.00000000000E+00 0.  1.
          1   -1    0    0  501    0  0.00000000000E+00 -0.00000000000E+00 -0.12861738755E+04  0.12861738755E+04  0.00000000000E+00 0. -1.
         25    2    1    2    0    0 -0.83847676178E+02  0.46389396344E+02 -0.77728714244E+03  0.79309759117E+03  0.12508428528E+03 0.  0.
         23    2    1    2    0    0  0.83847676178E+02 -0.46389396344E+02 -0.49289914606E+03  0.50906387124E+03  0.83749912973E+02 0.  0.
          5    1    3    3  502    0 -0.24388783884E+02  0.83676416696E+02 -0.42743428993E+03  0.43625004309E+03  0.41800000000E+01 0.  1.
         -5    1    3    3    0  502 -0.59458892293E+02 -0.37287020352E+02 -0.34985285251E+03  0.35684754808E+03  0.41800000000E+01 0.  1.
        -11    1    4    4    0    0  0.40874256406E+02  0.15216805326E+02 -0.10074295651E+03  0.10977886540E+03  0.00000000000E+00 0.  1.
         11    1    4    4    0    0  0.42973419771E+02 -0.61606201670E+02 -0.39215618955E+03  0.39928500584E+03  0.00000000000E+00 0. -1.
</event>
<event>
 8    1  0.6637272E-009  0.1138601E+03  0.7561462E-02  0.1253584E+00
         -3   -1    0    0    0  501 -0.00000000000E+00  0.00000000000E+00  0.70112518004E+02  0.70112518004E+02  0.00000000000E+00 0.  1.
          3   -1    0    0  501    0  0.00000000000E+00 -0.00000000000E+00 -0.20671787106E+03  0.20671787106E+03  0.00000000000E+00 0. -1.
         25    2    1    2    0    0  0.36959968351E+02 -0.16084684815E+02 -0.35791536644E+02  0.13621124993E+03  0.12509082367E+03 0.  0.
         23    2    1    2    0    0 -0.36959968351E+02  0.16084684815E+02 -0.10081381641E+03  0.14061913913E+03  0.89361962627E+02 0.  0.
          5    1    3    3  502    0  0.69962221248E+02 -0.48092398935E+02 -0.19079788905E+02  0.87115452027E+02  0.41800000000E+01 0.  1.
         -5    1    3    3    0  502 -0.33002252897E+02  0.32007714120E+02 -0.16711747739E+02  0.49095797905E+02  0.41800000000E+01 0.  1.
        -11    1    4    4    0    0 -0.55773066566E+02 -0.17163372193E+02 -0.72509611947E+02  0.93074486966E+02  0.00000000000E+00 0.  1.
         11    1    4    4    0    0  0.18813098215E+02  0.33248057008E+02 -0.28304204467E+02  0.47544652168E+02  0.00000000000E+00 0. -1.
</event>
<event>
 8    1  0.6637272E-009  0.1204184E+03  0.7561462E-02  0.1242408E+00
          2   -1    0    0  501    0  0.00000000000E+00  0.00000000000E+00  0.30876994901E+03  0.30876994901E+03  0.00000000000E+00 0. -1.
         -2   -1    0    0    0  501 -0.00000000000E+00 -0.00000000000E+00 -0.75198434469E+02  0.75198434469E+02  0.00000000000E+00 0.  1.
         25    2    1    2    0    0 -0.36089627761E+02  0.83000636997E+02  0.53304880644E+02  0.16334048703E+03  0.12508851837E+03 0.  0.
         23    2    1    2    0    0  0.36089627761E+02 -0.83000636997E+02  0.18026663390E+03  0.22062789645E+03  0.89381443390E+02 0.  0.
          5    1    3    3  502    0 -0.45898084246E+02 -0.15179435275E+02 -0.47960303736E+01  0.48759857466E+02  0.41800000000E+01 0. -1.
         -5    1    3    3    0  502  0.98084564852E+01  0.98180072272E+02  0.58100911017E+02  0.11458062956E+03  0.41800000000E+01 0. -1.
        -11    1    4    4    0    0 -0.13917640405E+01 -0.21423023333E+02 -0.48162392238E+01  0.22001797566E+02  0.00000000000E+00 0.  1.
         11    1    4    4    0    0  0.37481391802E+02 -0.61577613664E+02  0.18508287312E+03  0.19862609889E+03  0.00000000000E+00 0. -1.
</event>
<event>
 8    1  0.6637272E-009  0.8830301E+02  0.7561462E-02  0.1307014E+00
          1   -1    0    0  501    0  0.00000000000E+00  0.00000000000E+00  0.15099188645E+04  0.15099188645E+04  0.00000000000E+00 0. -1.
         -1   -1    0    0    0  501 -0.00000000000E+00 -0.00000000000E+00 -0.16974703172E+02  0.16974703172E+02  0.00000000000E+00 0.  1.
         25    2    1    2    0    0  0.68966701042E+01 -0.52613421335E+00  0.13597237782E+04  0.13654828395E+04  0.12508713396E+03 0.  0.
         23    2    1    2    0    0 -0.68966701042E+01  0.52613421335E+00  0.13322038316E+03  0.16141072820E+03  0.90873053296E+02 0.  0.
          5    1    3    3  502    0  0.58374228788E+02  0.23181235122E+02  0.91149177935E+03  0.91366276956E+03  0.41800000000E+01 0.  1.
         -5    1    3    3    0  502 -0.51477558684E+02 -0.23707369335E+02  0.44823199881E+03  0.45182006990E+03  0.41800000000E+01 0.  1.
        -11    1    4    4    0    0 -0.25774599162E+02  0.17734177562E+02  0.13219438811E+03  0.13584618973E+03  0.00000000000E+00 0. -1.
         11    1    4    4    0    0  0.18877929058E+02 -0.17208043349E+02  0.10259950406E+01  0.25564538471E+02  0.00000000000E+00 0.  1.
</event>
<event>
 8    1  0.6637272E-009  0.1124779E+03  0.7561462E-02  0.1256049E+00
          3   -1    0    0  501    0  0.00000000000E+00  0.00000000000E+00  0.56756111417E+02  0.56756111417E+02  0.00000000000E+00 0. -1.
         -3   -1    0    0    0  501 -0.00000000000E+00 -0.00000000000E+00 -0.44148575529E+03  0.44148575529E+03  0.00000000000E+00 0.  1.
         25    2    1    2    0    0  0.64166354944E+02  0.57663859022E+02 -0.32323862365E+03  0.35717320519E+03  0.12508816467E+03 0.  0.
         23    2    1    2    0    0 -0.64166354944E+02 -0.57663859022E+02 -0.61491020215E+02  0.14106866151E+03  0.93149234830E+02 0.  0.
          5    1    3    3  502    0  0.47666327159E+02  0.86360171910E+02 -0.14237469632E+03  0.17325756719E+03  0.41800000000E+01 0.  1.
         -5    1    3    3    0  502  0.16500027785E+02 -0.28696312887E+02 -0.18086392733E+03  0.18391563800E+03  0.41800000000E+01 0.  1.
        -11    1    4    4    0    0 -0.39824406042E+02 -0.55655709406E+02  0.65764820338E+01  0.68751664867E+02  0.00000000000E+00 0.  1.
         11    1    4    4    0    0 -0.24341948902E+02 -0.20081496166E+01 -0.68067502249E+02  0.72316996644E+02  0.00000000000E+00 0. -1.
</event>
<event>
 8    1  0.6637272E-009  0.1114073E+03  0.7561462E-02  0.1257986E+00
          2   -1    0    0  501    0  0.00000000000E+00  0.00000000000E+00  0.90280844368E+02  0.90280844368E+02  0.00000000000E+00 0. -1.
         -2   -1    0    0    0  501 -0.00000000000E+00 -0.00000000000E+00 -0.20269210609E+03  0.20269210609E+03  0.00000000000E+00 0.  1.
         25    2    1    2    0    0  0.62053902786E+02  0.11954899065E+02 -0.74898878556E+01  0.14034967221E+03  0.12509326763E+03 0.  0.
         23    2    1    2    0    0 -0.62053902786E+02 -0.11954899065E+02 -0.10492137387E+03  0.15262327825E+03  0.91059123141E+02 0.  0.
          5    1    3    3  502    0 -0.30753177658E+02  0.14371770473E+02  0.24492930552E+02  0.42067585736E+02  0.41800000000E+01 0. -1.
         -5    1    3    3    0  502  0.92807080445E+02 -0.24168714078E+01 -0.31982818407E+02  0.98282086472E+02  0.41800000000E+01 0. -1.
        -11    1    4    4    0    0 -0.42633403388E+02  0.28172058490E+02 -0.93581030986E+02  0.10662401852E+03  0.00000000000E+00 0.  1.
         11    1    4    4    0    0 -0.19420499398E+02 -0.40126957555E+02 -0.11340342881E+02  0.45999259735E+02  0.00000000000E+00 0. -1.
</event>
<event>
 7    1  0.6637272E-009  0.1279731E+03  0.7561462E-02  0.1230495E+00
         -1   -1    0    0    0  501 -0.00000000000E+00  0.00000000000E+00  0.76092050371E+02  0.76092050371E+02  0.00000000000E+00 0.  1.
          1   -1    0    0  501    0  0.00000000000E+00 -0.00000000000E+00 -0.28167558106E+03  0.28167558106E+03  0.00000000000E+00 0. -1.
         25    2    1    2    0    0  0.11435037647E+03  0.96024626908E+01 -0.12993938668E+03  0.21377401501E+03  0.12508744699E+03 0.  0.
          5    1    3    3  502    0 -0.10178078194E+01  0.19941560804E+02 -0.88283523560E+02  0.90609904052E+02  0.41800000000E+01 0. -1.
         -5    1    3    3    0  502  0.11536818429E+03 -0.10339098114E+02 -0.41655863117E+02  0.12316411096E+03  0.41800000000E+01 0. -1.
        -11    1    1    2    0    0 -0.19199250433E+02 -0.14957800594E+02 -0.37724534178E+01  0.24628812814E+02  0.00000000000E+00 0.  1.
         11    1    1    2    0    0 -0.95151126039E+02  0.53553379037E+01 -0.71871690593E+02  0.11936480360E+03  0.00000000000E+00 0. -1.
</event>
<event>
 8    1  0.6637272E-009  0.3159718E+03  0.7561462E-02  0.1077518E+00
         -1   -1    0    0    0  501 -0.00000000000E+00  0.00000000000E+00  0.38955449205E+03  0.38955449205E+03  0.00000000000E+00 0.  1.
          1   -1    0    0  501    0  0.00000000000E+00 -0.00000000000E+00 -0.34862221008E+03  0.34862221008E+03  0.00000000000E+00 0. -1.
         25    2    1    2    0    0  0.15854483461E+03 -0.26218696207E+03  0.19449763350E+03  0.38386828966E+03  0.12508823568E+03 0.  0.
         23    2    1    2    0    0 -0.15854483461E+03  0.26218696207E+03 -0.15356535152E+03  0.35430841247E+03  0.89853582566E+02 0.  0.
          5    1    3    3  502    0 -0.19767932176E+01 -0.54915084610E+02  0.81446749556E+02  0.98339308734E+02  0.41800000000E+01 0.  1.
         -5    1    3    3    0  502  0.16052162782E+03 -0.20727187746E+03  0.11305088394E+03  0.28552898092E+03  0.41800000000E+01 0.  1.
        -11    1    4    4    0    0 -0.50823872894E+02  0.30856413325E+02 -0.65762245143E+01  0.59819988533E+02  0.00000000000E+00 0.  1.
         11    1    4    4    0    0 -0.10772096171E+03  0.23133054875E+03 -0.14698912701E+03  0.29448842394E+03  0.00000000000E+00 0. -1.
</event>
<event>
 8    1  0.6637272E-009  0.8913071E+02  0.7561462E-02  0.1304971E+00
          1   -1    0    0  501    0  0.00000000000E+00  0.00000000000E+00  0.35532788599E+03  0.35532788599E+03  0.00000000000E+00 0. -1.
         -1   -1    0    0    0  501 -0.00000000000E+00 -0.00000000000E+00 -0.39091823609E+02  0.39091823609E+02  0.00000000000E+00 0.  1.
         25    2    1    2    0    0 -0.28172354161E+02 -0.31162757751E+02  0.19330499285E+03  0.23405019609E+03  0.12509146661E+03 0.  0.
         23    2    1    2    0    0  0.28172354161E+02  0.31162757751E+02  0.12293106953E+03  0.16036951351E+03  0.94029431550E+02 0.  0.
          5    1    3    3  502    0 -0.52070473838E+02 -0.56257880503E+01  0.19172184475E+03  0.19879064840E+03  0.41800000000E+01 0. -1.
         -5    1    3    3    0  502  0.23898119677E+02 -0.25536969700E+02  0.15831481038E+01  0.35259547692E+02  0.41800000000E+01 0. -1.
        -11    1    4    4    0    0  0.32779675298E+01 -0.27017119891E+02  0.78400824598E+02  0.82990114688E+02  0.00000000000E+00 0. -1.
         11    1    4    4    0    0  0.24894386631E+02  0.58179877641E+02  0.44530244931E+02  0.77379398820E+02  0.00000000000E+00 0.  1.
</event>
<event>
 8    1  0.6637272E-009  0.1020138E+03  0.7561462E-02  0.1276117E+00
         -2   -1    0    0    0  501 -0.00000000000E+00  0.00000000000E+00  0.38561960172E+02  0.38561960172E+02  0.00000000000E+00 0.  1.
          2   -1    0    0  501    0  0.00000000000E+00 -0.00000000000E+00 -0.38741636414E+03  0.38741636414E+03  0.00000000000E+00 0. -1.
         25    2    1    2    0    0  0.40780684733E+01 -0.56224377669E+02 -0.19522722907E+03  0.23862076185E+03  0.12509350793E+03 0.  0.
         23    2    1    2    0    0 -0.40780684733E+01  0.56224377669E+02 -0.15362717490E+03  0.18735756247E+03  0.91234511345E+02 0.  0.
          5    1    3    3  502    0 -0.36408418747E+02 -0.17535291745E+02 -0.17384961404E+03  0.17853352658E+03  0.41800000000E+01 0.  1.
         -5    1    3    3    0  502  0.40486487220E+02 -0.38689085924E+02 -0.21377615035E+02  0.60087235264E+02  0.41800000000E+01 0.  1.
        -11    1    4    4    0    0  0.41617883007E+02  0.42614421071E+02 -0.85148656314E+02  0.10391501692E+03  0.00000000000E+00 0. -1.
         11    1    4    4    0    0 -0.45695951481E+02  0.13609956598E+02 -0.68478518584E+02  0.83442545549E+02  0.00000000000E+00 0.  1.
</event>
<event>
 8    1  0.6637272E-009  0.1686637E+03  0.7561462E-02  0.1179249E+00
         -2   -1    0    0    0  501 -0.00000000000E+00  0.00000000000E+00  0.25799664039E+03  0.25799664039E+03  0.00000000000E+00 0.  1.
          2   -1    0    0  501    0  0.00000000000E+00 -0.00000000000E+00 -0.31824266433E+03  0.31824266433E+03  0.00000000000E+00 0. -1.
         25    2    1    2    0    0 -0.15672821505E+03  0.28359557638E+02  0.18145750894E+03  0.27193550447E+03  0.12511631844E+03 0.  0.
         23    2    1    2    0    0  0.15672821505E+03 -0.28359557638E+02 -0.24170353288E+03  0.30430380025E+03  0.93873356920E+02 0.  0.
          5    1    3    3  502    0 -0.61616136149E+02  0.34943137249E+01 -0.40059275855E+01  0.61986113914E+02  0.41800000000E+01 0.  1.
         -5    1    3    3    0  502 -0.95112078897E+02  0.24865243913E+02  0.18546343653E+03  0.20994939056E+03  0.41800000000E+01 0.  1.
        -11    1    4    4    0    0  0.13226172942E+03  0.88314467262E+01 -0.21443694426E+03  0.25209990596E+03  0.00000000000E+00 0.  1.
         11    1    4    4    0    0  0.24466485624E+02 -0.37191004364E+02 -0.27266588625E+02  0.52203894296E+02  0.00000000000E+00 0. -1.
</event>
<event>
 8    1  0.6637272E-009  0.1335046E+03  0.7561462E-02  0.1222346E+00
         -2   -1    0    0    0  501 -0.00000000000E+00  0.00000000000E+00  0.11240594177E+03  0.11240594177E+03  0.00000000000E+00 0.  1.
          2   -1    0    0  501    0  0.00000000000E+00 -0.00000000000E+00 -0.24533384106E+03  0.24533384106E+03  0.00000000000E+00 0. -1.
         25    2    1    2    0    0  0.50438386326E+02  0.94635536123E+02 -0.13998844425E+03  0.21620450695E+03  0.12509080219E+03 0.  0.
         23    2    1    2    0    0 -0.50438386326E+02 -0.94635536123E+02  0.70605449619E+01  0.14153527588E+03  0.92100312214E+02 0.  0.
          5    1    3    3  502    0  0.25685634349E+02 -0.17481044554E+01  0.16388035008E+02  0.30803372746E+02  0.41800000000E+01 0.  1.
         -5    1    3    3    0  502  0.24752751978E+02  0.96383640578E+02 -0.15637647926E+03  0.18540113421E+03  0.41800000000E+01 0.  1.
        -11    1    4    4    0    0 -0.76376362307E+02 -0.55641477127E+02  0.33224111171E+01  0.94553482812E+02  0.00000000000E+00 0. -1.
         11    1    4    4    0    0  0.25937975981E+02 -0.38994058996E+02  0.37381338448E+01  0.46981793065E+02  0.00000000000E+00 0.  1.
</event>
<event>
 8    1  0.6637272E-009  0.9525239E+02  0.7561462E-02  0.1290609E+00
         -2   -1    0    0    0  501 -0.00000000000E+00  0.00000000000E+00  0.11200320519E+02  0.11200320519E+02  0.00000000000E+00 0. -1.
          2   -1    0    0  501    0  0.00000000000E+00 -0.00000000000E+00 -0.11504174279E+04  0.11504174279E+04  0.00000000000E+00 0.  1.
         25    2    1    2    0    0 -0.82295438327E+01  0.21765304494E+02 -0.76216125389E+03  0.77270856597E+03  0.12508915667E+03 0.  0.
         23    2    1    2    0    0  0.82295438327E+01 -0.21765304494E+02 -0.37705585352E+03  0.38890918248E+03  0.92400117275E+02 0.  0.
          5    1    3    3  502    0 -0.25281437449E+02  0.55672841725E+02 -0.19827178917E+03  0.20752780818E+03  0.41800000000E+01 0. -1.
         -5    1    3    3    0  502  0.17051893616E+02 -0.33907537231E+02 -0.56388946471E+03  0.56518075779E+03  0.41800000000E+01 0. -1.
        -11    1    4    4    0    0 -0.24071889198E+02 -0.45143714563E+02 -0.15283752286E+03  0.16117294812E+03  0.00000000000E+00 0. -1.
         11    1    4    4    0    0  0.32301433031E+02  0.23378410069E+02 -0.22421833066E+03  0.22773623436E+03  0.00000000000E+00 0.  1.
</event>
<event>
 8    1  0.6637272E-009  0.9161905E+02  0.7561462E-02  0.1298978E+00
          1   -1    0    0  501    0  0.00000000000E+00  0.00000000000E+00  0.20550650115E+03  0.20550650115E+03  0.00000000000E+00 0. -1.
         -1   -1    0    0    0  501 -0.00000000000E+00 -0.00000000000E+00 -0.12697335381E+03  0.12697335381E+03  0.00000000000E+00 0.  1.
         25    2    1    2    0    0  0.90422883739E+02 -0.76841087289E+01  0.12034339912E+03  0.19587168191E+03  0.12509132117E+03 0.  0.
         23    2    1    2    0    0 -0.90422883739E+02  0.76841087289E+01 -0.41810251790E+02  0.13660817305E+03  0.93157674721E+02 0.  0.
          5    1    3    3  502    0  0.45543511951E+02 -0.11647845549E+02 -0.17851242541E+02  0.50458131625E+02  0.41800000000E+01 0. -1.
         -5    1    3    3    0  502  0.44879371787E+02  0.39637368199E+01  0.13819464166E+03  0.14541355028E+03  0.41800000000E+01 0. -1.
        -11    1    4    4    0    0 -0.66530771654E+02  0.69428733104E+01 -0.71883279620E+02  0.98192428199E+02  0.00000000000E+00 0.  1.
         11    1    4    4    0    0 -0.23892112084E+02  0.74123541855E+00  0.30073027830E+02  0.38415744854E+02  0.00000000000E+00 0. -1.
</event>
<event>
 8    1  0.6637272E-009  0.1357014E+03  0.7561462E-02  0.1219233E+00
          2   -1    0    0  501    0  0.00000000000E+00  0.00000000000E+00  0.31671098855E+02  0.31671098855E+02  0.00000000000E+00 0. -1.
         -2   -1    0    0    0  501 -0.00000000000E+00 -0.00000000000E+00 -0.79587708721E+03  0.79587708721E+03  0.00000000000E+00 0.  1.
         25    2    1    2    0    0  0.10223006198E+03  0.40209776500E+02 -0.49871744908E+03  0.52577170181E+03  0.12509587004E+03 0.  0.
         23    2    1    2    0    0 -0.10223006198E+03 -0.40209776500E+02 -0.26548853928E+03  0.30177648426E+03  0.92287974662E+02 0.  0.
          5    1    3    3  502    0 -0.12739777864E+02  0.43583743435E+02 -0.86441216039E+02  0.97731268600E+02  0.41800000000E+01 0.  1.
         -5    1    3    3    0  502  0.11496983985E+03 -0.33739669349E+01 -0.41227623304E+03  0.42804043321E+03  0.41800000000E+01 0.  1.
        -11    1    4    4    0    0 -0.71667379081E+02 -0.21288607167E+02 -0.25285389428E+03  0.26367500805E+03  0.00000000000E+00 0.  1.
         11    1    4    4    0    0 -0.30562682903E+02 -0.18921169332E+02 -0.12634644997E+02  0.38101476209E+02  0.00000000000E+00 0. -1.
</event>
<event>
 8    1  0.6637272E-009  0.1020128E+03  0.7561462E-02  0.1276119E+00
          3   -1    0    0  501    0  0.00000000000E+00  0.00000000000E+00  0.30358168158E+03  0.30358168158E+03  0.00000000000E+00 0. -1.
         -3   -1    0    0    0  501 -0.00000000000E+00 -0.00000000000E+00 -0.55715701430E+02  0.55715701430E+02  0.00000000000E+00 0.  1.
         25    2    1    2    0    0  0.29348221885E+02 -0.33769401964E+02  0.21021030923E+03  0.24867164833E+03  0.12509006330E+03 0.  0.
         23    2    1    2    0    0 -0.29348221885E+02  0.33769401964E+02  0.37655670913E+02  0.11062573468E+03  0.93906405455E+02 0.  0.
          5    1    3    3  502    0 -0.18684390709E+01 -0.78149327469E+02  0.12971757071E+03  0.15150884133E+03  0.41800000000E+01 0.  1.
         -5    1    3    3    0  502  0.31216660956E+02  0.44379925505E+02  0.80492738521E+02  0.97162806998E+02  0.41800000000E+01 0.  1.
        -11    1    4    4    0    0  0.94297701075E+01 -0.93854306612E+01 -0.23075123753E+02  0.26635844443E+02  0.00000000000E+00 0.  1.
         11    1    4    4    0    0 -0.38777991993E+02  0.43154832625E+02  0.60730794666E+02  0.83989890241E+02  0.00000000000E+00 0. -1.
</event>
<event>
 8    1  0.6637272E-009  0.6078472E+02  0.7561462E-02  0.1394568E+00
          2   -1    0    0  501    0  0.00000000000E+00  0.00000000000E+00  0.51391709519E+03  0.51391709519E+03  0.00000000000E+00 0. -1.
         -2   -1    0    0    0  501 -0.00000000000E+00 -0.00000000000E+00 -0.28133762847E+02  0.28133762847E+02  0.00000000000E+00 0.  1.
         25    2    1    2    0    0 -0.45761687938E+02 -0.70540986412E+00  0.23353721010E+03  0.26885251323E+03  0.12508963059E+03 0.  0.
         23    2    1    2    0    0  0.45761687938E+02  0.70540986412E+00  0.25224612224E+03  0.27319834481E+03  0.94417158057E+02 0.  0.
          5    1    3    3  502    0 -0.85495051227E+01 -0.55353282491E+01 -0.14361050043E+02  0.18095470566E+02  0.41800000000E+01 0.  1.
         -5    1    3    3    0  502 -0.37212182815E+02  0.48299183849E+01  0.24789826015E+03  0.25075704266E+03  0.41800000000E+01 0.  1.
        -11    1    4    4    0    0  0.54366944686E+02 -0.13661168162E+02  0.25011117358E+03  0.25631619407E+03  0.00000000000E+00 0. -1.
         11    1    4    4    0    0 -0.86052567474E+01  0.14366578027E+02  0.21349486556E+01  0.16882150741E+02  0.00000000000E+00 0.  1.
</event>
<event>
 8    1  0.6637272E-009  0.1221774E+03  0.7561462E-02  0.1239548E+00
          2   -1    0    0  501    0  0.00000000000E+00  0.00000000000E+00  0.13903738113E+03  0.13903738113E+03  0.00000000000E+00 0. -1.
         -2   -1    0    0    0  501 -0.00000000000E+00 -0.00000000000E+00 -0.17182425286E+03  0.17182425286E+03  0.00000000000E+00 0.  1.
         25    2    1    2    0    0  0.83245788741E+02  0.49421290387E+02  0.35292185153E+02  0.16206287582E+03  0.12508601880E+03 0.  0.
         23    2    1    2    0    0 -0.83245788741E+02 -0.49421290387E+02 -0.68079056889E+02  0.14879875817E+03  0.90188619906E+02 0.  0.
          5    1    3    3  502    0  0.37099350092E+02  0.81528708480E+02 -0.93476551615E+01  0.90156215209E+02  0.41800000000E+01 0. -1.
         -5    1    3    3    0  502  0.46146438648E+02 -0.32107418093E+02  0.44639840314E+02  0.71906660608E+02  0.41800000000E+01 0. -1.
        -11    1    4    4    0    0 -0.49273331216E+02 -0.38805739300E+02  0.95091117204E+01  0.63436344294E+02  0.00000000000E+00 0. -1.
         11    1    4    4    0    0 -0.33972457525E+02 -0.10615551087E+02 -0.77588168609E+02  0.85362413879E+02  0.00000000000E+00 0.  1.
</event>
<event>
 8    1  0.6637272E-009  0.1628518E+03  0.7561462E-02  0.1185514E+00
          1   -1    0    0  501    0  0.00000000000E+00  0.00000000000E+00  0.58815963512E+02  0.58815963512E+02  0.00000000000E+00 0. -1.
         -1   -1    0    0    0  501 -0.00000000000E+00 -0.00000000000E+00 -0.64812015331E+03  0.64812015331E+03  0.00000000000E+00 0.  1.
         25    2    1    2    0    0 -0.14345767673E+03  0.21168632950E+02 -0.43515283155E+03  0.47543066733E+03  0.12509243224E+03 0.  0.
         23    2    1    2    0    0  0.14345767673E+03 -0.21168632950E+02 -0.15415135825E+03  0.23150544949E+03  0.93829184469E+02 0.  0.
          5    1    3    3  502    0 -0.49297169014E+02  0.47631910959E+02 -0.72781051654E+02  0.10006779549E+03  0.41800000000E+01 0.  1.
         -5    1    3    3    0  502 -0.94160507716E+02 -0.26463278009E+02 -0.36237177989E+03  0.37536287184E+03  0.41800000000E+01 0.  1.
        -11    1    4    4    0    0  0.45882541761E+01 -0.19725582828E+02  0.44079117695E+01  0.20726320958E+02  0.00000000000E+00 0. -1.
         11    1    4    4    0    0  0.13886942255E+03 -0.14430501218E+01 -0.15855927002E+03  0.21077912853E+03  0.00000000000E+00 0.  1.
</event>
<event>
 8    1  0.6637272E-009  0.1038257E+03  0.7561462E-02  0.1272451E+00
         -1   -1    0    0    0  501 -0.00000000000E+00  0.00000000000E+00  0.25409201175E+02  0.25409201175E+02  0.00000000000E+00 0.  1.
          1   -1    0    0  501    0  0.00000000000E+00 -0.00000000000E+00 -0.59083784741E+03  0.59083784741E+03  0.00000000000E+00 0. -1.
         25    2    1    2    0    0 -0.17247075666E+02 -0.44086596145E+01 -0.45701418548E+03  0.47415884442E+03  0.12509095139E+03 0.  0.
         23    2    1    2    0    0  0.17247075666E+02  0.44086596145E+01 -0.10841446076E+03  0.14208820416E+03  0.90102522504E+02 0.  0.
          5    1    3    3  502    0  0.26804890615E+02 -0.53394864944E+02 -0.19757522129E+03  0.20645327373E+03  0.41800000000E+01 0.  1.
         -5    1    3    3    0  502 -0.44051966280E+02  0.48986205329E+02 -0.25943896418E+03  0.26770557070E+03  0.41800000000E+01 0.  1.
        -11    1    4    4    0    0  0.37289951686E+02  0.30968995115E+02 -0.30253177112E+02  0.57139074901E+02  0.00000000000E+00 0.  1.
         11    1    4    4    0    0 -0.20042876020E+02 -0.26560335500E+02 -0.78161283643E+02  0.84949129258E+02  0.00000000000E+00 0. -1.
</event>
<event>
 8    1  0.6637272E-009  0.9930896E+02  0.7561462E-02  0.1281756E+00
          1   -1    0    0  501    0  0.00000000000E+00  0.00000000000E+00  0.26857339225E+03  0.26857339225E+03  0.00000000000E+00 0. -1.
         -1   -1    0    0    0  501 -0.00000000000E+00 -0.00000000000E+00 -0.55198702450E+02  0.55198702450E+02  0.00000000000E+00 0.  1.
         25    2    1    2    0    0 -0.26078770493E+02 -0.37812166350E+02  0.81635904510E+02  0.15627831187E+03  0.12509447494E+03 0.  0.
         23    2    1    2    0    0  0.26078770493E+02  0.37812166350E+02  0.13173878529E+03  0.16749378283E+03  0.92677923708E+02 0.  0.
          5    1    3    3  502    0 -0.11753670624E+02  0.31410488520E+02  0.78419611178E+02  0.85392478472E+02  0.41800000000E+01 0. -1.
         -5    1    3    3    0  502 -0.14325099869E+02 -0.69222654870E+02  0.32162933324E+01  0.70885833397E+02  0.41800000000E+01 0. -1.
        -11    1    4    4    0    0 -0.29446958553E+02  0.61258426178E+01  0.79285099604E+02  0.84798445357E+02  0.00000000000E+00 0.  1.
         11    1    4    4    0    0  0.55525729046E+02  0.31686323732E+02  0.52453685685E+02  0.82695337473E+02  0.00000000000E+00 0. -1.
</event>
<event>
 8    1  0.6637272E-009  0.9876075E+02  0.7561462E-02  0.1282924E+00
         -1   -1    0    0    0  501 -0.00000000000E+00  0.00000000000E+00  0.42385850454E+03  0.42385850454E+03  0.00000000000E+00 0.  1.
          1   -1    0    0  501    0  0.00000000000E+00 -0.00000000000E+00 -0.41700904735E+02  0.41700904735E+02  0.00000000000E+00 0. -1.
         25    2    1    2    0    0 -0.49807136164E+02 -0.14215968670E+02  0.31079388195E+03  0.33900153033E+03  0.12508539456E+03 0.  0.
         23    2    1    2    0    0  0.49807136164E+02  0.14215968670E+02  0.71363717856E+02  0.12655787894E+03  0.90781451400E+02 0.  0.
          5    1    3    3  502    0 -0.65287970482E+02  0.20082800791E+02  0.28521179277E+03  0.29330713785E+03  0.41800000000E+01 0.  1.
         -5    1    3    3    0  502  0.15480834318E+02 -0.34298769461E+02  0.25582089180E+02  0.45694392485E+02  0.41800000000E+01 0.  1.
        -11    1    4    4    0    0 -0.15530214954E+02  0.20351192421E+02  0.52285370111E+02  0.58216136398E+02  0.00000000000E+00 0.  1.
         11    1    4    4    0    0  0.65337351117E+02 -0.61352237512E+01  0.19078347746E+02  0.68341742546E+02  0.00000000000E+00 0. -1.
</event>
<event>
 8    1  0.6637272E-009  0.1266348E+03  0.7561462E-02  0.1232536E+00
          1   -1    0    0  501    0  0.00000000000E+00  0.00000000000E+00  0.10826160231E+03  0.10826160231E+03  0.00000000000E+00 0. -1.
         -1   -1    0    0    0  501 -0.00000000000E+00 -0.00000000000E+00 -0.15518071312E+03  0.15518071312E+03  0.00000000000E+00 0.  1.
         25    2    1    2    0    0 -0.54681789527E+02 -0.43890761471E+02 -0.36143266977E+02  0.14788343386E+03  0.12508667880E+03 0.  0.
         23    2    1    2    0    0  0.54681789527E+02  0.43890761471E+02 -0.10775843829E+02  0.11555888158E+03  0.91220826862E+02 0.  0.
          5    1    3    3  502    0 -0.84076117039E+02 -0.63612460138E+02 -0.38115621981E+02  0.11218561218E+03  0.41800000000E+01 0. -1.
         -5    1    3    3    0  502  0.29394327512E+02  0.19721698667E+02  0.19723550035E+01  0.35697821676E+02  0.41800000000E+01 0. -1.
        -11    1    4    4    0    0 -0.18857912534E+02  0.32671921992E+02 -0.16018715105E+02  0.40983833221E+02  0.00000000000E+00 0.  1.
         11    1    4    4    0    0  0.73539702061E+02  0.11218839478E+02  0.52428712762E+01  0.74575048359E+02  0.00000000000E+00 0. -1.
</event>
<event>
 8    1  0.6637272E-009  0.1720850E+03  0.7561462E-02  0.1175691E+00
          1   -1    0    0  501    0  0.00000000000E+00  0.00000000000E+00  0.32213985865E+04  0.32213985865E+04  0.00000000000E+00 0. -1.
         -1   -1    0    0    0  501 -0.00000000000E+00 -0.00000000000E+00 -0.17218315283E+02  0.17218315283E+02  0.00000000000E+00 0.  1.
         25    2    1    2    0    0  0.79430395498E+02 -0.14336424217E+03  0.25545702424E+04  0.25628771056E+04  0.12508973329E+03 0.  0.
         23    2    1    2    0    0 -0.79430395498E+02  0.14336424217E+03  0.64961002886E+03  0.67573979623E+03  0.88139599224E+02 0.  0.
          5    1    3    3  502    0 -0.11557515355E+02 -0.24818547075E+02  0.11574453888E+04  0.11577766783E+04  0.41800000000E+01 0. -1.
         -5    1    3    3    0  502  0.90987910852E+02 -0.11854569509E+03  0.13971248536E+04  0.14051004272E+04  0.41800000000E+01 0. -1.
        -11    1    4    4    0    0 -0.68243752496E+02  0.13922348230E+03  0.64428091617E+03  0.66267509892E+03  0.00000000000E+00 0. -1.
         11    1    4    4    0    0 -0.11186643002E+02  0.41407598619E+01  0.53291126904E+01  0.13064697315E+02  0.00000000000E+00 0.  1.
</event>
<event>
 8    1  0.6637272E-009  0.1366984E+03  0.7561462E-02  0.1217842E+00
         -1   -1    0    0    0  501 -0.00000000000E+00  0.00000000000E+00  0.40412442230E+02  0.40412442230E+02  0.00000000000E+00 0.  1.
          1   -1    0    0  501    0  0.00000000000E+00 -0.00000000000E+00 -0.48585262540E+03  0.48585262540E+03  0.00000000000E+00 0. -1.
         25    2    1    2    0    0  0.50543204090E+02  0.71429991729E+02 -0.23170333499E+03  0.27747204206E+03  0.12508972572E+03 0.  0.
         23    2    1    2    0    0 -0.50543204090E+02 -0.71429991729E+02 -0.21373684818E+03  0.24879302557E+03  0.92507675922E+02 0.  0.
          5    1    3    3  502    0 -0.37336381371E+02  0.36956553329E+02 -0.12065746216E+03  0.13166429958E+03  0.41800000000E+01 0. -1.
         -5    1    3    3    0  502  0.87879585460E+02  0.34473438400E+02 -0.11104587283E+03  0.14580774248E+03  0.41800000000E+01 0. -1.
        -11    1    4    4    0    0 -0.28384841789E+02 -0.91811171149E+02 -0.17591058565E+03  0.20044830889E+03  0.00000000000E+00 0. -1.
         11    1    4    4    0    0 -0.22158362300E+02  0.20381179420E+02 -0.37826262532E+02  0.48344716687E+02  0.00000000000E+00 0.  1.
</event>
<event>
 8    1  0.6637272E-009  0.1327402E+03  0.7561462E-02  0.1223446E+00
         -2   -1    0    0    0  501 -0.00000000000E+00  0.00000000000E+00  0.31874559042E+02  0.31874559042E+02  0.00000000000E+00 0.  1.
          2   -1    0    0  501    0  0.00000000000E+00 -0.00000000000E+00 -0.83589221093E+03  0.83589221093E+03  0.00000000000E+00 0. -1.
         25    2    1    2    0    0 -0.22954316104E+02  0.10380411774E+03 -0.58517990084E+03  0.60777106083E+03  0.12509176853E+03 0.  0.
         23    2    1    2    0    0  0.22954316104E+02 -0.10380411774E+03 -0.21883775105E+03  0.25999570914E+03  0.91682124752E+02 0.  0.
          5    1    3    3  502    0  0.43944484321E+02  0.17680130227E+02 -0.27188903564E+03  0.27601598651E+03  0.41800000000E+01 0.  1.
         -5    1    3    3    0  502 -0.66898800425E+02  0.86123987511E+02 -0.31329086520E+03  0.33175507432E+03  0.41800000000E+01 0.  1.
        -11    1    4    4    0    0  0.26395609013E+02 -0.69928759785E+02 -0.21263002515E+03  0.22538475373E+03  0.00000000000E+00 0. -1.
         11    1    4    4    0    0 -0.34412929093E+01 -0.33875357953E+02 -0.62077259017E+01  0.34610955407E+02  0.00000000000E+00 0.  1.
</event>
<event>
 8    1  0.6637272E-009  0.1085964E+03  0.7561462E-02  0.1263191E+00
         -4   -1    0    0    0  501 -0.00000000000E+00  0.00000000000E+00  0.15898443364E+03  0.15898443364E+03  0.00000000000E+00 0. -1.
          4   -1    0    0  501    0  0.00000000000E+00 -0.00000000000E+00 -0.93691534260E+02  0.93691534260E+02  0.00000000000E+00 0.  1.
         25    2    1    2    0    0 -0.55402509018E+00  0.50156600480E+02  0.60439146887E+02  0.14770481959E+03  0.12509129361E+03 0.  0.
         23    2    1    2    0    0  0.55402509018E+00 -0.50156600480E+02  0.48537524920E+01  0.10497114831E+03  0.92083611728E+02 0.  0.
          5    1    3    3  502    0 -0.56139481755E+02  0.53377467227E+02  0.24715999755E+02  0.81419582799E+02  0.41800000000E+01 0. -1.
         -5    1    3    3    0  502  0.55585456665E+02 -0.32208667473E+01  0.35723147132E+02  0.66285236790E+02  0.41800000000E+01 0. -1.
        -11    1    4    4    0    0 -0.37165633355E+01  0.16537118908E+02  0.29267438719E+02  0.33821178483E+02  0.00000000000E+00 0. -1.
         11    1    4    4    0    0  0.42705884256E+01 -0.66693719388E+02 -0.24413686227E+02  0.71149969827E+02  0.00000000000E+00 0.  1.
</event>
<event>
 8    1  0.6637272E-009  0.1051526E+03  0.7561462E-02  0.1269819E+00
         -1   -1    0    0    0  501 -0.00000000000E+00  0.00000000000E+00  0.73072311338E+02  0.73072311338E+02  0.00000000000E+00 0.  1.
          1   -1    0    0  501    0  0.00000000000E+00 -0.00000000000E+00 -0.17827182598E+03  0.17827182598E+03  0.00000000000E+00 0. -1.
         25    2    1    2    0    0 -0.12825005067E+02 -0.48847326995E+01 -0.92803352443E+02  0.15636152820E+03  0.12509246144E+03 0.  0.
         23    2    1    2    0    0  0.12825005067E+02  0.48847326995E+01 -0.12396162201E+02  0.94982609115E+02  0.93164852968E+02 0.  0.
          5    1    3    3  502    0 -0.66013820444E+02 -0.22022600997E+02 -0.48511316073E+02  0.84933148013E+02  0.41800000000E+01 0.  1.
         -5    1    3    3    0  502  0.53188815377E+02  0.17137868298E+02 -0.44292036369E+02  0.71428380191E+02  0.41800000000E+01 0.  1.
        -11    1    4    4    0    0 -0.20666966516E+02  0.34254573851E+02  0.14955339232E+02  0.42710203772E+02  0.00000000000E+00 0.  1.
         11    1    4    4    0    0  0.33491971583E+02 -0.29369841151E+02 -0.27351501433E+02  0.52272405344E+02  0.00000000000E+00 0. -1.
</event>
<event>
 8    1  0.6637272E-009  0.1554810E+03  0.7561462E-02  0.1193895E+00
          1   -1    0    0  501    0  0.00000000000E+00  0.00000000000E+00  0.17530357628E+04  0.17530357628E+04  0.00000000000E+00 0. -1.
         -1   -1    0    0    0  501 -0.00000000000E+00 -0.00000000000E+00 -0.18289201931E+02  0.18289201931E+02  0.00000000000E+00 0.  1.
         25    2    1    2    0    0  0.52791427436E+02  0.11515040818E+03  0.11881991393E+04  0.12014624614E+04  0.12509316590E+03 0.  0.
         23    2    1    2    0    0 -0.52791427436E+02 -0.11515040818E+03  0.54654742156E+03  0.56986250335E+03  0.99913149233E+02 0.  0.
          5    1    3    3  502    0 -0.21887014596E+02  0.47388777567E+02  0.74847938970E+03  0.75030900758E+03  0.41800000000E+01 0. -1.
         -5    1    3    3    0  502  0.74678442032E+02  0.67761630610E+02  0.43971974957E+03  0.45115345377E+03  0.41800000000E+01 0. -1.
        -11    1    4    4    0    0 -0.38858361644E+02  0.27442169228E+01  0.88749321760E+02  0.96922366403E+02  0.00000000000E+00 0.  1.
         11    1    4    4    0    0 -0.13933065792E+02 -0.11789462510E+03  0.45779809980E+03  0.47294013695E+03  0.00000000000E+00 0. -1.
</event>
<event>
 8    1  0.6637272E-009  0.1459975E+03  0.7561462E-02  0.1205479E+00
          1   -1    0    0  501    0  0.00000000000E+00  0.00000000000E+00  0.15490170440E+03  0.15490170440E+03  0.00000000000E+00 0. -1.
         -1   -1    0    0    0  501 -0.00000000000E+00 -0.00000000000E+00 -0.18958012760E+03  0.18958012760E+03  0.00000000000E+00 0.  1.
         25    2    1    2    0    0 -0.94598799792E+02 -0.33690347608E+02 -0.99421214428E+02  0.18872067176E+03  0.12508773572E+03 0.  0.
         23    2    1    2    0    0  0.94598799792E+02  0.33690347608E+02  0.64742791229E+02  0.15576116025E+03  0.99929663167E+02 0.  0.
          5    1    3    3  502    0  0.24636639365E+02 -0.30781823268E+02 -0.36089784867E+02  0.53613707339E+02  0.41800000000E+01 0. -1.
         -5    1    3    3    0  502 -0.11923543916E+03 -0.29085243398E+01 -0.63331429560E+02  0.13510696442E+03  0.41800000000E+01 0. -1.
        -11    1    4    4    0    0  0.83325758251E+02 -0.13564094831E+02  0.14113228620E+02  0.85594099555E+02  0.00000000000E+00 0.  1.
         11    1    4    4    0    0  0.11273041542E+02  0.47254442439E+02  0.50629562609E+02  0.70167060690E+02  0.00000000000E+00 0. -1.
</event>
<event>
 8    1  0.6637272E-009  0.9521906E+02  0.7561462E-02  0.1290683E+00
         -1   -1    0    0    0  501 -0.00000000000E+00  0.00000000000E+00  0.16890336475E+02  0.16890336475E+02  0.00000000000E+00 0.  1.
          1   -1    0    0  501    0  0.00000000000E+00 -0.00000000000E+00 -0.81495288518E+03  0.81495288518E+03  0.00000000000E+00 0. -1.
         25    2    1    2    0    0  0.30930348163E+02 -0.33730212974E+02 -0.48509959066E+03  0.50305418197E+03  0.12508990141E+03 0.  0.
         23    2    1    2    0    0 -0.30930348163E+02  0.33730212974E+02 -0.31296295805E+03  0.32878903969E+03  0.89788673032E+02 0.  0.
          5    1    3    3  502    0  0.38601711525E+02  0.23724204471E+02 -0.38202628954E+03  0.38472651105E+03  0.41800000000E+01 0. -1.
         -5    1    3    3    0  502 -0.76713633623E+01 -0.57454417446E+02 -0.10307330112E+03  0.11832767092E+03  0.41800000000E+01 0. -1.
        -11    1    4    4    0    0 -0.36164148725E+02  0.54497442723E+02 -0.29042378702E+03  0.29769748568E+03  0.00000000000E+00 0. -1.
         11    1    4    4    0    0  0.52338005627E+01 -0.20767229749E+02 -0.22539171031E+02  0.31091554007E+02  0.00000000000E+00 0.  1.
</event>
<event>
 8    1  0.6637272E-009  0.1502747E+03  0.7561462E-02  0.1200136E+00
         -1   -1    0    0    0  501 -0.00000000000E+00  0.00000000000E+00  0.22133164067E+02  0.22133164067E+02  0.00000000000E+00 0.  1.
          1   -1    0    0  501    0  0.00000000000E+00 -0.00000000000E+00 -0.12541450754E+04  0.12541450754E+04  0.00000000000E+00 0. -1.
         25    2    1    2    0    0 -0.25231722102E+02  0.10585334521E+03 -0.89711417967E+03  0.91230631049E+03  0.12508949720E+03 0.  0.
         23    2    1    2    0    0  0.25231722102E+02 -0.10585334521E+03 -0.33489773163E+03  0.36397192894E+03  0.92073361591E+02 0.  0.
          5    1    3    3  502    0  0.68465761064E+01 -0.23416353628E+02 -0.27327672922E+03  0.27439541606E+03  0.41800000000E+01 0. -1.
         -5    1    3    3    0  502 -0.32078298208E+02  0.12926969884E+03 -0.62383745045E+03  0.63791089443E+03  0.41800000000E+01 0. -1.
        -11    1    4    4    0    0  0.41730651986E+02 -0.69916628071E+01 -0.10061660553E+03  0.10915141764E+03  0.00000000000E+00 0.  1.
         11    1    4    4    0    0 -0.16498929884E+02 -0.98861682400E+02 -0.23428112610E+03  0.25482051130E+03  0.00000000000E+00 0. -1.
</event>
<event>
 8    1  0.6637272E-009  0.7223363E+02  0.7561462E-02  0.1352658E+00
         -2   -1    0    0    0  501 -0.00000000000E+00  0.00000000000E+00  0.47366582792E+02  0.47366582792E+02  0.00000000000E+00 0.  1.
          2   -1    0    0  501    0  0.00000000000E+00 -0.00000000000E+00 -0.35596889926E+03  0.35596889926E+03  0.00000000000E+00 0. -1.
         25    2    1    2    0    0  0.96620390168E+01 -0.67814481820E+02 -0.13604303942E+03  0.19709409773E+03  0.12508483458E+03 0.  0.
         23    2    1    2    0    0 -0.96620390168E+01  0.67814481820E+02 -0.17255927705E+03  0.20624138433E+03  0.89814506468E+02 0.  0.
          5    1    3    3  502    0  0.17364029408E+02 -0.31097388246E+02 -0.15195489187E+03  0.15612917292E+03  0.41800000000E+01 0. -1.
         -5    1    3    3    0  502 -0.77019903913E+01 -0.36717093574E+02  0.15911852444E+02  0.40964924811E+02  0.41800000000E+01 0. -1.
        -11    1    4    4    0    0 -0.13929376467E+02  0.33524376545E+02 -0.68197387855E+01  0.36938058809E+02  0.00000000000E+00 0.  1.
         11    1    4    4    0    0  0.42673374500E+01  0.34290105276E+02 -0.16573953826E+03  0.16930332552E+03  0.00000000000E+00 0. -1.
</event>
<event>
 8    1  0.6637272E-009  0.1028524E+03  0.7561462E-02  0.1274410E+00
          1   -1    0    0  501    0  0.00000000000E+00  0.00000000000E+00  0.48588165352E+03  0.48588165352E+03  0.00000000000E+00 0. -1.
         -1   -1    0    0    0  501 -0.00000000000E+00 -0.00000000000E+00 -0.29164687192E+02  0.29164687192E+02  0.00000000000E+00 0.  1.
         25    2    1    2    0    0 -0.15158391103E+02  0.29655871268E+02  0.17688189954E+03  0.21918930581E+03  0.12508995913E+03 0.  0.
         23    2    1    2    0    0  0.15158391103E+02 -0.29655871268E+02  0.27983506679E+03  0.29585703490E+03  0.90080369539E+02 0.  0.
          5    1    3    3  502    0 -0.63518122205E+02  0.44399279509E+02  0.92651687984E+02  0.12086213450E+03  0.41800000000E+01 0. -1.
         -5    1    3    3    0  502  0.48359731102E+02 -0.14743408241E+02  0.84230211558E+02  0.98327171310E+02  0.41800000000E+01 0. -1.
        -11    1    4    4    0    0 -0.24095594240E+02 -0.29526838711E+02  0.50929679860E+02  0.63610251978E+02  0.00000000000E+00 0.  1.
         11    1    4    4    0    0  0.39253985343E+02 -0.12903255682E+00  0.22890538693E+03  0.23224678293E+03  0.00000000000E+00 0. -1.
</event>
<event>
 8    1  0.6637272E-009  0.1612589E+03  0.7561462E-02  0.1187283E+00
         -1   -1    0    0    0  501 -0.00000000000E+00  0.00000000000E+00  0.61883892987E+02  0.61883892987E+02  0.00000000000E+00 0.  1.
          1   -1    0    0  501    0  0.00000000000E+00 -0.00000000000E+00 -0.50680052681E+03  0.50680052681E+03  0.00000000000E+00 0. -1.
         25    2    1    2    0    0 -0.13036890693E+03  0.39303917722E+02 -0.28780621479E+03  0.34208215880E+03  0.12508771425E+03 0.  0.
         23    2    1    2    0    0  0.13036890693E+03 -0.39303917722E+02 -0.15711041903E+03  0.22660226100E+03  0.90133518061E+02 0.  0.
          5    1    3    3  502    0 -0.11880091114E+03  0.62221172168E+02 -0.14754387905E+03  0.19942868249E+03  0.41800000000E+01 0.  1.
         -5    1    3    3    0  502 -0.11567995791E+02 -0.22917254446E+02 -0.14026233573E+03  0.14265347631E+03  0.41800000000E+01 0.  1.
        -11    1    4    4    0    0  0.89998919264E+02  0.18449459083E+02 -0.76635141101E+02  0.11963750608E+03  0.00000000000E+00 0.  1.
         11    1    4    4    0    0  0.40369987664E+02 -0.57753376805E+02 -0.80475277933E+02  0.10696475492E+03  0.00000000000E+00 0. -1.
</event>
<event>
 8    1  0.6637272E-009  0.1091330E+03  0.7561462E-02  0.1262184E+00
          2   -1    0    0  501    0  0.00000000000E+00  0.00000000000E+00  0.92986042506E+02  0.92986042506E+02  0.00000000000E+00 0. -1.
         -2   -1    0    0    0  501 -0.00000000000E+00 -0.00000000000E+00 -0.13018040473E+03  0.13018040473E+03  0.00000000000E+00 0.  1.
         25    2    1    2    0    0  0.16733990247E+02 -0.89536432129E+01 -0.14005627731E+02  0.12729400370E+03  0.12508961434E+03 0.  0.
         23    2    1    2    0    0 -0.16733990247E+02  0.89536432129E+01 -0.23188734488E+02  0.95872443528E+02  0.91069280576E+02 0.  0.
          5    1    3    3  502    0 -0.54224492433E+02 -0.91885695465E+01 -0.10345321334E+02  0.56117942437E+02  0.41800000000E+01 0. -1.
         -5    1    3    3    0  502  0.70958482679E+02  0.23492633359E+00 -0.36603063971E+01  0.71176061267E+02  0.41800000000E+01 0. -1.
        -11    1    4    4    0    0 -0.50794592778E+02  0.22263012859E+02 -0.20780295268E+02  0.59224598508E+02  0.00000000000E+00 0. -1.
         11    1    4    4    0    0  0.34060602531E+02 -0.13309369646E+02 -0.24084392206E+01  0.36647845020E+02  0.00000000000E+00 0.  1.
</event>
<event>
 8    1  0.6637272E-009  0.1302704E+03  0.7561462E-02  0.1227055E+00
         -2   -1    0    0    0  501 -0.00000000000E+00  0.00000000000E+00  0.51664922403E+02  0.51664922403E+02  0.00000000000E+00 0.  1.
          2   -1    0    0  501    0  0.00000000000E+00 -0.00000000000E+00 -0.62836704343E+03  0.62836704343E+03  0.00000000000E+00 0. -1.
         25    2    1    2    0    0 -0.10900354653E+02  0.77112802747E+02 -0.77549950501E+02  0.16651741956E+03  0.12509538007E+03 0.  0.
         23    2    1    2    0    0  0.10900354653E+02 -0.77112802747E+02 -0.49915217053E+03  0.51351454628E+03  0.92082016792E+02 0.  0.
          5    1    3    3  502    0  0.56708558609E+02  0.34103150874E+02 -0.26433769071E+02  0.71379983653E+02  0.41800000000E+01 0. -1.
         -5    1    3    3    0  502 -0.67608913262E+02  0.43009651873E+02 -0.51116181430E+02  0.95137435906E+02  0.41800000000E+01 0. -1.
        -11    1    4    4    0    0 -0.35993482464E+02 -0.24618456159E+02 -0.11548603846E+03  0.12344482267E+03  0.00000000000E+00 0. -1.
         11    1    4    4    0    0  0.46893837117E+02 -0.52494346588E+02 -0.38366613207E+03  0.39006972361E+03  0.00000000000E+00 0.  1.
</event>
<event>
 8    1  0.6637272E-009  0.9148883E+02  0.7561462E-02  0.1299286E+00
          1   -1    0    0  501    0  0.00000000000E+00  0.00000000000E+00  0.12994198295E+03  0.12994198295E+03  0.00000000000E+00 0. -1.
         -1   -1    0    0    0  501 -0.00000000000E+00 -0.00000000000E+00 -0.11035980478E+03  0.11035980478E+03  0.00000000000E+00 0.  1.
         25    2    1    2    0    0  0.16022396405E+02 -0.10131820268E+02 -0.34948065450E+02  0.13125269995E+03  0.12508610234E+03 0.  0.
         23    2    1    2    0    0 -0.16022396405E+02  0.10131820268E+02  0.54530243614E+02  0.10904908778E+03  0.92513702270E+02 0.  0.
          5    1    3    3  502    0  0.68794016507E+02  0.10235867709E+02 -0.22075983889E+02  0.73090431382E+02  0.41800000000E+01 0.  1.
         -5    1    3    3    0  502 -0.52771620102E+02 -0.20367687977E+02 -0.12872081561E+02  0.58162268572E+02  0.41800000000E+01 0.  1.
        -11    1    4    4    0    0 -0.88069866213E+01  0.32189729750E+02 -0.14377518882E+02  0.36338062193E+02  0.00000000000E+00 0.  1.
         11    1    4    4    0    0 -0.72154097836E+01 -0.22057909482E+02  0.68907762496E+02  0.72711025583E+02  0.00000000000E+00 0. -1.
</event>
<event>
 8    1  0.6637272E-009  0.1066627E+03  0.7561462E-02  0.1266878E+00
          4   -1    0    0  501    0  0.00000000000E+00  0.00000000000E+00  0.10889763666E+04  0.10889763666E+04  0.00000000000E+00 0. -1.
         -4   -1    0    0    0  501 -0.00000000000E+00 -0.00000000000E+00 -0.14222729839E+02  0.14222729839E+02  0.00000000000E+00 0.  1.
         25    2    1    2    0    0 -0.57672831398E+02 -0.17323218983E+02  0.63400313701E+03  0.64902532666E+03  0.12509055727E+03 0.  0.
         23    2    1    2    0    0  0.57672831398E+02  0.17323218983E+02  0.44075049977E+03  0.45417376979E+03  0.91578167276E+02 0.  0.
          5    1    3    3  502    0 -0.78571495515E+02 -0.23216713437E+02  0.61320676919E+03  0.61866995230E+03  0.41800000000E+01 0.  1.
         -5    1    3    3    0  502  0.20898664117E+02  0.58934944541E+01  0.20796367816E+02  0.30355374369E+02  0.41800000000E+01 0.  1.
        -11    1    4    4    0    0  0.31527967269E+02 -0.37167440481E+02  0.21683677519E+03  0.22224675122E+03  0.00000000000E+00 0. -1.
         11    1    4    4    0    0  0.26144864129E+02  0.54490659464E+02  0.22391372458E+03  0.23192701857E+03  0.00000000000E+00 0.  1.
</event>
<event>
 8    1  0.6637272E-009  0.9466959E+02  0.7561462E-02  0.1291922E+00
         -4   -1    0    0    0  501 -0.00000000000E+00  0.00000000000E+00  0.18618929700E+03  0.18618929700E+03  0.00000000000E+00 0.  1.
          4   -1    0    0  501    0  0.00000000000E+00 -0.00000000000E+00 -0.63440756542E+02  0.63440756542E+02  0.00000000000E+00 0. -1.
         25    2    1    2    0    0 -0.61890963931E+01  0.44092145326E+01  0.51255443519E+02  0.13539420022E+03  0.12508686133E+03 0.  0.
         23    2    1    2    0    0  0.61890963931E+01 -0.44092145326E+01  0.71493096937E+02  0.11423585332E+03  0.88773989358E+02 0.  0.
          5    1    3    3  502    0  0.41702115331E+02  0.33682397750E+02 -0.71974821468E+01  0.54248009093E+02  0.41800000000E+01 0.  1.
         -5    1    3    3    0  502 -0.47891211724E+02 -0.29273183217E+02  0.58452925666E+02  0.81146191131E+02  0.41800000000E+01 0.  1.
        -11    1    4    4    0    0  0.42654258632E+02 -0.36946020920E+01  0.64002690071E+02  0.77002468794E+02  0.00000000000E+00 0.  1.
         11    1    4    4    0    0 -0.36465162239E+02 -0.71461244066E+00  0.74904068666E+01  0.37233384524E+02  0.00000000000E+00 0. -1.
</event>
<event>
 8    1  0.6637272E-009  0.3098773E+03  0.7561462E-02  0.1080405E+00
          2   -1    0    0  501    0  0.00000000000E+00  0.00000000000E+00  0.30424373004E+03  0.30424373004E+03  0.00000000000E+00 0. -1.
         -2   -1    0    0    0  501 -0.00000000000E+00 -0.00000000000E+00 -0.42903086233E+03  0.42903086233E+03  0.00000000000E+00 0.  1.
         25    2    1    2    0    0 -0.19371127928E+02 -0.30692058213E+03 -0.22225660928E+03  0.39952646392E+03  0.12509160911E+03 0.  0.
         23    2    1    2    0    0  0.19371127928E+02  0.30692058213E+03  0.97469476985E+02  0.33374812845E+03  0.85510408521E+02 0.  0.
          5    1    3    3  502    0 -0.47018485310E+01 -0.46611946797E+02  0.12497323745E+02  0.48666584682E+02  0.41800000000E+01 0. -1.
         -5    1    3    3    0  502 -0.14669279397E+02 -0.26030863534E+03 -0.23475393303E+03  0.35085987924E+03  0.41800000000E+01 0. -1.
        -11    1    4    4    0    0 -0.17515506333E+02  0.13501031336E+03  0.77635725293E+01  0.13636293754E+03  0.00000000000E+00 0.  1.
         11    1    4    4    0    0  0.36886634261E+02  0.17191026877E+03  0.89705904456E+02  0.19738519091E+03  0.00000000000E+00 0. -1.
</event>
<event>
 8    1  0.6637272E-009  0.1168756E+03  0.7561462E-02  0.1248342E+00
          3   -1    0    0  501    0  0.00000000000E+00  0.00000000000E+00  0.25649820471E+03  0.25649820471E+03  0.00000000000E+00 0. -1.
         -3   -1    0    0    0  501 -0.00000000000E+00 -0.00000000000E+00 -0.14346245951E+03  0.14346245951E+03  0.00000000000E+00 0.  1.
         25    2    1    2    0    0 -0.53755502498E+02  0.77283206674E+02  0.19103886065E+03  0.24699423980E+03  0.12509180681E+03 0.  0.
         23    2    1    2    0    0  0.53755502498E+02 -0.77283206674E+02 -0.78003115446E+02  0.15296642442E+03  0.91934176985E+02 0.  0.
          5    1    3    3  502    0 -0.54827008425E+02  0.35736033526E+02  0.19432741811E+03  0.20509432653E+03  0.41800000000E+01 0.  1.
         -5    1    3    3    0  502  0.10715059265E+01  0.41547173148E+02 -0.32885574628E+01  0.41899913266E+02  0.41800000000E+01 0.  1.
        -11    1    4    4    0    0  0.29731584366E+02  0.13384639823E+02 -0.27648131808E+01  0.32722467572E+02  0.00000000000E+00 0.  1.
         11    1    4    4    0    0  0.24023918133E+02 -0.90667846496E+02 -0.75238302265E+02  0.12024395685E+03  0.00000000000E+00 0. -1.
</event>
<event>
 8    1  0.6637272E-009  0.1071502E+03  0.7561462E-02  0.1265940E+00
          1   -1    0    0  501    0  0.00000000000E+00  0.00000000000E+00  0.46385119041E+03  0.46385119041E+03  0.00000000000E+00 0. -1.
         -1   -1    0    0    0  501 -0.00000000000E+00 -0.00000000000E+00 -0.32913128246E+02  0.32913128246E+02  0.00000000000E+00 0.  1.
         25    2    1    2    0    0  0.78709971811E+01  0.55467467578E+02  0.20942224056E+03  0.25028667776E+03  0.12508858329E+03 0.  0.
         23    2    1    2    0    0 -0.78709971811E+01 -0.55467467578E+02  0.22151582161E+03  0.24647764090E+03  0.92430382894E+02 0.  0.
          5    1    3    3  502    0 -0.57074235438E+02  0.25091947947E+02  0.12263283171E+03  0.13763487209E+03  0.41800000000E+01 0. -1.
         -5    1    3    3    0  502  0.64945232619E+02  0.30375519631E+02  0.86789408842E+02  0.11265180567E+03  0.41800000000E+01 0. -1.
        -11    1    4    4    0    0  0.63491854264E+01 -0.63396254015E+02  0.22120029767E+03  0.23019332933E+03  0.00000000000E+00 0. -1.
         11    1    4    4    0    0 -0.14220182608E+02  0.79287864369E+01  0.31552393805E+00  0.16284311564E+02  0.00000000000E+00 0.  1.
</event>
<event>
 8    1  0.6637272E-009  0.8131459E+02  0.7561462E-02  0.1325362E+00
          1   -1    0    0  501    0  0.00000000000E+00  0.00000000000E+00  0.40271065513E+03  0.40271065513E+03  0.00000000000E+00 0. -1.
         -1   -1    0    0    0  501 -0.00000000000E+00 -0.00000000000E+00 -0.50895918440E+02  0.50895918440E+02  0.00000000000E+00 0.  1.
         25    2    1    2    0    0 -0.69953102519E+02 -0.23504758285E+01  0.95905218471E+02  0.17249624616E+03  0.12513266049E+03 0.  0.
         23    2    1    2    0    0  0.69953102519E+02  0.23504758285E+01  0.25590951822E+03  0.28111032741E+03  0.92921328948E+02 0.  0.
          5    1    3    3  502    0 -0.46819842289E+02 -0.12226721580E+02  0.12482460802E+03  0.13394120173E+03  0.41800000000E+01 0.  1.
         -5    1    3    3    0  502 -0.23133260230E+02  0.98762457517E+01 -0.28919389551E+02  0.38555044430E+02  0.41800000000E+01 0.  1.
        -11    1    4    4    0    0  0.64819618845E+02 -0.18242368543E+02  0.25024189544E+03  0.25914353789E+03  0.00000000000E+00 0. -1.
         11    1    4    4    0    0  0.51334836734E+01  0.20592844372E+02  0.56676227822E+01  0.21966789523E+02  0.00000000000E+00 0.  1.
</event>
<event>
 8    1  0.6637272E-009  0.9704048E+02  0.7561462E-02  0.1286645E+00
          1   -1    0    0  501    0  0.00000000000E+00  0.00000000000E+00  0.24403479655E+02  0.24403479655E+02  0.00000000000E+00 0. -1.
         -1   -1    0    0    0  501 -0.00000000000E+00 -0.00000000000E+00 -0.60444734902E+03  0.60444734902E+03  0.00000000000E+00 0.  1.
         25    2    1    2    0    0  0.24713028765E+02 -0.22874328989E+02 -0.45040291518E+03  0.46866201155E+03  0.12508927350E+03 0.  0.
         23    2    1    2    0    0 -0.24713028765E+02  0.22874328989E+02 -0.12964095418E+03  0.16018881713E+03  0.87861888294E+02 0.  0.
          5    1    3    3  502    0  0.37873133381E+02  0.32739186288E+02 -0.84546759520E+02  0.98345592154E+02  0.41800000000E+01 0. -1.
         -5    1    3    3    0  502 -0.13160104616E+02 -0.55613515276E+02 -0.36585615566E+03  0.37031641939E+03  0.41800000000E+01 0. -1.
        -11    1    4    4    0    0 -0.48614548158E+02  0.34843283287E+02 -0.11521197946E+03  0.12981228330E+03  0.00000000000E+00 0.  1.
         11    1    4    4    0    0  0.23901519393E+02 -0.11968954298E+02 -0.14428974720E+02  0.30376533834E+02  0.00000000000E+00 0. -1.
</event>
<event>
 8    1  0.6637272E-009  0.8642237E+02  0.7561462E-02  0.1311754E+00
         -2   -1    0    0    0  501 -0.00000000000E+00  0.00000000000E+00  0.46136380218E+02  0.46136380218E+02  0.00000000000E+00 0.  1.
          2   -1    0    0  501    0  0.00000000000E+00 -0.00000000000E+00 -0.32653479437E+03  0.32653479437E+03  0.00000000000E+00 0. -1.
         25    2    1    2    0    0  0.50585908071E+02 -0.27145099037E+02 -0.14281898567E+03  0.19834963121E+03  0.12509805368E+03 0.  0.
         23    2    1    2    0    0 -0.50585908071E+02  0.27145099037E+02 -0.13757942847E+03  0.17432154338E+03  0.90355469390E+02 0.  0.
          5    1    3    3  502    0  0.32819136940E+02 -0.33150579184E+02 -0.16352620628E+03  0.17010099702E+03  0.41800000000E+01 0.  1.
         -5    1    3    3    0  502  0.17766771131E+02  0.60054801474E+01  0.20707220602E+02  0.28248634184E+02  0.41800000000E+01 0.  1.
        -11    1    4    4    0    0 -0.68594741541E+02 -0.62240670749E+01 -0.82870815986E+02  0.10775690103E+03  0.00000000000E+00 0.  1.
         11    1    4    4    0    0  0.18008833469E+02  0.33369166111E+02 -0.54708612489E+02  0.66564642344E+02  0.00000000000E+00 0. -1.
</event>
<event>
 8    1  0.6637272E-009  0.1375603E+03  0.7561462E-02  0.1216650E+00
         -1   -1    0    0    0  501 -0.00000000000E+00  0.00000000000E+00  0.21706128033E+02  0.21706128033E+02  0.00000000000E+00 0.  1.
          1   -1    0    0  501    0  0.00000000000E+00 -0.00000000000E+00 -0.10952624051E+04  0.10952624051E+04  0.00000000000E+00 0. -1.
         25    2    1    2    0    0  0.62479761653E+02  0.84763124394E+02 -0.69905309751E+03  0.71792168930E+03  0.12509121059E+03 0.  0.
         23    2    1    2    0    0 -0.62479761653E+02 -0.84763124394E+02 -0.37450317952E+03  0.39904684379E+03  0.88866440198E+02 0.  0.
          5    1    3    3  502    0 -0.19544062112E+02  0.73663271255E+00 -0.18318355387E+02  0.27120979622E+02  0.41800000000E+01 0.  1.
         -5    1    3    3    0  502  0.82023823765E+02  0.84026491681E+02 -0.68073474212E+03  0.69080070968E+03  0.41800000000E+01 0.  1.
        -11    1    4    4    0    0 -0.56552301729E+02 -0.40552940662E+01 -0.16400705258E+03  0.17353075099E+03  0.00000000000E+00 0. -1.
         11    1    4    4    0    0 -0.59274599247E+01 -0.80707830327E+02 -0.21049612694E+03  0.22551609280E+03  0.00000000000E+00 0.  1.
</event>
<event>
 8    1  0.6637272E-009  0.1408505E+03  0.7561462E-02  0.1212189E+00
         -2   -1    0    0    0  501 -0.00000000000E+00  0.00000000000E+00  0.31741849029E+02  0.31741849029E+02  0.00000000000E+00 0.  1.
          2   -1    0    0  501    0  0.00000000000E+00 -0.00000000000E+00 -0.81003163405E+03  0.81003163405E+03  0.00000000000E+00 0. -1.
         25    2    1    2    0    0 -0.79958191604E+02 -0.82544107806E+02 -0.46345427715E+03  0.49360360618E+03  0.12509121028E+03 0.  0.
         23    2    1    2    0    0  0.79958191604E+02  0.82544107806E+02 -0.31483550787E+03  0.34816987690E+03  0.94308133394E+02 0.  0.
          5    1    3    3  502    0 -0.10016994091E+03 -0.96362518881E+02 -0.33406206476E+03  0.36184898455E+03  0.41800000000E+01 0. -1.
         -5    1    3    3    0  502  0.20211749307E+02  0.13818411075E+02 -0.12939221239E+03  0.13175462163E+03  0.41800000000E+01 0. -1.
        -11    1    4    4    0    0  0.21910328315E+02  0.40781228093E+02 -0.24090790335E+03  0.24531569242E+03  0.00000000000E+00 0. -1.
         11    1    4    4    0    0  0.58047863289E+02  0.41762879713E+02 -0.73927604528E+02  0.10285418448E+03  0.00000000000E+00 0.  1.
</event>
<event>
 8    1  0.6637272E-009  0.1195054E+03  0.7561462E-02  0.1243915E+00
         -2   -1    0    0    0  501 -0.00000000000E+00  0.00000000000E+00  0.38507251682E+03  0.38507251682E+03  0.00000000000E+00 0.  1.
          2   -1    0    0  501    0  0.00000000000E+00 -0.00000000000E+00 -0.45629280613E+02  0.45629280613E+02  0.00000000000E+00 0. -1.
         25    2    1    2    0    0  0.19839033968E+02 -0.74363774154E+02  0.18891758074E+03  0.23929232476E+03  0.12508959269E+03 0.  0.
         23    2    1    2    0    0 -0.19839033968E+02  0.74363774154E+02  0.15052565547E+03  0.19140947268E+03  0.89755529638E+02 0.  0.
          5    1    3    3  502    0  0.17941521757E+00 -0.10765901258E+03  0.13264179267E+03  0.17088537895E+03  0.41800000000E+01 0. -1.
         -5    1    3    3    0  502  0.19659618750E+02  0.33295238422E+02  0.56275788074E+02  0.68406945804E+02  0.41800000000E+01 0. -1.
        -11    1    4    4    0    0 -0.31352290923E+02  0.74539208633E+02  0.15813259656E+03  0.17760905907E+03  0.00000000000E+00 0.  1.
         11    1    4    4    0    0  0.11513256955E+02 -0.17543447899E+00 -0.76069410884E+01  0.13800413606E+02  0.00000000000E+00 0. -1.
</event>
<event>
 8    1  0.6637272E-009  0.1550452E+03  0.7561462E-02  0.1194407E+00
          2   -1    0    0  501    0  0.00000000000E+00  0.00000000000E+00  0.24796862510E+03  0.24796862510E+03  0.00000000000E+00 0.  1.
         -2   -1    0    0    0  501 -0.00000000000E+00 -0.00000000000E+00 -0.14936866865E+03  0.14936866865E+03  0.00000000000E+00 0. -1.
         25    2    1    2    0    0 -0.18118590657E+02 -0.13882372484E+03  0.11801134809E+03  0.22175376005E+03  0.12509093456E+03 0.  0.
         23    2    1    2    0    0  0.18118590657E+02  0.13882372484E+03 -0.19411391643E+02  0.17558353370E+03  0.10417516630E+03 0.  0.
          5    1    3    3  502    0  0.10343847398E+02 -0.14026478912E+03  0.12903218955E+03  0.19091355265E+03  0.41800000000E+01 0. -1.
         -5    1    3    3    0  502 -0.28462438055E+02  0.14410642719E+01 -0.11020841454E+02  0.30840207403E+02  0.41800000000E+01 0. -1.
        -11    1    4    4    0    0  0.16893892108E+01  0.61764470073E+02  0.42824658660E+02  0.75177491236E+02  0.00000000000E+00 0.  1.
         11    1    4    4    0    0  0.16429201446E+02  0.77059254771E+02 -0.62236050303E+02  0.10040604246E+03  0.00000000000E+00 0. -1.
</event>
<event>
 8    1  0.6637272E-009  0.1080227E+03  0.7561462E-02  0.1264276E+00
         -1   -1    0    0    0  501 -0.00000000000E+00  0.00000000000E+00  0.88237792699E+02  0.88237792699E+02  0.00000000000E+00 0.  1.
          1   -1    0    0  501    0  0.00000000000E+00 -0.00000000000E+00 -0.33567238960E+03  0.33567238960E+03  0.00000000000E+00 0. -1.
         25    2    1    2    0    0  0.68152865163E+02  0.11491150400E+02 -0.26978769249E+03  0.30530293102E+03  0.12509045169E+03 0.  0.
         23    2    1    2    0    0 -0.68152865163E+02 -0.11491150400E+02  0.22353095590E+02  0.11860725128E+03  0.93761183896E+02 0.  0.
          5    1    3    3  502    0  0.99719358881E+02 -0.86438835260E+01 -0.22800757400E+03  0.24904536426E+03  0.41800000000E+01 0. -1.
         -5    1    3    3    0  502 -0.31566493718E+02  0.20135033927E+02 -0.41780118498E+02  0.56257566768E+02  0.41800000000E+01 0. -1.
        -11    1    4    4    0    0 -0.38967184455E+02 -0.24720212464E+02  0.55718158967E+02  0.72346690368E+02  0.00000000000E+00 0.  1.
         11    1    4    4    0    0 -0.29185680708E+02  0.13229062063E+02 -0.33365063377E+02  0.46260560909E+02  0.00000000000E+00 0. -1.
</event>
<event>
 8    1  0.6637272E-009  0.1163226E+03  0.7561462E-02  0.1249290E+00
          2   -1    0    0  501    0  0.00000000000E+00  0.00000000000E+00  0.53937055579E+03  0.53937055579E+03  0.00000000000E+00 0. -1.
         -2   -1    0    0    0  501 -0.00000000000E+00 -0.00000000000E+00 -0.59505015825E+02  0.59505015825E+02  0.00000000000E+00 0.  1.
         25    2    1    2    0    0 -0.73897741411E+02 -0.61973531934E+02  0.42844538217E+03  0.45663471460E+03  0.12509285443E+03 0.  0.
         23    2    1    2    0    0  0.73897741411E+02  0.61973531934E+02  0.51420157799E+02  0.14224085702E+03  0.91032048926E+02 0.  0.
          5    1    3    3  502    0  0.93457438539E+01  0.17732004601E+02  0.19687130026E+03  0.19793319120E+03  0.41800000000E+01 0. -1.
         -5    1    3    3    0  502 -0.83243485265E+02 -0.79705536534E+02  0.23157408191E+03  0.25870152339E+03  0.41800000000E+01 0. -1.
        -11    1    4    4    0    0  0.40606654421E+02  0.28318980723E+02 -0.22565826347E+02  0.54406631684E+02  0.00000000000E+00 0.  1.
         11    1    4    4    0    0  0.33291086990E+02  0.33654551210E+02  0.73985984147E+02  0.87834225336E+02  0.00000000000E+00 0. -1.
</event>
<event>
 8    1  0.6637272E-009  0.5700124E+02  0.7561462E-02  0.1410865E+00
          2   -1    0    0  501    0  0.00000000000E+00  0.00000000000E+00  0.23091920504E+03  0.23091920504E+03  0.00000000000E+00 0. -1.
         -2   -1    0    0    0  501 -0.00000000000E+00 -0.00000000000E+00 -0.73891348132E+02  0.73891348132E+02  0.00000000000E+00 0.  1.
         25    2    1    2    0    0  0.25256430750E+02  0.42341775501E+02  0.14686614524E+03  0.19911712483E+03  0.12508897448E+03 0.  0.
         23    2    1    2    0    0 -0.25256430750E+02 -0.42341775501E+02  0.10161711666E+02  0.10569342834E+03  0.92936145625E+02 0.  0.
          5    1    3    3  502    0 -0.88362075379E+00 -0.70991659905E+01 -0.20763117313E+02  0.22355276423E+02  0.41800000000E+01 0.  1.
         -5    1    3    3    0  502  0.26140051504E+02  0.49440941491E+02  0.16762926255E+03  0.17676184841E+03  0.41800000000E+01 0.  1.
        -11    1    4    4    0    0 -0.57781236114E+01 -0.14915769413E+02 -0.41256530247E+02  0.44248934198E+02  0.00000000000E+00 0.  1.
         11    1    4    4    0    0 -0.19478307139E+02 -0.27426006088E+02  0.51418241913E+02  0.61444494142E+02  0.00000000000E+00 0. -1.
</event>
<event>
 8    1  0.6637272E-009  0.1316504E+03  0.7561462E-02  0.1225027E+00
          1   -1    0    0  501    0  0.00000000000E+00  0.00000000000E+00  0.59412935613E+03  0.59412935613E+03  0.00000000000E+00 0. -1.
         -1   -1    0    0    0  501 -0.00000000000E+00 -0.00000000000E+00 -0.36298950117E+02  0.36298950117E+02  0.00000000000E+00 0.  1.
         25    2    1    2    0    0 -0.30161035207E+02  0.93138271712E+02  0.34146141639E+03  0.37659423581E+03  0.12507155495E+03 0.  0.
         23    2    1    2    0    0  0.30161035207E+02 -0.93138271712E+02  0.21636898962E+03  0.25383407044E+03  0.89620142508E+02 0.  0.
          5    1    3    3  502    0 -0.21713227459E+02 -0.21540876596E+02  0.24555443304E+02  0.39445098644E+02  0.41800000000E+01 0.  1.
         -5    1    3    3    0  502 -0.84478077480E+01  0.11467914831E+03  0.31690597309E+03  0.33714913717E+03  0.41800000000E+01 0.  1.
        -11    1    4    4    0    0 -0.20169486060E+02 -0.35632089475E+02  0.25503006197E+02  0.48237509195E+02  0.00000000000E+00 0.  1.
         11    1    4    4    0    0  0.50330521266E+02 -0.57506182238E+02  0.19086598342E+03  0.20559656124E+03  0.00000000000E+00 0. -1.
</event>
<event>
 8    1  0.6637272E-009  0.1029403E+03  0.7561462E-02  0.1274232E+00
         -1   -1    0    0    0  501 -0.00000000000E+00  0.00000000000E+00  0.15062176901E+03  0.15062176901E+03  0.00000000000E+00 0.  1.
          1   -1    0    0  501    0  0.00000000000E+00 -0.00000000000E+00 -0.15991628131E+03  0.15991628131E+03  0.00000000000E+00 0. -1.
         25    2    1    2    0    0  0.19730596307E+02  0.36941443465E+01 -0.11351177487E+03  0.17010600562E+03  0.12509271354E+03 0.  0.
         23    2    1    2    0    0 -0.19730596307E+02 -0.36941443465E+01  0.10421726256E+03  0.14043204471E+03  0.91961830294E+02 0.  0.
          5    1    3    3  502    0  0.27312035720E+02  0.56798122744E+02 -0.28034130398E+02  0.69103971736E+02  0.41800000000E+01 0.  1.
         -5    1    3    3    0  502 -0.75814394130E+01 -0.53103978398E+02 -0.85477644467E+02  0.10100203388E+03  0.41800000000E+01 0.  1.
        -11    1    4    4    0    0  0.28775475768E+02 -0.22867655166E+02  0.21320073624E+02  0.42491213183E+02  0.00000000000E+00 0.  1.
         11    1    4    4    0    0 -0.48506072075E+02  0.19173510820E+02  0.82897188940E+02  0.97940831523E+02  0.00000000000E+00 0. -1.
</event>
<event>
 8    1  0.6637272E-009  0.1053995E+03  0.7561462E-02  0.1269334E+00
          1   -1    0    0  501    0  0.00000000000E+00  0.00000000000E+00  0.50417273805E+03  0.50417273805E+03  0.00000000000E+00 0. -1.
         -1   -1    0    0    0  501 -0.00000000000E+00 -0.00000000000E+00 -0.23167467209E+02  0.23167467209E+02  0.00000000000E+00 0.  1.
         25    2    1    2    0    0 -0.32819203915E+02  0.10865640511E+02  0.29778454311E+03  0.32483541869E+03  0.12508897966E+03 0.  0.
         23    2    1    2    0    0  0.32819203915E+02 -0.10865640511E+02  0.18322072773E+03  0.20250478657E+03  0.79013867290E+02 0.  0.
          5    1    3    3  502    0  0.31179061616E+02  0.46637602990E+02  0.13507626095E+03  0.14632248142E+03  0.41800000000E+01 0.  1.
         -5    1    3    3    0  502 -0.63998265530E+02 -0.35771962479E+02  0.16270828216E+03  0.17851293727E+03  0.41800000000E+01 0.  1.
        -11    1    4    4    0    0  0.55798067396E+02 -0.25886267486E+00  0.89863106246E+02  0.10577745128E+03  0.00000000000E+00 0.  1.
         11    1    4    4    0    0 -0.22978863481E+02 -0.10606777836E+02  0.93357621488E+02  0.96727335292E+02  0.00000000000E+00 0. -1.
</event>
<event>
 7    1  0.6637272E-009  0.1186434E+03  0.7561462E-02  0.1245352E+00
         -1   -1    0    0    0  501 -0.00000000000E+00  0.00000000000E+00  0.20536580042E+02  0.20536580042E+02  0.00000000000E+00 0.  1.
          1   -1    0    0  501    0  0.00000000000E+00 -0.00000000000E+00 -0.14875608854E+04  0.14875608854E+04  0.00000000000E+00 0. -1.
         25    2    1    2    0    0  0.27274446085E+02 -0.84244667556E+02 -0.13374338751E+04  0.13461860281E+04  0.12508554015E+03 0.  0.
          5    1    3    3  502    0  0.72213279023E+02 -0.33765207241E+02 -0.53806285479E+03  0.54395216241E+03  0.41800000000E+01 0. -1.
         -5    1    3    3    0  502 -0.44938832938E+02 -0.50479460315E+02 -0.79937102034E+03  0.80223386564E+03  0.41800000000E+01 0. -1.
        -11    1    1    2    0    0 -0.28098089165E+02  0.69310505704E+02 -0.77440717227E+02  0.10765924717E+03  0.00000000000E+00 0. -1.
         11    1    1    2    0    0  0.82364307986E+00  0.14934161852E+02 -0.52149712980E+02  0.54252190205E+02  0.00000000000E+00 0.  1.
</event>
<event>
 8    1  0.6637272E-009  0.1164667E+03  0.7561462E-02  0.1249042E+00
          1   -1    0    0  501    0  0.00000000000E+00  0.00000000000E+00  0.14633237865E+04  0.14633237865E+04  0.00000000000E+00 0. -1.
         -1   -1    0    0    0  501 -0.00000000000E+00 -0.00000000000E+00 -0.15972710722E+02  0.15972710722E+02  0.00000000000E+00 0.  1.
         25    2    1    2    0    0 -0.40216718975E+02 -0.20168244322E+02  0.11477814477E+04  0.11554542692E+04  0.12509266085E+03 0.  0.
         23    2    1    2    0    0  0.40216718975E+02  0.20168244322E+02  0.29956962802E+03  0.32384222804E+03  0.11448879449E+03 0.  0.
          5    1    3    3  502    0 -0.26006971455E+02 -0.63784970845E+02  0.94456844673E+03  0.94708600878E+03  0.41800000000E+01 0. -1.
         -5    1    3    3    0  502 -0.14209747520E+02  0.43616726523E+02  0.20321300100E+03  0.20836826037E+03  0.41800000000E+01 0. -1.
        -11    1    4    4    0    0 -0.37202633127E+02 -0.22206105884E+01  0.55846810339E+02  0.67140399522E+02  0.00000000000E+00 0.  1.
         11    1    4    4    0    0  0.77419352102E+02  0.22388854910E+02  0.24372281768E+03  0.25670182852E+03  0.00000000000E+00 0. -1.
</event>
<event>
 8    1  0.6637272E-009  0.2389954E+03  0.7561462E-02  0.1120464E+00
         -2   -1    0    0    0  501 -0.00000000000E+00  0.00000000000E+00  0.25593511092E+02  0.25593511092E+02  0.00000000000E+00 0.  1.
          2   -1    0    0  501    0  0.00000000000E+00 -0.00000000000E+00 -0.24836323934E+04  0.24836323934E+04  0.00000000000E+00 0. -1.
         25    2    1    2    0    0 -0.20465138569E+03 -0.80554726177E+02 -0.16126991896E+04  0.16324268555E+04  0.12509000379E+03 0.  0.
         23    2    1    2    0    0  0.20465138569E+03  0.80554726177E+02 -0.84533969272E+03  0.87679904894E+03  0.76197917047E+02 0.  0.
          5    1    3    3  502    0 -0.21991900987E+03 -0.85972202758E+02 -0.15180974638E+04  0.15363570459E+04  0.41800000000E+01 0.  1.
         -5    1    3    3    0  502  0.15267624177E+02  0.54174765818E+01 -0.94601725765E+02  0.96069809608E+02  0.41800000000E+01 0.  1.
        -11    1    4    4    0    0  0.96693546320E+02  0.12547909874E+02 -0.25919898903E+03  0.27693177474E+03  0.00000000000E+00 0.  1.
         11    1    4    4    0    0  0.10795783937E+03  0.68006816302E+02 -0.58614070368E+03  0.59986727420E+03  0.00000000000E+00 0. -1.
</event>
<event>
 8    1  0.6637272E-009  0.1199783E+03  0.7561462E-02  0.1243133E+00
          4   -1    0    0  501    0  0.00000000000E+00  0.00000000000E+00  0.61509312213E+03  0.61509312213E+03  0.00000000000E+00 0.  1.
         -4   -1    0    0    0  501 -0.00000000000E+00 -0.00000000000E+00 -0.37455198165E+02  0.37455198165E+02  0.00000000000E+00 0. -1.
         25    2    1    2    0    0 -0.92897485461E+02  0.37423427712E+02  0.39060112170E+03  0.42219347263E+03  0.12509051247E+03 0.  0.
         23    2    1    2    0    0  0.92897485461E+02 -0.37423427712E+02  0.18703680226E+03  0.23035484767E+03  0.89722542847E+02 0.  0.
          5    1    3    3  502    0 -0.99948748673E+02  0.59384926171E+02  0.37817097766E+03  0.39566031208E+03  0.41800000000E+01 0.  1.
         -5    1    3    3    0  502  0.70512632123E+01 -0.21961498459E+02  0.12430144042E+02  0.26533160542E+02  0.41800000000E+01 0.  1.
        -11    1    4    4    0    0  0.43345162598E+02 -0.16185321495E+02  0.12855665884E+02  0.48021202587E+02  0.00000000000E+00 0. -1.
         11    1    4    4    0    0  0.49552322862E+02 -0.21238106217E+02  0.17418113638E+03  0.18233364508E+03  0.00000000000E+00 0.  1.
</event>
<event>
 8    1  0.6637272E-009  0.2963185E+03  0.7561462E-02  0.1087096E+00
          1   -1    0    0  501    0  0.00000000000E+00  0.00000000000E+00  0.37353445960E+03  0.37353445960E+03  0.00000000000E+00 0. -1.
         -1   -1    0    0    0  501 -0.00000000000E+00 -0.00000000000E+00 -0.23753575918E+03  0.23753575918E+03  0.00000000000E+00 0.  1.
         25    2    1    2    0    0  0.27415787160E+03 -0.40015138817E+02  0.75339580979E+02  0.31318992863E+03  0.12509248194E+03 0.  0.
         23    2    1    2    0    0 -0.27415787160E+03  0.40015138817E+02  0.60659119438E+02  0.29788029016E+03  0.91046079547E+02 0.  0.
          5    1    3    3  502    0  0.24544251213E+03 -0.74107400024E+02  0.78884700385E+02  0.26828008099E+03  0.41800000000E+01 0. -1.
         -5    1    3    3    0  502  0.28715359466E+02  0.34092261208E+02 -0.35451194059E+01  0.44909847641E+02  0.41800000000E+01 0. -1.
        -11    1    4    4    0    0 -0.11697698479E+03  0.62563760880E+02  0.22233932349E+02  0.13450720016E+03  0.00000000000E+00 0.  1.
         11    1    4    4    0    0 -0.15718088680E+03 -0.22548622063E+02  0.38425187089E+02  0.16337309000E+03  0.00000000000E+00 0. -1.
</event>
<event>
 8    1  0.6637272E-009  0.8019229E+02  0.7561462E-02  0.1328507E+00
         -1   -1    0    0    0  501 -0.00000000000E+00  0.00000000000E+00  0.23053023700E+03  0.23053023700E+03  0.00000000000E+00 0.  1.
          1   -1    0    0  501    0  0.00000000000E+00 -0.00000000000E+00 -0.57907780366E+02  0.57907780366E+02  0.00000000000E+00 0. -1.
         25    2    1    2    0    0  0.27247892297E+02  0.25030307977E+02  0.98821324892E+02  0.16366232799E+03  0.12510291523E+03 0.  0.
         23    2    1    2    0    0 -0.27247892297E+02 -0.25030307977E+02  0.73801131737E+02  0.12477568937E+03  0.93559615537E+02 0.  0.
          5    1    3    3  502    0  0.47963751178E+02  0.35260848697E+02  0.11872654437E+03  0.13288082486E+03  0.41800000000E+01 0.  1.
         -5    1    3    3    0  502 -0.20715858882E+02 -0.10230540720E+02 -0.19905219478E+02  0.30781503132E+02  0.41800000000E+01 0.  1.
        -11    1    4    4    0    0 -0.21252153271E+02 -0.48528124723E+02  0.83309601643E+02  0.98727517105E+02  0.00000000000E+00 0.  1.
         11    1    4    4    0    0 -0.59957390256E+01  0.23497816745E+02 -0.95084699063E+01  0.26048172262E+02  0.00000000000E+00 0. -1.
</event>
<event>
 8    1  0.6637272E-009  0.9219152E+02  0.7561462E-02  0.1297630E+00
          2   -1    0    0  501    0  0.00000000000E+00  0.00000000000E+00  0.50365387110E+03  0.50365387110E+03  0.00000000000E+00 0. -1.
         -2   -1    0    0    0  501 -0.00000000000E+00 -0.00000000000E+00 -0.24325632137E+02  0.24325632137E+02  0.00000000000E+00 0.  1.
         25    2    1    2    0    0 -0.21873614818E+02 -0.16358039483E+02  0.29304828630E+03  0.31979960092E+03  0.12509374948E+03 0.  0.
         23    2    1    2    0    0  0.21873614818E+02  0.16358039483E+02  0.18627995266E+03  0.20817990232E+03  0.88840365189E+02 0.  0.
          5    1    3    3  502    0  0.39590408545E+02  0.24759868925E+02  0.65857933600E+02  0.80840530527E+02  0.41800000000E+01 0. -1.
         -5    1    3    3    0  502 -0.61464023363E+02 -0.41117908407E+02  0.22719035270E+03  0.23895907039E+03  0.41800000000E+01 0. -1.
        -11    1    4    4    0    0  0.18470741472E+02 -0.19821996080E+02  0.11115099210E+02  0.29285239449E+02  0.00000000000E+00 0.  1.
         11    1    4    4    0    0  0.34028733460E+01  0.36180035563E+02  0.17516485345E+03  0.17889466287E+03  0.00000000000E+00 0. -1.
</event>
<event>
 8    1  0.6637272E-009  0.1050695E+03  0.7561462E-02  0.1269983E+00
         -1   -1    0    0    0  501 -0.00000000000E+00  0.00000000000E+00  0.56207857732E+02  0.56207857732E+02  0.00000000000E+00 0.  1.
          1   -1    0    0  501    0  0.00000000000E+00 -0.00000000000E+00 -0.24595776664E+03  0.24595776664E+03  0.00000000000E+00 0. -1.
         25    2    1    2    0    0 -0.16913778041E+02  0.13768973363E+02 -0.59301130878E+02  0.14017814679E+03  0.12513044473E+03 0.  0.
         23    2    1    2    0    0  0.16913778041E+02 -0.13768973363E+02 -0.13044877803E+03  0.16198747758E+03  0.93527529041E+02 0.  0.
          5    1    3    3  502    0 -0.50463610076E+02  0.45349835354E+02 -0.64394633046E+02  0.93633993152E+02  0.41800000000E+01 0. -1.
         -5    1    3    3    0  502  0.33549832034E+02 -0.31580861991E+02  0.50935021679E+01  0.46544153639E+02  0.41800000000E+01 0. -1.
        -11    1    4    4    0    0  0.49663383637E+02  0.15448294609E+02 -0.75055159062E+02  0.91314721608E+02  0.00000000000E+00 0.  1.
         11    1    4    4    0    0 -0.32749605596E+02 -0.29217267972E+02 -0.55393618973E+02  0.70672755976E+02  0.00000000000E+00 0. -1.
</event>
<event>
 8    1  0.6637272E-009  0.1186920E+03  0.7561462E-02  0.1245271E+00
          2   -1    0    0  501    0  0.00000000000E+00  0.00000000000E+00  0.13276631428E+03  0.13276631428E+03  0.00000000000E+00 0. -1.
         -2   -1    0    0    0  501 -0.00000000000E+00 -0.00000000000E+00 -0.14617525152E+03  0.14617525152E+03  0.00000000000E+00 0.  1.
         25    2    1    2    0    0  0.77402740393E+02 -0.10271085429E+01  0.33403322437E+02  0.15085203506E+03  0.12509322667E+03 0.  0.
         23    2    1    2    0    0 -0.77402740393E+02  0.10271085429E+01 -0.46812259674E+02  0.12808953074E+03  0.90682418673E+02 0.  0.
          5    1    3    3  502    0  0.89154486357E+02 -0.23871846976E+02 -0.17172137023E+02  0.93972028846E+02  0.41800000000E+01 0. -1.
         -5    1    3    3    0  502 -0.11751745963E+02  0.22844738433E+02  0.50575459459E+02  0.56880006213E+02  0.41800000000E+01 0. -1.
        -11    1    4    4    0    0  0.17484578563E+02 -0.14627304253E+02 -0.12383071413E+02  0.25942416520E+02  0.00000000000E+00 0.  1.
         11    1    4    4    0    0 -0.94887318957E+02  0.15654412796E+02 -0.34429188261E+02  0.10214711422E+03  0.00000000000E+00 0. -1.
</event>
<event>
 8    1  0.6637272E-009  0.9388345E+02  0.7561462E-02  0.1293711E+00
          2   -1    0    0  501    0  0.00000000000E+00  0.00000000000E+00  0.15954836951E+03  0.15954836951E+03  0.00000000000E+00 0. -1.
         -2   -1    0    0    0  501 -0.00000000000E+00 -0.00000000000E+00 -0.10298738837E+03  0.10298738837E+03  0.00000000000E+00 0.  1.
         25    2    1    2    0    0  0.50865639069E+02  0.42227581427E+02  0.10575955141E+02  0.14187845628E+03  0.12508862322E+03 0.  0.
         23    2    1    2    0    0 -0.50865639069E+02 -0.42227581427E+02  0.45985025993E+02  0.12065730160E+03  0.89850319653E+02 0.  0.
          5    1    3    3  502    0 -0.37634538965E+01 -0.14290680803E+02  0.51090262338E+02  0.53348612436E+02  0.41800000000E+01 0.  1.
         -5    1    3    3    0  502  0.54629092965E+02  0.56518262230E+02 -0.40514307197E+02  0.88529843846E+02  0.41800000000E+01 0.  1.
        -11    1    4    4    0    0 -0.34765929979E+02  0.12270116275E+02 -0.12675349613E+02  0.38985768282E+02  0.00000000000E+00 0.  1.
         11    1    4    4    0    0 -0.16099709090E+02 -0.54497697702E+02  0.58660375606E+02  0.81671533314E+02  0.00000000000E+00 0. -1.
</event>
