<event>
 8    1  0.6615242E-009  0.1394702E+03  0.7561462E-02  0.1214044E+00
         -1   -1    0    0    0  501 -0.00000000000E+00  0.00000000000E+00  0.45909050780E+02  0.45909050780E+02  0.00000000000E+00 0.  1.
          1   -1    0    0  501    0  0.00000000000E+00 -0.00000000000E+00 -0.79359441476E+03  0.79359441476E+03  0.00000000000E+00 0. -1.
         25    2    1    2    0    0 -0.12302350515E+03  0.14498325221E+02 -0.60621725904E+03  0.63126237905E+03  0.12509133376E+03 0.  0.
         23    2    1    2    0    0  0.12302350515E+03 -0.14498325221E+02 -0.14146810493E+03  0.20824108649E+03  0.89477042512E+02 0.  0.
          5    1    3    3  502    0 -0.12909700530E+03  0.30730840856E+02 -0.59621599655E+03  0.61082027496E+03  0.41800000000E+01 0. -1.
         -5    1    3    3    0  502  0.60735001541E+01 -0.16232515636E+02 -0.10001262490E+02  0.20442104084E+02  0.41800000000E+01 0. -1.
        -11    1    4    4    0    0  0.71704489799E+02  0.83066471874E+01 -0.20761597301E+02  0.75110439803E+02  0.00000000000E+00 0.  1.
         11    1    4    4    0    0  0.51319015348E+02 -0.22804972408E+02 -0.12070650763E+03  0.13313064669E+03  0.00000000000E+00 0. -1.
</event>
<event>
 8    1  0.6615242E-009  0.1709624E+03  0.7561462E-02  0.1176848E+00
         -2   -1    0    0    0  501 -0.00000000000E+00  0.00000000000E+00  0.19757775636E+03  0.19757775636E+03  0.00000000000E+00 0. -1.
          2   -1    0    0  501    0  0.00000000000E+00 -0.00000000000E+00 -0.19200590261E+03  0.19200590261E+03  0.00000000000E+00 0.  1.
         25    2    1    2    0    0 -0.22577237404E+02  0.14738488223E+03  0.72240960297E+02  0.20760114701E+03  0.12508974673E+03 0.  0.
         23    2    1    2    0    0  0.22577237404E+02 -0.14738488223E+03 -0.66669106538E+02  0.18198251196E+03  0.80254780123E+02 0.  0.
          5    1    3    3  502    0  0.51337091082E+01  0.14629183345E+03  0.19323344126E+02  0.14771093234E+03  0.41800000000E+01 0.  1.
         -5    1    3    3    0  502 -0.27710946513E+02  0.10930487756E+01  0.52917616171E+02  0.59890214672E+02  0.41800000000E+01 0.  1.
        -11    1    4    4    0    0 -0.28292534513E+02 -0.59709101157E+02 -0.13194834848E+02  0.67377651613E+02  0.00000000000E+00 0.  1.
         11    1    4    4    0    0  0.50869771917E+02 -0.87675781073E+02 -0.53474271689E+02  0.11460486034E+03  0.00000000000E+00 0. -1.
</event>
<event>
 8    1  0.6615242E-009  0.1455990E+03  0.7561462E-02  0.1205988E+00
         -2   -1    0    0    0  501 -0.00000000000E+00  0.00000000000E+00  0.51611807458E+02  0.51611807458E+02  0.00000000000E+00 0.  1.
          2   -1    0    0  501    0  0.00000000000E+00 -0.00000000000E+00 -0.53331740226E+03  0.53331740226E+03  0.00000000000E+00 0. -1.
         25    2    1    2    0    0 -0.11404499266E+03 -0.23707106801E+02 -0.17727565165E+03  0.24623701590E+03  0.12505088591E+03 0.  0.
         23    2    1    2    0    0  0.11404499266E+03  0.23707106801E+02 -0.30442994315E+03  0.33869219382E+03  0.92013719638E+02 0.  0.
          5    1    3    3  502    0 -0.13229538162E+03 -0.46895136441E+02 -0.13747776627E+03  0.19651674340E+03  0.41800000000E+01 0. -1.
         -5    1    3    3    0  502  0.18250388964E+02  0.23188029640E+02 -0.39797885380E+02  0.49720272491E+02  0.41800000000E+01 0. -1.
        -11    1    4    4    0    0  0.69981669382E+02  0.30587523949E+02 -0.82902555224E+02  0.11272029247E+03  0.00000000000E+00 0.  1.
         11    1    4    4    0    0  0.44063323279E+02 -0.68804171482E+01 -0.22152738793E+03  0.22597190136E+03  0.00000000000E+00 0. -1.
</event>
<event>
 8    1  0.6615242E-009  0.1742905E+03  0.7561462E-02  0.1173446E+00
          1   -1    0    0  501    0  0.00000000000E+00  0.00000000000E+00  0.51603095070E+03  0.51603095070E+03  0.00000000000E+00 0. -1.
         -1   -1    0    0    0  501 -0.00000000000E+00 -0.00000000000E+00 -0.86474126389E+02  0.86474126389E+02  0.00000000000E+00 0.  1.
         25    2    1    2    0    0  0.15287321791E+03  0.70238451680E+02  0.13195372782E+03  0.24771577546E+03  0.12509060027E+03 0.  0.
         23    2    1    2    0    0 -0.15287321791E+03 -0.70238451680E+02  0.29760309648E+03  0.35478930163E+03  0.94890382367E+02 0.  0.
          5    1    3    3  502    0  0.64230918009E+02  0.51580973072E+01 -0.12851539764E+02  0.65839587411E+02  0.41800000000E+01 0. -1.
         -5    1    3    3    0  502  0.88642299898E+02  0.65080354373E+02  0.14480526759E+03  0.18187618804E+03  0.41800000000E+01 0. -1.
        -11    1    4    4    0    0 -0.11532721380E+03 -0.72707971723E+02  0.15102399802E+03  0.20345776803E+03  0.00000000000E+00 0.  1.
         11    1    4    4    0    0 -0.37546004106E+02  0.24695200427E+01  0.14657909847E+03  0.15133153360E+03  0.00000000000E+00 0. -1.
</event>
<event>
 8    1  0.6615242E-009  0.1044472E+03  0.7561462E-02  0.1271213E+00
         -1   -1    0    0    0  501 -0.00000000000E+00  0.00000000000E+00  0.15658693796E+03  0.15658693796E+03  0.00000000000E+00 0.  1.
          1   -1    0    0  501    0  0.00000000000E+00 -0.00000000000E+00 -0.11416812206E+03  0.11416812206E+03  0.00000000000E+00 0. -1.
         25    2    1    2    0    0  0.27093844581E+02  0.50802557378E+02 -0.32183396276E+02  0.14141888338E+03  0.12509417784E+03 0.  0.
         23    2    1    2    0    0 -0.27093844581E+02 -0.50802557378E+02  0.74602212178E+02  0.12933617664E+03  0.88585440543E+02 0.  0.
          5    1    3    3  502    0 -0.13011338244E+02 -0.35030816054E+02 -0.27287015286E+02  0.46459730945E+02  0.41800000000E+01 0.  1.
         -5    1    3    3    0  502  0.40105182825E+02  0.85833373432E+02 -0.48963809901E+01  0.94959152434E+02  0.41800000000E+01 0.  1.
        -11    1    4    4    0    0 -0.32129940276E+02 -0.76684936575E+01  0.79057706845E+02  0.85681152354E+02  0.00000000000E+00 0.  1.
         11    1    4    4    0    0  0.50360956946E+01 -0.43134063721E+02 -0.44554946670E+01  0.43655024289E+02  0.00000000000E+00 0. -1.
</event>
<event>
 8    1  0.6615242E-009  0.1012412E+03  0.7561462E-02  0.1277707E+00
         -2   -1    0    0    0  501 -0.00000000000E+00  0.00000000000E+00  0.24541189929E+02  0.24541189929E+02  0.00000000000E+00 0.  1.
          2   -1    0    0  501    0  0.00000000000E+00 -0.00000000000E+00 -0.88078917207E+03  0.88078917207E+03  0.00000000000E+00 0. -1.
         25    2    1    2    0    0 -0.28709082617E+00 -0.82866595101E+02 -0.63219289425E+03  0.64975466533E+03  0.12508522921E+03 0.  0.
         23    2    1    2    0    0  0.28709082617E+00  0.82866595101E+02 -0.22405508789E+03  0.25557569667E+03  0.90836662836E+02 0.  0.
          5    1    3    3  502    0  0.13209902717E+02  0.38231236442E+01 -0.32861962123E+01  0.14744127297E+02  0.41800000000E+01 0. -1.
         -5    1    3    3    0  502 -0.13496993543E+02 -0.86689718745E+02 -0.62890669804E+03  0.63501053803E+03  0.41800000000E+01 0. -1.
        -11    1    4    4    0    0  0.22802772674E+02  0.71510619835E+02 -0.21666508783E+03  0.22929783138E+03  0.00000000000E+00 0. -1.
         11    1    4    4    0    0 -0.22515681848E+02  0.11355975266E+02 -0.73900000555E+01  0.26277865289E+02  0.00000000000E+00 0.  1.
</event>
<event>
 8    1  0.6615242E-009  0.1025442E+03  0.7561462E-02  0.1275035E+00
          2   -1    0    0  501    0  0.00000000000E+00  0.00000000000E+00  0.95683479269E+02  0.95683479269E+02  0.00000000000E+00 0.  1.
         -2   -1    0    0    0  501 -0.00000000000E+00 -0.00000000000E+00 -0.15693177785E+03  0.15693177785E+03  0.00000000000E+00 0. -1.
         25    2    1    2    0    0 -0.19408835871E+02 -0.43802450867E+02 -0.62962448017E+02  0.14801025310E+03  0.12508959809E+03 0.  0.
         23    2    1    2    0    0  0.19408835871E+02  0.43802450867E+02  0.17141494317E+01  0.10460500402E+03  0.92972635469E+02 0.  0.
          5    1    3    3  502    0  0.26215732678E+02  0.12713065586E+02  0.21562147637E+02  0.36486782363E+02  0.41800000000E+01 0.  1.
         -5    1    3    3    0  502 -0.45624568550E+02 -0.56515516453E+02 -0.84524595655E+02  0.11152347074E+03  0.41800000000E+01 0.  1.
        -11    1    4    4    0    0  0.33935128308E+02  0.67245003335E+02  0.95737934278E+01  0.75928525123E+02  0.00000000000E+00 0.  1.
         11    1    4    4    0    0 -0.14526292436E+02 -0.23442552468E+02 -0.78596439961E+01  0.28676478897E+02  0.00000000000E+00 0. -1.
</event>
<event>
 8    1  0.6615242E-009  0.1973077E+03  0.7561462E-02  0.1152031E+00
         -1   -1    0    0    0  501 -0.00000000000E+00  0.00000000000E+00  0.22184053830E+03  0.22184053830E+03  0.00000000000E+00 0.  1.
          1   -1    0    0  501    0  0.00000000000E+00 -0.00000000000E+00 -0.25645712774E+03  0.25645712774E+03  0.00000000000E+00 0. -1.
         25    2    1    2    0    0 -0.16608905698E+03  0.59382008771E+02  0.10009411559E+03  0.23828162042E+03  0.12508997098E+03 0.  0.
         23    2    1    2    0    0  0.16608905698E+03 -0.59382008771E+02 -0.13471070503E+03  0.24001604563E+03  0.91372481058E+02 0.  0.
          5    1    3    3  502    0 -0.89313557183E+02  0.76016457798E+02  0.86804926087E+01  0.11767853120E+03  0.41800000000E+01 0. -1.
         -5    1    3    3    0  502 -0.76775499796E+02 -0.16634449027E+02  0.91413622980E+02  0.12060308922E+03  0.41800000000E+01 0. -1.
        -11    1    4    4    0    0  0.44776751876E+02  0.24556967254E+02 -0.37189324520E+02  0.63174741848E+02  0.00000000000E+00 0.  1.
         11    1    4    4    0    0  0.12131230510E+03 -0.83938976025E+02 -0.97521380510E+02  0.17684130378E+03  0.00000000000E+00 0. -1.
</event>
<event>
 8    1  0.6615242E-009  0.2154570E+03  0.7561462E-02  0.1137316E+00
          1   -1    0    0  501    0  0.00000000000E+00  0.00000000000E+00  0.17842329562E+04  0.17842329562E+04  0.00000000000E+00 0. -1.
         -1   -1    0    0    0  501 -0.00000000000E+00 -0.00000000000E+00 -0.26627569515E+02  0.26627569515E+02  0.00000000000E+00 0.  1.
         25    2    1    2    0    0  0.33530673681E+02 -0.18583807323E+03  0.89501847630E+03  0.92323652910E+03  0.12509004841E+03 0.  0.
         23    2    1    2    0    0 -0.33530673681E+02  0.18583807323E+03  0.86258691035E+03  0.88762399658E+03  0.90333193525E+02 0.  0.
          5    1    3    3  502    0  0.14438965562E+02  0.14985892909E+02  0.14525072216E+03  0.14679341062E+03  0.41800000000E+01 0. -1.
         -5    1    3    3    0  502  0.19091708119E+02 -0.20082396614E+03  0.74976775414E+03  0.77644311849E+03  0.41800000000E+01 0. -1.
        -11    1    4    4    0    0  0.14016027128E+02  0.14370529406E+03  0.54920870013E+03  0.56787133829E+03  0.00000000000E+00 0. -1.
         11    1    4    4    0    0 -0.47546700809E+02  0.42132779174E+02  0.31337821023E+03  0.31975265829E+03  0.00000000000E+00 0.  1.
</event>
<event>
 8    1  0.6615242E-009  0.1121898E+03  0.7561462E-02  0.1256568E+00
          1   -1    0    0  501    0  0.00000000000E+00  0.00000000000E+00  0.66915155288E+02  0.66915155288E+02  0.00000000000E+00 0. -1.
         -1   -1    0    0    0  501 -0.00000000000E+00 -0.00000000000E+00 -0.25261220571E+03  0.25261220571E+03  0.00000000000E+00 0.  1.
         25    2    1    2    0    0 -0.61296572182E+02 -0.34935170518E+02 -0.11578401080E+03  0.18447575488E+03  0.12509049157E+03 0.  0.
         23    2    1    2    0    0  0.61296572182E+02  0.34935170518E+02 -0.69913039621E+02  0.13505160612E+03  0.91506105288E+02 0.  0.
          5    1    3    3  502    0 -0.63497795076E+02  0.18148640381E+02 -0.11319662000E+03  0.13111937426E+03  0.41800000000E+01 0.  1.
         -5    1    3    3    0  502  0.22012228938E+01 -0.53083810899E+02 -0.25873907996E+01  0.53356380620E+02  0.41800000000E+01 0.  1.
        -11    1    4    4    0    0  0.33125589899E+01  0.45800492497E+02 -0.32516943975E+01  0.46035113517E+02  0.00000000000E+00 0. -1.
         11    1    4    4    0    0  0.57984013192E+02 -0.10865321979E+02 -0.66661345223E+02  0.89016492599E+02  0.00000000000E+00 0.  1.
</event>
<event>
 8    1  0.6615242E-009  0.2848373E+03  0.7561462E-02  0.1093076E+00
          2   -1    0    0  501    0  0.00000000000E+00  0.00000000000E+00  0.19991804164E+04  0.19991804164E+04  0.00000000000E+00 0.  1.
         -2   -1    0    0    0  501 -0.00000000000E+00 -0.00000000000E+00 -0.47780778602E+02  0.47780778602E+02  0.00000000000E+00 0. -1.
         25    2    1    2    0    0  0.24635677044E+03  0.12600398724E+03  0.12683562451E+04  0.13042016050E+04  0.12508236870E+03 0.  0.
         23    2    1    2    0    0 -0.24635677044E+03 -0.12600398724E+03  0.68304339268E+03  0.74275958995E+03  0.92600588711E+02 0.  0.
          5    1    3    3  502    0  0.84584734829E+02  0.96307725285E+02  0.38927480179E+03  0.40985619310E+03  0.41800000000E+01 0.  1.
         -5    1    3    3    0  502  0.16177203561E+03  0.29696261958E+02  0.87908144329E+03  0.89434541191E+03  0.41800000000E+01 0.  1.
        -11    1    4    4    0    0 -0.47152965998E+02 -0.28709058353E+02  0.25280201185E+03  0.25875948182E+03  0.00000000000E+00 0.  1.
         11    1    4    4    0    0 -0.19920380444E+03 -0.97294928889E+02  0.43024138083E+03  0.48400010813E+03  0.00000000000E+00 0. -1.
</event>
<event>
 8    1  0.6615242E-009  0.1087780E+03  0.7561462E-02  0.1262850E+00
         -1   -1    0    0    0  501 -0.00000000000E+00  0.00000000000E+00  0.37452802575E+02  0.37452802575E+02  0.00000000000E+00 0.  1.
          1   -1    0    0  501    0  0.00000000000E+00 -0.00000000000E+00 -0.54989457579E+03  0.54989457579E+03  0.00000000000E+00 0. -1.
         25    2    1    2    0    0 -0.10013779027E+02 -0.48960629968E+02 -0.11422022518E+03  0.17660985699E+03  0.12508941876E+03 0.  0.
         23    2    1    2    0    0  0.10013779027E+02  0.48960629968E+02 -0.39822154803E+03  0.41073752138E+03  0.87335508795E+02 0.  0.
          5    1    3    3  502    0 -0.48873899328E+02 -0.59044817026E+02 -0.28536732202E+02  0.81894846834E+02  0.41800000000E+01 0. -1.
         -5    1    3    3    0  502  0.38860120301E+02  0.10084187058E+02 -0.85683492982E+02  0.94715010152E+02  0.41800000000E+01 0. -1.
        -11    1    4    4    0    0  0.10682499177E+02 -0.24624345081E+02 -0.95530070484E+02  0.99229373302E+02  0.00000000000E+00 0.  1.
         11    1    4    4    0    0 -0.66872015030E+00  0.73584975049E+02 -0.30269147754E+03  0.31150814807E+03  0.00000000000E+00 0. -1.
</event>
<event>
 8    1  0.6615242E-009  0.9054618E+02  0.7561462E-02  0.1301534E+00
         -2   -1    0    0    0  501 -0.00000000000E+00  0.00000000000E+00  0.31694883805E+03  0.31694883805E+03  0.00000000000E+00 0.  1.
          2   -1    0    0  501    0  0.00000000000E+00 -0.00000000000E+00 -0.83546765381E+02  0.83546765381E+02  0.00000000000E+00 0. -1.
         25    2    1    2    0    0  0.13531049401E+02 -0.71865438638E+02  0.14205192471E+02  0.14559588840E+03  0.12509454288E+03 0.  0.
         23    2    1    2    0    0 -0.13531049401E+02  0.71865438638E+02  0.21919688019E+03  0.25489971502E+03  0.10760512006E+03 0.  0.
          5    1    3    3  502    0 -0.24130038893E+02 -0.63039307751E+02 -0.40226943799E+02  0.78688579261E+02  0.41800000000E+01 0. -1.
         -5    1    3    3    0  502  0.37661088293E+02 -0.88261308874E+01  0.54432136270E+02  0.66907309144E+02  0.41800000000E+01 0. -1.
        -11    1    4    4    0    0 -0.60169312516E+01  0.61283816428E+02  0.22994578338E+03  0.23804825752E+03  0.00000000000E+00 0.  1.
         11    1    4    4    0    0 -0.75141181489E+01  0.10581622210E+02 -0.10748903184E+02  0.16851457498E+02  0.00000000000E+00 0. -1.
</event>
<event>
 8    1  0.6615242E-009  0.1033725E+03  0.7561462E-02  0.1273360E+00
          1   -1    0    0  501    0  0.00000000000E+00  0.00000000000E+00  0.13988071811E+03  0.13988071811E+03  0.00000000000E+00 0. -1.
         -1   -1    0    0    0  501 -0.00000000000E+00 -0.00000000000E+00 -0.10048046858E+03  0.10048046858E+03  0.00000000000E+00 0.  1.
         25    2    1    2    0    0  0.22494727493E+02  0.23218317865E+02  0.56452090007E+02  0.14099378273E+03  0.12508918920E+03 0.  0.
         23    2    1    2    0    0 -0.22494727493E+02 -0.23218317865E+02 -0.17051840486E+02  0.99367403956E+02  0.92401367174E+02 0.  0.
          5    1    3    3  502    0 -0.49003006540E+02  0.14885001862E+02  0.44361179754E+02  0.67884052615E+02  0.41800000000E+01 0.  1.
         -5    1    3    3    0  502  0.71497734032E+02  0.83333160034E+01  0.12090910253E+02  0.73109730119E+02  0.41800000000E+01 0.  1.
        -11    1    4    4    0    0  0.24695814014E+02 -0.26160415190E+02 -0.33646300982E+02  0.49257731601E+02  0.00000000000E+00 0.  1.
         11    1    4    4    0    0 -0.47190541507E+02  0.29420973246E+01  0.16594460496E+02  0.50109672355E+02  0.00000000000E+00 0. -1.
</event>
<event>
 8    1  0.6615242E-009  0.1010762E+03  0.7561462E-02  0.1278049E+00
          2   -1    0    0  501    0  0.00000000000E+00  0.00000000000E+00  0.78686099300E+03  0.78686099300E+03  0.00000000000E+00 0. -1.
         -2   -1    0    0    0  501 -0.00000000000E+00 -0.00000000000E+00 -0.16285047719E+02  0.16285047719E+02  0.00000000000E+00 0.  1.
         25    2    1    2    0    0 -0.12800227297E+02  0.17012111864E+02  0.35929781456E+03  0.38104650482E+03  0.12509301147E+03 0.  0.
         23    2    1    2    0    0  0.12800227297E+02 -0.17012111864E+02  0.41127813072E+03  0.42209953590E+03  0.92547607370E+02 0.  0.
          5    1    3    3  502    0 -0.57302584632E+02  0.26162899378E+02  0.10367568338E+03  0.12138452634E+03  0.41800000000E+01 0. -1.
         -5    1    3    3    0  502  0.44502357335E+02 -0.91507875140E+01  0.25562213118E+03  0.25966197848E+03  0.41800000000E+01 0. -1.
        -11    1    4    4    0    0 -0.33224050955E+02 -0.30847947868E+02  0.23803160472E+03  0.24231070611E+03  0.00000000000E+00 0. -1.
         11    1    4    4    0    0  0.46024278252E+02  0.13835836005E+02  0.17324652600E+03  0.17978882979E+03  0.00000000000E+00 0.  1.
</event>
<event>
 8    1  0.6615242E-009  0.1255476E+03  0.7561462E-02  0.1234216E+00
         -1   -1    0    0    0  501 -0.00000000000E+00  0.00000000000E+00  0.63319719679E+02  0.63319719679E+02  0.00000000000E+00 0.  1.
          1   -1    0    0  501    0  0.00000000000E+00 -0.00000000000E+00 -0.40036830752E+03  0.40036830752E+03  0.00000000000E+00 0. -1.
         25    2    1    2    0    0 -0.20507662224E+01 -0.85334190069E+02 -0.65111996525E+02  0.16484290174E+03  0.12508988978E+03 0.  0.
         23    2    1    2    0    0  0.20507662224E+01  0.85334190069E+02 -0.27193659132E+03  0.29884512546E+03  0.89848593069E+02 0.  0.
          5    1    3    3  502    0 -0.27643058128E+02 -0.11051246957E+03 -0.39902722047E+02  0.12077600846E+03  0.41800000000E+01 0. -1.
         -5    1    3    3    0  502  0.25592291906E+02  0.25178279500E+02 -0.25209274478E+02  0.44066893280E+02  0.41800000000E+01 0. -1.
        -11    1    4    4    0    0  0.27990355746E+02  0.45624220889E+02 -0.22797349011E+03  0.23417288856E+03  0.00000000000E+00 0. -1.
         11    1    4    4    0    0 -0.25939589524E+02  0.39709969181E+02 -0.43963101208E+02  0.64672236893E+02  0.00000000000E+00 0.  1.
</event>
<event>
 8    1  0.6615242E-009  0.6518538E+02  0.7561462E-02  0.1377276E+00
          3   -1    0    0  501    0  0.00000000000E+00  0.00000000000E+00  0.24044981826E+03  0.24044981826E+03  0.00000000000E+00 0. -1.
         -3   -1    0    0    0  501 -0.00000000000E+00 -0.00000000000E+00 -0.61242617614E+02  0.61242617614E+02  0.00000000000E+00 0.  1.
         25    2    1    2    0    0 -0.54614904490E+01  0.52921967161E+02  0.10885725641E+03  0.17414880456E+03  0.12508933357E+03 0.  0.
         23    2    1    2    0    0  0.54614904490E+01 -0.52921967161E+02  0.70349944241E+02  0.12754363131E+03  0.92128718368E+02 0.  0.
          5    1    3    3  502    0 -0.11563975566E+01  0.62804523839E+02 -0.17113697124E+01  0.62977350343E+02  0.41800000000E+01 0.  1.
         -5    1    3    3    0  502 -0.43050928924E+01 -0.98825566783E+01  0.11056862612E+03  0.11117145422E+03  0.41800000000E+01 0.  1.
        -11    1    4    4    0    0  0.73139389573E+01 -0.77912111849E+01 -0.22156374204E+02  0.24598812830E+02  0.00000000000E+00 0.  1.
         11    1    4    4    0    0 -0.18524485083E+01 -0.45130755976E+02  0.92506318445E+02  0.10294481848E+03  0.00000000000E+00 0. -1.
</event>
<event>
 8    1  0.6615242E-009  0.1203534E+03  0.7561462E-02  0.1242515E+00
          1   -1    0    0  501    0  0.00000000000E+00  0.00000000000E+00  0.20765396023E+02  0.20765396023E+02  0.00000000000E+00 0. -1.
         -1   -1    0    0    0  501 -0.00000000000E+00 -0.00000000000E+00 -0.79719500404E+03  0.79719500404E+03  0.00000000000E+00 0.  1.
         25    2    1    2    0    0  0.35244273052E+02 -0.58928750832E+02 -0.42114536574E+03  0.44466646907E+03  0.12510033242E+03 0.  0.
         23    2    1    2    0    0 -0.35244273052E+02  0.58928750832E+02 -0.35528424227E+03  0.37329393099E+03  0.91688110729E+02 0.  0.
          5    1    3    3  502    0  0.76496012944E+02 -0.34987721115E+02 -0.17887836456E+03  0.19771373835E+03  0.41800000000E+01 0. -1.
         -5    1    3    3    0  502 -0.41251739892E+02 -0.23941029717E+02 -0.24226700118E+03  0.24695273072E+03  0.41800000000E+01 0. -1.
        -11    1    4    4    0    0  0.96202392286E+01  0.62840118344E+02 -0.14634719519E+03  0.15955855043E+03  0.00000000000E+00 0. -1.
         11    1    4    4    0    0 -0.44864512281E+02 -0.39113675126E+01 -0.20893704709E+03  0.21373538056E+03  0.00000000000E+00 0.  1.
</event>
<event>
 8    1  0.6615242E-009  0.1081515E+03  0.7561462E-02  0.1264032E+00
         -1   -1    0    0    0  501 -0.00000000000E+00  0.00000000000E+00  0.13153170390E+03  0.13153170390E+03  0.00000000000E+00 0.  1.
          1   -1    0    0  501    0  0.00000000000E+00 -0.00000000000E+00 -0.12854476471E+03  0.12854476471E+03  0.00000000000E+00 0. -1.
         25    2    1    2    0    0  0.61184901815E+02  0.20612180596E+02  0.43317375762E+02  0.14728124589E+03  0.12508763388E+03 0.  0.
         23    2    1    2    0    0 -0.61184901815E+02 -0.20612180596E+02 -0.40330436571E+02  0.11279522271E+03  0.83233190218E+02 0.  0.
          5    1    3    3  502    0 -0.27270932525E+02  0.16389527332E+02 -0.20469983021E+02  0.38063275895E+02  0.41800000000E+01 0. -1.
         -5    1    3    3    0  502  0.88455834340E+02  0.42226532637E+01  0.63787358783E+02  0.10921797000E+03  0.41800000000E+01 0. -1.
        -11    1    4    4    0    0 -0.68580433869E+02  0.51318147541E+01 -0.49222895944E+02  0.84572483217E+02  0.00000000000E+00 0. -1.
         11    1    4    4    0    0  0.73955320543E+01 -0.25743995350E+02  0.88924593733E+01  0.28222739496E+02  0.00000000000E+00 0.  1.
</event>
<event>
 8    1  0.6615242E-009  0.1334493E+03  0.7561462E-02  0.1222426E+00
          2   -1    0    0  501    0  0.00000000000E+00  0.00000000000E+00  0.15208712355E+03  0.15208712355E+03  0.00000000000E+00 0. -1.
         -2   -1    0    0    0  501 -0.00000000000E+00 -0.00000000000E+00 -0.14564140232E+03  0.14564140232E+03  0.00000000000E+00 0.  1.
         25    2    1    2    0    0  0.63096173337E+02 -0.79910640521E+02  0.13751078609E+02  0.16187317708E+03  0.12508795200E+03 0.  0.
         23    2    1    2    0    0 -0.63096173337E+02  0.79910640521E+02 -0.73053573835E+01  0.13585534879E+03  0.89646360717E+02 0.  0.
          5    1    3    3  502    0  0.30293821612E+02  0.27121063309E+02 -0.19121519807E+02  0.45126185553E+02  0.41800000000E+01 0.  1.
         -5    1    3    3    0  502  0.32802351725E+02 -0.10703170383E+03  0.32872598415E+02  0.11674699152E+03  0.41800000000E+01 0.  1.
        -11    1    4    4    0    0 -0.39670304585E+02  0.81374075580E+02 -0.37177241343E+02  0.97865318250E+02  0.00000000000E+00 0.  1.
         11    1    4    4    0    0 -0.23425868752E+02 -0.14634350592E+01  0.29871883960E+02  0.37990030538E+02  0.00000000000E+00 0. -1.
</event>
<event>
 8    1  0.6615242E-009  0.9496567E+02  0.7561462E-02  0.1291253E+00
          1   -1    0    0  501    0  0.00000000000E+00  0.00000000000E+00  0.34782608584E+03  0.34782608584E+03  0.00000000000E+00 0. -1.
         -1   -1    0    0    0  501 -0.00000000000E+00 -0.00000000000E+00 -0.39059501607E+02  0.39059501607E+02  0.00000000000E+00 0.  1.
         25    2    1    2    0    0 -0.22700301598E+01  0.34677329757E+01  0.25173663581E+03  0.28112592130E+03  0.12507306508E+03 0.  0.
         23    2    1    2    0    0  0.22700301598E+01 -0.34677329757E+01  0.57029948428E+02  0.10575966615E+03  0.88969173078E+02 0.  0.
          5    1    3    3  502    0  0.45218578267E+01  0.62461112261E+02  0.15885337467E+03  0.17080311703E+03  0.41800000000E+01 0. -1.
         -5    1    3    3    0  502 -0.67918879865E+01 -0.58993379285E+02  0.92883261142E+02  0.11032280427E+03  0.41800000000E+01 0. -1.
        -11    1    4    4    0    0  0.33404436788E+02  0.81870684232E+01 -0.56070935536E+01  0.34847151743E+02  0.00000000000E+00 0.  1.
         11    1    4    4    0    0 -0.31134406628E+02 -0.11654801399E+02  0.62637041981E+02  0.70912514410E+02  0.00000000000E+00 0. -1.
</event>
<event>
 8    1  0.6615242E-009  0.1306983E+03  0.7561462E-02  0.1226423E+00
          2   -1    0    0  501    0  0.00000000000E+00  0.00000000000E+00  0.64124550022E+03  0.64124550022E+03  0.00000000000E+00 0. -1.
         -2   -1    0    0    0  501 -0.00000000000E+00 -0.00000000000E+00 -0.44017283917E+02  0.44017283917E+02  0.00000000000E+00 0.  1.
         25    2    1    2    0    0  0.85330559127E+02  0.75906382542E+02  0.20280603307E+03  0.26423808074E+03  0.12509353714E+03 0.  0.
         23    2    1    2    0    0 -0.85330559127E+02 -0.75906382542E+02  0.39442218324E+03  0.42102470340E+03  0.93004618208E+02 0.  0.
          5    1    3    3  502    0  0.15307397987E+02  0.36234358483E+02  0.17433710574E+03  0.17876840885E+03  0.41800000000E+01 0. -1.
         -5    1    3    3    0  502  0.70023161140E+02  0.39672024059E+02  0.28468927329E+02  0.85469671886E+02  0.41800000000E+01 0. -1.
        -11    1    4    4    0    0 -0.52397514116E+02  0.62221424579E+01  0.93484799560E+02  0.10734813595E+03  0.00000000000E+00 0.  1.
         11    1    4    4    0    0 -0.32933045012E+02 -0.82128525000E+02  0.30093738368E+03  0.31367656745E+03  0.00000000000E+00 0. -1.
</event>
<event>
 8    1  0.6615242E-009  0.1851076E+03  0.7561462E-02  0.1162949E+00
         -1   -1    0    0    0  501 -0.00000000000E+00  0.00000000000E+00  0.49211659234E+02  0.49211659234E+02  0.00000000000E+00 0.  1.
          1   -1    0    0  501    0  0.00000000000E+00 -0.00000000000E+00 -0.71422780169E+03  0.71422780169E+03  0.00000000000E+00 0. -1.
         25    2    1    2    0    0  0.58195766306E+02  0.13811197110E+03 -0.40099489968E+03  0.44598851855E+03  0.12508870988E+03 0.  0.
         23    2    1    2    0    0 -0.58195766306E+02 -0.13811197110E+03 -0.26402124278E+03  0.31745094237E+03  0.92769717015E+02 0.  0.
          5    1    3    3  502    0 -0.18331484620E+02  0.11198875699E+03 -0.21540807379E+03  0.24350695201E+03  0.41800000000E+01 0.  1.
         -5    1    3    3    0  502  0.76527250926E+02  0.26123214108E+02 -0.18558682589E+03  0.20248156655E+03  0.41800000000E+01 0.  1.
        -11    1    4    4    0    0 -0.81919633737E+02 -0.12221509162E+03 -0.22998840868E+03  0.27302385085E+03  0.00000000000E+00 0. -1.
         11    1    4    4    0    0  0.23723867432E+02 -0.15896879485E+02 -0.34032834101E+02  0.44427091512E+02  0.00000000000E+00 0.  1.
</event>
<event>
 8    1  0.6615242E-009  0.1639275E+03  0.7561462E-02  0.1184333E+00
          2   -1    0    0  501    0  0.00000000000E+00  0.00000000000E+00  0.23118194070E+02  0.23118194070E+02  0.00000000000E+00 0.  1.
         -2   -1    0    0    0  501 -0.00000000000E+00 -0.00000000000E+00 -0.12315170896E+04  0.12315170896E+04  0.00000000000E+00 0. -1.
         25    2    1    2    0    0 -0.79686903262E+02 -0.99347457586E+02 -0.60664148764E+03  0.63236114859E+03  0.12508720095E+03 0.  0.
         23    2    1    2    0    0  0.79686903262E+02  0.99347457586E+02 -0.60175740788E+03  0.62227413507E+03  0.94303771698E+02 0.  0.
          5    1    3    3  502    0  0.27448677409E+02 -0.56348160216E+02 -0.20041157768E+03  0.21002575537E+03  0.41800000000E+01 0. -1.
         -5    1    3    3    0  502 -0.10713558067E+03 -0.42999297369E+02 -0.40622990996E+03  0.42233539322E+03  0.41800000000E+01 0. -1.
        -11    1    4    4    0    0  0.50435992963E+02  0.10784785196E+03 -0.54506546262E+03  0.55791693566E+03  0.00000000000E+00 0. -1.
         11    1    4    4    0    0  0.29250910299E+02 -0.85003943770E+01 -0.56691945262E+02  0.64357199407E+02  0.00000000000E+00 0.  1.
</event>
<event>
 8    1  0.6615242E-009  0.1127478E+03  0.7561462E-02  0.1255564E+00
         -2   -1    0    0    0  501 -0.00000000000E+00  0.00000000000E+00  0.18178951786E+02  0.18178951786E+02  0.00000000000E+00 0.  1.
          2   -1    0    0  501    0  0.00000000000E+00 -0.00000000000E+00 -0.84502163702E+03  0.84502163702E+03  0.00000000000E+00 0. -1.
         25    2    1    2    0    0 -0.41033444034E+02 -0.75678498567E+01 -0.60719812429E+03  0.62135202265E+03  0.12509099897E+03 0.  0.
         23    2    1    2    0    0  0.41033444034E+02  0.75678498567E+01 -0.21964456094E+03  0.24184856616E+03  0.92227869544E+02 0.  0.
          5    1    3    3  502    0 -0.81503111226E+02  0.17888817908E+02 -0.40627553370E+03  0.41477710717E+03  0.41800000000E+01 0. -1.
         -5    1    3    3    0  502  0.40469667192E+02 -0.25456667764E+02 -0.20092259059E+03  0.20657491548E+03  0.41800000000E+01 0. -1.
        -11    1    4    4    0    0  0.45965905912E+02  0.40131582226E+02 -0.94862403187E+02  0.11279310234E+03  0.00000000000E+00 0. -1.
         11    1    4    4    0    0 -0.49324618777E+01 -0.32563732369E+02 -0.12478215776E+03  0.12905546382E+03  0.00000000000E+00 0.  1.
</event>
<event>
 8    1  0.6615242E-009  0.1994888E+03  0.7561462E-02  0.1150171E+00
         -1   -1    0    0    0  501 -0.00000000000E+00  0.00000000000E+00  0.87521976408E+03  0.87521976408E+03  0.00000000000E+00 0.  1.
          1   -1    0    0  501    0  0.00000000000E+00 -0.00000000000E+00 -0.90365207175E+02  0.90365207175E+02  0.00000000000E+00 0. -1.
         25    2    1    2    0    0  0.44179890508E+02 -0.17299862360E+03  0.79482315397E+02  0.23203427174E+03  0.12506829457E+03 0.  0.
         23    2    1    2    0    0 -0.44179890508E+02  0.17299862360E+03  0.70537224151E+03  0.73355069952E+03  0.93092659103E+02 0.  0.
          5    1    3    3  502    0  0.67509010276E+02 -0.17925314694E+03  0.79738927258E+02  0.20752090516E+03  0.41800000000E+01 0. -1.
         -5    1    3    3    0  502 -0.23329119767E+02  0.62545233445E+01 -0.25661186121E+00  0.24513366579E+02  0.41800000000E+01 0. -1.
        -11    1    4    4    0    0 -0.31669163992E+02  0.49622564156E+02  0.10380678080E+03  0.11933642596E+03  0.00000000000E+00 0.  1.
         11    1    4    4    0    0 -0.12510726517E+02  0.12337605944E+03  0.60156546071E+03  0.61421427356E+03  0.00000000000E+00 0. -1.
</event>
<event>
 8    1  0.6615242E-009  0.1377959E+03  0.7561462E-02  0.1216326E+00
         -1   -1    0    0    0  501 -0.00000000000E+00  0.00000000000E+00  0.16292674529E+03  0.16292674529E+03  0.00000000000E+00 0.  1.
          1   -1    0    0  501    0  0.00000000000E+00 -0.00000000000E+00 -0.13500522270E+03  0.13500522270E+03  0.00000000000E+00 0. -1.
         25    2    1    2    0    0  0.89831521251E+02 -0.43704483882E+02  0.10037834789E+02  0.16039953594E+03  0.12508984324E+03 0.  0.
         23    2    1    2    0    0 -0.89831521251E+02  0.43704483882E+02  0.17883687798E+02  0.13753243205E+03  0.92820037997E+02 0.  0.
          5    1    3    3  502    0  0.11916494379E+03 -0.35374585929E+02 -0.81626628783E+01  0.12464247520E+03  0.41800000000E+01 0.  1.
         -5    1    3    3    0  502 -0.29333422541E+02 -0.83298979527E+01  0.18200497667E+02  0.35757060746E+02  0.41800000000E+01 0.  1.
        -11    1    4    4    0    0 -0.79095505820E+02  0.38781836399E+01  0.42115750727E+02  0.89693231676E+02  0.00000000000E+00 0.  1.
         11    1    4    4    0    0 -0.10736015431E+02  0.39826300242E+02 -0.24232062929E+02  0.47839200370E+02  0.00000000000E+00 0. -1.
</event>
<event>
 8    1  0.6615242E-009  0.7832287E+02  0.7561462E-02  0.1333879E+00
          1   -1    0    0  501    0  0.00000000000E+00  0.00000000000E+00  0.30721611069E+03  0.30721611069E+03  0.00000000000E+00 0. -1.
         -1   -1    0    0    0  501 -0.00000000000E+00 -0.00000000000E+00 -0.65133004394E+02  0.65133004394E+02  0.00000000000E+00 0.  1.
         25    2    1    2    0    0  0.24351438107E+02  0.15634550059E+02  0.24265735874E+03  0.27453141299E+03  0.12508985282E+03 0.  0.
         23    2    1    2    0    0 -0.24351438107E+02 -0.15634550059E+02 -0.57425244169E+00  0.97817702090E+02  0.93437366095E+02 0.  0.
          5    1    3    3  502    0 -0.23241131499E+02 -0.70685224146E+01 -0.15145093420E+01  0.24695755526E+02  0.41800000000E+01 0. -1.
         -5    1    3    3    0  502  0.47592569606E+02  0.22703072473E+02  0.24417186808E+03  0.24983565747E+03  0.41800000000E+01 0. -1.
        -11    1    4    4    0    0 -0.16917965538E+02  0.29149884900E+02  0.28305620816E+02  0.44012969878E+02  0.00000000000E+00 0. -1.
         11    1    4    4    0    0 -0.74334725692E+01 -0.44784434959E+02 -0.28879873258E+02  0.53804732212E+02  0.00000000000E+00 0.  1.
</event>
<event>
 8    1  0.6615242E-009  0.1408977E+03  0.7561462E-02  0.1212126E+00
          2   -1    0    0  501    0  0.00000000000E+00  0.00000000000E+00  0.17503209229E+04  0.17503209229E+04  0.00000000000E+00 0. -1.
         -2   -1    0    0    0  501 -0.00000000000E+00 -0.00000000000E+00 -0.12269960519E+02  0.12269960519E+02  0.00000000000E+00 0.  1.
         25    2    1    2    0    0  0.64279284221E+02  0.70078701318E+02  0.11056519718E+04  0.11167623457E+04  0.12509597598E+03 0.  0.
         23    2    1    2    0    0 -0.64279284221E+02 -0.70078701318E+02  0.63239899051E+03  0.64582853767E+03  0.90128608779E+02 0.  0.
          5    1    3    3  502    0  0.43650529672E+02 -0.27333224108E+02  0.53341906013E+03  0.53591588891E+03  0.41800000000E+01 0.  1.
         -5    1    3    3    0  502  0.20628754549E+02  0.97411925425E+02  0.57223291172E+03  0.58084645681E+03  0.41800000000E+01 0.  1.
        -11    1    4    4    0    0 -0.60372362782E+02 -0.96128431082E-01  0.32245624025E+03  0.32805922987E+03  0.00000000000E+00 0.  1.
         11    1    4    4    0    0 -0.39069214387E+01 -0.69982572887E+02  0.30994275026E+03  0.31776930780E+03  0.00000000000E+00 0. -1.
</event>
<event>
 8    1  0.6615242E-009  0.3385232E+03  0.7561462E-02  0.1067427E+00
         -2   -1    0    0    0  501 -0.00000000000E+00  0.00000000000E+00  0.29631639562E+03  0.29631639562E+03  0.00000000000E+00 0.  1.
          2   -1    0    0  501    0  0.00000000000E+00 -0.00000000000E+00 -0.41573715692E+03  0.41573715692E+03  0.00000000000E+00 0. -1.
         25    2    1    2    0    0  0.28055353762E+03 -0.17020099158E+03  0.10940105298E+01  0.35117973182E+03  0.12508933677E+03 0.  0.
         23    2    1    2    0    0 -0.28055353762E+03  0.17020099158E+03 -0.12051477183E+03  0.36087382072E+03  0.89595977834E+02 0.  0.
          5    1    3    3  502    0  0.28357241260E+03 -0.14905386406E+03 -0.19812626715E+02  0.32099903451E+03  0.41800000000E+01 0. -1.
         -5    1    3    3    0  502 -0.30188749873E+01 -0.21147127525E+02  0.20906637245E+02  0.30180697302E+02  0.41800000000E+01 0. -1.
        -11    1    4    4    0    0 -0.15904990024E+03  0.57372106605E+02 -0.92444698334E+02  0.19270301407E+03  0.00000000000E+00 0. -1.
         11    1    4    4    0    0 -0.12150363738E+03  0.11282888498E+03 -0.28070073496E+02  0.16817080665E+03  0.00000000000E+00 0.  1.
</event>
<event>
 8    1  0.6615242E-009  0.9647357E+02  0.7561462E-02  0.1287891E+00
         -2   -1    0    0    0  501 -0.00000000000E+00  0.00000000000E+00  0.99791371713E+02  0.99791371713E+02  0.00000000000E+00 0. -1.
          2   -1    0    0  501    0  0.00000000000E+00 -0.00000000000E+00 -0.16621427498E+03  0.16621427498E+03  0.00000000000E+00 0.  1.
         25    2    1    2    0    0 -0.21966809169E+02 -0.25638441706E+02 -0.96399738636E+02  0.16149497653E+03  0.12509135636E+03 0.  0.
         23    2    1    2    0    0  0.21966809169E+02  0.25638441706E+02  0.29976835366E+02  0.10451067017E+03  0.94254968687E+02 0.  0.
          5    1    3    3  502    0 -0.59740199444E+02 -0.19530689488E+02 -0.10463495178E+03  0.12213224307E+03  0.41800000000E+01 0. -1.
         -5    1    3    3    0  502  0.37773390275E+02 -0.61077522180E+01  0.82352131478E+01  0.39362733463E+02  0.41800000000E+01 0. -1.
        -11    1    4    4    0    0  0.24594008416E+02  0.55909672956E+02 -0.10426343140E+01  0.61088819487E+02  0.00000000000E+00 0.  1.
         11    1    4    4    0    0 -0.26271992476E+01 -0.30271231250E+02  0.31019469680E+02  0.43421850680E+02  0.00000000000E+00 0. -1.
</event>
<event>
 8    1  0.6615242E-009  0.2528006E+03  0.7561462E-02  0.1111548E+00
          1   -1    0    0  501    0  0.00000000000E+00  0.00000000000E+00  0.70987660151E+03  0.70987660151E+03  0.00000000000E+00 0. -1.
         -1   -1    0    0    0  501 -0.00000000000E+00 -0.00000000000E+00 -0.10941136866E+03  0.10941136866E+03  0.00000000000E+00 0.  1.
         25    2    1    2    0    0  0.31126362941E+02  0.24651380061E+03  0.40248155515E+03  0.48926161087E+03  0.12509043638E+03 0.  0.
         23    2    1    2    0    0 -0.31126362941E+02 -0.24651380061E+03  0.19798367770E+03  0.33002635930E+03  0.89341797802E+02 0.  0.
          5    1    3    3  502    0  0.83369717388E+01  0.18431289617E+03  0.18274605029E+03  0.25971973373E+03  0.41800000000E+01 0.  1.
         -5    1    3    3    0  502  0.22789391202E+02  0.62200904437E+02  0.21973550486E+03  0.22954187714E+03  0.41800000000E+01 0.  1.
        -11    1    4    4    0    0  0.60043311168E+01 -0.16494305911E+03  0.84516099425E+02  0.18543256403E+03  0.00000000000E+00 0.  1.
         11    1    4    4    0    0 -0.37130694058E+02 -0.81570741497E+02  0.11346757828E+03  0.14459379527E+03  0.00000000000E+00 0. -1.
</event>
<event>
 8    1  0.6615242E-009  0.1040080E+03  0.7561462E-02  0.1272086E+00
          2   -1    0    0  501    0  0.00000000000E+00  0.00000000000E+00  0.12012108938E+03  0.12012108938E+03  0.00000000000E+00 0. -1.
         -2   -1    0    0    0  501 -0.00000000000E+00 -0.00000000000E+00 -0.11692591014E+03  0.11692591014E+03  0.00000000000E+00 0.  1.
         25    2    1    2    0    0 -0.41539580083E+02  0.17126352933E+02  0.17336771488E+02  0.13404391489E+03  0.12509340029E+03 0.  0.
         23    2    1    2    0    0  0.41539580083E+02 -0.17126352933E+02 -0.14141592253E+02  0.10300308463E+03  0.91601321680E+02 0.  0.
          5    1    3    3  502    0 -0.62150804943E+02 -0.25925985440E+02  0.42682945717E+02  0.79838496549E+02  0.41800000000E+01 0.  1.
         -5    1    3    3    0  502  0.20611224860E+02  0.43052338373E+02 -0.25346174229E+02  0.54205418343E+02  0.41800000000E+01 0.  1.
        -11    1    4    4    0    0 -0.22873960410E+02  0.68840024689E+01 -0.23639488113E+02  0.33607037255E+02  0.00000000000E+00 0.  1.
         11    1    4    4    0    0  0.64413540493E+02 -0.24010355402E+02  0.94978958600E+01  0.69396047374E+02  0.00000000000E+00 0. -1.
</event>
<event>
 8    1  0.6615242E-009  0.1053675E+03  0.7561462E-02  0.1269397E+00
         -2   -1    0    0    0  501 -0.00000000000E+00  0.00000000000E+00  0.40978049310E+02  0.40978049310E+02  0.00000000000E+00 0.  1.
          2   -1    0    0  501    0  0.00000000000E+00 -0.00000000000E+00 -0.29762819886E+03  0.29762819886E+03  0.00000000000E+00 0. -1.
         25    2    1    2    0    0 -0.13793299718E+02  0.26282046059E+02 -0.14986534392E+03  0.19745315774E+03  0.12508847722E+03 0.  0.
         23    2    1    2    0    0  0.13793299718E+02 -0.26282046059E+02 -0.10678480563E+03  0.14115309043E+03  0.87408232797E+02 0.  0.
          5    1    3    3  502    0  0.46566635425E+02  0.44960084882E+02 -0.83372535851E+02  0.10563291581E+03  0.41800000000E+01 0.  1.
         -5    1    3    3    0  502 -0.60359935143E+02 -0.18678038824E+02 -0.66492808065E+02  0.91820241936E+02  0.41800000000E+01 0.  1.
        -11    1    4    4    0    0  0.35041816747E+02  0.13415877591E+02 -0.18028335751E+02  0.41628542882E+02  0.00000000000E+00 0.  1.
         11    1    4    4    0    0 -0.21248517030E+02 -0.39697923650E+02 -0.88756469883E+02  0.99524547546E+02  0.00000000000E+00 0. -1.
</event>
<event>
 8    1  0.6615242E-009  0.1468951E+03  0.7561462E-02  0.1204341E+00
          1   -1    0    0  501    0  0.00000000000E+00  0.00000000000E+00  0.18516391963E+04  0.18516391963E+04  0.00000000000E+00 0. -1.
         -1   -1    0    0    0  501 -0.00000000000E+00 -0.00000000000E+00 -0.13461008229E+02  0.13461008229E+02  0.00000000000E+00 0.  1.
         25    2    1    2    0    0 -0.65989881566E+02 -0.84863053043E+02  0.12158438339E+04  0.12269776497E+04  0.12506607139E+03 0.  0.
         23    2    1    2    0    0  0.65989881566E+02  0.84863053043E+02  0.62233435425E+03  0.63812255489E+03  0.91345193349E+02 0.  0.
          5    1    3    3  502    0 -0.54654572837E+02  0.12125054735E+02  0.67840947564E+03  0.68072830727E+03  0.41800000000E+01 0. -1.
         -5    1    3    3    0  502 -0.11335308730E+02 -0.96988107778E+02  0.53743435822E+03  0.54624934240E+03  0.41800000000E+01 0. -1.
        -11    1    4    4    0    0  0.19425904343E+02 -0.18325179253E+02  0.89733250187E+02  0.93622829178E+02  0.00000000000E+00 0.  1.
         11    1    4    4    0    0  0.46563977224E+02  0.10318823230E+03  0.53260110406E+03  0.54449972572E+03  0.00000000000E+00 0. -1.
</event>
<event>
 8    1  0.6615242E-009  0.1134413E+03  0.7561462E-02  0.1254327E+00
          2   -1    0    0  501    0  0.00000000000E+00  0.00000000000E+00  0.25371523525E+02  0.25371523525E+02  0.00000000000E+00 0.  1.
         -2   -1    0    0    0  501 -0.00000000000E+00 -0.00000000000E+00 -0.54117374276E+03  0.54117374276E+03  0.00000000000E+00 0. -1.
         25    2    1    2    0    0  0.19621194098E+02 -0.30437282706E+02 -0.24627325663E+03  0.27858418667E+03  0.12508881923E+03 0.  0.
         23    2    1    2    0    0 -0.19621194098E+02  0.30437282706E+02 -0.26952896261E+03  0.28796107961E+03  0.94679999217E+02 0.  0.
          5    1    3    3  502    0  0.72337931420E+02 -0.25253828268E+02 -0.13526165487E+03  0.15551115665E+03  0.41800000000E+01 0.  1.
         -5    1    3    3    0  502 -0.52716737322E+02 -0.51834544372E+01 -0.11101160175E+03  0.12307303002E+03  0.41800000000E+01 0.  1.
        -11    1    4    4    0    0  0.68044027540E+01 -0.30153162557E+02 -0.12914522092E+03  0.13279307661E+03  0.00000000000E+00 0. -1.
         11    1    4    4    0    0 -0.26425596852E+02  0.60590445262E+02 -0.14038374169E+03  0.15516800300E+03  0.00000000000E+00 0.  1.
</event>
<event>
 8    1  0.6615242E-009  0.7099950E+02  0.7561462E-02  0.1356727E+00
         -1   -1    0    0    0  501 -0.00000000000E+00  0.00000000000E+00  0.19009542629E+02  0.19009542629E+02  0.00000000000E+00 0.  1.
          1   -1    0    0  501    0  0.00000000000E+00 -0.00000000000E+00 -0.88690293726E+03  0.88690293726E+03  0.00000000000E+00 0. -1.
         25    2    1    2    0    0 -0.91303645210E+01  0.36298243764E+02 -0.54748939094E+03  0.56284375831E+03  0.12509011560E+03 0.  0.
         23    2    1    2    0    0  0.91303645210E+01 -0.36298243764E+02 -0.32040400369E+03  0.34306872158E+03  0.11677540874E+03 0.  0.
          5    1    3    3  502    0 -0.49706058154E+01  0.18248623198E+02 -0.54298225275E+03  0.54332763447E+03  0.41800000000E+01 0. -1.
         -5    1    3    3    0  502 -0.41597587056E+01  0.18049620567E+02 -0.45071381818E+01  0.19516123838E+02  0.41800000000E+01 0. -1.
        -11    1    4    4    0    0  0.50485962552E+02 -0.36476560587E+02 -0.92970125197E+02  0.11190538891E+03  0.00000000000E+00 0.  1.
         11    1    4    4    0    0 -0.41355598031E+02  0.17831682222E+00 -0.22743387850E+03  0.23116333267E+03  0.00000000000E+00 0. -1.
</event>
<event>
 8    1  0.6615242E-009  0.1163588E+03  0.7561462E-02  0.1249228E+00
         -2   -1    0    0    0  501 -0.00000000000E+00  0.00000000000E+00  0.49092590553E+02  0.49092590553E+02  0.00000000000E+00 0.  1.
          2   -1    0    0  501    0  0.00000000000E+00 -0.00000000000E+00 -0.48019495706E+03  0.48019495706E+03  0.00000000000E+00 0. -1.
         25    2    1    2    0    0  0.40216994320E+02  0.96905475205E+02 -0.28034284806E+03  0.32442211150E+03  0.12509802644E+03 0.  0.
         23    2    1    2    0    0 -0.40216994320E+02 -0.96905475205E+02 -0.15075951844E+03  0.20486543610E+03  0.90737736093E+02 0.  0.
          5    1    3    3  502    0 -0.17827393033E+02  0.14031915948E+02 -0.18134230370E+03  0.18280375849E+03  0.41800000000E+01 0.  1.
         -5    1    3    3    0  502  0.58044387354E+02  0.82873559257E+02 -0.99000544362E+02  0.14161835302E+03  0.41800000000E+01 0.  1.
        -11    1    4    4    0    0 -0.26715547878E+02 -0.30180543669E+02 -0.95453223662E+00  0.40317450892E+02  0.00000000000E+00 0.  1.
         11    1    4    4    0    0 -0.13501446442E+02 -0.66724931536E+02 -0.14980498621E+03  0.16454798521E+03  0.00000000000E+00 0. -1.
</event>
<event>
 8    1  0.6615242E-009  0.1759449E+03  0.7561462E-02  0.1171786E+00
         -1   -1    0    0    0  501 -0.00000000000E+00  0.00000000000E+00  0.17778345140E+03  0.17778345140E+03  0.00000000000E+00 0.  1.
          1   -1    0    0  501    0  0.00000000000E+00 -0.00000000000E+00 -0.29284254177E+03  0.29284254177E+03  0.00000000000E+00 0. -1.
         25    2    1    2    0    0  0.10312941978E+03 -0.98816342142E+02 -0.20390832241E+03  0.27861772226E+03  0.12509550157E+03 0.  0.
         23    2    1    2    0    0 -0.10312941978E+03  0.98816342142E+02  0.88849232035E+02  0.19200827092E+03  0.92588570401E+02 0.  0.
          5    1    3    3  502    0  0.15096152799E+02 -0.98000537893E+02 -0.85411630363E+02  0.13093745934E+03  0.41800000000E+01 0. -1.
         -5    1    3    3    0  502  0.88033266979E+02 -0.81580424948E+00 -0.11849669204E+03  0.14768026292E+03  0.41800000000E+01 0. -1.
        -11    1    4    4    0    0 -0.47181232096E+02 -0.41094465486E+01  0.49301919074E+02  0.68363992258E+02  0.00000000000E+00 0.  1.
         11    1    4    4    0    0 -0.55948187682E+02  0.10292578869E+03  0.39547312961E+02  0.12364427866E+03  0.00000000000E+00 0. -1.
</event>
<event>
 8    1  0.6615242E-009  0.1522069E+03  0.7561462E-02  0.1197787E+00
         -1   -1    0    0    0  501 -0.00000000000E+00  0.00000000000E+00  0.45430386825E+02  0.45430386825E+02  0.00000000000E+00 0.  1.
          1   -1    0    0  501    0  0.00000000000E+00 -0.00000000000E+00 -0.13547410417E+04  0.13547410417E+04  0.00000000000E+00 0. -1.
         25    2    1    2    0    0 -0.12164866951E+03 -0.43549607601E+02 -0.11877851017E+04  0.12013229289E+04  0.12509342332E+03 0.  0.
         23    2    1    2    0    0  0.12164866951E+03  0.43549607601E+02 -0.12152555320E+03  0.19884849965E+03  0.89873792722E+02 0.  0.
          5    1    3    3  502    0  0.15527314274E+02 -0.33219828935E+02 -0.39110225666E+03  0.39283979188E+03  0.41800000000E+01 0.  1.
         -5    1    3    3    0  502 -0.13717598378E+03 -0.10329778666E+02 -0.79668284505E+03  0.80848313702E+03  0.41800000000E+01 0.  1.
        -11    1    4    4    0    0  0.97645781238E+02  0.29220330024E+02 -0.34756144733E+02  0.10768712029E+03  0.00000000000E+00 0.  1.
         11    1    4    4    0    0  0.24002888268E+02  0.14329277577E+02 -0.86769408463E+02  0.91161379356E+02  0.00000000000E+00 0. -1.
</event>
<event>
 8    1  0.6615242E-009  0.6760938E+02  0.7561462E-02  0.1368416E+00
          2   -1    0    0  501    0  0.00000000000E+00  0.00000000000E+00  0.18144082385E+03  0.18144082385E+03  0.00000000000E+00 0. -1.
         -2   -1    0    0    0  501 -0.00000000000E+00 -0.00000000000E+00 -0.86983763980E+02  0.86983763980E+02  0.00000000000E+00 0.  1.
         25    2    1    2    0    0 -0.12736456252E+02  0.27620173779E+02 -0.72997396337E+01  0.12894005238E+03  0.12508860696E+03 0.  0.
         23    2    1    2    0    0  0.12736456252E+02 -0.27620173779E+02  0.10175679951E+03  0.13948453546E+03  0.90423437601E+02 0.  0.
          5    1    3    3  502    0 -0.38757927199E+02  0.38403355947E+01 -0.56205970976E+02  0.68509186768E+02  0.41800000000E+01 0.  1.
         -5    1    3    3    0  502  0.26021470946E+02  0.23779838184E+02  0.48906231343E+02  0.60430865610E+02  0.41800000000E+01 0.  1.
        -11    1    4    4    0    0 -0.19862223302E+02 -0.39173196004E+01 -0.86015699568E+01  0.21996370452E+02  0.00000000000E+00 0.  1.
         11    1    4    4    0    0  0.32598679554E+02 -0.23702854178E+02  0.11035836947E+03  0.11748816500E+03  0.00000000000E+00 0. -1.
</event>
<event>
 8    1  0.6615242E-009  0.1030871E+03  0.7561462E-02  0.1273935E+00
          4   -1    0    0  501    0  0.00000000000E+00  0.00000000000E+00  0.17915635970E+03  0.17915635970E+03  0.00000000000E+00 0. -1.
         -4   -1    0    0    0  501 -0.00000000000E+00 -0.00000000000E+00 -0.17116341670E+03  0.17116341670E+03  0.00000000000E+00 0.  1.
         25    2    1    2    0    0  0.71766698214E+02  0.22686350028E+02  0.11820004739E+03  0.18783874917E+03  0.12508802915E+03 0.  0.
         23    2    1    2    0    0 -0.71766698214E+02 -0.22686350028E+02 -0.11020710439E+03  0.16248102724E+03  0.92678740313E+02 0.  0.
          5    1    3    3  502    0  0.84617395912E+02  0.46814670490E+02  0.12620380262E+03  0.15904901527E+03  0.41800000000E+01 0.  1.
         -5    1    3    3    0  502 -0.12850697698E+02 -0.24128320462E+02 -0.80037552350E+01  0.28789733891E+02  0.41800000000E+01 0.  1.
        -11    1    4    4    0    0 -0.36714537981E+02  0.50050058536E+01 -0.11180152458E+03  0.11778195227E+03  0.00000000000E+00 0.  1.
         11    1    4    4    0    0 -0.35052160234E+02 -0.27691355881E+02  0.15944201905E+01  0.44699074972E+02  0.00000000000E+00 0. -1.
</event>
<event>
 8    1  0.6615242E-009  0.1859598E+03  0.7561462E-02  0.1162157E+00
         -2   -1    0    0    0  501 -0.00000000000E+00  0.00000000000E+00  0.77781543636E+02  0.77781543636E+02  0.00000000000E+00 0.  1.
          2   -1    0    0  501    0  0.00000000000E+00 -0.00000000000E+00 -0.74815861142E+03  0.74815861142E+03  0.00000000000E+00 0. -1.
         25    2    1    2    0    0 -0.12695039725E+02 -0.16588439698E+03 -0.57898140241E+03  0.61526086241E+03  0.12509063625E+03 0.  0.
         23    2    1    2    0    0  0.12695039725E+02  0.16588439698E+03 -0.91395665374E+02  0.21067929265E+03  0.91399122017E+02 0.  0.
          5    1    3    3  502    0 -0.48244119887E+02 -0.73221328448E+02 -0.14051517848E+03  0.16568296782E+03  0.41800000000E+01 0. -1.
         -5    1    3    3    0  502  0.35549080162E+02 -0.92663068536E+02 -0.43846622393E+03  0.44957789459E+03  0.41800000000E+01 0. -1.
        -11    1    4    4    0    0  0.36799919334E+02  0.15320287439E+03 -0.58735837636E+02  0.16815247071E+03  0.00000000000E+00 0.  1.
         11    1    4    4    0    0 -0.24104879609E+02  0.12681522599E+02 -0.32659827739E+02  0.42526821940E+02  0.00000000000E+00 0. -1.
</event>
<event>
 8    1  0.6615242E-009  0.1370305E+03  0.7561462E-02  0.1217381E+00
         -2   -1    0    0    0  501 -0.00000000000E+00  0.00000000000E+00  0.16461406808E+03  0.16461406808E+03  0.00000000000E+00 0.  1.
          2   -1    0    0  501    0  0.00000000000E+00 -0.00000000000E+00 -0.16956585687E+03  0.16956585687E+03  0.00000000000E+00 0. -1.
         25    2    1    2    0    0 -0.85474456990E+02 -0.90844587016E+02 -0.25757760805E+02  0.17849614066E+03  0.12505514064E+03 0.  0.
         23    2    1    2    0    0  0.85474456990E+02  0.90844587016E+02  0.20805972018E+02  0.15568378429E+03  0.90807105625E+02 0.  0.
          5    1    3    3  502    0 -0.14474287825E+02 -0.59837609802E+02  0.42688404500E+02  0.75032105352E+02  0.41800000000E+01 0.  1.
         -5    1    3    3    0  502 -0.71000169165E+02 -0.31006977214E+02 -0.68446165305E+02  0.10346403531E+03  0.41800000000E+01 0.  1.
        -11    1    4    4    0    0  0.89551438866E+02  0.70372170199E+02  0.46116591445E+02  0.12287571993E+03  0.00000000000E+00 0.  1.
         11    1    4    4    0    0 -0.40769818757E+01  0.20472416817E+02 -0.25310619426E+02  0.32808064363E+02  0.00000000000E+00 0. -1.
</event>
<event>
 8    1  0.6615242E-009  0.7463742E+02  0.7561462E-02  0.1344998E+00
          1   -1    0    0  501    0  0.00000000000E+00  0.00000000000E+00  0.68607589852E+03  0.68607589852E+03  0.00000000000E+00 0. -1.
         -1   -1    0    0    0  501 -0.00000000000E+00 -0.00000000000E+00 -0.21271995070E+02  0.21271995070E+02  0.00000000000E+00 0.  1.
         25    2    1    2    0    0 -0.36555999826E+02  0.13730410976E+02  0.47110935270E+03  0.48899447422E+03  0.12508680309E+03 0.  0.
         23    2    1    2    0    0  0.36555999826E+02 -0.13730410976E+02  0.19369455075E+03  0.21835341937E+03  0.92928851560E+02 0.  0.
          5    1    3    3  502    0 -0.15124099661E+02 -0.81512017503E+01  0.83130595047E+00  0.17701523948E+02  0.41800000000E+01 0.  1.
         -5    1    3    3    0  502 -0.21431900165E+02  0.21881612726E+02  0.47027804675E+03  0.47129295027E+03  0.41800000000E+01 0.  1.
        -11    1    4    4    0    0  0.64893357204E+02 -0.25859461633E+02  0.12939422037E+03  0.14704667229E+03  0.00000000000E+00 0.  1.
         11    1    4    4    0    0 -0.28337357378E+02  0.12129050657E+02  0.64300330376E+02  0.71306747082E+02  0.00000000000E+00 0. -1.
</event>
<event>
 8    1  0.6615242E-009  0.8154020E+02  0.7561462E-02  0.1324737E+00
          2   -1    0    0  501    0  0.00000000000E+00  0.00000000000E+00  0.34374412038E+02  0.34374412038E+02  0.00000000000E+00 0.  1.
         -2   -1    0    0    0  501 -0.00000000000E+00 -0.00000000000E+00 -0.46597483213E+03  0.46597483213E+03  0.00000000000E+00 0. -1.
         25    2    1    2    0    0  0.50399582086E+02  0.20708673287E+02 -0.31721483245E+03  0.34531474679E+03  0.12509219560E+03 0.  0.
         23    2    1    2    0    0 -0.50399582086E+02 -0.20708673287E+02 -0.11438558765E+03  0.15503449738E+03  0.89345764832E+02 0.  0.
          5    1    3    3  502    0  0.47358024655E+02  0.88135451431E+01 -0.28130830619E+02  0.55939941978E+02  0.41800000000E+01 0.  1.
         -5    1    3    3    0  502  0.30415574304E+01  0.11895128144E+02 -0.28908400183E+03  0.28937480481E+03  0.41800000000E+01 0.  1.
        -11    1    4    4    0    0 -0.71760687388E+02 -0.30851458563E+02 -0.70683392103E+02  0.10534491288E+03  0.00000000000E+00 0.  1.
         11    1    4    4    0    0  0.21361105302E+02  0.10142785275E+02 -0.43702195547E+02  0.49689584507E+02  0.00000000000E+00 0. -1.
</event>
<event>
 8    1  0.6615242E-009  0.1051340E+03  0.7561462E-02  0.1269856E+00
          2   -1    0    0  501    0  0.00000000000E+00  0.00000000000E+00  0.16765843237E+03  0.16765843237E+03  0.00000000000E+00 0. -1.
         -2   -1    0    0    0  501 -0.00000000000E+00 -0.00000000000E+00 -0.11827623489E+03  0.11827623489E+03  0.00000000000E+00 0.  1.
         25    2    1    2    0    0 -0.10085311955E+02 -0.83235779619E+02  0.62389564230E+02  0.16300011658E+03  0.12508665698E+03 0.  0.
         23    2    1    2    0    0  0.10085311955E+02  0.83235779619E+02 -0.13007366754E+02  0.12293455068E+03  0.88959561801E+02 0.  0.
          5    1    3    3  502    0  0.10137337396E+02 -0.75715695704E+02 -0.18888924515E+02  0.78802893695E+02  0.41800000000E+01 0. -1.
         -5    1    3    3    0  502 -0.20222649351E+02 -0.75200839151E+01  0.81278488745E+02  0.84197222885E+02  0.41800000000E+01 0. -1.
        -11    1    4    4    0    0 -0.32065157222E+02  0.30280651797E+02 -0.29766106955E+02  0.53208207113E+02  0.00000000000E+00 0.  1.
         11    1    4    4    0    0  0.42150469177E+02  0.52955127822E+02  0.16758740201E+02  0.69726343570E+02  0.00000000000E+00 0. -1.
</event>
<event>
 8    1  0.6615242E-009  0.9468316E+02  0.7561462E-02  0.1291891E+00
         -1   -1    0    0    0  501 -0.00000000000E+00  0.00000000000E+00  0.53110004371E+02  0.53110004371E+02  0.00000000000E+00 0.  1.
          1   -1    0    0  501    0  0.00000000000E+00 -0.00000000000E+00 -0.29410519189E+03  0.29410519189E+03  0.00000000000E+00 0. -1.
         25    2    1    2    0    0  0.54305487603E+02 -0.30149109693E+02 -0.13917791698E+03  0.19716983331E+03  0.12508955110E+03 0.  0.
         23    2    1    2    0    0 -0.54305487603E+02  0.30149109693E+02 -0.10181727054E+03  0.15004536295E+03  0.91042844655E+02 0.  0.
          5    1    3    3  502    0 -0.22587259177E+02 -0.76979945101E+01 -0.10869254296E+03  0.11135970856E+03  0.41800000000E+01 0.  1.
         -5    1    3    3    0  502  0.76892746780E+02 -0.22451115183E+02 -0.30485374021E+02  0.85810124749E+02  0.41800000000E+01 0.  1.
        -11    1    4    4    0    0  0.10825047949E+02  0.14230749395E+02 -0.76201464044E+02  0.78271061152E+02  0.00000000000E+00 0. -1.
         11    1    4    4    0    0 -0.65130535552E+02  0.15918360298E+02 -0.25615806496E+02  0.71774301796E+02  0.00000000000E+00 0.  1.
</event>
<event>
 8    1  0.6615242E-009  0.1386582E+03  0.7561462E-02  0.1215146E+00
          1   -1    0    0  501    0  0.00000000000E+00  0.00000000000E+00  0.61659760638E+02  0.61659760638E+02  0.00000000000E+00 0. -1.
         -1   -1    0    0    0  501 -0.00000000000E+00 -0.00000000000E+00 -0.57092162649E+03  0.57092162649E+03  0.00000000000E+00 0.  1.
         25    2    1    2    0    0 -0.14019549338E+02 -0.97782347359E+02 -0.46041963867E+03  0.48722168872E+03  0.12506316434E+03 0.  0.
         23    2    1    2    0    0  0.14019549338E+02  0.97782347359E+02 -0.48842227190E+02  0.14535969841E+03  0.94794216838E+02 0.  0.
          5    1    3    3  502    0 -0.27562317596E+02  0.23189391575E+02 -0.81374453048E+02  0.89088176779E+02  0.41800000000E+01 0. -1.
         -5    1    3    3    0  502  0.13542768257E+02 -0.12097173893E+03 -0.37904518562E+03  0.39813351195E+03  0.41800000000E+01 0. -1.
        -11    1    4    4    0    0  0.39966483855E+02  0.43391011546E+02 -0.59920468431E+02  0.84086635393E+02  0.00000000000E+00 0.  1.
         11    1    4    4    0    0 -0.25946934517E+02  0.54391335813E+02  0.11078241241E+02  0.61273063016E+02  0.00000000000E+00 0. -1.
</event>
<event>
 8    1  0.6615242E-009  0.9912664E+02  0.7561462E-02  0.1282143E+00
          2   -1    0    0  501    0  0.00000000000E+00  0.00000000000E+00  0.91695094989E+02  0.91695094989E+02  0.00000000000E+00 0. -1.
         -2   -1    0    0    0  501 -0.00000000000E+00 -0.00000000000E+00 -0.18023856361E+03  0.18023856361E+03  0.00000000000E+00 0.  1.
         25    2    1    2    0    0  0.66519940423E+02  0.67185516953E+01 -0.35887711109E+02  0.14630542607E+03  0.12508920209E+03 0.  0.
         23    2    1    2    0    0 -0.66519940423E+02 -0.67185516953E+01 -0.52655757517E+02  0.12562823253E+03  0.92410944148E+02 0.  0.
          5    1    3    3  502    0  0.44413109424E+02  0.51634242441E+02  0.20051134785E+02  0.71120599599E+02  0.41800000000E+01 0. -1.
         -5    1    3    3    0  502  0.22106830999E+02 -0.44915690745E+02 -0.55938845893E+02  0.75184826473E+02  0.41800000000E+01 0. -1.
        -11    1    4    4    0    0 -0.35027282830E+02 -0.25306985845E+02 -0.72215015215E+02  0.84156773331E+02  0.00000000000E+00 0.  1.
         11    1    4    4    0    0 -0.31492657593E+02  0.18588434150E+02  0.19559257698E+02  0.41471459200E+02  0.00000000000E+00 0. -1.
</event>
<event>
 8    1  0.6615242E-009  0.1225805E+03  0.7561462E-02  0.1238900E+00
         -1   -1    0    0    0  501 -0.00000000000E+00  0.00000000000E+00  0.18398670293E+02  0.18398670293E+02  0.00000000000E+00 0.  1.
          1   -1    0    0  501    0  0.00000000000E+00 -0.00000000000E+00 -0.13221046426E+04  0.13221046426E+04  0.00000000000E+00 0. -1.
         25    2    1    2    0    0 -0.51713304226E+02 -0.26544933478E+02 -0.11074820893E+04  0.11160383759E+04  0.12508468700E+03 0.  0.
         23    2    1    2    0    0  0.51713304226E+02  0.26544933478E+02 -0.19622388300E+03  0.22446493704E+03  0.92205186254E+02 0.  0.
          5    1    3    3  502    0 -0.87723380195E+02 -0.42446573008E+02 -0.73051268494E+03  0.73699617249E+03  0.41800000000E+01 0. -1.
         -5    1    3    3    0  502  0.36010075969E+02  0.15901639529E+02 -0.37696940437E+03  0.37904220338E+03  0.41800000000E+01 0. -1.
        -11    1    4    4    0    0  0.60184235146E+02  0.53036921650E+02 -0.15794070043E+03  0.17714491828E+03  0.00000000000E+00 0.  1.
         11    1    4    4    0    0 -0.84709309206E+01 -0.26491988172E+02 -0.38283182570E+02  0.47320018762E+02  0.00000000000E+00 0. -1.
</event>
<event>
 8    1  0.6615242E-009  0.1197539E+03  0.7561462E-02  0.1243504E+00
          2   -1    0    0  501    0  0.00000000000E+00  0.00000000000E+00  0.24449204378E+03  0.24449204378E+03  0.00000000000E+00 0. -1.
         -2   -1    0    0    0  501 -0.00000000000E+00 -0.00000000000E+00 -0.11647039080E+03  0.11647039080E+03  0.00000000000E+00 0.  1.
         25    2    1    2    0    0 -0.49733794965E+02 -0.10153463407E+03  0.13455868555E+03  0.21572413095E+03  0.12509247995E+03 0.  0.
         23    2    1    2    0    0  0.49733794965E+02  0.10153463407E+03 -0.65370325730E+01  0.14523830362E+03  0.90932391175E+02 0.  0.
          5    1    3    3  502    0 -0.87321773073E+01 -0.55367674692E+01 -0.23642483259E+02  0.26140889984E+02  0.41800000000E+01 0.  1.
         -5    1    3    3    0  502 -0.41001617657E+02 -0.95997866604E+02  0.15820116881E+03  0.18958324097E+03  0.41800000000E+01 0.  1.
        -11    1    4    4    0    0  0.60066453575E+02  0.80410819072E+02 -0.36809392691E+02  0.10690561285E+03  0.00000000000E+00 0.  1.
         11    1    4    4    0    0 -0.10332658611E+02  0.21123815001E+02  0.30272360118E+02  0.38332690765E+02  0.00000000000E+00 0. -1.
</event>
<event>
 8    1  0.6615242E-009  0.9128605E+02  0.7561462E-02  0.1299767E+00
          1   -1    0    0  501    0  0.00000000000E+00  0.00000000000E+00  0.20348293498E+03  0.20348293498E+03  0.00000000000E+00 0. -1.
         -1   -1    0    0    0  501 -0.00000000000E+00 -0.00000000000E+00 -0.91933174845E+02  0.91933174845E+02  0.00000000000E+00 0.  1.
         25    2    1    2    0    0 -0.83140290912E+01  0.46857772965E+02  0.13483881595E+03  0.18997296182E+03  0.12507376211E+03 0.  0.
         23    2    1    2    0    0  0.83140290912E+01 -0.46857772965E+02 -0.23289055811E+02  0.10544314801E+03  0.91165253106E+02 0.  0.
          5    1    3    3  502    0 -0.42765618837E+02  0.37400637336E+01 -0.11547318468E+01  0.43147329429E+02  0.41800000000E+01 0.  1.
         -5    1    3    3    0  502  0.34451589746E+02  0.43117709232E+02  0.13599354779E+03  0.14682563239E+03  0.41800000000E+01 0.  1.
        -11    1    4    4    0    0  0.21076615661E+02  0.11735819666E+02  0.20120248455E+02  0.31413016233E+02  0.00000000000E+00 0. -1.
         11    1    4    4    0    0 -0.12762586570E+02 -0.58593592631E+02 -0.43409304267E+02  0.74030131773E+02  0.00000000000E+00 0.  1.
</event>
<event>
 8    1  0.6615242E-009  0.1195905E+03  0.7561462E-02  0.1243774E+00
         -2   -1    0    0    0  501 -0.00000000000E+00  0.00000000000E+00  0.54588122090E+02  0.54588122090E+02  0.00000000000E+00 0.  1.
          2   -1    0    0  501    0  0.00000000000E+00 -0.00000000000E+00 -0.46321981332E+03  0.46321981332E+03  0.00000000000E+00 0. -1.
         25    2    1    2    0    0  0.98591533812E+02 -0.44276502989E+02 -0.28463192361E+03  0.32915564063E+03  0.12508958616E+03 0.  0.
         23    2    1    2    0    0 -0.98591533812E+02  0.44276502989E+02 -0.12399976762E+03  0.18865229478E+03  0.92374491607E+02 0.  0.
          5    1    3    3  502    0  0.81731399375E+02 -0.49362225406E+02 -0.82617499515E+02  0.12633200136E+03  0.41800000000E+01 0.  1.
         -5    1    3    3    0  502  0.16860134437E+02  0.50857224173E+01 -0.20201442410E+03  0.20282363927E+03  0.41800000000E+01 0.  1.
        -11    1    4    4    0    0 -0.47387313073E+02  0.55613309318E+02 -0.26092295080E+02  0.77583538693E+02  0.00000000000E+00 0.  1.
         11    1    4    4    0    0 -0.51204220739E+02 -0.11336806330E+02 -0.97907472544E+02  0.11106875609E+03  0.00000000000E+00 0. -1.
</event>
<event>
 8    1  0.6615242E-009  0.1364628E+03  0.7561462E-02  0.1218169E+00
          1   -1    0    0  501    0  0.00000000000E+00  0.00000000000E+00  0.35387109370E+03  0.35387109370E+03  0.00000000000E+00 0. -1.
         -1   -1    0    0    0  501 -0.00000000000E+00 -0.00000000000E+00 -0.69081452185E+02  0.69081452185E+02  0.00000000000E+00 0.  1.
         25    2    1    2    0    0  0.80992165084E+02  0.68182183844E+02  0.20186887640E+03  0.26001273760E+03  0.12508812675E+03 0.  0.
         23    2    1    2    0    0 -0.80992165084E+02 -0.68182183844E+02  0.82920765114E+02  0.16293980829E+03  0.92005363100E+02 0.  0.
          5    1    3    3  502    0  0.31533648581E+02 -0.22200766474E+02  0.12643397289E+03  0.13225077287E+03  0.41800000000E+01 0. -1.
         -5    1    3    3    0  502  0.49458516503E+02  0.90382950318E+02  0.75434903517E+02  0.12776196473E+03  0.41800000000E+01 0. -1.
        -11    1    4    4    0    0 -0.34577168095E+02 -0.76420984620E+02  0.23535479919E+02  0.87118690640E+02  0.00000000000E+00 0.  1.
         11    1    4    4    0    0 -0.46414996989E+02  0.82388007763E+01  0.59385285195E+02  0.75821117648E+02  0.00000000000E+00 0. -1.
</event>
<event>
 8    1  0.6615242E-009  0.9402595E+02  0.7561462E-02  0.1293385E+00
          3   -1    0    0  501    0  0.00000000000E+00  0.00000000000E+00  0.58133453138E+03  0.58133453138E+03  0.00000000000E+00 0. -1.
         -3   -1    0    0    0  501 -0.00000000000E+00 -0.00000000000E+00 -0.30061701826E+02  0.30061701826E+02  0.00000000000E+00 0.  1.
         25    2    1    2    0    0 -0.78660753454E+02  0.18315001637E+02  0.38538408260E+03  0.41314918615E+03  0.12509358687E+03 0.  0.
         23    2    1    2    0    0  0.78660753454E+02 -0.18315001637E+02  0.16588874695E+03  0.19824704705E+03  0.72524905244E+02 0.  0.
          5    1    3    3  502    0 -0.41759818484E+02 -0.23948974474E+02  0.33230798025E+03  0.33580277241E+03  0.41800000000E+01 0. -1.
         -5    1    3    3    0  502 -0.36900934970E+02  0.42263976110E+02  0.53076102346E+02  0.77346413741E+02  0.41800000000E+01 0. -1.
        -11    1    4    4    0    0  0.35731579049E+02 -0.19134072645E+02  0.18177111777E+02  0.44421457314E+02  0.00000000000E+00 0.  1.
         11    1    4    4    0    0  0.42929174405E+02  0.81907100857E+00  0.14771163517E+03  0.15382558974E+03  0.00000000000E+00 0. -1.
</event>
<event>
 8    1  0.6615242E-009  0.1198906E+03  0.7561462E-02  0.1243278E+00
         -1   -1    0    0    0  501 -0.00000000000E+00  0.00000000000E+00  0.13921041508E+02  0.13921041508E+02  0.00000000000E+00 0.  1.
          1   -1    0    0  501    0  0.00000000000E+00 -0.00000000000E+00 -0.12960762088E+04  0.12960762088E+04  0.00000000000E+00 0. -1.
         25    2    1    2    0    0 -0.61966458969E+02 -0.34983692013E+02 -0.88988601281E+03  0.90144781096E+03  0.12508932551E+03 0.  0.
         23    2    1    2    0    0  0.61966458969E+02  0.34983692013E+02 -0.39226915445E+03  0.40854943931E+03  0.89296439360E+02 0.  0.
          5    1    3    3  502    0 -0.37214215786E+02  0.36188364558E+02 -0.17485798810E+03  0.18244803092E+03  0.41800000000E+01 0.  1.
         -5    1    3    3    0  502 -0.24752243183E+02 -0.71172056571E+02 -0.71502802471E+03  0.71899978004E+03  0.41800000000E+01 0.  1.
        -11    1    4    4    0    0 -0.22336023809E+02  0.77915409578E+01 -0.55617762724E+02  0.60439569824E+02  0.00000000000E+00 0.  1.
         11    1    4    4    0    0  0.84302482778E+02  0.27192151055E+02 -0.33665139173E+03  0.34810986949E+03  0.00000000000E+00 0. -1.
</event>
<event>
 8    1  0.6615242E-009  0.9123880E+02  0.7561462E-02  0.1299879E+00
          2   -1    0    0  501    0  0.00000000000E+00  0.00000000000E+00  0.58967583377E+02  0.58967583377E+02  0.00000000000E+00 0.  1.
         -2   -1    0    0    0  501 -0.00000000000E+00 -0.00000000000E+00 -0.27806276675E+03  0.27806276675E+03  0.00000000000E+00 0. -1.
         25    2    1    2    0    0  0.15997409403E+02 -0.44584412187E+02 -0.56813109344E+02  0.14532156114E+03  0.12508772850E+03 0.  0.
         23    2    1    2    0    0 -0.15997409403E+02  0.44584412187E+02 -0.16228207403E+03  0.19170878899E+03  0.90405206194E+02 0.  0.
          5    1    3    3  502    0  0.41718387832E+02 -0.51907579480E+02 -0.83785785494E+02  0.10710906097E+03  0.41800000000E+01 0.  1.
         -5    1    3    3    0  502 -0.25720978428E+02  0.73231672933E+01  0.26972676150E+02  0.38212500169E+02  0.41800000000E+01 0.  1.
        -11    1    4    4    0    0 -0.46166005059E+02  0.22918274843E+02 -0.44119038218E+02  0.67845684300E+02  0.00000000000E+00 0.  1.
         11    1    4    4    0    0  0.30168595655E+02  0.21666137344E+02 -0.11816303581E+03  0.12386310469E+03  0.00000000000E+00 0. -1.
</event>
<event>
 8    1  0.6615242E-009  0.1070293E+03  0.7561462E-02  0.1266172E+00
         -2   -1    0    0    0  501 -0.00000000000E+00  0.00000000000E+00  0.12066056310E+03  0.12066056310E+03  0.00000000000E+00 0.  1.
          2   -1    0    0  501    0  0.00000000000E+00 -0.00000000000E+00 -0.15061400049E+03  0.15061400049E+03  0.00000000000E+00 0. -1.
         25    2    1    2    0    0  0.37685270378E+01 -0.54705021957E+02 -0.70797738216E+02  0.15383901284E+03  0.12508909189E+03 0.  0.
         23    2    1    2    0    0 -0.37685270378E+01  0.54705021957E+02  0.40844300823E+02  0.11743555075E+03  0.95477800802E+02 0.  0.
          5    1    3    3  502    0 -0.21444995687E+02 -0.86069255734E+02 -0.70495060152E+02  0.11337914503E+03  0.41800000000E+01 0. -1.
         -5    1    3    3    0  502  0.25213522725E+02  0.31364233777E+02 -0.30267806348E+00  0.40459867803E+02  0.41800000000E+01 0. -1.
        -11    1    4    4    0    0  0.28240110316E+02  0.41450936622E+02  0.59715683512E+02  0.77984914149E+02  0.00000000000E+00 0.  1.
         11    1    4    4    0    0 -0.32008637354E+02  0.13254085334E+02 -0.18871382688E+02  0.39450636597E+02  0.00000000000E+00 0. -1.
</event>
<event>
 8    1  0.6615242E-009  0.1127294E+03  0.7561462E-02  0.1255597E+00
         -3   -1    0    0    0  501 -0.00000000000E+00  0.00000000000E+00  0.55525800654E+02  0.55525800654E+02  0.00000000000E+00 0.  1.
          3   -1    0    0  501    0  0.00000000000E+00 -0.00000000000E+00 -0.35133550333E+03  0.35133550333E+03  0.00000000000E+00 0. -1.
         25    2    1    2    0    0  0.54606839932E+02  0.54066975109E+02 -0.23303192012E+03  0.27542015026E+03  0.12508892282E+03 0.  0.
         23    2    1    2    0    0 -0.54606839932E+02 -0.54066975109E+02 -0.62777782558E+02  0.13144115372E+03  0.86200824497E+02 0.  0.
          5    1    3    3  502    0  0.47789417966E+02 -0.25334030104E+02 -0.15328308538E+03  0.16260017901E+03  0.41800000000E+01 0.  1.
         -5    1    3    3    0  502  0.68174219656E+01  0.79401005213E+02 -0.79748834735E+02  0.11281997125E+03  0.41800000000E+01 0.  1.
        -11    1    4    4    0    0 -0.70274496422E+01 -0.41641712209E+02  0.10196809995E+02  0.43444127086E+02  0.00000000000E+00 0.  1.
         11    1    4    4    0    0 -0.47579390289E+02 -0.12425262900E+02 -0.72974592553E+02  0.87997026636E+02  0.00000000000E+00 0. -1.
</event>
<event>
 8    1  0.6615242E-009  0.2805921E+03  0.7561462E-02  0.1095366E+00
          4   -1    0    0  501    0  0.00000000000E+00  0.00000000000E+00  0.20946184809E+04  0.20946184809E+04  0.00000000000E+00 0. -1.
         -4   -1    0    0    0  501 -0.00000000000E+00 -0.00000000000E+00 -0.39375893933E+02  0.39375893933E+02  0.00000000000E+00 0.  1.
         25    2    1    2    0    0  0.25566439008E+03 -0.69420158852E+02  0.11315176181E+04  0.11688297910E+04  0.12509005311E+03 0.  0.
         23    2    1    2    0    0 -0.25566439008E+03  0.69420158852E+02  0.92372496882E+03  0.96516458382E+03  0.89952304120E+02 0.  0.
          5    1    3    3  502    0 -0.43326482623E+01 -0.14514862010E+02  0.18627593328E+03  0.18693755315E+03  0.41800000000E+01 0. -1.
         -5    1    3    3    0  502  0.25999703834E+03 -0.54905296843E+02  0.94524168485E+03  0.98189223785E+03  0.41800000000E+01 0. -1.
        -11    1    4    4    0    0 -0.15714049936E+03  0.87014607460E+02  0.60349845613E+03  0.62966265969E+03  0.00000000000E+00 0.  1.
         11    1    4    4    0    0 -0.98523890714E+02 -0.17594448608E+02  0.32022651269E+03  0.33550192413E+03  0.00000000000E+00 0. -1.
</event>
<event>
 8    1  0.6615242E-009  0.9826803E+02  0.7561462E-02  0.1283981E+00
          2   -1    0    0  501    0  0.00000000000E+00  0.00000000000E+00  0.87067071049E+03  0.87067071049E+03  0.00000000000E+00 0. -1.
         -2   -1    0    0    0  501 -0.00000000000E+00 -0.00000000000E+00 -0.25133968808E+02  0.25133968808E+02  0.00000000000E+00 0.  1.
         25    2    1    2    0    0 -0.62424950456E+02  0.64515279637E+02  0.59049981394E+03  0.61024297505E+03  0.12508941837E+03 0.  0.
         23    2    1    2    0    0  0.62424950456E+02 -0.64515279637E+02  0.25503692774E+03  0.28556170425E+03  0.91883386289E+02 0.  0.
          5    1    3    3  502    0 -0.60993928049E+01 -0.96142173627E+01  0.37813081461E+03  0.37832528481E+03  0.41800000000E+01 0. -1.
         -5    1    3    3    0  502 -0.56325557651E+02  0.74129497000E+02  0.21236899934E+03  0.23191769025E+03  0.41800000000E+01 0. -1.
        -11    1    4    4    0    0  0.30354931510E+02 -0.42842361839E+02  0.23720203406E+03  0.24294380996E+03  0.00000000000E+00 0. -1.
         11    1    4    4    0    0  0.32070018945E+02 -0.21672917798E+02  0.17834893679E+02  0.42617894288E+02  0.00000000000E+00 0.  1.
</event>
<event>
 8    1  0.6615242E-009  0.9998012E+02  0.7561462E-02  0.1280338E+00
         -1   -1    0    0    0  501 -0.00000000000E+00  0.00000000000E+00  0.37196432292E+02  0.37196432292E+02  0.00000000000E+00 0.  1.
          1   -1    0    0  501    0  0.00000000000E+00 -0.00000000000E+00 -0.47567718877E+03  0.47567718877E+03  0.00000000000E+00 0. -1.
         25    2    1    2    0    0 -0.39017327980E+02  0.10417697918E+02 -0.36957452476E+03  0.39225441165E+03  0.12508922333E+03 0.  0.
         23    2    1    2    0    0  0.39017327980E+02 -0.10417697918E+02 -0.68906231722E+02  0.12061920942E+03  0.90388299008E+02 0.  0.
          5    1    3    3  502    0  0.32766854954E+01  0.53049029395E+02 -0.77669211493E+02  0.94206767282E+02  0.41800000000E+01 0. -1.
         -5    1    3    3    0  502 -0.42294013476E+02 -0.42631331477E+02 -0.29190531326E+03  0.29804764436E+03  0.41800000000E+01 0. -1.
        -11    1    4    4    0    0 -0.14866718461E+02 -0.26353643962E+02  0.17914897882E+01  0.30310778670E+02  0.00000000000E+00 0.  1.
         11    1    4    4    0    0  0.53884046442E+02  0.15935946044E+02 -0.70697721510E+02  0.90308430747E+02  0.00000000000E+00 0. -1.
</event>
<event>
 8    1  0.6615242E-009  0.1271495E+03  0.7561462E-02  0.1231748E+00
         -2   -1    0    0    0  501 -0.00000000000E+00  0.00000000000E+00  0.32324629401E+03  0.32324629401E+03  0.00000000000E+00 0.  1.
          2   -1    0    0  501    0  0.00000000000E+00 -0.00000000000E+00 -0.11635357239E+03  0.11635357239E+03  0.00000000000E+00 0. -1.
         25    2    1    2    0    0 -0.10736642144E+03  0.32392735471E+02 -0.20834332053E+02  0.16928770553E+03  0.12508964820E+03 0.  0.
         23    2    1    2    0    0  0.10736642144E+03 -0.32392735471E+02  0.22772705367E+03  0.27031216086E+03  0.92909717318E+02 0.  0.
          5    1    3    3  502    0 -0.48222847123E+02  0.49119292763E+02 -0.63985436364E+02  0.94073143738E+02  0.41800000000E+01 0.  1.
         -5    1    3    3    0  502 -0.59143574317E+02 -0.16726557291E+02  0.43151104311E+02  0.75214561789E+02  0.41800000000E+01 0.  1.
        -11    1    4    4    0    0  0.79085144999E+02  0.21188124226E+01  0.20602983759E+03  0.22069717602E+03  0.00000000000E+00 0.  1.
         11    1    4    4    0    0  0.28281276441E+02 -0.34511547894E+02  0.21697216079E+02  0.49614984841E+02  0.00000000000E+00 0. -1.
</event>
<event>
 8    1  0.6615242E-009  0.1138032E+03  0.7561462E-02  0.1253685E+00
         -1   -1    0    0    0  501 -0.00000000000E+00  0.00000000000E+00  0.63207552629E+03  0.63207552629E+03  0.00000000000E+00 0.  1.
          1   -1    0    0  501    0  0.00000000000E+00 -0.00000000000E+00 -0.40135004778E+02  0.40135004778E+02  0.00000000000E+00 0. -1.
         25    2    1    2    0    0  0.88251438425E+02 -0.22473423684E+02  0.47173312746E+03  0.49646580301E+03  0.12511106612E+03 0.  0.
         23    2    1    2    0    0 -0.88251438425E+02  0.22473423684E+02  0.12020739405E+03  0.17574472805E+03  0.90238687364E+02 0.  0.
          5    1    3    3  502    0  0.88850895744E+02 -0.45780660712E+02  0.19923723733E+03  0.22294236858E+03  0.41800000000E+01 0. -1.
         -5    1    3    3    0  502 -0.59945731841E+00  0.23307237027E+02  0.27249589013E+03  0.27352343444E+03  0.41800000000E+01 0. -1.
        -11    1    4    4    0    0 -0.82067545310E+01  0.22378560334E+02  0.85036351341E+02  0.88313825826E+02  0.00000000000E+00 0.  1.
         11    1    4    4    0    0 -0.80044683894E+02  0.94863350655E-01  0.35171042711E+02  0.87430902227E+02  0.00000000000E+00 0. -1.
</event>
<event>
 8    1  0.6615242E-009  0.1445105E+03  0.7561462E-02  0.1207385E+00
         -1   -1    0    0    0  501 -0.00000000000E+00  0.00000000000E+00  0.20420691300E+02  0.20420691300E+02  0.00000000000E+00 0.  1.
          1   -1    0    0  501    0  0.00000000000E+00 -0.00000000000E+00 -0.11922071503E+04  0.11922071503E+04  0.00000000000E+00 0. -1.
         25    2    1    2    0    0  0.62976979461E+02 -0.72177136721E+02 -0.85231363035E+03  0.86675408431E+03  0.12509388147E+03 0.  0.
         23    2    1    2    0    0 -0.62976979461E+02  0.72177136721E+02 -0.31947282862E+03  0.34587375726E+03  0.91597645862E+02 0.  0.
          5    1    3    3  502    0  0.26924839059E+02 -0.10464340415E+03 -0.54763293684E+03  0.55820649845E+03  0.41800000000E+01 0. -1.
         -5    1    3    3    0  502  0.36052140402E+02  0.32466267425E+02 -0.30468069351E+03  0.30854758587E+03  0.41800000000E+01 0. -1.
        -11    1    4    4    0    0 -0.31473272542E+02  0.90452560212E+02 -0.24220558637E+03  0.26045302571E+03  0.00000000000E+00 0. -1.
         11    1    4    4    0    0 -0.31503706919E+02 -0.18275423490E+02 -0.77267242251E+02  0.85420731549E+02  0.00000000000E+00 0.  1.
</event>
<event>
 8    1  0.6615242E-009  0.1104322E+03  0.7561462E-02  0.1259772E+00
         -2   -1    0    0    0  501 -0.00000000000E+00  0.00000000000E+00  0.52989061946E+02  0.52989061946E+02  0.00000000000E+00 0.  1.
          2   -1    0    0  501    0  0.00000000000E+00 -0.00000000000E+00 -0.35766051942E+03  0.35766051942E+03  0.00000000000E+00 0. -1.
         25    2    1    2    0    0 -0.43510340780E+02  0.63294933227E+02 -0.22223797880E+03  0.26634229639E+03  0.12509636803E+03 0.  0.
         23    2    1    2    0    0  0.43510340780E+02 -0.63294933227E+02 -0.82433478668E+02  0.14430728498E+03  0.90166045524E+02 0.  0.
          5    1    3    3  502    0 -0.26477178331E+02  0.99531248273E+02 -0.18352575187E+03  0.21049153037E+03  0.41800000000E+01 0.  1.
         -5    1    3    3    0  502 -0.17033162449E+02 -0.36236315046E+02 -0.38712226931E+02  0.55850766021E+02  0.41800000000E+01 0.  1.
        -11    1    4    4    0    0  0.19333624286E+02 -0.19235644345E+02  0.17530569132E+02  0.32420979249E+02  0.00000000000E+00 0.  1.
         11    1    4    4    0    0  0.24176716494E+02 -0.44059288883E+02 -0.99964047799E+02  0.11188630573E+03  0.00000000000E+00 0. -1.
</event>
<event>
 8    1  0.6615242E-009  0.1169084E+03  0.7561462E-02  0.1248286E+00
         -2   -1    0    0    0  501 -0.00000000000E+00  0.00000000000E+00  0.36449514959E+02  0.36449514959E+02  0.00000000000E+00 0.  1.
          2   -1    0    0  501    0  0.00000000000E+00 -0.00000000000E+00 -0.48453457291E+03  0.48453457291E+03  0.00000000000E+00 0. -1.
         25    2    1    2    0    0  0.72084800234E+02 -0.19480256670E+02 -0.27636138870E+03  0.31240708721E+03  0.12508745800E+03 0.  0.
         23    2    1    2    0    0 -0.72084800234E+02  0.19480256670E+02 -0.17172366925E+03  0.20857700067E+03  0.91867555751E+02 0.  0.
          5    1    3    3  502    0  0.69335113644E+02  0.26369137615E+02 -0.74023365970E+02  0.10487907566E+03  0.41800000000E+01 0.  1.
         -5    1    3    3    0  502  0.27496865900E+01 -0.45849394285E+02 -0.20233802273E+03  0.20752801154E+03  0.41800000000E+01 0.  1.
        -11    1    4    4    0    0 -0.91894528956E+02  0.16522804784E+02 -0.16032625828E+03  0.18553198275E+03  0.00000000000E+00 0. -1.
         11    1    4    4    0    0  0.19809728722E+02  0.29574518854E+01 -0.11397410974E+02  0.23045017912E+02  0.00000000000E+00 0.  1.
</event>
<event>
 8    1  0.6615242E-009  0.1206843E+03  0.7561462E-02  0.1241972E+00
          2   -1    0    0  501    0  0.00000000000E+00  0.00000000000E+00  0.10379394018E+04  0.10379394018E+04  0.00000000000E+00 0. -1.
         -2   -1    0    0    0  501 -0.00000000000E+00 -0.00000000000E+00 -0.17408987065E+02  0.17408987065E+02  0.00000000000E+00 0.  1.
         25    2    1    2    0    0 -0.39779667004E+02 -0.69020009958E+02  0.53849237647E+03  0.55854059851E+03  0.12508947590E+03 0.  0.
         23    2    1    2    0    0  0.39779667004E+02  0.69020009958E+02  0.48203803829E+03  0.49680779038E+03  0.90061792937E+02 0.  0.
          5    1    3    3  502    0 -0.25874164737E+01  0.23072511717E+02  0.20988589906E+02  0.31575763287E+02  0.41800000000E+01 0.  1.
         -5    1    3    3    0  502 -0.37192250530E+02 -0.92092521675E+02  0.51750378657E+03  0.52696483522E+03  0.41800000000E+01 0.  1.
        -11    1    4    4    0    0  0.15614552857E+01 -0.20747710086E+02  0.55978896181E+02  0.59720536117E+02  0.00000000000E+00 0.  1.
         11    1    4    4    0    0  0.38218211718E+02  0.89767720044E+02  0.42605914210E+03  0.43708725426E+03  0.00000000000E+00 0. -1.
</event>
<event>
 8    1  0.6615242E-009  0.9425149E+02  0.7561462E-02  0.1292871E+00
         -2   -1    0    0    0  501 -0.00000000000E+00  0.00000000000E+00  0.31934463754E+02  0.31934463754E+02  0.00000000000E+00 0.  1.
          2   -1    0    0  501    0  0.00000000000E+00 -0.00000000000E+00 -0.53510777197E+03  0.53510777197E+03  0.00000000000E+00 0. -1.
         25    2    1    2    0    0 -0.43232632963E+02 -0.53924549183E+02 -0.32552702766E+03  0.35551700185E+03  0.12509026864E+03 0.  0.
         23    2    1    2    0    0  0.43232632963E+02  0.53924549183E+02 -0.17764628056E+03  0.21152523388E+03  0.91694089304E+02 0.  0.
          5    1    3    3  502    0 -0.35641941801E+01 -0.22594341304E+02 -0.29582822864E+03  0.29674066286E+03  0.41800000000E+01 0. -1.
         -5    1    3    3    0  502 -0.39668438783E+02 -0.31330207879E+02 -0.29698799029E+02  0.58776338989E+02  0.41800000000E+01 0. -1.
        -11    1    4    4    0    0  0.72106563829E+02  0.36715031525E+02 -0.13222914706E+03  0.15502224814E+03  0.00000000000E+00 0.  1.
         11    1    4    4    0    0 -0.28873930866E+02  0.17209517658E+02 -0.45417133497E+02  0.56502985733E+02  0.00000000000E+00 0. -1.
</event>
<event>
 8    1  0.6615242E-009  0.8707243E+02  0.7561462E-02  0.1310100E+00
         -3   -1    0    0    0  501 -0.00000000000E+00  0.00000000000E+00  0.12675421688E+03  0.12675421688E+03  0.00000000000E+00 0.  1.
          3   -1    0    0  501    0  0.00000000000E+00 -0.00000000000E+00 -0.10044876318E+03  0.10044876318E+03  0.00000000000E+00 0. -1.
         25    2    1    2    0    0  0.13201263552E+02 -0.92272610782E+01  0.23757733521E+02  0.12834238764E+03  0.12509165782E+03 0.  0.
         23    2    1    2    0    0 -0.13201263552E+02  0.92272610782E+01  0.25477201749E+01  0.98860592421E+02  0.97506462090E+02 0.  0.
          5    1    3    3  502    0 -0.46490045452E+02 -0.22313024615E+02 -0.17357902251E+02  0.54570729921E+02  0.41800000000E+01 0.  1.
         -5    1    3    3    0  502  0.59691309004E+02  0.13085763536E+02  0.41115635772E+02  0.73771657721E+02  0.41800000000E+01 0.  1.
        -11    1    4    4    0    0 -0.21685545862E+02  0.30975604286E+02 -0.37021507581E+02  0.52918267014E+02  0.00000000000E+00 0. -1.
         11    1    4    4    0    0  0.84842823098E+01 -0.21748343207E+02  0.39569227756E+02  0.45942325407E+02  0.00000000000E+00 0.  1.
</event>
<event>
 8    1  0.6615242E-009  0.8936872E+02  0.7561462E-02  0.1304388E+00
         -1   -1    0    0    0  501 -0.00000000000E+00  0.00000000000E+00  0.47434362955E+02  0.47434362955E+02  0.00000000000E+00 0.  1.
          1   -1    0    0  501    0  0.00000000000E+00 -0.00000000000E+00 -0.52951156148E+03  0.52951156148E+03  0.00000000000E+00 0. -1.
         25    2    1    2    0    0 -0.63124735693E+02  0.49440448761E+02 -0.10837800392E+03  0.18390860427E+03  0.12508993868E+03 0.  0.
         23    2    1    2    0    0  0.63124735693E+02 -0.49440448761E+02 -0.37369919460E+03  0.39303732016E+03  0.91641457690E+02 0.  0.
          5    1    3    3  502    0 -0.23166741824E+02 -0.75578281800E+01  0.23891889846E+02  0.34381877406E+02  0.41800000000E+01 0. -1.
         -5    1    3    3    0  502 -0.39957993869E+02  0.56998276941E+02 -0.13226989377E+03  0.14952672686E+03  0.41800000000E+01 0. -1.
        -11    1    4    4    0    0  0.16564061142E+02 -0.27707361981E+00 -0.38065360786E+01  0.16998076604E+02  0.00000000000E+00 0.  1.
         11    1    4    4    0    0  0.46560674551E+02 -0.49163375142E+02 -0.36989265852E+03  0.37603924356E+03  0.00000000000E+00 0. -1.
</event>
<event>
 8    1  0.6615242E-009  0.1155130E+03  0.7561462E-02  0.1250688E+00
         -1   -1    0    0    0  501 -0.00000000000E+00  0.00000000000E+00  0.41844438432E+02  0.41844438432E+02  0.00000000000E+00 0.  1.
          1   -1    0    0  501    0  0.00000000000E+00 -0.00000000000E+00 -0.44128811475E+03  0.44128811475E+03  0.00000000000E+00 0. -1.
         25    2    1    2    0    0  0.65897927367E+02 -0.40477148039E+02 -0.25628764670E+03  0.29548579177E+03  0.12509020322E+03 0.  0.
         23    2    1    2    0    0 -0.65897927367E+02  0.40477148039E+02 -0.14315602962E+03  0.18764676141E+03  0.93470433338E+02 0.  0.
          5    1    3    3  502    0  0.97410052647E+02 -0.40934606175E+02 -0.14318085722E+03  0.17799604101E+03  0.41800000000E+01 0.  1.
         -5    1    3    3    0  502 -0.31512125280E+02  0.45745813598E+00 -0.11310678948E+03  0.11748975076E+03  0.41800000000E+01 0.  1.
        -11    1    4    4    0    0 -0.49212457118E+02 -0.53356106201E+00 -0.14082217692E+02  0.51190423695E+02  0.00000000000E+00 0.  1.
         11    1    4    4    0    0 -0.16685470249E+02  0.41010709101E+02 -0.12907381192E+03  0.13645633772E+03  0.00000000000E+00 0. -1.
</event>
<event>
 8    1  0.6615242E-009  0.1795016E+03  0.7561462E-02  0.1168286E+00
         -2   -1    0    0    0  501 -0.00000000000E+00  0.00000000000E+00  0.79996439119E+03  0.79996439119E+03  0.00000000000E+00 0.  1.
          2   -1    0    0  501    0  0.00000000000E+00 -0.00000000000E+00 -0.42124055358E+02  0.42124055358E+02  0.00000000000E+00 0. -1.
         25    2    1    2    0    0  0.58658778194E+02 -0.13498016369E+03  0.43298594391E+03  0.47411473489E+03  0.12508979722E+03 0.  0.
         23    2    1    2    0    0 -0.58658778194E+02  0.13498016369E+03  0.32485439193E+03  0.36797371166E+03  0.90629904955E+02 0.  0.
          5    1    3    3  502    0 -0.21628411624E+02  0.12386910527E+02  0.58262842883E+02  0.63507912913E+02  0.41800000000E+01 0.  1.
         -5    1    3    3    0  502  0.80287189818E+02 -0.14736707421E+03  0.37472310103E+03  0.41060682198E+03  0.41800000000E+01 0.  1.
        -11    1    4    4    0    0 -0.65716082652E+02  0.55355624797E+02  0.21955850098E+03  0.23577273818E+03  0.00000000000E+00 0.  1.
         11    1    4    4    0    0  0.70573044581E+01  0.79624538889E+02  0.10529589095E+03  0.13220097348E+03  0.00000000000E+00 0. -1.
</event>
<event>
 8    1  0.6615242E-009  0.1211279E+03  0.7561462E-02  0.1241248E+00
          2   -1    0    0  501    0  0.00000000000E+00  0.00000000000E+00  0.35524165760E+02  0.35524165760E+02  0.00000000000E+00 0. -1.
         -2   -1    0    0    0  501 -0.00000000000E+00 -0.00000000000E+00 -0.51433428188E+03  0.51433428188E+03  0.00000000000E+00 0.  1.
         25    2    1    2    0    0 -0.78537868564E+02  0.23612263528E+02 -0.26861342804E+03  0.30745165502E+03  0.12509040995E+03 0.  0.
         23    2    1    2    0    0  0.78537868564E+02 -0.23612263528E+02 -0.21019668808E+03  0.24240679262E+03  0.88615290123E+02 0.  0.
          5    1    3    3  502    0 -0.10434938896E+03  0.27625538527E+02 -0.25657258168E+03  0.27838629173E+03  0.41800000000E+01 0.  1.
         -5    1    3    3    0  502  0.25811520401E+02 -0.40132749994E+01 -0.12040846365E+02  0.29065363284E+02  0.41800000000E+01 0.  1.
        -11    1    4    4    0    0 -0.13278735247E+02 -0.42340965421E+01 -0.20531490954E+01  0.14087860182E+02  0.00000000000E+00 0. -1.
         11    1    4    4    0    0  0.91816603811E+02 -0.19378166986E+02 -0.20814353898E+03  0.22831893244E+03  0.00000000000E+00 0.  1.
</event>
<event>
 8    1  0.6615242E-009  0.7059175E+02  0.7561462E-02  0.1358092E+00
         -2   -1    0    0    0  501 -0.00000000000E+00  0.00000000000E+00  0.24865532098E+02  0.24865532098E+02  0.00000000000E+00 0.  1.
          2   -1    0    0  501    0  0.00000000000E+00 -0.00000000000E+00 -0.51471201337E+03  0.51471201337E+03  0.00000000000E+00 0. -1.
         25    2    1    2    0    0  0.16120715383E+02 -0.27212053683E+02 -0.42995480273E+03  0.44888722559E+03  0.12505293109E+03 0.  0.
         23    2    1    2    0    0 -0.16120715383E+02  0.27212053683E+02 -0.59891678540E+02  0.90690319879E+02  0.60310427219E+02 0.  0.
          5    1    3    3  502    0 -0.14639233026E+02  0.27127633967E+02 -0.27269517523E+02  0.41368039042E+02  0.41800000000E+01 0. -1.
         -5    1    3    3    0  502  0.30759948410E+02 -0.54339687651E+02 -0.40268528521E+03  0.40751918655E+03  0.41800000000E+01 0. -1.
        -11    1    4    4    0    0  0.10529643761E+02  0.14624384002E+02 -0.58468286454E+02  0.61182403729E+02  0.00000000000E+00 0. -1.
         11    1    4    4    0    0 -0.26650359144E+02  0.12587669682E+02 -0.14233920858E+01  0.29507916151E+02  0.00000000000E+00 0.  1.
</event>
<event>
 8    1  0.6615242E-009  0.1098140E+03  0.7561462E-02  0.1260915E+00
         -2   -1    0    0    0  501 -0.00000000000E+00  0.00000000000E+00  0.31026912112E+02  0.31026912112E+02  0.00000000000E+00 0. -1.
          2   -1    0    0  501    0  0.00000000000E+00 -0.00000000000E+00 -0.42956659433E+03  0.42956659433E+03  0.00000000000E+00 0.  1.
         25    2    1    2    0    0 -0.47593162717E+02 -0.19825112308E+02 -0.24182993584E+03  0.27710470668E+03  0.12508859412E+03 0.  0.
         23    2    1    2    0    0  0.47593162717E+02  0.19825112308E+02 -0.15670974638E+03  0.18348879976E+03  0.80324658810E+02 0.  0.
          5    1    3    3  502    0 -0.33328903313E+02 -0.67212584389E+02 -0.89370165520E+02  0.11675977981E+03  0.41800000000E+01 0.  1.
         -5    1    3    3    0  502 -0.14264259404E+02  0.47387472081E+02 -0.15245977032E+03  0.16034492687E+03  0.41800000000E+01 0.  1.
        -11    1    4    4    0    0 -0.14796976658E+02 -0.16873277014E+02 -0.46535803007E+02  0.51664678039E+02  0.00000000000E+00 0.  1.
         11    1    4    4    0    0  0.62390139375E+02  0.36698389322E+02 -0.11017394337E+03  0.13182412172E+03  0.00000000000E+00 0. -1.
</event>
<event>
 8    1  0.6615242E-009  0.1134874E+03  0.7561462E-02  0.1254245E+00
          2   -1    0    0  501    0  0.00000000000E+00  0.00000000000E+00  0.39477303292E+03  0.39477303292E+03  0.00000000000E+00 0. -1.
         -2   -1    0    0    0  501 -0.00000000000E+00 -0.00000000000E+00 -0.44814966094E+02  0.44814966094E+02  0.00000000000E+00 0.  1.
         25    2    1    2    0    0 -0.59818715636E+02  0.32524670203E+02  0.24850746656E+03  0.28642455619E+03  0.12508769940E+03 0.  0.
         23    2    1    2    0    0  0.59818715636E+02 -0.32524670203E+02  0.10145060027E+03  0.15316344283E+03  0.92361696667E+02 0.  0.
          5    1    3    3  502    0  0.11291109074E+02  0.38970953781E+02  0.17121158950E+02  0.44236081048E+02  0.41800000000E+01 0.  1.
         -5    1    3    3    0  502 -0.71109824710E+02 -0.64462835774E+01  0.23138630761E+03  0.24218847514E+03  0.41800000000E+01 0.  1.
        -11    1    4    4    0    0  0.73142163684E+01 -0.56479943035E+02  0.47459779076E+02  0.74134420860E+02  0.00000000000E+00 0.  1.
         11    1    4    4    0    0  0.52504499267E+02  0.23955272832E+02  0.53990821192E+02  0.79029021965E+02  0.00000000000E+00 0. -1.
</event>
<event>
 7    1  0.6615242E-009  0.1687184E+03  0.7561462E-02  0.1179191E+00
         -2   -1    0    0    0  501 -0.00000000000E+00  0.00000000000E+00  0.27117044746E+02  0.27117044746E+02  0.00000000000E+00 0. -1.
          2   -1    0    0  501    0  0.00000000000E+00 -0.00000000000E+00 -0.10805916336E+04  0.10805916336E+04  0.00000000000E+00 0.  1.
         23    2    1    2    0    0 -0.10768050287E+03  0.75647484536E+02 -0.48969069208E+03  0.51542494678E+03  0.92456850708E+02 0.  0.
          5    1    1    2  502    0  0.98665522172E+02  0.63033190562E+01 -0.30441717088E+03  0.32009670949E+03  0.41800000000E+01 0.  1.
         -5    1    1    2    0  502  0.90149806972E+01 -0.81950803592E+02 -0.25936672590E+03  0.27218702208E+03  0.41800000000E+01 0.  1.
        -11    1    3    3    0    0  0.27667794326E+01  0.39677341674E+02 -0.18764575347E+03  0.19181469002E+03  0.00000000000E+00 0.  1.
         11    1    3    3    0    0 -0.11044728230E+03  0.35970142861E+02 -0.30204493861E+03  0.32361025676E+03  0.00000000000E+00 0. -1.
</event>
<event>
 8    1  0.6615242E-009  0.1207703E+03  0.7561462E-02  0.1241832E+00
         -1   -1    0    0    0  501 -0.00000000000E+00  0.00000000000E+00  0.38050218067E+03  0.38050218067E+03  0.00000000000E+00 0.  1.
          1   -1    0    0  501    0  0.00000000000E+00 -0.00000000000E+00 -0.53711243447E+02  0.53711243447E+02  0.00000000000E+00 0. -1.
         25    2    1    2    0    0 -0.57105465283E+02 -0.64295531096E+02  0.22720288903E+03  0.27325083623E+03  0.12509962924E+03 0.  0.
         23    2    1    2    0    0  0.57105465283E+02  0.64295531096E+02  0.99588048192E+02  0.16096258788E+03  0.92715833976E+02 0.  0.
          5    1    3    3  502    0  0.32045024557E+02  0.60145073247E+01  0.24941083846E+02  0.41262427954E+02  0.41800000000E+01 0. -1.
         -5    1    3    3    0  502 -0.89150489840E+02 -0.70310038421E+02  0.20226180518E+03  0.23198840828E+03  0.41800000000E+01 0. -1.
        -11    1    4    4    0    0  0.26969990961E+02  0.34977604819E+01 -0.12503089724E+02  0.29932290148E+02  0.00000000000E+00 0. -1.
         11    1    4    4    0    0  0.30135474322E+02  0.60797770614E+02  0.11209113792E+03  0.13103029773E+03  0.00000000000E+00 0.  1.
</event>
<event>
 8    1  0.6615242E-009  0.1068817E+03  0.7561462E-02  0.1266456E+00
          2   -1    0    0  501    0  0.00000000000E+00  0.00000000000E+00  0.45177247604E+03  0.45177247604E+03  0.00000000000E+00 0. -1.
         -2   -1    0    0    0  501 -0.00000000000E+00 -0.00000000000E+00 -0.31915955263E+02  0.31915955263E+02  0.00000000000E+00 0.  1.
         25    2    1    2    0    0  0.12903838374E+02  0.35538991330E+02  0.18624265986E+03  0.22751574434E+03  0.12509019394E+03 0.  0.
         23    2    1    2    0    0 -0.12903838374E+02 -0.35538991330E+02  0.23361386092E+03  0.25617268697E+03  0.98078950771E+02 0.  0.
          5    1    3    3  502    0 -0.24882943668E+02 -0.26184436927E+02  0.11188429187E+02  0.38045222702E+02  0.41800000000E+01 0.  1.
         -5    1    3    3    0  502  0.37786782042E+02  0.61723428258E+02  0.17505423067E+03  0.18947052164E+03  0.41800000000E+01 0.  1.
        -11    1    4    4    0    0  0.40417342589E+01  0.33539371104E+02  0.67901232440E+02  0.75840638162E+02  0.00000000000E+00 0.  1.
         11    1    4    4    0    0 -0.16945572633E+02 -0.69078362435E+02  0.16571262848E+03  0.18033204881E+03  0.00000000000E+00 0. -1.
</event>
<event>
 8    1  0.6615242E-009  0.1422382E+03  0.7561462E-02  0.1210349E+00
         -2   -1    0    0    0  501 -0.00000000000E+00  0.00000000000E+00  0.43789318474E+02  0.43789318474E+02  0.00000000000E+00 0.  1.
          2   -1    0    0  501    0  0.00000000000E+00 -0.00000000000E+00 -0.65664206696E+03  0.65664206696E+03  0.00000000000E+00 0. -1.
         25    2    1    2    0    0 -0.31942120402E+02  0.88140204989E+02 -0.13993892408E+03  0.20980859791E+03  0.12509096887E+03 0.  0.
         23    2    1    2    0    0  0.31942120402E+02 -0.88140204989E+02 -0.47291382440E+03  0.49062278752E+03  0.90962846989E+02 0.  0.
          5    1    3    3  502    0 -0.80120504127E+02  0.48770406412E+02 -0.87235280010E+02  0.12816128199E+03  0.41800000000E+01 0. -1.
         -5    1    3    3    0  502  0.48178383725E+02  0.39369798577E+02 -0.52703644070E+02  0.81647315918E+02  0.41800000000E+01 0. -1.
        -11    1    4    4    0    0  0.52232439943E+02 -0.93624772493E+02 -0.35445097705E+03  0.37030976350E+03  0.00000000000E+00 0.  1.
         11    1    4    4    0    0 -0.20290319541E+02  0.54845675038E+01 -0.11846284735E+03  0.12031302402E+03  0.00000000000E+00 0. -1.
</event>
<event>
 8    1  0.6615242E-009  0.1744959E+03  0.7561462E-02  0.1173239E+00
          3   -1    0    0  501    0  0.00000000000E+00  0.00000000000E+00  0.22324402690E+03  0.22324402690E+03  0.00000000000E+00 0. -1.
         -3   -1    0    0    0  501 -0.00000000000E+00 -0.00000000000E+00 -0.17033227327E+03  0.17033227327E+03  0.00000000000E+00 0.  1.
         25    2    1    2    0    0  0.10710483283E+03  0.11643370161E+03  0.54154146484E+02  0.20882647562E+03  0.12509026042E+03 0.  0.
         23    2    1    2    0    0 -0.10710483283E+03 -0.11643370161E+03 -0.12423928604E+01  0.18474982455E+03  0.95408081664E+02 0.  0.
          5    1    3    3  502    0  0.51464057658E+02  0.11721536100E+03 -0.41103817106E+01  0.12814974726E+03  0.41800000000E+01 0. -1.
         -5    1    3    3    0  502  0.55640775172E+02 -0.78165938939E+00  0.58264528195E+02  0.80676728360E+02  0.41800000000E+01 0. -1.
        -11    1    4    4    0    0 -0.16038773477E+02 -0.49647569509E+02 -0.39580709151E+02  0.65488594043E+02  0.00000000000E+00 0. -1.
         11    1    4    4    0    0 -0.91066059354E+02 -0.66786132097E+02  0.38338316291E+02  0.11926123051E+03  0.00000000000E+00 0.  1.
</event>
<event>
 8    1  0.6615242E-009  0.1199663E+03  0.7561462E-02  0.1243153E+00
         -1   -1    0    0    0  501 -0.00000000000E+00  0.00000000000E+00  0.84433614467E+02  0.84433614467E+02  0.00000000000E+00 0.  1.
          1   -1    0    0  501    0  0.00000000000E+00 -0.00000000000E+00 -0.43419340937E+03  0.43419340937E+03  0.00000000000E+00 0. -1.
         25    2    1    2    0    0 -0.92448408642E+02  0.29693235448E+02 -0.35185981816E+03  0.38585146850E+03  0.12509047772E+03 0.  0.
         23    2    1    2    0    0  0.92448408642E+02 -0.29693235448E+02  0.21000232603E+01  0.13277555533E+03  0.90534753023E+02 0.  0.
          5    1    3    3  502    0 -0.10972109695E+03  0.22170724835E+01 -0.17964213439E+03  0.21055261427E+03  0.41800000000E+01 0. -1.
         -5    1    3    3    0  502  0.17272688306E+02  0.27476162965E+02 -0.17221768377E+03  0.17529885424E+03  0.41800000000E+01 0. -1.
        -11    1    4    4    0    0  0.23326142971E+02 -0.10951532164E+02 -0.41558496779E+02  0.48899423894E+02  0.00000000000E+00 0. -1.
         11    1    4    4    0    0  0.69122265671E+02 -0.18741703285E+02  0.43658520039E+02  0.83876131441E+02  0.00000000000E+00 0.  1.
</event>
<event>
 8    1  0.6615242E-009  0.1550380E+03  0.7561462E-02  0.1194415E+00
         -1   -1    0    0    0  501 -0.00000000000E+00  0.00000000000E+00  0.18282728508E+02  0.18282728508E+02  0.00000000000E+00 0.  1.
          1   -1    0    0  501    0  0.00000000000E+00 -0.00000000000E+00 -0.17135044203E+04  0.17135044203E+04  0.00000000000E+00 0. -1.
         25    2    1    2    0    0  0.12717475806E+01 -0.12263500789E+03 -0.12263228851E+04  0.12387721165E+04  0.12509027017E+03 0.  0.
         23    2    1    2    0    0 -0.12717475806E+01  0.12263500789E+03 -0.46889880672E+03  0.49301503230E+03  0.90314830592E+02 0.  0.
          5    1    3    3  502    0 -0.49188591333E+02 -0.17947043674E+02 -0.24399852076E+03  0.24958839000E+03  0.41800000000E+01 0. -1.
         -5    1    3    3    0  502  0.50460338914E+02 -0.10468796422E+03 -0.98232436431E+03  0.98918372650E+03  0.41800000000E+01 0. -1.
        -11    1    4    4    0    0  0.29522148155E+02  0.96354409781E+02 -0.23587900595E+03  0.25650464901E+03  0.00000000000E+00 0.  1.
         11    1    4    4    0    0 -0.30793895736E+02  0.26280598113E+02 -0.23301980077E+03  0.23651038329E+03  0.00000000000E+00 0. -1.
</event>
<event>
 8    1  0.6615242E-009  0.1322627E+03  0.7561462E-02  0.1224136E+00
          2   -1    0    0  501    0  0.00000000000E+00  0.00000000000E+00  0.52483470675E+03  0.52483470675E+03  0.00000000000E+00 0.  1.
         -2   -1    0    0    0  501 -0.00000000000E+00 -0.00000000000E+00 -0.52747430395E+02  0.52747430395E+02  0.00000000000E+00 0. -1.
         25    2    1    2    0    0 -0.11324634338E+03 -0.44857252855E+02  0.30789040651E+03  0.35395190699E+03  0.12509413505E+03 0.  0.
         23    2    1    2    0    0  0.11324634338E+03  0.44857252855E+02  0.16419686984E+03  0.22363023015E+03  0.90625384670E+02 0.  0.
          5    1    3    3  502    0 -0.51953866346E+02 -0.11508794836E+02  0.26841982027E+03  0.27367559062E+03  0.41800000000E+01 0. -1.
         -5    1    3    3    0  502 -0.61292477033E+02 -0.33348458019E+02  0.39470586241E+02  0.80276316379E+02  0.41800000000E+01 0. -1.
        -11    1    4    4    0    0  0.52305947557E+02  0.58833710005E+02  0.49479811672E+02  0.92981553793E+02  0.00000000000E+00 0. -1.
         11    1    4    4    0    0  0.60940395822E+02 -0.13976457149E+02  0.11471705817E+03  0.13064867635E+03  0.00000000000E+00 0.  1.
</event>
<event>
 8    1  0.6615242E-009  0.1654293E+03  0.7561462E-02  0.1182700E+00
         -2   -1    0    0    0  501 -0.00000000000E+00  0.00000000000E+00  0.53885296361E+03  0.53885296361E+03  0.00000000000E+00 0.  1.
          2   -1    0    0  501    0  0.00000000000E+00 -0.00000000000E+00 -0.70913034385E+02  0.70913034385E+02  0.00000000000E+00 0. -1.
         25    2    1    2    0    0 -0.13136838432E+03  0.61124199882E+02  0.13067587011E+03  0.23177039272E+03  0.12509001440E+03 0.  0.
         23    2    1    2    0    0  0.13136838432E+03 -0.61124199882E+02  0.33726405912E+03  0.37799560528E+03  0.90220905685E+02 0.  0.
          5    1    3    3  502    0 -0.15115322525E+03  0.39486183897E+02  0.86608212073E+02  0.17867543485E+03  0.41800000000E+01 0. -1.
         -5    1    3    3    0  502  0.19784840929E+02  0.21638015985E+02  0.44067658033E+02  0.53094957866E+02  0.41800000000E+01 0. -1.
        -11    1    4    4    0    0  0.80508127678E+02 -0.39843471830E+02  0.10004802034E+03  0.13445693453E+03  0.00000000000E+00 0.  1.
         11    1    4    4    0    0  0.50860256643E+02 -0.21280728051E+02  0.23721603879E+03  0.24353867075E+03  0.00000000000E+00 0. -1.
</event>
<event>
 8    1  0.6615242E-009  0.1882988E+03  0.7561462E-02  0.1160005E+00
          1   -1    0    0  501    0  0.00000000000E+00  0.00000000000E+00  0.30402253133E+03  0.30402253133E+03  0.00000000000E+00 0. -1.
         -1   -1    0    0    0  501 -0.00000000000E+00 -0.00000000000E+00 -0.13268604917E+03  0.13268604917E+03  0.00000000000E+00 0.  1.
         25    2    1    2    0    0 -0.15322324555E+03  0.69836354409E+02  0.10128530331E+03  0.23293983824E+03  0.12509107161E+03 0.  0.
         23    2    1    2    0    0  0.15322324555E+03 -0.69836354409E+02  0.70051178849E+02  0.20376874226E+03  0.90884835304E+02 0.  0.
          5    1    3    3  502    0 -0.19368572005E+02  0.60044065637E+02  0.71408742484E+02  0.95378783295E+02  0.41800000000E+01 0.  1.
         -5    1    3    3    0  502 -0.13385467355E+03  0.97922887718E+01  0.29876560825E+02  0.13756105494E+03  0.41800000000E+01 0.  1.
        -11    1    4    4    0    0  0.21780344045E+02  0.11387114409E+02 -0.13574063626E+02  0.28076769127E+02  0.00000000000E+00 0.  1.
         11    1    4    4    0    0  0.13144290151E+03 -0.81223468818E+02  0.83625242475E+02  0.17569197313E+03  0.00000000000E+00 0. -1.
</event>
<event>
 8    1  0.6615242E-009  0.7914402E+02  0.7561462E-02  0.1331498E+00
          1   -1    0    0  501    0  0.00000000000E+00  0.00000000000E+00  0.43584594068E+03  0.43584594068E+03  0.00000000000E+00 0. -1.
         -1   -1    0    0    0  501 -0.00000000000E+00 -0.00000000000E+00 -0.29091725838E+02  0.29091725838E+02  0.00000000000E+00 0.  1.
         25    2    1    2    0    0 -0.25359114406E+02  0.38633961707E+01  0.23909990744E+03  0.27106161876E+03  0.12509046693E+03 0.  0.
         23    2    1    2    0    0  0.25359114406E+02 -0.38633961707E+01  0.16765430741E+03  0.19387604776E+03  0.93925207420E+02 0.  0.
          5    1    3    3  502    0  0.11116045134E+02  0.29498514423E+02  0.22015690899E+03  0.22244160085E+03  0.41800000000E+01 0.  1.
         -5    1    3    3    0  502 -0.36475159540E+02 -0.25635118252E+02  0.18942998442E+02  0.48620017907E+02  0.41800000000E+01 0.  1.
        -11    1    4    4    0    0  0.49241098320E+02  0.14782153790E+02  0.15054218316E+03  0.15907905816E+03  0.00000000000E+00 0. -1.
         11    1    4    4    0    0 -0.23881983914E+02 -0.18645549960E+02  0.17112124250E+02  0.34796989602E+02  0.00000000000E+00 0.  1.
</event>
<event>
 8    1  0.6615242E-009  0.1098695E+03  0.7561462E-02  0.1260812E+00
          1   -1    0    0  501    0  0.00000000000E+00  0.00000000000E+00  0.18968030482E+03  0.18968030482E+03  0.00000000000E+00 0.  1.
         -1   -1    0    0    0  501 -0.00000000000E+00 -0.00000000000E+00 -0.99850500231E+02  0.99850500231E+02  0.00000000000E+00 0. -1.
         25    2    1    2    0    0 -0.24489130229E+02  0.80271094390E+02  0.55561577132E+02  0.16055248830E+03  0.12508735569E+03 0.  0.
         23    2    1    2    0    0  0.24489130229E+02 -0.80271094390E+02  0.34268227458E+02  0.12897831675E+03  0.91749270760E+02 0.  0.
          5    1    3    3  502    0 -0.31007714420E+02  0.10111117850E+03  0.76041123633E+02  0.13032526100E+03  0.41800000000E+01 0. -1.
         -5    1    3    3    0  502  0.65185841905E+01 -0.20840084109E+02 -0.20479546501E+02  0.30227227303E+02  0.41800000000E+01 0. -1.
        -11    1    4    4    0    0 -0.77710357369E+01 -0.36338879129E+02  0.58520063846E+02  0.69321721021E+02  0.00000000000E+00 0.  1.
         11    1    4    4    0    0  0.32260165966E+02 -0.43932215261E+02 -0.24251836388E+02  0.59656595730E+02  0.00000000000E+00 0. -1.
</event>
<event>
 8    1  0.6615242E-009  0.1206889E+03  0.7561462E-02  0.1241965E+00
         -1   -1    0    0    0  501 -0.00000000000E+00  0.00000000000E+00  0.21317662877E+03  0.21317662877E+03  0.00000000000E+00 0.  1.
          1   -1    0    0  501    0  0.00000000000E+00 -0.00000000000E+00 -0.94042562339E+02  0.94042562339E+02  0.00000000000E+00 0. -1.
         25    2    1    2    0    0 -0.72041511802E+02 -0.35146628785E+02  0.17778437424E+02  0.14963138262E+03  0.12509281710E+03 0.  0.
         23    2    1    2    0    0  0.72041511802E+02  0.35146628785E+02  0.10135562901E+03  0.15758780849E+03  0.90198053830E+02 0.  0.
          5    1    3    3  502    0 -0.72938756964E+02  0.15304217015E+02  0.49792458786E+02  0.89727602652E+02  0.41800000000E+01 0.  1.
         -5    1    3    3    0  502  0.89724516131E+00 -0.50450845800E+02 -0.32014021362E+02  0.59903779969E+02  0.41800000000E+01 0.  1.
        -11    1    4    4    0    0  0.83460035242E+02  0.47087630437E+01  0.90772586743E+02  0.12339940209E+03  0.00000000000E+00 0.  1.
         11    1    4    4    0    0 -0.11418523440E+02  0.30437865742E+02  0.10583042263E+02  0.34188406398E+02  0.00000000000E+00 0. -1.
</event>
<event>
 8    1  0.6615242E-009  0.9632107E+02  0.7561462E-02  0.1288228E+00
         -1   -1    0    0    0  501 -0.00000000000E+00  0.00000000000E+00  0.55884638345E+03  0.55884638345E+03  0.00000000000E+00 0.  1.
          1   -1    0    0  501    0  0.00000000000E+00 -0.00000000000E+00 -0.23440959605E+02  0.23440959605E+02  0.00000000000E+00 0. -1.
         25    2    1    2    0    0 -0.30208845253E+02 -0.17481864672E+02  0.34021196501E+03  0.36415755046E+03  0.12509336712E+03 0.  0.
         23    2    1    2    0    0  0.30208845253E+02  0.17481864672E+02  0.19519345883E+03  0.21812979259E+03  0.90895160056E+02 0.  0.
          5    1    3    3  502    0  0.21842471726E+01 -0.50867707285E+02  0.54680094910E+02  0.74831008009E+02  0.41800000000E+01 0. -1.
         -5    1    3    3    0  502 -0.32393092426E+02  0.33385842613E+02  0.28553187010E+03  0.28932654245E+03  0.41800000000E+01 0. -1.
        -11    1    4    4    0    0  0.47569449780E+02  0.42908737478E+02  0.15323471996E+03  0.16608700041E+03  0.00000000000E+00 0.  1.
         11    1    4    4    0    0 -0.17360604527E+02 -0.25426872806E+02  0.41958738869E+02  0.52042792178E+02  0.00000000000E+00 0. -1.
</event>
<event>
 8    1  0.6615242E-009  0.9011073E+02  0.7561462E-02  0.1302584E+00
         -1   -1    0    0    0  501 -0.00000000000E+00  0.00000000000E+00  0.38286569045E+02  0.38286569045E+02  0.00000000000E+00 0.  1.
          1   -1    0    0  501    0  0.00000000000E+00 -0.00000000000E+00 -0.34434583296E+03  0.34434583296E+03  0.00000000000E+00 0. -1.
         25    2    1    2    0    0 -0.26580054124E+02  0.25505570510E+02 -0.17717742364E+03  0.21999034980E+03  0.12508749398E+03 0.  0.
         23    2    1    2    0    0  0.26580054124E+02 -0.25505570510E+02 -0.12888184027E+03  0.16264205221E+03  0.92113381167E+02 0.  0.
          5    1    3    3  502    0 -0.58168625132E+02 -0.32962280450E+01 -0.28044220694E+02  0.64795098452E+02  0.41800000000E+01 0.  1.
         -5    1    3    3    0  502  0.31588571008E+02  0.28801798555E+02 -0.14913320295E+03  0.15519525134E+03  0.41800000000E+01 0.  1.
        -11    1    4    4    0    0  0.35344426106E+02 -0.45154823109E+02 -0.36927736478E+02  0.68204429681E+02  0.00000000000E+00 0.  1.
         11    1    4    4    0    0 -0.87643719812E+01  0.19649252599E+02 -0.91954103794E+02  0.94437622527E+02  0.00000000000E+00 0. -1.
</event>
<event>
 8    1  0.6615242E-009  0.8272134E+02  0.7561462E-02  0.1321501E+00
         -4   -1    0    0    0  501 -0.00000000000E+00  0.00000000000E+00  0.94899342495E+02  0.94899342495E+02  0.00000000000E+00 0.  1.
          4   -1    0    0  501    0  0.00000000000E+00 -0.00000000000E+00 -0.18473303555E+03  0.18473303555E+03  0.00000000000E+00 0. -1.
         25    2    1    2    0    0 -0.23141254375E+02 -0.66384445860E+02 -0.22169622660E+02  0.14519468194E+03  0.12509033211E+03 0.  0.
         23    2    1    2    0    0  0.23141254375E+02  0.66384445860E+02 -0.67664070393E+02  0.13443769611E+03  0.92480567721E+02 0.  0.
          5    1    3    3  502    0 -0.16296007047E+02 -0.83407524553E+01 -0.68164465901E+02  0.70703569986E+02  0.41800000000E+01 0.  1.
         -5    1    3    3    0  502 -0.68452473283E+01 -0.58043693405E+02  0.45994843240E+02  0.74491111951E+02  0.41800000000E+01 0.  1.
        -11    1    4    4    0    0  0.39750171181E+02  0.36942742033E+02  0.47987278133E+01  0.54478161556E+02  0.00000000000E+00 0.  1.
         11    1    4    4    0    0 -0.16608916806E+02  0.29441703827E+02 -0.72462798206E+02  0.79959534551E+02  0.00000000000E+00 0. -1.
</event>
<event>
 8    1  0.6615242E-009  0.1742015E+03  0.7561462E-02  0.1173536E+00
         -2   -1    0    0    0  501 -0.00000000000E+00  0.00000000000E+00  0.15590166974E+02  0.15590166974E+02  0.00000000000E+00 0.  1.
          2   -1    0    0  501    0  0.00000000000E+00 -0.00000000000E+00 -0.24934383066E+04  0.24934383066E+04  0.00000000000E+00 0. -1.
         25    2    1    2    0    0  0.27534664013E+02  0.14317827986E+03 -0.17711918472E+04  0.17815796797E+04  0.12508963913E+03 0.  0.
         23    2    1    2    0    0 -0.27534664013E+02 -0.14317827986E+03 -0.70665629241E+03  0.72744879391E+03  0.92522724802E+02 0.  0.
          5    1    3    3  502    0 -0.34933442040E+02  0.28797393708E+02 -0.84879802310E+03  0.85001481850E+03  0.41800000000E+01 0. -1.
         -5    1    3    3    0  502  0.62468106052E+02  0.11438088615E+03 -0.92239382415E+03  0.93156486120E+03  0.41800000000E+01 0. -1.
        -11    1    4    4    0    0  0.27990961333E+02 -0.94972690072E+02 -0.41978254103E+03  0.43130115642E+03  0.00000000000E+00 0. -1.
         11    1    4    4    0    0 -0.55525625345E+02 -0.48205589788E+02 -0.28687375138E+03  0.29614763748E+03  0.00000000000E+00 0.  1.
</event>
<event>
 8    1  0.6615242E-009  0.9174715E+02  0.7561462E-02  0.1298675E+00
          2   -1    0    0  501    0  0.00000000000E+00  0.00000000000E+00  0.17946807103E+03  0.17946807103E+03  0.00000000000E+00 0. -1.
         -2   -1    0    0    0  501 -0.00000000000E+00 -0.00000000000E+00 -0.79163282695E+02  0.79163282695E+02  0.00000000000E+00 0.  1.
         25    2    1    2    0    0 -0.12646145322E+02  0.10525083159E+02  0.10744753560E+03  0.16570720927E+03  0.12507279452E+03 0.  0.
         23    2    1    2    0    0  0.12646145322E+02 -0.10525083159E+02 -0.71427472726E+01  0.92924144455E+02  0.91176616614E+02 0.  0.
          5    1    3    3  502    0 -0.39296871653E+02 -0.24886106619E+02  0.11161985408E+03  0.12099597783E+03  0.41800000000E+01 0.  1.
         -5    1    3    3    0  502  0.26650726331E+02  0.35411189778E+02 -0.41723184802E+01  0.44711231441E+02  0.41800000000E+01 0.  1.
        -11    1    4    4    0    0  0.37740263954E+02 -0.39034949209E+02 -0.82954775038E+01  0.54926038725E+02  0.00000000000E+00 0. -1.
         11    1    4    4    0    0 -0.25094118632E+02  0.28509866050E+02  0.11527302312E+01  0.37998105730E+02  0.00000000000E+00 0.  1.
</event>
<event>
 8    1  0.6615242E-009  0.7748500E+02  0.7561462E-02  0.1336344E+00
          1   -1    0    0  501    0  0.00000000000E+00  0.00000000000E+00  0.45421311174E+03  0.45421311174E+03  0.00000000000E+00 0. -1.
         -1   -1    0    0    0  501 -0.00000000000E+00 -0.00000000000E+00 -0.31930767609E+02  0.31930767609E+02  0.00000000000E+00 0.  1.
         25    2    1    2    0    0 -0.57373760619E+02 -0.13163395911E+02  0.21170636505E+03  0.25285002951E+03  0.12509408067E+03 0.  0.
         23    2    1    2    0    0  0.57373760619E+02  0.13163395911E+02  0.21057597908E+03  0.23329384984E+03  0.81355725109E+02 0.  0.
          5    1    3    3  502    0 -0.66800218696E+02  0.48232384355E+01  0.22038445695E+03  0.23037429134E+03  0.41800000000E+01 0.  1.
         -5    1    3    3    0  502  0.94264580765E+01 -0.17986634347E+02 -0.86780919001E+01  0.22475738164E+02  0.41800000000E+01 0.  1.
        -11    1    4    4    0    0  0.41911845000E+02 -0.61844066645E+01  0.20302951527E+03  0.20740258847E+03  0.00000000000E+00 0. -1.
         11    1    4    4    0    0  0.15461915619E+02  0.19347802576E+02  0.75464638194E+01  0.25891261370E+02  0.00000000000E+00 0.  1.
</event>
<event>
 8    1  0.6615242E-009  0.1070159E+03  0.7561462E-02  0.1266198E+00
         -1   -1    0    0    0  501 -0.00000000000E+00  0.00000000000E+00  0.10157293637E+04  0.10157293637E+04  0.00000000000E+00 0.  1.
          1   -1    0    0  501    0  0.00000000000E+00 -0.00000000000E+00 -0.13262253267E+02  0.13262253267E+02  0.00000000000E+00 0. -1.
         25    2    1    2    0    0 -0.61452486361E+01  0.15293711146E+02  0.73959961814E+03  0.75028271817E+03  0.12507957610E+03 0.  0.
         23    2    1    2    0    0  0.61452486361E+01 -0.15293711146E+02  0.26286749233E+03  0.27870889883E+03  0.91146421112E+02 0.  0.
          5    1    3    3  502    0 -0.63620267536E+02 -0.66476274165E+01  0.40659641061E+03  0.41161856483E+03  0.41800000000E+01 0.  1.
         -5    1    3    3    0  502  0.57475018900E+02  0.21941338563E+02  0.33300320752E+03  0.33866415334E+03  0.41800000000E+01 0.  1.
        -11    1    4    4    0    0 -0.10027506350E+01  0.36232595480E+02  0.15173214800E+03  0.15600144622E+03  0.00000000000E+00 0.  1.
         11    1    4    4    0    0  0.71479992712E+01 -0.51526306626E+02  0.11113534433E+03  0.12270745261E+03  0.00000000000E+00 0. -1.
</event>
<event>
 8    1  0.6615242E-009  0.9460485E+02  0.7561462E-02  0.1292069E+00
         -2   -1    0    0    0  501 -0.00000000000E+00  0.00000000000E+00  0.61213179811E+02  0.61213179811E+02  0.00000000000E+00 0.  1.
          2   -1    0    0  501    0  0.00000000000E+00 -0.00000000000E+00 -0.28696494921E+03  0.28696494921E+03  0.00000000000E+00 0. -1.
         25    2    1    2    0    0  0.35894391396E+02  0.63183756843E+02 -0.92985627852E+02  0.17196995417E+03  0.12508694451E+03 0.  0.
         23    2    1    2    0    0 -0.35894391396E+02 -0.63183756843E+02 -0.13276614155E+03  0.17620817485E+03  0.90232356063E+02 0.  0.
          5    1    3    3  502    0  0.10543442442E+02  0.77165578270E+02 -0.37747751595E+01  0.78085926875E+02  0.41800000000E+01 0. -1.
         -5    1    3    3    0  502  0.25350948954E+02 -0.13981821427E+02 -0.89210852693E+02  0.93884027297E+02  0.41800000000E+01 0. -1.
        -11    1    4    4    0    0 -0.11581150476E+02 -0.55157244943E+02 -0.18817458532E+02  0.59418359635E+02  0.00000000000E+00 0.  1.
         11    1    4    4    0    0 -0.24313240921E+02 -0.80265118996E+01 -0.11394868302E+03  0.11678981522E+03  0.00000000000E+00 0. -1.
</event>
<event>
 8    1  0.6615242E-009  0.1126533E+03  0.7561462E-02  0.1255734E+00
         -2   -1    0    0    0  501 -0.00000000000E+00  0.00000000000E+00  0.19533607455E+03  0.19533607455E+03  0.00000000000E+00 0.  1.
          2   -1    0    0  501    0  0.00000000000E+00 -0.00000000000E+00 -0.99812922821E+02  0.99812922821E+02  0.00000000000E+00 0. -1.
         25    2    1    2    0    0 -0.63605389934E+02  0.51285960160E+02  0.26555586572E+02  0.15175154222E+03  0.12508971200E+03 0.  0.
         23    2    1    2    0    0  0.63605389934E+02 -0.51285960160E+02  0.68967565157E+02  0.14339745515E+03  0.95553177667E+02 0.  0.
          5    1    3    3  502    0 -0.80196192407E+02  0.49060380804E+02 -0.25013322087E+02  0.97372937324E+02  0.41800000000E+01 0. -1.
         -5    1    3    3    0  502  0.16590802472E+02  0.22255793558E+01  0.51568908659E+02  0.54378604895E+02  0.41800000000E+01 0. -1.
        -11    1    4    4    0    0  0.56050978014E+02  0.58127827652E+01  0.64469107595E+02  0.85625734531E+02  0.00000000000E+00 0.  1.
         11    1    4    4    0    0  0.75544119207E+01 -0.57098742925E+02  0.44984575612E+01  0.57771720621E+02  0.00000000000E+00 0. -1.
</event>
<event>
 8    1  0.6615242E-009  0.1374956E+03  0.7561462E-02  0.1216739E+00
         -2   -1    0    0    0  501 -0.00000000000E+00  0.00000000000E+00  0.23634190537E+03  0.23634190537E+03  0.00000000000E+00 0.  1.
          2   -1    0    0  501    0  0.00000000000E+00 -0.00000000000E+00 -0.10121625188E+03  0.10121625188E+03  0.00000000000E+00 0. -1.
         25    2    1    2    0    0 -0.10562070956E+03  0.12045583321E+02  0.43043670323E+02  0.16970857555E+03  0.12508961865E+03 0.  0.
         23    2    1    2    0    0  0.10562070956E+03 -0.12045583321E+02  0.92081983169E+02  0.16784958171E+03  0.91616374569E+02 0.  0.
          5    1    3    3  502    0  0.14509770452E+02 -0.29919658347E+02  0.23421922716E+02  0.40887385070E+02  0.41800000000E+01 0. -1.
         -5    1    3    3    0  502 -0.12013048002E+03  0.41965241668E+02  0.19621747607E+02  0.12882119048E+03  0.41800000000E+01 0. -1.
        -11    1    4    4    0    0  0.70410828592E+02 -0.27651255958E+02  0.10302294858E+03  0.12781238075E+03  0.00000000000E+00 0.  1.
         11    1    4    4    0    0  0.35209880971E+02  0.15605672637E+02 -0.10940965410E+02  0.40037200958E+02  0.00000000000E+00 0. -1.
</event>
<event>
 8    1  0.6615242E-009  0.8194304E+02  0.7561462E-02  0.1323626E+00
          2   -1    0    0  501    0  0.00000000000E+00  0.00000000000E+00  0.31642995772E+03  0.31642995772E+03  0.00000000000E+00 0. -1.
         -2   -1    0    0    0  501 -0.00000000000E+00 -0.00000000000E+00 -0.39674348682E+02  0.39674348682E+02  0.00000000000E+00 0.  1.
         25    2    1    2    0    0  0.18808220192E+02  0.13024283290E+02  0.18772295860E+03  0.22673682751E+03  0.12508516563E+03 0.  0.
         23    2    1    2    0    0 -0.18808220192E+02 -0.13024283290E+02  0.89032650431E+02  0.12936747889E+03  0.91026098722E+02 0.  0.
          5    1    3    3  502    0  0.41533952116E+02 -0.26288829378E+02  0.20524280982E+02  0.53431172908E+02  0.41800000000E+01 0. -1.
         -5    1    3    3    0  502 -0.22725731924E+02  0.39313112668E+02  0.16719867762E+03  0.17330565460E+03  0.41800000000E+01 0. -1.
        -11    1    4    4    0    0 -0.42635826247E+02 -0.14618216454E+02  0.94650912796E+02  0.10483463753E+03  0.00000000000E+00 0. -1.
         11    1    4    4    0    0  0.23827606054E+02  0.15939331637E+01 -0.56182623654E+01  0.24532841360E+02  0.00000000000E+00 0.  1.
</event>
<event>
 8    1  0.6615242E-009  0.1250962E+03  0.7561462E-02  0.1234919E+00
         -2   -1    0    0    0  501 -0.00000000000E+00  0.00000000000E+00  0.17025218603E+02  0.17025218603E+02  0.00000000000E+00 0.  1.
          2   -1    0    0  501    0  0.00000000000E+00 -0.00000000000E+00 -0.10626344604E+04  0.10626344604E+04  0.00000000000E+00 0. -1.
         25    2    1    2    0    0 -0.66832693669E+02 -0.28666761079E+02 -0.72062369412E+03  0.73500686167E+03  0.12509270978E+03 0.  0.
         23    2    1    2    0    0  0.66832693669E+02  0.28666761079E+02 -0.32498554765E+03  0.34465281731E+03  0.88778185171E+02 0.  0.
          5    1    3    3  502    0 -0.50693474748E+01  0.41443542946E+02 -0.11955420785E+03  0.12670416943E+03  0.41800000000E+01 0. -1.
         -5    1    3    3    0  502 -0.61763346194E+02 -0.70110304025E+02 -0.60106948628E+03  0.60830269225E+03  0.41800000000E+01 0. -1.
        -11    1    4    4    0    0 -0.13707174963E+02  0.31246979787E+02 -0.10175066272E+03  0.10731941928E+03  0.00000000000E+00 0.  1.
         11    1    4    4    0    0  0.80539868632E+02 -0.25802187082E+01 -0.22323488493E+03  0.23733339802E+03  0.00000000000E+00 0. -1.
</event>
<event>
 8    1  0.6615242E-009  0.1227874E+03  0.7561462E-02  0.1238568E+00
         -2   -1    0    0    0  501 -0.00000000000E+00  0.00000000000E+00  0.23925073303E+02  0.23925073303E+02  0.00000000000E+00 0.  1.
          2   -1    0    0  501    0  0.00000000000E+00 -0.00000000000E+00 -0.82557208351E+03  0.82557208351E+03  0.00000000000E+00 0. -1.
         25    2    1    2    0    0  0.78815721917E+02  0.19884311767E+02 -0.51068847870E+03  0.53203077829E+03  0.12508686140E+03 0.  0.
         23    2    1    2    0    0 -0.78815721917E+02 -0.19884311767E+02 -0.29095853152E+03  0.31746637853E+03  0.97574231030E+02 0.  0.
          5    1    3    3  502    0 -0.36766726273E+01  0.36855641447E+02 -0.33593550915E+03  0.33799703391E+03  0.41800000000E+01 0. -1.
         -5    1    3    3    0  502  0.82492394544E+02 -0.16971329680E+02 -0.17475296955E+03  0.19403374437E+03  0.41800000000E+01 0. -1.
        -11    1    4    4    0    0  0.49784296518E+00 -0.41712003887E+02 -0.67531007123E+02  0.79376167953E+02  0.00000000000E+00 0.  1.
         11    1    4    4    0    0 -0.79313564882E+02  0.21827692119E+02 -0.22342752439E+03  0.23809021058E+03  0.00000000000E+00 0. -1.
</event>
<event>
 8    1  0.6615242E-009  0.1459630E+03  0.7561462E-02  0.1205523E+00
         -2   -1    0    0    0  501 -0.00000000000E+00  0.00000000000E+00  0.68929059957E+02  0.68929059957E+02  0.00000000000E+00 0.  1.
          2   -1    0    0  501    0  0.00000000000E+00 -0.00000000000E+00 -0.34764501656E+03  0.34764501656E+03  0.00000000000E+00 0. -1.
         25    2    1    2    0    0  0.81719190983E+02 -0.72122882596E+02 -0.16602551034E+03  0.23471738083E+03  0.12509213568E+03 0.  0.
         23    2    1    2    0    0 -0.81719190983E+02  0.72122882596E+02 -0.11269044626E+03  0.18185669569E+03  0.92157391018E+02 0.  0.
          5    1    3    3  502    0  0.79038562801E+02 -0.10534587536E+03 -0.12422347330E+03  0.18109056183E+03  0.41800000000E+01 0. -1.
         -5    1    3    3    0  502  0.26806281819E+01  0.33222992760E+02 -0.41802037034E+02  0.53626818996E+02  0.41800000000E+01 0. -1.
        -11    1    4    4    0    0 -0.39717364122E+02  0.74577562099E+02 -0.11132787363E+03  0.13976114348E+03  0.00000000000E+00 0. -1.
         11    1    4    4    0    0 -0.42001826861E+02 -0.24546795040E+01 -0.13625726321E+01  0.42095552203E+02  0.00000000000E+00 0.  1.
</event>
<event>
 8    1  0.6615242E-009  0.1234142E+03  0.7561462E-02  0.1237569E+00
         -2   -1    0    0    0  501 -0.00000000000E+00  0.00000000000E+00  0.28646703505E+02  0.28646703505E+02  0.00000000000E+00 0.  1.
          2   -1    0    0  501    0  0.00000000000E+00 -0.00000000000E+00 -0.81388667496E+03  0.81388667496E+03  0.00000000000E+00 0. -1.
         25    2    1    2    0    0 -0.83325417144E+02  0.31224977956E+02 -0.25565560236E+03  0.29820131799E+03  0.12508443006E+03 0.  0.
         23    2    1    2    0    0  0.83325417144E+02 -0.31224977956E+02 -0.52958436910E+03  0.54433206048E+03  0.88992492254E+02 0.  0.
          5    1    3    3  502    0 -0.59807660047E+02 -0.24152712786E+02 -0.21734509810E+03  0.22675245049E+03  0.41800000000E+01 0.  1.
         -5    1    3    3    0  502 -0.23517757097E+02  0.55377690742E+02 -0.38310504261E+02  0.71448867504E+02  0.41800000000E+01 0.  1.
        -11    1    4    4    0    0  0.25804864874E+02 -0.54132725131E+02 -0.19305346057E+03  0.20215311430E+03  0.00000000000E+00 0. -1.
         11    1    4    4    0    0  0.57520552270E+02  0.22907747175E+02 -0.33653090852E+03  0.34217894618E+03  0.00000000000E+00 0.  1.
</event>
<event>
 8    1  0.6615242E-009  0.1139478E+03  0.7561462E-02  0.1253429E+00
         -4   -1    0    0    0  501 -0.00000000000E+00  0.00000000000E+00  0.97585657123E+02  0.97585657123E+02  0.00000000000E+00 0.  1.
          4   -1    0    0  501    0  0.00000000000E+00 -0.00000000000E+00 -0.23815570370E+03  0.23815570370E+03  0.00000000000E+00 0. -1.
         25    2    1    2    0    0 -0.58306229367E+02 -0.54677441653E+02  0.20173701659E+01  0.14846128065E+03  0.12508974004E+03 0.  0.
         23    2    1    2    0    0  0.58306229367E+02  0.54677441653E+02 -0.14258741674E+03  0.18728008016E+03  0.91397034993E+02 0.  0.
          5    1    3    3  502    0  0.31293015916E+02 -0.21997375449E+02 -0.28891279160E+02  0.48117728368E+02  0.41800000000E+01 0. -1.
         -5    1    3    3    0  502 -0.89599245282E+02 -0.32680066204E+02  0.30908649326E+02  0.10034355229E+03  0.41800000000E+01 0. -1.
        -11    1    4    4    0    0  0.84127019285E+01  0.41505304937E+02 -0.79456064479E+01  0.43088241476E+02  0.00000000000E+00 0.  1.
         11    1    4    4    0    0  0.49893527438E+02  0.13172136716E+02 -0.13464181029E+03  0.14419183869E+03  0.00000000000E+00 0. -1.
</event>
<event>
 8    1  0.6615242E-009  0.1049112E+03  0.7561462E-02  0.1270295E+00
          3   -1    0    0  501    0  0.00000000000E+00  0.00000000000E+00  0.59222703488E+02  0.59222703488E+02  0.00000000000E+00 0. -1.
         -3   -1    0    0    0  501 -0.00000000000E+00 -0.00000000000E+00 -0.30346791443E+03  0.30346791443E+03  0.00000000000E+00 0.  1.
         25    2    1    2    0    0 -0.10701121591E+02  0.12399561484E+02 -0.32830725346E+02  0.13036483938E+03  0.12509545032E+03 0.  0.
         23    2    1    2    0    0  0.10701121591E+02 -0.12399561484E+02 -0.21141448559E+03  0.23232577853E+03  0.94925863308E+02 0.  0.
          5    1    3    3  502    0  0.31524689410E+02  0.51780333353E+02 -0.38909865457E+02  0.72155796680E+02  0.41800000000E+01 0.  1.
         -5    1    3    3    0  502 -0.42225811001E+02 -0.39380771869E+02  0.60791401115E+01  0.58209042701E+02  0.41800000000E+01 0.  1.
        -11    1    4    4    0    0 -0.16223580618E+02  0.33913933190E+02 -0.12611319849E+03  0.13159748579E+03  0.00000000000E+00 0.  1.
         11    1    4    4    0    0  0.26924702209E+02 -0.46313494674E+02 -0.85301287098E+02  0.10072829274E+03  0.00000000000E+00 0. -1.
</event>
<event>
 8    1  0.6615242E-009  0.1911079E+03  0.7561462E-02  0.1157466E+00
         -2   -1    0    0    0  501 -0.00000000000E+00  0.00000000000E+00  0.29056071305E+02  0.29056071305E+02  0.00000000000E+00 0.  1.
          2   -1    0    0  501    0  0.00000000000E+00 -0.00000000000E+00 -0.14236531954E+04  0.14236531954E+04  0.00000000000E+00 0. -1.
         25    2    1    2    0    0  0.10665405307E+03 -0.12370567646E+03 -0.56287489236E+03  0.59929450698E+03  0.12509028828E+03 0.  0.
         23    2    1    2    0    0 -0.10665405307E+03  0.12370567646E+03 -0.83172223173E+03  0.85341475972E+03  0.99381587478E+02 0.  0.
          5    1    3    3  502    0  0.71816201851E+02 -0.90491454958E+01 -0.32401559115E+03  0.33202865779E+03  0.41800000000E+01 0. -1.
         -5    1    3    3    0  502  0.34837851219E+02 -0.11465653096E+03 -0.23885930121E+03  0.26726584919E+03  0.41800000000E+01 0. -1.
        -11    1    4    4    0    0 -0.12425383128E+03  0.96156764760E+02 -0.72348929349E+03  0.74035254831E+03  0.00000000000E+00 0. -1.
         11    1    4    4    0    0  0.17599778205E+02  0.27548911701E+02 -0.10823293825E+03  0.11306221141E+03  0.00000000000E+00 0.  1.
</event>
<event>
 8    1  0.6615242E-009  0.1866858E+03  0.7561462E-02  0.1161485E+00
         -2   -1    0    0    0  501 -0.00000000000E+00  0.00000000000E+00  0.69202034867E+02  0.69202034867E+02  0.00000000000E+00 0.  1.
          2   -1    0    0  501    0  0.00000000000E+00 -0.00000000000E+00 -0.68037100410E+03  0.68037100410E+03  0.00000000000E+00 0. -1.
         25    2    1    2    0    0 -0.15463128357E+03 -0.97333326626E+02 -0.40360510602E+03  0.46035666102E+03  0.12508622388E+03 0.  0.
         23    2    1    2    0    0  0.15463128357E+03  0.97333326626E+02 -0.20756386321E+03  0.28921637795E+03  0.84727478613E+02 0.  0.
          5    1    3    3  502    0 -0.64994068972E+02 -0.20635626357E+02 -0.28478876035E+03  0.29286885888E+03  0.41800000000E+01 0. -1.
         -5    1    3    3    0  502 -0.89637214599E+02 -0.76697700269E+02 -0.11881634567E+03  0.16748780214E+03  0.41800000000E+01 0. -1.
        -11    1    4    4    0    0  0.35736485501E+02  0.44035874718E+02 -0.11855627498E+03  0.13142239153E+03  0.00000000000E+00 0. -1.
         11    1    4    4    0    0  0.11889479807E+03  0.53297451908E+02 -0.89007588236E+02  0.15779398643E+03  0.00000000000E+00 0.  1.
</event>
<event>
 8    1  0.6615242E-009  0.2673774E+03  0.7561462E-02  0.1102790E+00
         -2   -1    0    0    0  501 -0.00000000000E+00  0.00000000000E+00  0.63362134196E+03  0.63362134196E+03  0.00000000000E+00 0.  1.
          2   -1    0    0  501    0  0.00000000000E+00 -0.00000000000E+00 -0.12858390659E+03  0.12858390659E+03  0.00000000000E+00 0. -1.
         25    2    1    2    0    0  0.24930312104E+03 -0.52058563182E+02  0.16593167619E+03  0.32870000012E+03  0.12509288050E+03 0.  0.
         23    2    1    2    0    0 -0.24930312104E+03  0.52058563182E+02  0.33910575918E+03  0.43350524843E+03  0.89844000053E+02 0.  0.
          5    1    3    3  502    0  0.19744806958E+03 -0.94452147644E+01  0.17080000552E+03  0.26127584379E+03  0.41800000000E+01 0.  1.
         -5    1    3    3    0  502  0.51855051463E+02 -0.42613348417E+02 -0.48683293354E+01  0.67424156325E+02  0.41800000000E+01 0.  1.
        -11    1    4    4    0    0 -0.19874577111E+03  0.21649944366E+01  0.25826957114E+03  0.32589529010E+03  0.00000000000E+00 0.  1.
         11    1    4    4    0    0 -0.50557349935E+02  0.49893568745E+02  0.80836188047E+02  0.10760995833E+03  0.00000000000E+00 0. -1.
</event>
<event>
 7    1  0.6615242E-009  0.1416320E+03  0.7561462E-02  0.1211150E+00
         -1   -1    0    0    0  501 -0.00000000000E+00  0.00000000000E+00  0.19186555557E+02  0.19186555557E+02  0.00000000000E+00 0.  1.
          1   -1    0    0  501    0  0.00000000000E+00 -0.00000000000E+00 -0.13148919209E+04  0.13148919209E+04  0.00000000000E+00 0. -1.
         23    2    1    2    0    0 -0.42751557258E+02  0.86255188222E+02 -0.30324146648E+03  0.32911447763E+03  0.84221726697E+02 0.  0.
          5    1    1    2  502    0  0.26783504737E+02  0.29723198054E+02 -0.21625288178E+03  0.21996273754E+03  0.41800000000E+01 0. -1.
         -5    1    1    2    0  502  0.15968052520E+02 -0.11597838628E+03 -0.77621101712E+03  0.78500126133E+03  0.41800000000E+01 0. -1.
        -11    1    3    3    0    0 -0.39999468639E+02  0.41200263539E+00 -0.12528634164E+03  0.13151727886E+03  0.00000000000E+00 0.  1.
         11    1    3    3    0    0 -0.27520886188E+01  0.85843185587E+02 -0.17795512485E+03  0.19759719877E+03  0.00000000000E+00 0. -1.
</event>
<event>
 8    1  0.6615242E-009  0.1772353E+03  0.7561462E-02  0.1170506E+00
          2   -1    0    0  501    0  0.00000000000E+00  0.00000000000E+00  0.13594167604E+04  0.13594167604E+04  0.00000000000E+00 0. -1.
         -2   -1    0    0    0  501 -0.00000000000E+00 -0.00000000000E+00 -0.27323811751E+02  0.27323811751E+02  0.00000000000E+00 0.  1.
         25    2    1    2    0    0 -0.10195917906E+03 -0.10534062702E+03  0.91651559564E+03  0.93655730644E+03  0.12508568785E+03 0.  0.
         23    2    1    2    0    0  0.10195917906E+03  0.10534062702E+03  0.41557735300E+03  0.45018326570E+03  0.92022358657E+02 0.  0.
          5    1    3    3  502    0 -0.10281651265E+03 -0.12535938332E+03  0.67645380138E+03  0.69562448782E+03  0.41800000000E+01 0. -1.
         -5    1    3    3    0  502  0.85733358886E+00  0.20018756295E+02  0.24006179426E+03  0.24093281862E+03  0.41800000000E+01 0. -1.
        -11    1    4    4    0    0  0.10763103409E+03  0.11692422956E+03  0.39642378205E+03  0.42709194553E+03  0.00000000000E+00 0. -1.
         11    1    4    4    0    0 -0.56718550247E+01 -0.11583602541E+02  0.19153570948E+02  0.23091320172E+02  0.00000000000E+00 0.  1.
</event>
<event>
 8    1  0.6615242E-009  0.9961141E+02  0.7561462E-02  0.1281115E+00
         -2   -1    0    0    0  501 -0.00000000000E+00  0.00000000000E+00  0.34001540653E+02  0.34001540653E+02  0.00000000000E+00 0. -1.
          2   -1    0    0  501    0  0.00000000000E+00 -0.00000000000E+00 -0.39665090842E+03  0.39665090842E+03  0.00000000000E+00 0.  1.
         25    2    1    2    0    0  0.30985452158E+02  0.38361023947E+02 -0.23853396676E+03  0.27382776321E+03  0.12510605182E+03 0.  0.
         23    2    1    2    0    0 -0.30985452158E+02 -0.38361023947E+02 -0.12411540101E+03  0.15682468587E+03  0.82205127128E+02 0.  0.
          5    1    3    3  502    0 -0.45310465210E+02  0.28550876894E+02 -0.13064415840E+03  0.14125706833E+03  0.41800000000E+01 0.  1.
         -5    1    3    3    0  502  0.76295917369E+02  0.98101470535E+01 -0.10788980835E+03  0.13257069487E+03  0.41800000000E+01 0.  1.
        -11    1    4    4    0    0 -0.42228646953E+02 -0.19510126626E+02 -0.12646604914E+03  0.13475001020E+03  0.00000000000E+00 0.  1.
         11    1    4    4    0    0  0.11243194795E+02 -0.18850897321E+02  0.23506481327E+01  0.22074675664E+02  0.00000000000E+00 0. -1.
</event>
<event>
 8    1  0.6615242E-009  0.1046072E+03  0.7561462E-02  0.1270895E+00
          1   -1    0    0  501    0  0.00000000000E+00  0.00000000000E+00  0.33022607769E+03  0.33022607769E+03  0.00000000000E+00 0. -1.
         -1   -1    0    0    0  501 -0.00000000000E+00 -0.00000000000E+00 -0.65697962861E+02  0.65697962861E+02  0.00000000000E+00 0.  1.
         25    2    1    2    0    0 -0.21568518340E+02  0.96754889608E+02  0.13485768023E+03  0.20895319412E+03  0.12509250085E+03 0.  0.
         23    2    1    2    0    0  0.21568518340E+02 -0.96754889608E+02  0.12967043459E+03  0.18697084642E+03  0.91197402148E+02 0.  0.
          5    1    3    3  502    0 -0.73695385886E+01  0.47113324293E+02  0.14796821027E+03  0.15551861327E+03  0.41800000000E+01 0. -1.
         -5    1    3    3    0  502 -0.14198979751E+02  0.49641565315E+02 -0.13110530032E+02  0.53434580850E+02  0.41800000000E+01 0. -1.
        -11    1    4    4    0    0  0.32413153430E+02 -0.38679865619E+02  0.71748751723E+01  0.50972770705E+02  0.00000000000E+00 0.  1.
         11    1    4    4    0    0 -0.10844635091E+02 -0.58075023989E+02  0.12249555942E+03  0.13599807572E+03  0.00000000000E+00 0. -1.
</event>
<event>
 8    1  0.6615242E-009  0.9514296E+02  0.7561462E-02  0.1290854E+00
         -1   -1    0    0    0  501 -0.00000000000E+00  0.00000000000E+00  0.22607061305E+02  0.22607061305E+02  0.00000000000E+00 0.  1.
          1   -1    0    0  501    0  0.00000000000E+00 -0.00000000000E+00 -0.92080031323E+03  0.92080031323E+03  0.00000000000E+00 0. -1.
         25    2    1    2    0    0  0.37261522565E+02 -0.85627117320E+02 -0.46307070514E+03  0.48867191989E+03  0.12508134572E+03 0.  0.
         23    2    1    2    0    0 -0.37261522565E+02  0.85627117320E+02 -0.43512254679E+03  0.45473545465E+03  0.93446662357E+02 0.  0.
          5    1    3    3  502    0  0.63907510654E+01 -0.45245714176E+02 -0.35355405170E+02  0.57926621041E+02  0.41800000000E+01 0. -1.
         -5    1    3    3    0  502  0.30870771500E+02 -0.40381403144E+02 -0.42771529997E+03  0.43074529885E+03  0.41800000000E+01 0. -1.
        -11    1    4    4    0    0 -0.83271432151E+01  0.20977290325E+02 -0.11685412633E+02  0.25415288547E+02  0.00000000000E+00 0.  1.
         11    1    4    4    0    0 -0.28934379350E+02  0.64649826994E+02 -0.42343713416E+03  0.42932016611E+03  0.00000000000E+00 0. -1.
</event>
<event>
 8    1  0.6615242E-009  0.1408612E+03  0.7561462E-02  0.1212175E+00
          2   -1    0    0  501    0  0.00000000000E+00  0.00000000000E+00  0.19131657101E+03  0.19131657101E+03  0.00000000000E+00 0. -1.
         -2   -1    0    0    0  501 -0.00000000000E+00 -0.00000000000E+00 -0.11404832273E+03  0.11404832273E+03  0.00000000000E+00 0.  1.
         25    2    1    2    0    0 -0.49269215914E+02 -0.86210348660E+02  0.53437195413E+02  0.16841168347E+03  0.12508909393E+03 0.  0.
         23    2    1    2    0    0  0.49269215914E+02  0.86210348660E+02  0.23831052870E+02  0.13695321028E+03  0.91261069857E+02 0.  0.
          5    1    3    3  502    0 -0.47263652305E+02  0.16068257323E+02  0.42035902254E+02  0.65395192490E+02  0.41800000000E+01 0.  1.
         -5    1    3    3    0  502 -0.20055636097E+01 -0.10227860598E+03  0.11401293159E+02  0.10301649098E+03  0.41800000000E+01 0.  1.
        -11    1    4    4    0    0  0.72205711162E+02  0.56352064157E+02  0.34411815076E+02  0.97843716589E+02  0.00000000000E+00 0. -1.
         11    1    4    4    0    0 -0.22936495248E+02  0.29858284502E+02 -0.10580762206E+02  0.39109493688E+02  0.00000000000E+00 0.  1.
</event>
<event>
 8    1  0.6615242E-009  0.1213382E+03  0.7561462E-02  0.1240906E+00
         -2   -1    0    0    0  501 -0.00000000000E+00  0.00000000000E+00  0.21265806680E+03  0.21265806680E+03  0.00000000000E+00 0.  1.
          2   -1    0    0  501    0  0.00000000000E+00 -0.00000000000E+00 -0.77920361832E+02  0.77920361832E+02  0.00000000000E+00 0. -1.
         25    2    1    2    0    0  0.32110226259E+02  0.59329952008E+02  0.66924382161E+02  0.15709028556E+03  0.12508946820E+03 0.  0.
         23    2    1    2    0    0 -0.32110226259E+02 -0.59329952008E+02  0.67813322808E+02  0.13348814307E+03  0.93109224863E+02 0.  0.
          5    1    3    3  502    0 -0.38014917159E+02 -0.13765953556E+02  0.16580328120E+02  0.43897779949E+02  0.41800000000E+01 0. -1.
         -5    1    3    3    0  502  0.70125143418E+02  0.73095905564E+02  0.50344054041E+02  0.11319250561E+03  0.41800000000E+01 0. -1.
        -11    1    4    4    0    0  0.65242442197E+01 -0.61603850480E+02  0.71509363808E+02  0.94610724914E+02  0.00000000000E+00 0.  1.
         11    1    4    4    0    0 -0.38634470479E+02  0.22738984719E+01 -0.36960409999E+01  0.38877418157E+02  0.00000000000E+00 0. -1.
</event>
<event>
 8    1  0.6615242E-009  0.1380918E+03  0.7561462E-02  0.1215920E+00
          2   -1    0    0  501    0  0.00000000000E+00  0.00000000000E+00  0.43873874834E+03  0.43873874834E+03  0.00000000000E+00 0. -1.
         -2   -1    0    0    0  501 -0.00000000000E+00 -0.00000000000E+00 -0.55582453838E+02  0.55582453838E+02  0.00000000000E+00 0.  1.
         25    2    1    2    0    0  0.11100871836E+03 -0.14108617188E+02  0.22816216148E+03  0.28324333371E+03  0.12508727165E+03 0.  0.
         23    2    1    2    0    0 -0.11100871836E+03  0.14108617188E+02  0.15499413303E+03  0.21107786848E+03  0.89491321684E+02 0.  0.
          5    1    3    3  502    0 -0.21106516001E+01  0.23599337811E+02 -0.18470768763E+01  0.24130223544E+02  0.41800000000E+01 0.  1.
         -5    1    3    3    0  502  0.11311936996E+03 -0.37707954999E+02  0.23000923835E+03  0.25911311016E+03  0.41800000000E+01 0.  1.
        -11    1    4    4    0    0 -0.10645391475E+03 -0.11250864755E+02  0.85627096445E+02  0.13708033254E+03  0.00000000000E+00 0.  1.
         11    1    4    4    0    0 -0.45548036067E+01  0.25359481942E+02  0.69367036584E+02  0.73997535936E+02  0.00000000000E+00 0. -1.
</event>
<event>
 8    1  0.6615242E-009  0.7687513E+02  0.7561462E-02  0.1338161E+00
          2   -1    0    0  501    0  0.00000000000E+00  0.00000000000E+00  0.21830589364E+03  0.21830589364E+03  0.00000000000E+00 0. -1.
         -2   -1    0    0    0  501 -0.00000000000E+00 -0.00000000000E+00 -0.85113185036E+02  0.85113185036E+02  0.00000000000E+00 0.  1.
         25    2    1    2    0    0 -0.38904026653E+02  0.10131231663E+02  0.15416940529E+03  0.20256233161E+03  0.12508847875E+03 0.  0.
         23    2    1    2    0    0  0.38904026653E+02 -0.10131231663E+02 -0.20976696687E+02  0.10085674707E+03  0.90088270492E+02 0.  0.
          5    1    3    3  502    0  0.94152432789E+01  0.93522206929E+01  0.15342097021E+03  0.15405056747E+03  0.41800000000E+01 0. -1.
         -5    1    3    3    0  502 -0.48319269932E+02  0.77901097021E+00  0.74843508133E+00  0.48511764139E+02  0.41800000000E+01 0. -1.
        -11    1    4    4    0    0  0.59376641363E+02 -0.26593960775E+02  0.32213719935E+01  0.65139861274E+02  0.00000000000E+00 0. -1.
         11    1    4    4    0    0 -0.20472614710E+02  0.16462729112E+02 -0.24198068681E+02  0.35716885793E+02  0.00000000000E+00 0.  1.
</event>
<event>
 7    1  0.6615242E-009  0.1039454E+03  0.7561462E-02  0.1272211E+00
         -4   -1    0    0    0  501 -0.00000000000E+00  0.00000000000E+00  0.36119445044E+03  0.36119445044E+03  0.00000000000E+00 0.  1.
          4   -1    0    0  501    0  0.00000000000E+00 -0.00000000000E+00 -0.68586279536E+02  0.68586279536E+02  0.00000000000E+00 0. -1.
         23    2    1    2    0    0  0.11608303281E+02 -0.94600397574E+02  0.48752452567E+02  0.13952255249E+03  0.89474874096E+02 0.  0.
          5    1    1    2  502    0 -0.15094228570E+02  0.10147199879E+03  0.25568792151E+03  0.27553255321E+03  0.41800000000E+01 0.  1.
         -5    1    1    2    0  502  0.34859252895E+01 -0.68716012153E+01 -0.11832203174E+02  0.14725624277E+02  0.41800000000E+01 0.  1.
        -11    1    3    3    0    0 -0.34096406523E+01 -0.26237561918E+02 -0.26015245322E+02  0.37105636956E+02  0.00000000000E+00 0. -1.
         11    1    3    3    0    0  0.15017943933E+02 -0.68362835656E+02  0.74767697888E+02  0.10241691553E+03  0.00000000000E+00 0.  1.
</event>
<event>
 8    1  0.6615242E-009  0.1031783E+03  0.7561462E-02  0.1273751E+00
          2   -1    0    0  501    0  0.00000000000E+00  0.00000000000E+00  0.78776435066E+03  0.78776435066E+03  0.00000000000E+00 0. -1.
         -2   -1    0    0    0  501 -0.00000000000E+00 -0.00000000000E+00 -0.21070466256E+02  0.21070466256E+02  0.00000000000E+00 0.  1.
         25    2    1    2    0    0  0.44972030134E+02  0.25976001902E+02  0.28158931646E+03  0.31246854467E+03  0.12508721795E+03 0.  0.
         23    2    1    2    0    0 -0.44972030134E+02 -0.25976001902E+02  0.48510456795E+03  0.49636627225E+03  0.91410055315E+02 0.  0.
          5    1    3    3  502    0  0.39329612307E+02  0.57392025833E+02  0.26903282557E+03  0.27791508895E+03  0.41800000000E+01 0.  1.
         -5    1    3    3    0  502  0.56424178274E+01 -0.31416023931E+02  0.12556490889E+02  0.34553455717E+02  0.41800000000E+01 0.  1.
        -11    1    4    4    0    0 -0.72265805518E+02 -0.10317534395E+02  0.36342892783E+03  0.37068771728E+03  0.00000000000E+00 0.  1.
         11    1    4    4    0    0  0.27293775383E+02 -0.15658467506E+02  0.12167564012E+03  0.12567855496E+03  0.00000000000E+00 0. -1.
</event>
<event>
 8    1  0.6615242E-009  0.1051767E+03  0.7561462E-02  0.1269772E+00
         -1   -1    0    0    0  501 -0.00000000000E+00  0.00000000000E+00  0.20997604179E+03  0.20997604179E+03  0.00000000000E+00 0.  1.
          1   -1    0    0  501    0  0.00000000000E+00 -0.00000000000E+00 -0.10729220923E+03  0.10729220923E+03  0.00000000000E+00 0. -1.
         25    2    1    2    0    0 -0.73287841683E+02 -0.85823442449E+01 -0.19941640841E+02  0.14655407890E+03  0.12504265124E+03 0.  0.
         23    2    1    2    0    0  0.73287841683E+02  0.85823442449E+01  0.12262547341E+03  0.17071417213E+03  0.93067488766E+02 0.  0.
          5    1    3    3  502    0 -0.28012540759E+02  0.37945472186E+02  0.37005440486E+02  0.60095227138E+02  0.41800000000E+01 0.  1.
         -5    1    3    3    0  502 -0.45275300924E+02 -0.46527816431E+02 -0.56947081326E+02  0.86458851758E+02  0.41800000000E+01 0.  1.
        -11    1    4    4    0    0 -0.84901429174E+01  0.13582174927E+02 -0.69088325292E+01  0.17443909236E+02  0.00000000000E+00 0. -1.
         11    1    4    4    0    0  0.81777984601E+02 -0.49998306823E+01  0.12953430594E+03  0.15327026289E+03  0.00000000000E+00 0.  1.
</event>
<event>
 8    1  0.6615242E-009  0.1223464E+03  0.7561462E-02  0.1239276E+00
          1   -1    0    0  501    0  0.00000000000E+00  0.00000000000E+00  0.66249430447E+03  0.66249430447E+03  0.00000000000E+00 0. -1.
         -1   -1    0    0    0  501 -0.00000000000E+00 -0.00000000000E+00 -0.24353432974E+02  0.24353432974E+02  0.00000000000E+00 0.  1.
         25    2    1    2    0    0 -0.49016337432E+02  0.35428529804E+02  0.27976378299E+03  0.31236678083E+03  0.12508976552E+03 0.  0.
         23    2    1    2    0    0  0.49016337432E+02 -0.35428529804E+02  0.35837708851E+03  0.37448095661E+03  0.90244485898E+02 0.  0.
          5    1    3    3  502    0  0.21478562459E+01  0.73720886261E+02  0.13077328394E+03  0.15019489522E+03  0.41800000000E+01 0. -1.
         -5    1    3    3    0  502 -0.51164193678E+02 -0.38292356457E+02  0.14899049905E+03  0.16217188562E+03  0.41800000000E+01 0. -1.
        -11    1    4    4    0    0  0.72693057807E+02 -0.12386728435E+02  0.27714225353E+03  0.28678483291E+03  0.00000000000E+00 0. -1.
         11    1    4    4    0    0 -0.23676720374E+02 -0.23041801369E+02  0.81234834980E+02  0.87696123702E+02  0.00000000000E+00 0.  1.
</event>
<event>
 8    1  0.6615242E-009  0.1157318E+03  0.7561462E-02  0.1250309E+00
         -2   -1    0    0    0  501 -0.00000000000E+00  0.00000000000E+00  0.95244924223E+02  0.95244924223E+02  0.00000000000E+00 0.  1.
          2   -1    0    0  501    0  0.00000000000E+00 -0.00000000000E+00 -0.14962165008E+03  0.14962165008E+03  0.00000000000E+00 0. -1.
         25    2    1    2    0    0 -0.26019522501E+02  0.42235000593E+02 -0.23037635242E+02  0.13652704973E+03  0.12509233327E+03 0.  0.
         23    2    1    2    0    0  0.26019522501E+02 -0.42235000593E+02 -0.31339090619E+02  0.10833952458E+03  0.91074162960E+02 0.  0.
          5    1    3    3  502    0  0.87416512832E+01  0.77512118283E+02 -0.34699007625E+02  0.85475367669E+02  0.41800000000E+01 0. -1.
         -5    1    3    3    0  502 -0.34761173784E+02 -0.35277117691E+02  0.11661372383E+02  0.51051682061E+02  0.41800000000E+01 0. -1.
        -11    1    4    4    0    0 -0.34091841891E+01 -0.65835089581E+02 -0.18130233559E+02  0.68370950892E+02  0.00000000000E+00 0. -1.
         11    1    4    4    0    0  0.29428706690E+02  0.23600088988E+02 -0.13208857060E+02  0.39968573686E+02  0.00000000000E+00 0.  1.
</event>
<event>
 8    1  0.6615242E-009  0.9923476E+02  0.7561462E-02  0.1281913E+00
          3   -1    0    0  501    0  0.00000000000E+00  0.00000000000E+00  0.49177028922E+02  0.49177028922E+02  0.00000000000E+00 0. -1.
         -3   -1    0    0    0  501 -0.00000000000E+00 -0.00000000000E+00 -0.29063431249E+03  0.29063431249E+03  0.00000000000E+00 0.  1.
         25    2    1    2    0    0 -0.29638645621E+02  0.40334113689E+02 -0.12797447886E+03  0.18582223600E+03  0.12508855307E+03 0.  0.
         23    2    1    2    0    0  0.29638645621E+02 -0.40334113689E+02 -0.11348280470E+03  0.15398910541E+03  0.91263396723E+02 0.  0.
          5    1    3    3  502    0 -0.46530123834E+02  0.58741707478E+02 -0.23986854911E+02  0.78793922545E+02  0.41800000000E+01 0. -1.
         -5    1    3    3    0  502  0.16891478214E+02 -0.18407593789E+02 -0.10398762395E+03  0.10702831345E+03  0.41800000000E+01 0. -1.
        -11    1    4    4    0    0 -0.12615187139E+02 -0.52596152676E+02 -0.36276940297E+02  0.65126911643E+02  0.00000000000E+00 0. -1.
         11    1    4    4    0    0  0.42253832760E+02  0.12262038986E+02 -0.77205864408E+02  0.88862193772E+02  0.00000000000E+00 0.  1.
</event>
<event>
 8    1  0.6615242E-009  0.6249380E+02  0.7561462E-02  0.1387655E+00
         -1   -1    0    0    0  501 -0.00000000000E+00  0.00000000000E+00  0.53315589006E+02  0.53315589006E+02  0.00000000000E+00 0.  1.
          1   -1    0    0  501    0  0.00000000000E+00 -0.00000000000E+00 -0.25327175606E+03  0.25327175606E+03  0.00000000000E+00 0. -1.
         25    2    1    2    0    0  0.34531711485E+02 -0.18110705789E+02 -0.14314653394E+03  0.19406435335E+03  0.12509838647E+03 0.  0.
         23    2    1    2    0    0 -0.34531711485E+02  0.18110705789E+02 -0.56809633108E+02  0.11252299172E+03  0.88958712270E+02 0.  0.
          5    1    3    3  502    0  0.30049796155E+02 -0.12744802664E+02  0.14676089551E+02  0.36031656198E+02  0.41800000000E+01 0. -1.
         -5    1    3    3    0  502  0.44819153299E+01 -0.53659031248E+01 -0.15782262350E+03  0.15803269715E+03  0.41800000000E+01 0. -1.
        -11    1    4    4    0    0 -0.55760968076E+02 -0.40912369323E+00 -0.82312149617E+01  0.56366708639E+02  0.00000000000E+00 0.  1.
         11    1    4    4    0    0  0.21229256592E+02  0.18519829482E+02 -0.48578418147E+02  0.56156283078E+02  0.00000000000E+00 0. -1.
</event>
<event>
 8    1  0.6615242E-009  0.2089562E+03  0.7561462E-02  0.1142395E+00
          1   -1    0    0  501    0  0.00000000000E+00  0.00000000000E+00  0.70912111660E+03  0.70912111660E+03  0.00000000000E+00 0. -1.
         -1   -1    0    0    0  501 -0.00000000000E+00 -0.00000000000E+00 -0.81345526387E+02  0.81345526387E+02  0.00000000000E+00 0.  1.
         25    2    1    2    0    0 -0.20585565736E+02 -0.18808561987E+03  0.46128034983E+03  0.51402996831E+03  0.12508909327E+03 0.  0.
         23    2    1    2    0    0  0.20585565736E+02  0.18808561987E+03  0.16649524038E+03  0.27643667468E+03  0.11356321640E+03 0.  0.
          5    1    3    3  502    0 -0.47430510108E+01  0.18491854566E+02  0.42896056618E+02  0.47137981411E+02  0.41800000000E+01 0.  1.
         -5    1    3    3    0  502 -0.15842514725E+02 -0.20657747444E+03  0.41838429322E+03  0.46689198689E+03  0.41800000000E+01 0.  1.
        -11    1    4    4    0    0 -0.54264581674E+01  0.12300659429E+02 -0.16550827480E+02  0.21323286823E+02  0.00000000000E+00 0.  1.
         11    1    4    4    0    0  0.26012023903E+02  0.17578496044E+03  0.18304606786E+03  0.25511338786E+03  0.00000000000E+00 0. -1.
</event>
<event>
 8    1  0.6615242E-009  0.1812980E+03  0.7561462E-02  0.1166553E+00
          1   -1    0    0  501    0  0.00000000000E+00  0.00000000000E+00  0.92962454020E+02  0.92962454020E+02  0.00000000000E+00 0. -1.
         -1   -1    0    0    0  501 -0.00000000000E+00 -0.00000000000E+00 -0.44258505226E+03  0.44258505226E+03  0.00000000000E+00 0.  1.
         25    2    1    2    0    0 -0.87209327244E+02  0.14207191192E+03 -0.13221086979E+03  0.24681426414E+03  0.12509065503E+03 0.  0.
         23    2    1    2    0    0  0.87209327244E+02 -0.14207191192E+03 -0.21741172845E+03  0.28873324214E+03  0.91154432345E+02 0.  0.
          5    1    3    3  502    0 -0.74226766722E+02  0.14570186880E+03 -0.61569500255E+02  0.17477678115E+03  0.41800000000E+01 0. -1.
         -5    1    3    3    0  502 -0.12982560522E+02 -0.36299568757E+01 -0.70641369538E+02  0.72037482986E+02  0.41800000000E+01 0. -1.
        -11    1    4    4    0    0  0.46906833747E+02 -0.13636228684E+03 -0.19416671282E+03  0.24185871225E+03  0.00000000000E+00 0.  1.
         11    1    4    4    0    0  0.40302493498E+02 -0.57096250757E+01 -0.23245015624E+02  0.46874529885E+02  0.00000000000E+00 0. -1.
</event>
<event>
 8    1  0.6615242E-009  0.1777224E+03  0.7561462E-02  0.1170026E+00
         -2   -1    0    0    0  501 -0.00000000000E+00  0.00000000000E+00  0.21720997095E+03  0.21720997095E+03  0.00000000000E+00 0.  1.
          2   -1    0    0  501    0  0.00000000000E+00 -0.00000000000E+00 -0.32189740684E+03  0.32189740684E+03  0.00000000000E+00 0. -1.
         25    2    1    2    0    0  0.10790943664E+03  0.96161430655E+02  0.14275166569E+03  0.23857947382E+03  0.12510259794E+03 0.  0.
         23    2    1    2    0    0 -0.10790943664E+03 -0.96161430655E+02 -0.24743910159E+03  0.30052790396E+03  0.90550785771E+02 0.  0.
          5    1    3    3  502    0  0.49404381534E+02 -0.25180020165E+02  0.32154578169E+02  0.64235625844E+02  0.41800000000E+01 0.  1.
         -5    1    3    3    0  502  0.58505055108E+02  0.12134145082E+03  0.11059708752E+03  0.17434384798E+03  0.41800000000E+01 0.  1.
        -11    1    4    4    0    0 -0.61947000214E+02 -0.40006381997E+01 -0.13174216826E+03  0.14563459355E+03  0.00000000000E+00 0.  1.
         11    1    4    4    0    0 -0.45962436427E+02 -0.92160792455E+02 -0.11569693333E+03  0.15489331041E+03  0.00000000000E+00 0. -1.
</event>
<event>
 8    1  0.6615242E-009  0.7758449E+02  0.7561462E-02  0.1336049E+00
          1   -1    0    0  501    0  0.00000000000E+00  0.00000000000E+00  0.51234220641E+02  0.51234220641E+02  0.00000000000E+00 0. -1.
         -1   -1    0    0    0  501 -0.00000000000E+00 -0.00000000000E+00 -0.23352336670E+03  0.23352336670E+03  0.00000000000E+00 0.  1.
         25    2    1    2    0    0  0.13052150028E+02  0.83349242523E+01 -0.10259370630E+03  0.16251641441E+03  0.12508511822E+03 0.  0.
         23    2    1    2    0    0 -0.13052150028E+02 -0.83349242523E+01 -0.79695439766E+02  0.12224117293E+03  0.91387699703E+02 0.  0.
          5    1    3    3  502    0  0.36314428034E+02  0.18556978124E+02 -0.12300556542E+03  0.12965701155E+03  0.41800000000E+01 0.  1.
         -5    1    3    3    0  502 -0.23262278006E+02 -0.10222053872E+02  0.20411859125E+02  0.32859402860E+02  0.41800000000E+01 0.  1.
        -11    1    4    4    0    0  0.37283802127E+02 -0.77678925352E+01 -0.16651678334E+02  0.41565616161E+02  0.00000000000E+00 0. -1.
         11    1    4    4    0    0 -0.50335952156E+02 -0.56703171715E+00 -0.63043761432E+02  0.80675556768E+02  0.00000000000E+00 0.  1.
</event>
<event>
 8    1  0.6615242E-009  0.1984839E+03  0.7561462E-02  0.1151024E+00
          1   -1    0    0  501    0  0.00000000000E+00  0.00000000000E+00  0.20381101337E+04  0.20381101337E+04  0.00000000000E+00 0. -1.
         -1   -1    0    0    0  501 -0.00000000000E+00 -0.00000000000E+00 -0.20951242636E+02  0.20951242636E+02  0.00000000000E+00 0.  1.
         25    2    1    2    0    0  0.66340239321E+02 -0.16090315821E+03  0.11759489982E+04  0.11953218241E+04  0.12508942111E+03 0.  0.
         23    2    1    2    0    0 -0.66340239321E+02  0.16090315821E+03  0.84120989292E+03  0.86373955223E+03  0.90117015408E+02 0.  0.
          5    1    3    3  502    0  0.44661784391E+02  0.35592741951E+01  0.34895237652E+03  0.35184169294E+03  0.41800000000E+01 0. -1.
         -5    1    3    3    0  502  0.21678454930E+02 -0.16446243241E+03  0.82699662164E+03  0.84348013117E+03  0.41800000000E+01 0. -1.
        -11    1    4    4    0    0 -0.46717708342E+01  0.97403579260E+02  0.57469817893E+03  0.58291275468E+03  0.00000000000E+00 0.  1.
         11    1    4    4    0    0 -0.61668468486E+02  0.63499578951E+02  0.26651171398E+03  0.28082679755E+03  0.00000000000E+00 0. -1.
</event>
<event>
 8    1  0.6615242E-009  0.4809991E+03  0.7561462E-02  0.1018861E+00
          2   -1    0    0  501    0  0.00000000000E+00  0.00000000000E+00  0.41115518237E+03  0.41115518237E+03  0.00000000000E+00 0.  1.
         -2   -1    0    0    0  501 -0.00000000000E+00 -0.00000000000E+00 -0.57316360767E+03  0.57316360767E+03  0.00000000000E+00 0. -1.
         25    2    1    2    0    0 -0.45834680910E+03 -0.11851654454E+03 -0.53505434257E+02  0.49258230867E+03  0.12508609269E+03 0.  0.
         23    2    1    2    0    0  0.45834680910E+03  0.11851654454E+03 -0.10850299104E+03  0.49173648137E+03  0.76836835609E+02 0.  0.
          5    1    3    3  502    0 -0.36778897350E+03 -0.14288994817E+03 -0.29536809409E+02  0.39569705815E+03  0.41800000000E+01 0. -1.
         -5    1    3    3    0  502 -0.90557835597E+02  0.24373403630E+02 -0.23968624847E+02  0.96885250527E+02  0.41800000000E+01 0. -1.
        -11    1    4    4    0    0  0.67140154729E+02  0.21108906199E+02  0.11026734163E+02  0.71238859931E+02  0.00000000000E+00 0.  1.
         11    1    4    4    0    0  0.39120665437E+03  0.97407638341E+02 -0.11952972520E+03  0.42049762144E+03  0.00000000000E+00 0. -1.
</event>
<event>
 8    1  0.6615242E-009  0.1234731E+03  0.7561462E-02  0.1237475E+00
         -2   -1    0    0    0  501 -0.00000000000E+00  0.00000000000E+00  0.70864962807E+03  0.70864962807E+03  0.00000000000E+00 0.  1.
          2   -1    0    0  501    0  0.00000000000E+00 -0.00000000000E+00 -0.32197295525E+02  0.32197295525E+02  0.00000000000E+00 0. -1.
         25    2    1    2    0    0 -0.96289183675E+02 -0.20083284664E+01  0.46221797374E+03  0.48843460953E+03  0.12508905732E+03 0.  0.
         23    2    1    2    0    0  0.96289183675E+02  0.20083284664E+01  0.21423435880E+03  0.25241231406E+03  0.92411987986E+02 0.  0.
          5    1    3    3  502    0 -0.12165937182E+03  0.83780636874E+01  0.30002947616E+03  0.32389250326E+03  0.41800000000E+01 0.  1.
         -5    1    3    3    0  502  0.25370188145E+02 -0.10386392154E+02  0.16218849758E+03  0.16454210627E+03  0.41800000000E+01 0.  1.
        -11    1    4    4    0    0  0.61567246254E+02  0.75732404833E+01  0.38090541289E+02  0.72792644673E+02  0.00000000000E+00 0. -1.
         11    1    4    4    0    0  0.34721937420E+02 -0.55649120169E+01  0.17614381751E+03  0.17961966939E+03  0.00000000000E+00 0.  1.
</event>
<event>
 8    1  0.6615242E-009  0.1116433E+03  0.7561462E-02  0.1257557E+00
          2   -1    0    0  501    0  0.00000000000E+00  0.00000000000E+00  0.13527857370E+03  0.13527857370E+03  0.00000000000E+00 0. -1.
         -2   -1    0    0    0  501 -0.00000000000E+00 -0.00000000000E+00 -0.16278208975E+03  0.16278208975E+03  0.00000000000E+00 0.  1.
         25    2    1    2    0    0  0.33118434604E+02  0.12770895800E+02 -0.11024959425E+03  0.17047815563E+03  0.12509157455E+03 0.  0.
         23    2    1    2    0    0 -0.33118434604E+02 -0.12770895800E+02  0.82746078204E+02  0.12758250783E+03  0.90390576695E+02 0.  0.
          5    1    3    3  502    0  0.78043225149E+02 -0.46116489286E+01 -0.86297346953E+02  0.11651916919E+03  0.41800000000E+01 0.  1.
         -5    1    3    3    0  502 -0.44924790545E+02  0.17382544728E+02 -0.23952247300E+02  0.53958986438E+02  0.41800000000E+01 0.  1.
        -11    1    4    4    0    0 -0.64310663543E+02 -0.50378522299E+01  0.60983012935E+02  0.88770317488E+02  0.00000000000E+00 0. -1.
         11    1    4    4    0    0  0.31192228938E+02 -0.77330435698E+01  0.21763065269E+02  0.38812190339E+02  0.00000000000E+00 0.  1.
</event>
<event>
 8    1  0.6615242E-009  0.1223995E+03  0.7561462E-02  0.1239190E+00
         -1   -1    0    0    0  501 -0.00000000000E+00  0.00000000000E+00  0.98988263780E+02  0.98988263780E+02  0.00000000000E+00 0.  1.
          1   -1    0    0  501    0  0.00000000000E+00 -0.00000000000E+00 -0.20332584244E+03  0.20332584244E+03  0.00000000000E+00 0. -1.
         25    2    1    2    0    0  0.46059672086E+02  0.72391570081E+02 -0.88154115262E+02  0.17544607636E+03  0.12509254518E+03 0.  0.
         23    2    1    2    0    0 -0.46059672086E+02 -0.72391570081E+02 -0.16183463396E+02  0.12686802986E+03  0.92041076166E+02 0.  0.
          5    1    3    3  502    0 -0.26814636497E+02 -0.19027694479E+02 -0.30427273067E+02  0.44992990943E+02  0.41800000000E+01 0.  1.
         -5    1    3    3    0  502  0.72874308583E+02  0.91419264560E+02 -0.57726842194E+02  0.13045308541E+03  0.41800000000E+01 0.  1.
        -11    1    4    4    0    0 -0.23036016955E+02 -0.67239395891E+02  0.28309824679E+02  0.76506474303E+02  0.00000000000E+00 0.  1.
         11    1    4    4    0    0 -0.23023655131E+02 -0.51521741901E+01 -0.44493288075E+02  0.50361555558E+02  0.00000000000E+00 0. -1.
</event>
<event>
 8    1  0.6615242E-009  0.9215270E+02  0.7561462E-02  0.1297721E+00
          2   -1    0    0  501    0  0.00000000000E+00  0.00000000000E+00  0.64766731010E+02  0.64766731010E+02  0.00000000000E+00 0. -1.
         -2   -1    0    0    0  501 -0.00000000000E+00 -0.00000000000E+00 -0.20078840167E+03  0.20078840167E+03  0.00000000000E+00 0.  1.
         25    2    1    2    0    0 -0.20039532611E+02 -0.61920265004E+01 -0.11590774994E+03  0.17181753327E+03  0.12508690653E+03 0.  0.
         23    2    1    2    0    0  0.20039532611E+02  0.61920265004E+01 -0.20113920718E+02  0.93737599403E+02  0.89119266580E+02 0.  0.
          5    1    3    3  502    0  0.21463914769E+02  0.31164316300E+02  0.51682340498E+01  0.38420011593E+02  0.41800000000E+01 0.  1.
         -5    1    3    3    0  502 -0.41503447380E+02 -0.37356342801E+02 -0.12107598399E+03  0.13339752168E+03  0.41800000000E+01 0.  1.
        -11    1    4    4    0    0 -0.34933023356E+02  0.46852339906E+01 -0.18964610982E+00  0.35246326106E+02  0.00000000000E+00 0. -1.
         11    1    4    4    0    0  0.54972555967E+02  0.15067925098E+01 -0.19924274608E+02  0.58491273297E+02  0.00000000000E+00 0.  1.
</event>
<event>
 8    1  0.6615242E-009  0.1729626E+03  0.7561462E-02  0.1174793E+00
         -2   -1    0    0    0  501 -0.00000000000E+00  0.00000000000E+00  0.64584693486E+03  0.64584693486E+03  0.00000000000E+00 0.  1.
          2   -1    0    0  501    0  0.00000000000E+00 -0.00000000000E+00 -0.50318928360E+02  0.50318928360E+02  0.00000000000E+00 0. -1.
         25    2    1    2    0    0 -0.67224153021E+02 -0.11819879023E+03  0.22647494555E+03  0.29228129137E+03  0.12508961412E+03 0.  0.
         23    2    1    2    0    0  0.67224153021E+02  0.11819879023E+03  0.36905306095E+03  0.40388457186E+03  0.91828888819E+02 0.  0.
          5    1    3    3  502    0 -0.10440269512E+03 -0.89990932632E+02  0.17038724259E+03  0.21919757193E+03  0.41800000000E+01 0.  1.
         -5    1    3    3    0  502  0.37178542098E+02 -0.28207857603E+02  0.56087702960E+02  0.73083719435E+02  0.41800000000E+01 0.  1.
        -11    1    4    4    0    0  0.28011834184E+02 -0.79105333371E+01  0.41317028695E+02  0.50540441749E+02  0.00000000000E+00 0. -1.
         11    1    4    4    0    0  0.39212318837E+02  0.12610932357E+03  0.32773603226E+03  0.35334413011E+03  0.00000000000E+00 0.  1.
</event>
<event>
 8    1  0.6615242E-009  0.1861716E+03  0.7561462E-02  0.1161960E+00
         -2   -1    0    0    0  501 -0.00000000000E+00  0.00000000000E+00  0.73896632918E+02  0.73896632918E+02  0.00000000000E+00 0.  1.
          2   -1    0    0  501    0  0.00000000000E+00 -0.00000000000E+00 -0.64756724939E+03  0.64756724939E+03  0.00000000000E+00 0. -1.
         25    2    1    2    0    0 -0.17146815488E+03 -0.66280805333E+02 -0.22306197702E+03  0.31495335756E+03  0.12507796989E+03 0.  0.
         23    2    1    2    0    0  0.17146815488E+03  0.66280805333E+02 -0.35060863945E+03  0.40651052475E+03  0.92357541002E+02 0.  0.
          5    1    3    3  502    0 -0.15043949063E+03 -0.57963696574E+02 -0.10000016279E+03  0.18976125901E+03  0.41800000000E+01 0.  1.
         -5    1    3    3    0  502 -0.21028664250E+02 -0.83171087592E+01 -0.12306181423E+03  0.12519209855E+03  0.41800000000E+01 0.  1.
        -11    1    4    4    0    0  0.81478498550E+02  0.10388604757E+02 -0.23859754886E+03  0.25233996742E+03  0.00000000000E+00 0. -1.
         11    1    4    4    0    0  0.89989656330E+02  0.55892200576E+02 -0.11201109058E+03  0.15417055732E+03  0.00000000000E+00 0.  1.
</event>
<event>
 8    1  0.6615242E-009  0.2062651E+03  0.7561462E-02  0.1144558E+00
          1   -1    0    0  501    0  0.00000000000E+00  0.00000000000E+00  0.41717161487E+03  0.41717161487E+03  0.00000000000E+00 0. -1.
         -1   -1    0    0    0  501 -0.00000000000E+00 -0.00000000000E+00 -0.27507479387E+03  0.27507479387E+03  0.00000000000E+00 0.  1.
         25    2    1    2    0    0  0.15440103379E+03  0.11111774057E+03  0.33610848826E+03  0.40595975562E+03  0.12509027060E+03 0.  0.
         23    2    1    2    0    0 -0.15440103379E+03 -0.11111774057E+03 -0.19401166726E+03  0.28628665313E+03  0.90181423934E+02 0.  0.
          5    1    3    3  502    0  0.20866894570E+02 -0.84921696897E+01  0.13325646587E+03  0.13521206430E+03  0.41800000000E+01 0.  1.
         -5    1    3    3    0  502  0.13353413922E+03  0.11960991026E+03  0.20285202239E+03  0.27074769132E+03  0.41800000000E+01 0.  1.
        -11    1    4    4    0    0 -0.44107081755E+00 -0.41205403666E+02 -0.43389929917E+02  0.59839500775E+02  0.00000000000E+00 0. -1.
         11    1    4    4    0    0 -0.15395996297E+03 -0.69912336900E+02 -0.15062173734E+03  0.22644715235E+03  0.00000000000E+00 0.  1.
</event>
<event>
 8    1  0.6615242E-009  0.1135840E+03  0.7561462E-02  0.1254073E+00
          1   -1    0    0  501    0  0.00000000000E+00  0.00000000000E+00  0.40401906408E+02  0.40401906408E+02  0.00000000000E+00 0. -1.
         -1   -1    0    0    0  501 -0.00000000000E+00 -0.00000000000E+00 -0.37403502216E+03  0.37403502216E+03  0.00000000000E+00 0.  1.
         25    2    1    2    0    0 -0.38325600842E+02 -0.43332774944E+02 -0.21292528182E+03  0.25363592580E+03  0.12508967246E+03 0.  0.
         23    2    1    2    0    0  0.38325600842E+02  0.43332774944E+02 -0.12070783394E+03  0.16080100277E+03  0.89106679060E+02 0.  0.
          5    1    3    3  502    0 -0.73027313417E+02 -0.58221243647E+02 -0.18216050034E+03  0.20475014530E+03  0.41800000000E+01 0. -1.
         -5    1    3    3    0  502  0.34701712575E+02  0.14888468703E+02 -0.30764781478E+02  0.48885780502E+02  0.41800000000E+01 0. -1.
        -11    1    4    4    0    0 -0.22805872946E+02  0.19736971481E+02 -0.75196108867E+02  0.81019199409E+02  0.00000000000E+00 0.  1.
         11    1    4    4    0    0  0.61131473788E+02  0.23595803463E+02 -0.45511725073E+02  0.79781803362E+02  0.00000000000E+00 0. -1.
</event>
<event>
 8    1  0.6615242E-009  0.1097666E+03  0.7561462E-02  0.1261003E+00
          2   -1    0    0  501    0  0.00000000000E+00  0.00000000000E+00  0.34729956281E+03  0.34729956281E+03  0.00000000000E+00 0.  1.
         -2   -1    0    0    0  501 -0.00000000000E+00 -0.00000000000E+00 -0.57654601695E+02  0.57654601695E+02  0.00000000000E+00 0. -1.
         25    2    1    2    0    0 -0.42178064049E+02  0.30178467433E+02  0.26253772021E+03  0.29540698940E+03  0.12509798507E+03 0.  0.
         23    2    1    2    0    0  0.42178064049E+02 -0.30178467433E+02  0.27107240899E+02  0.10954717510E+03  0.92606976412E+02 0.  0.
          5    1    3    3  502    0 -0.79110437213E+02 -0.64955492749E+01  0.12329851530E+03  0.14669918102E+03  0.41800000000E+01 0. -1.
         -5    1    3    3    0  502  0.36932373164E+02  0.36674016708E+02  0.13923920491E+03  0.14870780838E+03  0.41800000000E+01 0. -1.
        -11    1    4    4    0    0 -0.20140434885E+02 -0.83020193184E+01  0.36828320934E+02  0.42788852111E+02  0.00000000000E+00 0.  1.
         11    1    4    4    0    0  0.62318498934E+02 -0.21876448114E+02 -0.97210800354E+01  0.66758322991E+02  0.00000000000E+00 0. -1.
</event>
<event>
 8    1  0.6615242E-009  0.1368127E+03  0.7561462E-02  0.1217683E+00
         -2   -1    0    0    0  501 -0.00000000000E+00  0.00000000000E+00  0.14170825095E+02  0.14170825095E+02  0.00000000000E+00 0.  1.
          2   -1    0    0  501    0  0.00000000000E+00 -0.00000000000E+00 -0.21935025541E+04  0.21935025541E+04  0.00000000000E+00 0. -1.
         25    2    1    2    0    0  0.85874131685E+01  0.11765278084E+03 -0.16073916468E+04  0.16165617126E+04  0.12509174230E+03 0.  0.
         23    2    1    2    0    0 -0.85874131685E+01 -0.11765278084E+03 -0.57194008225E+03  0.59111166662E+03  0.91551210973E+02 0.  0.
          5    1    3    3  502    0  0.44533528195E+01 -0.76755945405E+00 -0.84357094826E+03  0.84359340837E+03  0.41800000000E+01 0.  1.
         -5    1    3    3    0  502  0.41340603490E+01  0.11842034029E+03 -0.76382069854E+03  0.77296830425E+03  0.41800000000E+01 0.  1.
        -11    1    4    4    0    0 -0.49326960935E+02 -0.52296002446E+02 -0.29832765189E+03  0.30686708658E+03  0.00000000000E+00 0.  1.
         11    1    4    4    0    0  0.40739547766E+02 -0.65356778391E+02 -0.27361243036E+03  0.28424458004E+03  0.00000000000E+00 0. -1.
</event>
<event>
 8    1  0.6615242E-009  0.1128469E+03  0.7561462E-02  0.1255387E+00
         -2   -1    0    0    0  501 -0.00000000000E+00  0.00000000000E+00  0.12147424264E+03  0.12147424264E+03  0.00000000000E+00 0.  1.
          2   -1    0    0  501    0  0.00000000000E+00 -0.00000000000E+00 -0.12360639092E+03  0.12360639092E+03  0.00000000000E+00 0. -1.
         25    2    1    2    0    0 -0.40504160043E+02 -0.35747846042E+02 -0.30351789094E+01  0.13628899002E+03  0.12508789315E+03 0.  0.
         23    2    1    2    0    0  0.40504160043E+02  0.35747846042E+02  0.90303062512E+00  0.10879164354E+03  0.94426218613E+02 0.  0.
          5    1    3    3  502    0  0.18538505663E+02  0.34957948701E+02 -0.16547992539E+02  0.43093419761E+02  0.41800000000E+01 0. -1.
         -5    1    3    3    0  502 -0.59042665705E+02 -0.70705794743E+02  0.13512813630E+02  0.93195570260E+02  0.41800000000E+01 0. -1.
        -11    1    4    4    0    0  0.87095271850E+01  0.55555198478E+02  0.27746917134E+02  0.62706677094E+02  0.00000000000E+00 0.  1.
         11    1    4    4    0    0  0.31794632858E+02 -0.19807352436E+02 -0.26843886509E+02  0.46084966442E+02  0.00000000000E+00 0. -1.
</event>
<event>
 8    1  0.6615242E-009  0.1006146E+03  0.7561462E-02  0.1279009E+00
          2   -1    0    0  501    0  0.00000000000E+00  0.00000000000E+00  0.16788525992E+04  0.16788525992E+04  0.00000000000E+00 0. -1.
         -2   -1    0    0    0  501 -0.00000000000E+00 -0.00000000000E+00 -0.86662801431E+01  0.86662801431E+01  0.00000000000E+00 0.  1.
         25    2    1    2    0    0  0.21632803621E+02  0.36926290707E+02  0.11546479867E+04  0.11621921681E+04  0.12508850128E+03 0.  0.
         23    2    1    2    0    0 -0.21632803621E+02 -0.36926290707E+02  0.51553833236E+03  0.52532671129E+03  0.91415821001E+02 0.  0.
          5    1    3    3  502    0  0.18145651870E+02  0.67784692562E+02  0.35295891297E+03  0.35989094997E+03  0.41800000000E+01 0.  1.
         -5    1    3    3    0  502  0.34871517512E+01 -0.30858401854E+02  0.80168907378E+03  0.80230121813E+03  0.41800000000E+01 0.  1.
        -11    1    4    4    0    0  0.56489023936E+01 -0.62172017782E+02  0.36270041753E+03  0.36803377938E+03  0.00000000000E+00 0.  1.
         11    1    4    4    0    0 -0.27281706015E+02  0.25245727074E+02  0.15283791483E+03  0.15729293191E+03  0.00000000000E+00 0. -1.
</event>
<event>
 8    1  0.6615242E-009  0.8017346E+02  0.7561462E-02  0.1328560E+00
         -2   -1    0    0    0  501 -0.00000000000E+00  0.00000000000E+00  0.55589612165E+02  0.55589612165E+02  0.00000000000E+00 0.  1.
          2   -1    0    0  501    0  0.00000000000E+00 -0.00000000000E+00 -0.25060554202E+03  0.25060554202E+03  0.00000000000E+00 0. -1.
         25    2    1    2    0    0 -0.27674691242E+02  0.54803123226E+01 -0.13652671267E+03  0.18730348504E+03  0.12508848818E+03 0.  0.
         23    2    1    2    0    0  0.27674691242E+02 -0.54803123226E+01 -0.58489217182E+02  0.11889166915E+03  0.99590753122E+02 0.  0.
          5    1    3    3  502    0 -0.11191935314E+01 -0.49708443666E+02 -0.16612239595E+02  0.52589170656E+02  0.41800000000E+01 0. -1.
         -5    1    3    3    0  502 -0.26555497711E+02  0.55188755989E+02 -0.11991447308E+03  0.13471431438E+03  0.41800000000E+01 0. -1.
        -11    1    4    4    0    0  0.29807202247E+02 -0.19018339441E+02  0.19041479705E+02  0.40158990154E+02  0.00000000000E+00 0.  1.
         11    1    4    4    0    0 -0.21325110042E+01  0.13538027118E+02 -0.77530696887E+02  0.78732678992E+02  0.00000000000E+00 0. -1.
</event>
<event>
 8    1  0.6615242E-009  0.1146200E+03  0.7561462E-02  0.1252246E+00
         -3   -1    0    0    0  501 -0.00000000000E+00  0.00000000000E+00  0.28629617249E+03  0.28629617249E+03  0.00000000000E+00 0.  1.
          3   -1    0    0  501    0  0.00000000000E+00 -0.00000000000E+00 -0.64503601501E+02  0.64503601501E+02  0.00000000000E+00 0. -1.
         25    2    1    2    0    0  0.52218673049E+02 -0.34227915401E+00  0.40959703554E+02  0.14160630274E+03  0.12509092969E+03 0.  0.
         23    2    1    2    0    0 -0.52218673049E+02  0.34227915401E+00  0.18083286743E+03  0.20919347125E+03  0.91293348606E+02 0.  0.
          5    1    3    3  502    0  0.11606924033E+02  0.60561221376E+02  0.24339082184E+02  0.66424735917E+02  0.41800000000E+01 0.  1.
         -5    1    3    3    0  502  0.40611749016E+02 -0.60903500530E+02  0.16620621371E+02  0.75181566822E+02  0.41800000000E+01 0.  1.
        -11    1    4    4    0    0 -0.30929941713E+02  0.39123889460E+02  0.48127326215E+02  0.69307860662E+02  0.00000000000E+00 0. -1.
         11    1    4    4    0    0 -0.21288731336E+02 -0.38781610306E+02  0.13270554122E+03  0.13988561059E+03  0.00000000000E+00 0.  1.
</event>
<event>
 8    1  0.6615242E-009  0.1119359E+03  0.7561462E-02  0.1257026E+00
         -2   -1    0    0    0  501 -0.00000000000E+00  0.00000000000E+00  0.19266683846E+03  0.19266683846E+03  0.00000000000E+00 0.  1.
          2   -1    0    0  501    0  0.00000000000E+00 -0.00000000000E+00 -0.11563234753E+03  0.11563234753E+03  0.00000000000E+00 0. -1.
         25    2    1    2    0    0 -0.65017591979E+02 -0.70402085413E+02  0.85516454309E+02  0.17928882640E+03  0.12509068078E+03 0.  0.
         23    2    1    2    0    0  0.65017591979E+02  0.70402085413E+02 -0.84819633838E+01  0.12901035959E+03  0.85953407619E+02 0.  0.
          5    1    3    3  502    0 -0.36628992020E+02 -0.25345669078E+01 -0.26314232741E+02  0.45365386922E+02  0.41800000000E+01 0. -1.
         -5    1    3    3    0  502 -0.28388599959E+02 -0.67867518505E+02  0.11183068705E+03  0.13392343948E+03  0.41800000000E+01 0. -1.
        -11    1    4    4    0    0 -0.11778484657E+02  0.74883567437E+01  0.21208749263E+02  0.25389352746E+02  0.00000000000E+00 0.  1.
         11    1    4    4    0    0  0.76796076636E+02  0.62913728669E+02 -0.29690712647E+02  0.10362100684E+03  0.00000000000E+00 0. -1.
</event>
<event>
 8    1  0.6615242E-009  0.1313089E+03  0.7561462E-02  0.1225526E+00
         -4   -1    0    0    0  501 -0.00000000000E+00  0.00000000000E+00  0.14845031659E+03  0.14845031659E+03  0.00000000000E+00 0.  1.
          4   -1    0    0  501    0  0.00000000000E+00 -0.00000000000E+00 -0.12938455889E+03  0.12938455889E+03  0.00000000000E+00 0. -1.
         25    2    1    2    0    0  0.83892895106E+02  0.39385560181E+00  0.92376997113E+01  0.15090532435E+03  0.12509559884E+03 0.  0.
         23    2    1    2    0    0 -0.83892895106E+02 -0.39385560181E+00  0.98280579900E+01  0.12692955114E+03  0.94743586893E+02 0.  0.
          5    1    3    3  502    0  0.92849153340E+02 -0.35317853602E+02 -0.22701191161E+02  0.10198594285E+03  0.41800000000E+01 0. -1.
         -5    1    3    3    0  502 -0.89562582336E+01  0.35711709204E+02  0.31938890873E+02  0.48919381497E+02  0.41800000000E+01 0. -1.
        -11    1    4    4    0    0 -0.69028787558E+02 -0.42786312402E+02  0.14160806581E+01  0.81225903043E+02  0.00000000000E+00 0. -1.
         11    1    4    4    0    0 -0.14864107548E+02  0.42392456801E+02  0.84119773319E+01  0.45703648098E+02  0.00000000000E+00 0.  1.
</event>
<event>
 8    1  0.6615242E-009  0.1377970E+03  0.7561462E-02  0.1216324E+00
          2   -1    0    0  501    0  0.00000000000E+00  0.00000000000E+00  0.12028720861E+04  0.12028720861E+04  0.00000000000E+00 0. -1.
         -2   -1    0    0    0  501 -0.00000000000E+00 -0.00000000000E+00 -0.19699218246E+02  0.19699218246E+02  0.00000000000E+00 0.  1.
         25    2    1    2    0    0  0.29466211216E+02  0.10157123128E+03  0.53241150035E+03  0.55704016238E+03  0.12508702640E+03 0.  0.
         23    2    1    2    0    0 -0.29466211216E+02 -0.10157123128E+03  0.65076136755E+03  0.66553114201E+03  0.90864574304E+02 0.  0.
          5    1    3    3  502    0  0.43329844414E+02 -0.64436941233E+01  0.76213401873E+02  0.88005406857E+02  0.41800000000E+01 0.  1.
         -5    1    3    3    0  502 -0.13863633198E+02  0.10801492540E+03  0.45619809847E+03  0.46903475552E+03  0.41800000000E+01 0.  1.
        -11    1    4    4    0    0 -0.18379069837E+02  0.19609768145E+01  0.24592629677E+02  0.30764152395E+02  0.00000000000E+00 0.  1.
         11    1    4    4    0    0 -0.11087141380E+02 -0.10353220810E+03  0.62616873788E+03  0.63476698962E+03  0.00000000000E+00 0. -1.
</event>
<event>
 8    1  0.6615242E-009  0.1865674E+03  0.7561462E-02  0.1161594E+00
          2   -1    0    0  501    0  0.00000000000E+00  0.00000000000E+00  0.47164916587E+03  0.47164916587E+03  0.00000000000E+00 0. -1.
         -2   -1    0    0    0  501 -0.00000000000E+00 -0.00000000000E+00 -0.94470927444E+02  0.94470927444E+02  0.00000000000E+00 0.  1.
         25    2    1    2    0    0 -0.37593930840E+01  0.16545548398E+03  0.97651247638E+02  0.22929192145E+03  0.12509743748E+03 0.  0.
         23    2    1    2    0    0  0.37593930840E+01 -0.16545548398E+03  0.27952699079E+03  0.33682817187E+03  0.89040600672E+02 0.  0.
          5    1    3    3  502    0  0.53021786485E+02  0.38137437860E+02  0.48337281118E+02  0.81361779445E+02  0.41800000000E+01 0. -1.
         -5    1    3    3    0  502 -0.56781179569E+02  0.12731804612E+03  0.49313966520E+02  0.14793014201E+03  0.41800000000E+01 0. -1.
        -11    1    4    4    0    0  0.17001645363E+02 -0.85302545967E+02  0.68535965592E+02  0.11073734182E+03  0.00000000000E+00 0.  1.
         11    1    4    4    0    0 -0.13242252279E+02 -0.80152938009E+02  0.21099102520E+03  0.22609083005E+03  0.00000000000E+00 0. -1.
</event>
<event>
 7    1  0.6615242E-009  0.1716382E+03  0.7561462E-02  0.1176150E+00
          2   -1    0    0  501    0  0.00000000000E+00  0.00000000000E+00  0.66520685086E+03  0.66520685086E+03  0.00000000000E+00 0. -1.
         -2   -1    0    0    0  501 -0.00000000000E+00 -0.00000000000E+00 -0.64238148254E+02  0.64238148254E+02  0.00000000000E+00 0.  1.
         25    2    1    2    0    0  0.91409544400E+02  0.12150036271E+03  0.35033729839E+03  0.40187321721E+03  0.12509123519E+03 0.  0.
          5    1    3    3  502    0  0.75694003566E+02  0.88175602462E+01  0.91825050122E+02  0.11940118833E+03  0.41800000000E+01 0.  1.
         -5    1    3    3    0  502  0.15715540834E+02  0.11268280246E+03  0.25851224827E+03  0.28247202888E+03  0.41800000000E+01 0.  1.
        -11    1    1    2    0    0 -0.32286078635E+02 -0.57728724891E+02  0.22843968960E+03  0.23782280870E+03  0.00000000000E+00 0. -1.
         11    1    1    2    0    0 -0.59123465765E+02 -0.63771637817E+02  0.22191714608E+02  0.89748973204E+02  0.00000000000E+00 0.  1.
</event>
<event>
 8    1  0.6615242E-009  0.1621588E+03  0.7561462E-02  0.1186281E+00
          2   -1    0    0  501    0  0.00000000000E+00  0.00000000000E+00  0.13031499799E+03  0.13031499799E+03  0.00000000000E+00 0. -1.
         -2   -1    0    0    0  501 -0.00000000000E+00 -0.00000000000E+00 -0.25224195819E+03  0.25224195819E+03  0.00000000000E+00 0.  1.
         25    2    1    2    0    0  0.13573300082E+03 -0.51089791160E+02 -0.91571245098E+02  0.21228707134E+03  0.12508754318E+03 0.  0.
         23    2    1    2    0    0 -0.13573300082E+03  0.51089791160E+02 -0.30355715109E+02  0.17026988484E+03  0.83885338240E+02 0.  0.
          5    1    3    3  502    0  0.12346736739E+03  0.30617668048E+01 -0.95924057444E+02  0.15643676813E+03  0.41800000000E+01 0. -1.
         -5    1    3    3    0  502  0.12265633423E+02 -0.54151557964E+02  0.43528123462E+01  0.55850303209E+02  0.41800000000E+01 0. -1.
        -11    1    4    4    0    0 -0.85439781859E+02  0.30597546538E+02  0.23541344155E+02  0.93756925413E+02  0.00000000000E+00 0. -1.
         11    1    4    4    0    0 -0.50293218957E+02  0.20492244622E+02 -0.53897059263E+02  0.76512959424E+02  0.00000000000E+00 0.  1.
</event>
<event>
 8    1  0.6615242E-009  0.1096192E+03  0.7561462E-02  0.1261277E+00
         -1   -1    0    0    0  501 -0.00000000000E+00  0.00000000000E+00  0.44927170921E+03  0.44927170921E+03  0.00000000000E+00 0.  1.
          1   -1    0    0  501    0  0.00000000000E+00 -0.00000000000E+00 -0.50308020299E+02  0.50308020299E+02  0.00000000000E+00 0. -1.
         25    2    1    2    0    0 -0.10042275842E+03 -0.23702567169E+02  0.19512229114E+03  0.25370675280E+03  0.12509142984E+03 0.  0.
         23    2    1    2    0    0  0.10042275842E+03  0.23702567169E+02  0.20384139778E+03  0.24587297671E+03  0.90860679774E+02 0.  0.
          5    1    3    3  502    0 -0.72733095217E+02 -0.18792002461E+02  0.22174056811E+02  0.78437259589E+02  0.41800000000E+01 0.  1.
         -5    1    3    3    0  502 -0.27689663208E+02 -0.49105647083E+01  0.17294823433E+03  0.17526949321E+03  0.41800000000E+01 0.  1.
        -11    1    4    4    0    0  0.14234147223E+02  0.25677413415E+02  0.12712237356E+03  0.13046853401E+03  0.00000000000E+00 0.  1.
         11    1    4    4    0    0  0.86188611202E+02 -0.19748462462E+01  0.76719024217E+02  0.11540444270E+03  0.00000000000E+00 0. -1.
</event>
<event>
 8    1  0.6615242E-009  0.9107843E+02  0.7561462E-02  0.1300261E+00
          1   -1    0    0  501    0  0.00000000000E+00  0.00000000000E+00  0.17529989794E+03  0.17529989794E+03  0.00000000000E+00 0. -1.
         -1   -1    0    0    0  501 -0.00000000000E+00 -0.00000000000E+00 -0.95049368961E+02  0.95049368961E+02  0.00000000000E+00 0.  1.
         25    2    1    2    0    0  0.16760119428E+02 -0.34168643639E+02  0.10542566508E+03  0.16796037718E+03  0.12509084552E+03 0.  0.
         23    2    1    2    0    0 -0.16760119428E+02  0.34168643639E+02 -0.25175136099E+02  0.10238888972E+03  0.91658602705E+02 0.  0.
          5    1    3    3  502    0 -0.18013462620E+02 -0.72056157748E+02  0.83688853612E+02  0.11197263650E+03  0.41800000000E+01 0. -1.
         -5    1    3    3    0  502  0.34773582048E+02  0.37887514109E+02  0.21736811466E+02  0.55987740681E+02  0.41800000000E+01 0. -1.
        -11    1    4    4    0    0  0.21694792547E+01  0.36970361789E+02 -0.55386461237E+02  0.66627129455E+02  0.00000000000E+00 0.  1.
         11    1    4    4    0    0 -0.18929598683E+02 -0.28017181506E+01  0.30211325138E+02  0.35761760269E+02  0.00000000000E+00 0. -1.
</event>
<event>
 8    1  0.6615242E-009  0.1113233E+03  0.7561462E-02  0.1258139E+00
          1   -1    0    0  501    0  0.00000000000E+00  0.00000000000E+00  0.39089478718E+03  0.39089478718E+03  0.00000000000E+00 0. -1.
         -1   -1    0    0    0  501 -0.00000000000E+00 -0.00000000000E+00 -0.68487521237E+02  0.68487521237E+02  0.00000000000E+00 0.  1.
         25    2    1    2    0    0 -0.90093509237E+02 -0.19157031858E+01  0.29004579555E+03  0.32849054884E+03  0.12513579360E+03 0.  0.
         23    2    1    2    0    0  0.90093509237E+02  0.19157031858E+01  0.32361470391E+02  0.13089175957E+03  0.89246163121E+02 0.  0.
          5    1    3    3  502    0 -0.39902487096E+02  0.20352194617E+02  0.26358241974E+03  0.26739406257E+03  0.41800000000E+01 0. -1.
         -5    1    3    3    0  502 -0.50191022141E+02 -0.22267897803E+02  0.26463375812E+02  0.61096486278E+02  0.41800000000E+01 0. -1.
        -11    1    4    4    0    0  0.51894696030E+02  0.42338642213E+02  0.87353960635E+00  0.66980468585E+02  0.00000000000E+00 0. -1.
         11    1    4    4    0    0  0.38198813207E+02 -0.40422939027E+02  0.31487930785E+02  0.63911290983E+02  0.00000000000E+00 0.  1.
</event>
<event>
 8    1  0.6615242E-009  0.1246432E+03  0.7561462E-02  0.1235628E+00
          1   -1    0    0  501    0  0.00000000000E+00  0.00000000000E+00  0.21830701606E+03  0.21830701606E+03  0.00000000000E+00 0. -1.
         -1   -1    0    0    0  501 -0.00000000000E+00 -0.00000000000E+00 -0.73898634988E+02  0.73898634988E+02  0.00000000000E+00 0.  1.
         25    2    1    2    0    0 -0.65959538883E+02 -0.42691580251E+01  0.83474602630E+02  0.16427447720E+03  0.12509679491E+03 0.  0.
         23    2    1    2    0    0  0.65959538883E+02  0.42691580251E+01  0.60933778438E+02  0.12793117384E+03  0.91019631976E+02 0.  0.
          5    1    3    3  502    0 -0.71867265660E+02 -0.53989222760E+02  0.63840280572E+02  0.11033038508E+03  0.41800000000E+01 0. -1.
         -5    1    3    3    0  502  0.59077267770E+01  0.49720064735E+02  0.19634322058E+02  0.53944092128E+02  0.41800000000E+01 0. -1.
        -11    1    4    4    0    0  0.39171680782E+02  0.45406111905E+02  0.17721916719E+02  0.62531607255E+02  0.00000000000E+00 0.  1.
         11    1    4    4    0    0  0.26787858100E+02 -0.41136953880E+02  0.43211861720E+02  0.65399566584E+02  0.00000000000E+00 0. -1.
</event>
<event>
 8    1  0.6615242E-009  0.9125574E+02  0.7561462E-02  0.1299839E+00
         -1   -1    0    0    0  501 -0.00000000000E+00  0.00000000000E+00  0.44407568658E+02  0.44407568658E+02  0.00000000000E+00 0.  1.
          1   -1    0    0  501    0  0.00000000000E+00 -0.00000000000E+00 -0.42171858511E+03  0.42171858511E+03  0.00000000000E+00 0. -1.
         25    2    1    2    0    0  0.57265503375E+01  0.36435831589E+02 -0.33291296099E+03  0.35754459538E+03  0.12508690934E+03 0.  0.
         23    2    1    2    0    0 -0.57265503375E+01 -0.36435831589E+02 -0.44398055462E+02  0.10858155839E+03  0.91969583509E+02 0.  0.
          5    1    3    3  502    0 -0.51441135662E+02  0.48370396081E+02 -0.15852239245E+03  0.17358775004E+03  0.41800000000E+01 0.  1.
         -5    1    3    3    0  502  0.57167686000E+02 -0.11934564492E+02 -0.17439056854E+03  0.18395684534E+03  0.41800000000E+01 0.  1.
        -11    1    4    4    0    0  0.70525783095E+01 -0.39468337935E+02  0.18622230965E+02  0.44207194508E+02  0.00000000000E+00 0.  1.
         11    1    4    4    0    0 -0.12779128647E+02  0.30325063456E+01 -0.63020286427E+02  0.64374363881E+02  0.00000000000E+00 0. -1.
</event>
<event>
 8    1  0.6615242E-009  0.1355442E+03  0.7561462E-02  0.1219454E+00
         -1   -1    0    0    0  501 -0.00000000000E+00  0.00000000000E+00  0.64317328289E+02  0.64317328289E+02  0.00000000000E+00 0.  1.
          1   -1    0    0  501    0  0.00000000000E+00 -0.00000000000E+00 -0.33760886659E+03  0.33760886659E+03  0.00000000000E+00 0. -1.
         25    2    1    2    0    0  0.10703745400E+02  0.97635264977E+02 -0.13510568746E+03  0.20867803261E+03  0.12508300994E+03 0.  0.
         23    2    1    2    0    0 -0.10703745400E+02 -0.97635264977E+02 -0.13818585083E+03  0.19324816227E+03  0.92748626495E+02 0.  0.
          5    1    3    3  502    0 -0.41867902787E+02  0.38306099699E+02 -0.61280810868E+01  0.57230274643E+02  0.41800000000E+01 0.  1.
         -5    1    3    3    0  502  0.52571648187E+02  0.59329165278E+02 -0.12897760638E+03  0.15144775796E+03  0.41800000000E+01 0.  1.
        -11    1    4    4    0    0 -0.35636706109E+02 -0.16919120783E+01 -0.31180908316E+02  0.47382343043E+02  0.00000000000E+00 0.  1.
         11    1    4    4    0    0  0.24932960709E+02 -0.95943352899E+02 -0.10700494252E+03  0.14586581923E+03  0.00000000000E+00 0. -1.
</event>
<event>
 8    1  0.6615242E-009  0.1329150E+03  0.7561462E-02  0.1223193E+00
          1   -1    0    0  501    0  0.00000000000E+00  0.00000000000E+00  0.52822561360E+03  0.52822561360E+03  0.00000000000E+00 0. -1.
         -1   -1    0    0    0  501 -0.00000000000E+00 -0.00000000000E+00 -0.51873002208E+02  0.51873002208E+02  0.00000000000E+00 0.  1.
         25    2    1    2    0    0 -0.49620507826E+02  0.98205726680E+02  0.35704988902E+03  0.39400345891E+03  0.12509013884E+03 0.  0.
         23    2    1    2    0    0  0.49620507826E+02 -0.98205726680E+02  0.11930272237E+03  0.18609515690E+03  0.91058817835E+02 0.  0.
          5    1    3    3  502    0  0.30438242609E+02  0.11669280416E+02  0.24045009008E+02  0.40722150935E+02  0.41800000000E+01 0. -1.
         -5    1    3    3    0  502 -0.80058750435E+02  0.86536446265E+02  0.33300488001E+03  0.35328130798E+03  0.41800000000E+01 0. -1.
        -11    1    4    4    0    0 -0.32825529947E+01 -0.21931602770E+02 -0.12061787739E+02  0.25243951309E+02  0.00000000000E+00 0.  1.
         11    1    4    4    0    0  0.52903060820E+02 -0.76274123910E+02  0.13136451011E+03  0.16085120559E+03  0.00000000000E+00 0. -1.
</event>
<event>
 8    1  0.6615242E-009  0.1991241E+03  0.7561462E-02  0.1150480E+00
         -2   -1    0    0    0  501 -0.00000000000E+00  0.00000000000E+00  0.21423585835E+03  0.21423585835E+03  0.00000000000E+00 0.  1.
          2   -1    0    0  501    0  0.00000000000E+00 -0.00000000000E+00 -0.27932086976E+03  0.27932086976E+03  0.00000000000E+00 0. -1.
         25    2    1    2    0    0 -0.77662135417E+02  0.16048727254E+03 -0.16842799517E+03  0.27532582634E+03  0.12509496061E+03 0.  0.
         23    2    1    2    0    0  0.77662135417E+02 -0.16048727254E+03  0.10334298377E+03  0.21823090176E+03  0.71814916741E+02 0.  0.
          5    1    3    3  502    0  0.15274793178E+01  0.13153579676E+03 -0.11940316207E+03  0.17770364807E+03  0.41800000000E+01 0. -1.
         -5    1    3    3    0  502 -0.79189614734E+02  0.28951475776E+02 -0.49024833095E+02  0.97622178276E+02  0.41800000000E+01 0. -1.
        -11    1    4    4    0    0  0.47228543761E+02 -0.13326255800E+03  0.10689134727E+03  0.17724334918E+03  0.00000000000E+00 0.  1.
         11    1    4    4    0    0  0.30433591656E+02 -0.27224714542E+02 -0.35483634994E+01  0.40987552580E+02  0.00000000000E+00 0. -1.
</event>
<event>
 8    1  0.6615242E-009  0.8936517E+02  0.7561462E-02  0.1304396E+00
          2   -1    0    0  501    0  0.00000000000E+00  0.00000000000E+00  0.79298190451E+02  0.79298190451E+02  0.00000000000E+00 0. -1.
         -2   -1    0    0    0  501 -0.00000000000E+00 -0.00000000000E+00 -0.27574244105E+03  0.27574244105E+03  0.00000000000E+00 0.  1.
         25    2    1    2    0    0 -0.54037536877E+02  0.65163699896E+02 -0.17084861846E+03  0.22804205892E+03  0.12509023555E+03 0.  0.
         23    2    1    2    0    0  0.54037536877E+02 -0.65163699896E+02 -0.25595632142E+02  0.12699857258E+03  0.91143501566E+02 0.  0.
          5    1    3    3  502    0 -0.18862161185E+02  0.40311110951E+02 -0.17857598855E+03  0.18408591167E+03  0.41800000000E+01 0.  1.
         -5    1    3    3    0  502 -0.35175375692E+02  0.24852588945E+02  0.77273700880E+01  0.43956147247E+02  0.41800000000E+01 0.  1.
        -11    1    4    4    0    0  0.25575348489E+02 -0.54786679798E+02  0.27066713864E+02  0.66244137348E+02  0.00000000000E+00 0. -1.
         11    1    4    4    0    0  0.28462188388E+02 -0.10377020099E+02 -0.52662346006E+02  0.60754435236E+02  0.00000000000E+00 0.  1.
</event>
<event>
 8    1  0.6615242E-009  0.7985832E+02  0.7561462E-02  0.1329454E+00
          2   -1    0    0  501    0  0.00000000000E+00  0.00000000000E+00  0.33374912451E+03  0.33374912451E+03  0.00000000000E+00 0. -1.
         -2   -1    0    0    0  501 -0.00000000000E+00 -0.00000000000E+00 -0.63439636554E+02  0.63439636554E+02  0.00000000000E+00 0.  1.
         25    2    1    2    0    0  0.26010016561E+02 -0.38738388411E+02  0.31111569564E+02  0.13708767222E+03  0.12509163208E+03 0.  0.
         23    2    1    2    0    0 -0.26010016561E+02  0.38738388411E+02  0.23919791839E+03  0.26010108884E+03  0.90883158808E+02 0.  0.
          5    1    3    3  502    0 -0.19757228645E+02  0.82832515863E+01 -0.36657706681E+02  0.42664038717E+02  0.41800000000E+01 0. -1.
         -5    1    3    3    0  502  0.45767245206E+02 -0.47021639997E+02  0.67769276245E+02  0.94423633506E+02  0.41800000000E+01 0. -1.
        -11    1    4    4    0    0 -0.34783102022E+02  0.25215466629E+01  0.25561430304E+02  0.43238976665E+02  0.00000000000E+00 0.  1.
         11    1    4    4    0    0  0.87730854615E+01  0.36216841748E+02  0.21363648809E+03  0.21686211217E+03  0.00000000000E+00 0. -1.
</event>
<event>
 8    1  0.6615242E-009  0.1102517E+03  0.7561462E-02  0.1260105E+00
          4   -1    0    0  501    0  0.00000000000E+00  0.00000000000E+00  0.99105419760E+02  0.99105419760E+02  0.00000000000E+00 0. -1.
         -4   -1    0    0    0  501 -0.00000000000E+00 -0.00000000000E+00 -0.23326432928E+03  0.23326432928E+03  0.00000000000E+00 0.  1.
         25    2    1    2    0    0  0.76100976419E+02  0.44875793898E+02 -0.13406051647E+03  0.20353126292E+03  0.12509019714E+03 0.  0.
         23    2    1    2    0    0 -0.76100976419E+02 -0.44875793898E+02 -0.98393044123E-01  0.12883848612E+03  0.93777131187E+02 0.  0.
          5    1    3    3  502    0  0.28246521698E+02  0.32780421561E+02 -0.14620245050E+03  0.15252885287E+03  0.41800000000E+01 0.  1.
         -5    1    3    3    0  502  0.47854454721E+02  0.12095372336E+02  0.12141934031E+02  0.51002410047E+02  0.41800000000E+01 0.  1.
        -11    1    4    4    0    0 -0.50619186757E+02 -0.73453442118E+02 -0.85935242897E+01  0.89618964994E+02  0.00000000000E+00 0.  1.
         11    1    4    4    0    0 -0.25481789662E+02  0.28577648220E+02  0.84951312455E+01  0.39219521122E+02  0.00000000000E+00 0. -1.
</event>
<event>
 8    1  0.6615242E-009  0.8733294E+02  0.7561462E-02  0.1309442E+00
          1   -1    0    0  501    0  0.00000000000E+00  0.00000000000E+00  0.10232455326E+03  0.10232455326E+03  0.00000000000E+00 0.  1.
         -1   -1    0    0    0  501 -0.00000000000E+00 -0.00000000000E+00 -0.16598054420E+03  0.16598054420E+03  0.00000000000E+00 0. -1.
         25    2    1    2    0    0  0.42953973445E+02  0.49790969491E+02 -0.67691659283E+02  0.15669632448E+03  0.12508953950E+03 0.  0.
         23    2    1    2    0    0 -0.42953973445E+02 -0.49790969491E+02  0.40356683444E+01  0.11160877297E+03  0.90089106487E+02 0.  0.
          5    1    3    3  502    0  0.18170334467E+02  0.48560875193E+02  0.27077776142E+02  0.58642970721E+02  0.41800000000E+01 0.  1.
         -5    1    3    3    0  502  0.24783638978E+02  0.12300942975E+01 -0.94769435425E+02  0.98053353761E+02  0.41800000000E+01 0.  1.
        -11    1    4    4    0    0  0.15823190588E+02 -0.32613161214E+02 -0.24802546713E+02  0.43922180822E+02  0.00000000000E+00 0. -1.
         11    1    4    4    0    0 -0.58777164034E+02 -0.17177808277E+02  0.28838215057E+02  0.67686592149E+02  0.00000000000E+00 0.  1.
</event>
<event>
 8    1  0.6615242E-009  0.1325981E+03  0.7561462E-02  0.1223651E+00
          2   -1    0    0  501    0  0.00000000000E+00  0.00000000000E+00  0.44718397406E+03  0.44718397406E+03  0.00000000000E+00 0. -1.
         -2   -1    0    0    0  501 -0.00000000000E+00 -0.00000000000E+00 -0.43134522938E+02  0.43134522938E+02  0.00000000000E+00 0.  1.
         25    2    1    2    0    0 -0.18754392162E+02 -0.83160137038E+02  0.20531569741E+03  0.25508741662E+03  0.12509084258E+03 0.  0.
         23    2    1    2    0    0  0.18754392162E+02  0.83160137038E+02  0.19873375371E+03  0.23523108038E+03  0.92580887301E+02 0.  0.
          5    1    3    3  502    0  0.47698976326E+02 -0.23206109530E+02  0.38313392542E+02  0.65567555316E+02  0.41800000000E+01 0. -1.
         -5    1    3    3    0  502 -0.66453368488E+02 -0.59954027508E+02  0.16700230487E+03  0.18951986131E+03  0.41800000000E+01 0. -1.
        -11    1    4    4    0    0  0.46328327291E+02  0.82720983752E+02  0.17415449842E+03  0.19828984942E+03  0.00000000000E+00 0.  1.
         11    1    4    4    0    0 -0.27573935129E+02  0.43915328619E+00  0.24579255294E+02  0.36941230960E+02  0.00000000000E+00 0. -1.
</event>
<event>
 8    1  0.6615242E-009  0.6802239E+02  0.7561462E-02  0.1366950E+00
         -1   -1    0    0    0  501 -0.00000000000E+00  0.00000000000E+00  0.11897476585E+03  0.11897476585E+03  0.00000000000E+00 0.  1.
          1   -1    0    0  501    0  0.00000000000E+00 -0.00000000000E+00 -0.11026538658E+03  0.11026538658E+03  0.00000000000E+00 0. -1.
         25    2    1    2    0    0 -0.73509728686E+01 -0.17779922191E+02  0.38076575672E+02  0.13216574591E+03  0.12509115213E+03 0.  0.
         23    2    1    2    0    0  0.73509728686E+01  0.17779922191E+02 -0.29367196404E+02  0.97074406526E+02  0.90503291335E+02 0.  0.
          5    1    3    3  502    0  0.27624519465E+02  0.52598980556E+01  0.72446628301E+02  0.77825233411E+02  0.41800000000E+01 0. -1.
         -5    1    3    3    0  502 -0.34975492333E+02 -0.23039820247E+02 -0.34370052629E+02  0.54340512499E+02  0.41800000000E+01 0. -1.
        -11    1    4    4    0    0  0.34942772277E+02  0.57008157724E+01 -0.49490482179E+02  0.60850673466E+02  0.00000000000E+00 0. -1.
         11    1    4    4    0    0 -0.27591799408E+02  0.12079106419E+02  0.20123285775E+02  0.36223733061E+02  0.00000000000E+00 0.  1.
</event>
<event>
 8    1  0.6615242E-009  0.1150975E+03  0.7561462E-02  0.1251411E+00
          2   -1    0    0  501    0  0.00000000000E+00  0.00000000000E+00  0.33475499268E+03  0.33475499268E+03  0.00000000000E+00 0. -1.
         -2   -1    0    0    0  501 -0.00000000000E+00 -0.00000000000E+00 -0.61354876339E+02  0.61354876339E+02  0.00000000000E+00 0.  1.
         25    2    1    2    0    0  0.86767892747E+02 -0.23063117317E+02  0.11301484075E+03  0.19099827501E+03  0.12508961681E+03 0.  0.
         23    2    1    2    0    0 -0.86767892747E+02  0.23063117317E+02  0.16038527560E+03  0.20511159402E+03  0.91031614174E+02 0.  0.
          5    1    3    3  502    0 -0.15767374792E+02  0.10433236902E+01  0.78341332684E+02  0.80028341472E+02  0.41800000000E+01 0. -1.
         -5    1    3    3    0  502  0.10253526754E+03 -0.24106441007E+02  0.34673508061E+02  0.11096993353E+03  0.41800000000E+01 0. -1.
        -11    1    4    4    0    0 -0.79289770746E+02 -0.49475656439E+01  0.57102173115E+02  0.97836620573E+02  0.00000000000E+00 0.  1.
         11    1    4    4    0    0 -0.74781220008E+01  0.28010682961E+02  0.10328310248E+03  0.10727497344E+03  0.00000000000E+00 0. -1.
</event>
<event>
 8    1  0.6615242E-009  0.1391848E+03  0.7561462E-02  0.1214430E+00
          1   -1    0    0  501    0  0.00000000000E+00  0.00000000000E+00  0.15248858454E+04  0.15248858454E+04  0.00000000000E+00 0. -1.
         -1   -1    0    0    0  501 -0.00000000000E+00 -0.00000000000E+00 -0.20659381015E+02  0.20659381015E+02  0.00000000000E+00 0.  1.
         25    2    1    2    0    0  0.10900862316E+03 -0.13830470472E+02  0.11823191080E+04  0.11939848955E+04  0.12508915076E+03 0.  0.
         23    2    1    2    0    0 -0.10900862316E+03  0.13830470472E+02  0.32190735635E+03  0.35156033091E+03  0.88860330619E+02 0.  0.
          5    1    3    3  502    0  0.10601397422E+03 -0.58680574660E+02  0.84180559884E+03  0.85049192307E+03  0.41800000000E+01 0. -1.
         -5    1    3    3    0  502  0.29946489432E+01  0.44850104188E+02  0.34051350917E+03  0.34349297241E+03  0.41800000000E+01 0. -1.
        -11    1    4    4    0    0 -0.28470037337E+02  0.13345688616E+02  0.16100298512E+02  0.35325204073E+02  0.00000000000E+00 0.  1.
         11    1    4    4    0    0 -0.80538585828E+02  0.48478185529E+00  0.30580705784E+03  0.31623512683E+03  0.00000000000E+00 0. -1.
</event>
<event>
 8    1  0.6615242E-009  0.1237648E+03  0.7561462E-02  0.1237012E+00
          1   -1    0    0  501    0  0.00000000000E+00  0.00000000000E+00  0.48870134689E+03  0.48870134689E+03  0.00000000000E+00 0. -1.
         -1   -1    0    0    0  501 -0.00000000000E+00 -0.00000000000E+00 -0.33566560704E+02  0.33566560704E+02  0.00000000000E+00 0.  1.
         25    2    1    2    0    0  0.64459247473E+02 -0.64926071828E+01  0.21637733133E+03  0.25819192050E+03  0.12508704875E+03 0.  0.
         23    2    1    2    0    0 -0.64459247473E+02  0.64926071828E+01  0.23875745486E+03  0.26407598710E+03  0.92378873004E+02 0.  0.
          5    1    3    3  502    0  0.45234339893E+02  0.54303152937E+02  0.75512471525E+02  0.10351127320E+03  0.41800000000E+01 0.  1.
         -5    1    3    3    0  502  0.19224907580E+02 -0.60795760120E+02  0.14086485981E+03  0.15468064730E+03  0.41800000000E+01 0.  1.
        -11    1    4    4    0    0 -0.52333880755E+02 -0.39308410403E+02  0.13803744306E+03  0.15276885117E+03  0.00000000000E+00 0. -1.
         11    1    4    4    0    0 -0.12125366718E+02  0.45801017586E+02  0.10072001180E+03  0.11130713592E+03  0.00000000000E+00 0.  1.
</event>
<event>
 8    1  0.6615242E-009  0.1350936E+03  0.7561462E-02  0.1220088E+00
          4   -1    0    0  501    0  0.00000000000E+00  0.00000000000E+00  0.38982024785E+03  0.38982024785E+03  0.00000000000E+00 0. -1.
         -4   -1    0    0    0  501 -0.00000000000E+00 -0.00000000000E+00 -0.66407866118E+02  0.66407866118E+02  0.00000000000E+00 0.  1.
         25    2    1    2    0    0 -0.98989098281E+02 -0.43985478534E+02  0.10477035146E+03  0.19585449718E+03  0.12509433887E+03 0.  0.
         23    2    1    2    0    0  0.98989098281E+02  0.43985478534E+02  0.21864203027E+03  0.26037361679E+03  0.90865389565E+02 0.  0.
          5    1    3    3  502    0 -0.32242311209E+02  0.41353876777E+02  0.13956195233E+02  0.54423869230E+02  0.41800000000E+01 0. -1.
         -5    1    3    3    0  502 -0.66746787072E+02 -0.85339355312E+02  0.90814156229E+02  0.14143062795E+03  0.41800000000E+01 0. -1.
        -11    1    4    4    0    0  0.28301128550E+02  0.60641598768E+01  0.16064265851E+01  0.28988075455E+02  0.00000000000E+00 0.  1.
         11    1    4    4    0    0  0.70687969731E+02  0.37921318658E+02  0.21703560368E+03  0.23138554134E+03  0.00000000000E+00 0. -1.
</event>
<event>
 8    1  0.6615242E-009  0.1149387E+03  0.7561462E-02  0.1251688E+00
         -2   -1    0    0    0  501 -0.00000000000E+00  0.00000000000E+00  0.21799038288E+02  0.21799038288E+02  0.00000000000E+00 0.  1.
          2   -1    0    0  501    0  0.00000000000E+00 -0.00000000000E+00 -0.77323107157E+03  0.77323107157E+03  0.00000000000E+00 0. -1.
         25    2    1    2    0    0 -0.70639416731E+02 -0.71621156001E+01 -0.34966049888E+03  0.37808893984E+03  0.12509020288E+03 0.  0.
         23    2    1    2    0    0  0.70639416731E+02  0.71621156001E+01 -0.40177153440E+03  0.41694117001E+03  0.85897324201E+02 0.  0.
          5    1    3    3  502    0 -0.10408408968E+03 -0.21878430161E+02 -0.24383031233E+03  0.26605047837E+03  0.41800000000E+01 0.  1.
         -5    1    3    3    0  502  0.33444672949E+02  0.14716314561E+02 -0.10583018655E+03  0.11203846147E+03  0.41800000000E+01 0.  1.
        -11    1    4    4    0    0  0.62167755549E+02  0.24925876330E+02 -0.38586871827E+03  0.39163860494E+03  0.00000000000E+00 0. -1.
         11    1    4    4    0    0  0.84716611823E+01 -0.17763760730E+02 -0.15902816124E+02  0.25302565070E+02  0.00000000000E+00 0.  1.
</event>
<event>
 8    1  0.6615242E-009  0.1764272E+03  0.7561462E-02  0.1171306E+00
         -1   -1    0    0    0  501 -0.00000000000E+00  0.00000000000E+00  0.23393042913E+02  0.23393042913E+02  0.00000000000E+00 0.  1.
          1   -1    0    0  501    0  0.00000000000E+00 -0.00000000000E+00 -0.19047891635E+04  0.19047891635E+04  0.00000000000E+00 0. -1.
         25    2    1    2    0    0 -0.10063631850E+03  0.12909411955E+03 -0.13075471998E+04  0.13236768877E+04  0.12509141787E+03 0.  0.
         23    2    1    2    0    0  0.10063631850E+03 -0.12909411955E+03 -0.57384892073E+03  0.60450531873E+03  0.96597806643E+02 0.  0.
          5    1    3    3  502    0 -0.69931846158E+02  0.17065455933E+02 -0.78769991008E+03  0.79099324500E+03  0.41800000000E+01 0.  1.
         -5    1    3    3    0  502 -0.30704472342E+02  0.11202866361E+03 -0.51984728976E+03  0.53268364266E+03  0.41800000000E+01 0.  1.
        -11    1    4    4    0    0  0.32243276432E+02 -0.29531439761E+02 -0.47860450721E+02  0.64825593346E+02  0.00000000000E+00 0.  1.
         11    1    4    4    0    0  0.68393042068E+02 -0.99562679785E+02 -0.52598847001E+03  0.53967972538E+03  0.00000000000E+00 0. -1.
</event>
<event>
 8    1  0.6615242E-009  0.1001729E+03  0.7561462E-02  0.1279933E+00
         -2   -1    0    0    0  501 -0.00000000000E+00  0.00000000000E+00  0.53375816761E+02  0.53375816761E+02  0.00000000000E+00 0.  1.
          2   -1    0    0  501    0  0.00000000000E+00 -0.00000000000E+00 -0.24856834767E+03  0.24856834767E+03  0.00000000000E+00 0. -1.
         25    2    1    2    0    0  0.24146964411E+02  0.33199329322E+02 -0.94300205460E+02  0.16195604850E+03  0.12510779967E+03 0.  0.
         23    2    1    2    0    0 -0.24146964411E+02 -0.33199329322E+02 -0.10089232545E+03  0.13998811593E+03  0.87932587299E+02 0.  0.
          5    1    3    3  502    0  0.43151676851E+02  0.72018906585E+02 -0.80507191656E+02  0.11639446047E+03  0.41800000000E+01 0.  1.
         -5    1    3    3    0  502 -0.19004712440E+02 -0.38819577263E+02 -0.13793013804E+02  0.45561588028E+02  0.41800000000E+01 0.  1.
        -11    1    4    4    0    0 -0.35283977883E+02 -0.44636088127E+02 -0.24504437184E+02  0.61950035515E+02  0.00000000000E+00 0.  1.
         11    1    4    4    0    0  0.11137013472E+02  0.11436758805E+02 -0.76387888266E+02  0.78038080415E+02  0.00000000000E+00 0. -1.
</event>
<event>
 8    1  0.6615242E-009  0.7042751E+02  0.7561462E-02  0.1358645E+00
          1   -1    0    0  501    0  0.00000000000E+00  0.00000000000E+00  0.66576030867E+03  0.66576030867E+03  0.00000000000E+00 0. -1.
         -1   -1    0    0    0  501 -0.00000000000E+00 -0.00000000000E+00 -0.20025160404E+02  0.20025160404E+02  0.00000000000E+00 0.  1.
         25    2    1    2    0    0 -0.24684773371E+02 -0.15151604430E+02  0.47988929959E+03  0.49676915965E+03  0.12508776505E+03 0.  0.
         23    2    1    2    0    0  0.24684773371E+02  0.15151604430E+02  0.16584584868E+03  0.18901630942E+03  0.85926774361E+02 0.  0.
          5    1    3    3  502    0 -0.46327617828E+01 -0.46485732839E+02  0.43834360372E+03  0.44084574758E+03  0.41800000000E+01 0. -1.
         -5    1    3    3    0  502 -0.20052011588E+02  0.31334128409E+02  0.41545695871E+02  0.55923412068E+02  0.41800000000E+01 0. -1.
        -11    1    4    4    0    0  0.67756137061E+01 -0.17782020139E+02  0.44009729988E-01  0.19029217488E+02  0.00000000000E+00 0.  1.
         11    1    4    4    0    0  0.17909159665E+02  0.32933624569E+02  0.16580183895E+03  0.16998709194E+03  0.00000000000E+00 0. -1.
</event>
<event>
 8    1  0.6615242E-009  0.1497844E+03  0.7561462E-02  0.1200738E+00
          2   -1    0    0  501    0  0.00000000000E+00  0.00000000000E+00  0.11704744330E+04  0.11704744330E+04  0.00000000000E+00 0. -1.
         -2   -1    0    0    0  501 -0.00000000000E+00 -0.00000000000E+00 -0.34461688949E+02  0.34461688949E+02  0.00000000000E+00 0.  1.
         25    2    1    2    0    0  0.12493813267E+03  0.73588615902E+02  0.85221552637E+03  0.87346534462E+03  0.12508230679E+03 0.  0.
         23    2    1    2    0    0 -0.12493813267E+03 -0.73588615902E+02  0.28379721770E+03  0.33147077735E+03  0.91143809891E+02 0.  0.
          5    1    3    3  502    0  0.11272923330E+03  0.68678881076E+02  0.40403629550E+03  0.42507348686E+03  0.41800000000E+01 0. -1.
         -5    1    3    3    0  502  0.12208899361E+02  0.49097348266E+01  0.44817923087E+03  0.44839185776E+03  0.41800000000E+01 0. -1.
        -11    1    4    4    0    0 -0.33653872239E+02  0.39986863540E+01  0.14760424373E+02  0.36965426237E+02  0.00000000000E+00 0.  1.
         11    1    4    4    0    0 -0.91284260427E+02 -0.77587302256E+02  0.26903679333E+03  0.29450535112E+03  0.00000000000E+00 0. -1.
</event>
<event>
 8    1  0.6615242E-009  0.1167909E+03  0.7561462E-02  0.1248487E+00
          1   -1    0    0  501    0  0.00000000000E+00  0.00000000000E+00  0.59954608524E+03  0.59954608524E+03  0.00000000000E+00 0. -1.
         -1   -1    0    0    0  501 -0.00000000000E+00 -0.00000000000E+00 -0.39579891249E+02  0.39579891249E+02  0.00000000000E+00 0.  1.
         25    2    1    2    0    0  0.45015272926E+02  0.98996196182E+02  0.33716541734E+03  0.37570495707E+03  0.12508826666E+03 0.  0.
         23    2    1    2    0    0 -0.45015272926E+02 -0.98996196182E+02  0.22280077665E+03  0.26342101942E+03  0.89015873553E+02 0.  0.
          5    1    3    3  502    0  0.33466399385E+02  0.52666667583E+02  0.38982627407E+02  0.73694609040E+02  0.41800000000E+01 0.  1.
         -5    1    3    3    0  502  0.11548873542E+02  0.46329528599E+02  0.29818278994E+03  0.30201034802E+03  0.41800000000E+01 0.  1.
        -11    1    4    4    0    0  0.73551827828E+01 -0.52703664513E+02  0.16288824372E+03  0.17136030728E+03  0.00000000000E+00 0. -1.
         11    1    4    4    0    0 -0.52370455709E+02 -0.46292531669E+02  0.59912532924E+02  0.92060712147E+02  0.00000000000E+00 0.  1.
</event>
<event>
 8    1  0.6615242E-009  0.1014722E+03  0.7561462E-02  0.1277230E+00
         -2   -1    0    0    0  501 -0.00000000000E+00  0.00000000000E+00  0.56637707359E+02  0.56637707359E+02  0.00000000000E+00 0.  1.
          2   -1    0    0  501    0  0.00000000000E+00 -0.00000000000E+00 -0.29139222411E+03  0.29139222411E+03  0.00000000000E+00 0. -1.
         25    2    1    2    0    0  0.20596633475E+02 -0.61652855829E+02 -0.94630983498E+02  0.16978656999E+03  0.12508861007E+03 0.  0.
         23    2    1    2    0    0 -0.20596633475E+02  0.61652855829E+02 -0.14012353326E+03  0.17824336149E+03  0.88942652303E+02 0.  0.
          5    1    3    3  502    0 -0.10078628484E+02  0.10309972962E+02 -0.90072075396E+02  0.91314431831E+02  0.41800000000E+01 0. -1.
         -5    1    3    3    0  502  0.30675261959E+02 -0.71962828791E+02 -0.45589081022E+01  0.78472138157E+02  0.41800000000E+01 0. -1.
        -11    1    4    4    0    0  0.16627600147E+02  0.69575895293E+02 -0.99873207462E+02  0.12284925666E+03  0.00000000000E+00 0.  1.
         11    1    4    4    0    0 -0.37224233622E+02 -0.79230394637E+01 -0.40250325796E+02  0.55394104829E+02  0.00000000000E+00 0. -1.
</event>
<event>
 8    1  0.6615242E-009  0.8648669E+02  0.7561462E-02  0.1311590E+00
          2   -1    0    0  501    0  0.00000000000E+00  0.00000000000E+00  0.43027684755E+03  0.43027684755E+03  0.00000000000E+00 0. -1.
         -2   -1    0    0    0  501 -0.00000000000E+00 -0.00000000000E+00 -0.41289096486E+02  0.41289096486E+02  0.00000000000E+00 0.  1.
         25    2    1    2    0    0  0.72669154196E+02 -0.60699060680E+01  0.16335854572E+03  0.21829403537E+03  0.12509445106E+03 0.  0.
         23    2    1    2    0    0 -0.72669154196E+02  0.60699060680E+01  0.22562920534E+03  0.25327190866E+03  0.88997031886E+02 0.  0.
          5    1    3    3  502    0  0.61251115063E+02 -0.69617284267E+00  0.74820859987E+01  0.61851740186E+02  0.41800000000E+01 0.  1.
         -5    1    3    3    0  502  0.11418039133E+02 -0.53737332253E+01  0.15587645973E+03  0.15644229519E+03  0.41800000000E+01 0.  1.
        -11    1    4    4    0    0 -0.20624083687E+02 -0.28954993029E+02  0.15402531168E+03  0.15807447956E+03  0.00000000000E+00 0. -1.
         11    1    4    4    0    0 -0.52045070509E+02  0.35024899097E+02  0.71603893659E+02  0.95197429105E+02  0.00000000000E+00 0.  1.
</event>
<event>
 8    1  0.6615242E-009  0.9378970E+02  0.7561462E-02  0.1293925E+00
          3   -1    0    0  501    0  0.00000000000E+00  0.00000000000E+00  0.58414002979E+02  0.58414002979E+02  0.00000000000E+00 0. -1.
         -3   -1    0    0    0  501 -0.00000000000E+00 -0.00000000000E+00 -0.21917113667E+03  0.21917113667E+03  0.00000000000E+00 0.  1.
         25    2    1    2    0    0 -0.91891509325E+01 -0.18301917534E+02 -0.12163852667E+03  0.17567575028E+03  0.12508651960E+03 0.  0.
         23    2    1    2    0    0  0.91891509325E+01  0.18301917534E+02 -0.39118607021E+02  0.10190938937E+03  0.91846924537E+02 0.  0.
          5    1    3    3  502    0 -0.33198057671E+02 -0.55539287972E+02 -0.11308971818E+03  0.13035904379E+03  0.41800000000E+01 0. -1.
         -5    1    3    3    0  502  0.24008906738E+02  0.37237370438E+02 -0.85488084960E+01  0.45316706485E+02  0.41800000000E+01 0. -1.
        -11    1    4    4    0    0  0.41370101735E+02  0.20122137738E+02 -0.49948643973E+02  0.67906205750E+02  0.00000000000E+00 0.  1.
         11    1    4    4    0    0 -0.32180950802E+02 -0.18202202045E+01  0.10830036952E+02  0.34003183623E+02  0.00000000000E+00 0. -1.
</event>
<event>
 8    1  0.6615242E-009  0.1121888E+03  0.7561462E-02  0.1256570E+00
          2   -1    0    0  501    0  0.00000000000E+00  0.00000000000E+00  0.31789815350E+03  0.31789815350E+03  0.00000000000E+00 0.  1.
         -2   -1    0    0    0  501 -0.00000000000E+00 -0.00000000000E+00 -0.50202959811E+02  0.50202959811E+02  0.00000000000E+00 0. -1.
         25    2    1    2    0    0  0.61224611741E+02 -0.15961685617E+02  0.12404171251E+03  0.18718353992E+03  0.12509237659E+03 0.  0.
         23    2    1    2    0    0 -0.61224611741E+02  0.15961685617E+02  0.14365348118E+03  0.18091757340E+03  0.89953416937E+02 0.  0.
          5    1    3    3  502    0  0.42669161790E+02 -0.58269981279E+02  0.12064466266E+03  0.14067215472E+03  0.41800000000E+01 0. -1.
         -5    1    3    3    0  502  0.18555449951E+02  0.42308295662E+02  0.33970498515E+01  0.46511385191E+02  0.41800000000E+01 0. -1.
        -11    1    4    4    0    0  0.25846612731E+01  0.38038972021E+02  0.29168387127E+02  0.48004569302E+02  0.00000000000E+00 0. -1.
         11    1    4    4    0    0 -0.63809273014E+02 -0.22077286404E+02  0.11448509405E+03  0.13291300409E+03  0.00000000000E+00 0.  1.
</event>
<event>
 8    1  0.6615242E-009  0.1766772E+03  0.7561462E-02  0.1171058E+00
         -2   -1    0    0    0  501 -0.00000000000E+00  0.00000000000E+00  0.44670171910E+02  0.44670171910E+02  0.00000000000E+00 0.  1.
          2   -1    0    0  501    0  0.00000000000E+00 -0.00000000000E+00 -0.85439187795E+03  0.85439187795E+03  0.00000000000E+00 0. -1.
         25    2    1    2    0    0  0.15927947778E+03 -0.30452887309E+02 -0.43762703175E+03  0.48317875928E+03  0.12508782562E+03 0.  0.
         23    2    1    2    0    0 -0.15927947778E+03  0.30452887309E+02 -0.37209467430E+03  0.41588329058E+03  0.90593235696E+02 0.  0.
          5    1    3    3  502    0  0.13815530249E+03 -0.46972166083E+02 -0.22102237911E+03  0.26488041917E+03  0.41800000000E+01 0. -1.
         -5    1    3    3    0  502  0.21124175297E+02  0.16519278774E+02 -0.21660465263E+03  0.21829834011E+03  0.41800000000E+01 0. -1.
        -11    1    4    4    0    0  0.19750953388E+01  0.18423995537E+02 -0.14848861889E+02  0.23745174511E+02  0.00000000000E+00 0.  1.
         11    1    4    4    0    0 -0.16125457312E+03  0.12028891772E+02 -0.35724581241E+03  0.39213811607E+03  0.00000000000E+00 0. -1.
</event>
<event>
 8    1  0.6615242E-009  0.1375044E+03  0.7561462E-02  0.1216727E+00
         -2   -1    0    0    0  501 -0.00000000000E+00  0.00000000000E+00  0.86201661252E+01  0.86201661252E+01  0.00000000000E+00 0.  1.
          2   -1    0    0  501    0  0.00000000000E+00 -0.00000000000E+00 -0.29292140469E+04  0.29292140469E+04  0.00000000000E+00 0. -1.
         25    2    1    2    0    0  0.51200862632E+02 -0.75113887771E+02 -0.22259391487E+04  0.22313035666E+04  0.12508752263E+03 0.  0.
         23    2    1    2    0    0 -0.51200862632E+02  0.75113887771E+02 -0.69465473205E+03  0.70653064636E+03  0.91524494077E+02 0.  0.
          5    1    3    3  502    0  0.77895024388E+02 -0.86898030236E+02 -0.20062548476E+04  0.20096504393E+04  0.41800000000E+01 0. -1.
         -5    1    3    3    0  502 -0.26694161756E+02  0.11784142466E+02 -0.21968430113E+03  0.22165312731E+03  0.41800000000E+01 0. -1.
        -11    1    4    4    0    0 -0.69363660876E+02  0.22227325362E+02 -0.37139829172E+03  0.37847333134E+03  0.00000000000E+00 0. -1.
         11    1    4    4    0    0  0.18162798244E+02  0.52886562408E+02 -0.32325644034E+03  0.32805731503E+03  0.00000000000E+00 0.  1.
</event>
<event>
 8    1  0.6615242E-009  0.6269172E+02  0.7561462E-02  0.1386871E+00
          1   -1    0    0  501    0  0.00000000000E+00  0.00000000000E+00  0.82804779144E+02  0.82804779144E+02  0.00000000000E+00 0. -1.
         -1   -1    0    0    0  501 -0.00000000000E+00 -0.00000000000E+00 -0.18129625789E+03  0.18129625789E+03  0.00000000000E+00 0.  1.
         25    2    1    2    0    0 -0.51138313213E+02  0.24646986406E+02 -0.51921831791E+02  0.14685291482E+03  0.12508917202E+03 0.  0.
         23    2    1    2    0    0  0.51138313213E+02 -0.24646986406E+02 -0.46569646954E+02  0.11724812222E+03  0.91410005627E+02 0.  0.
          5    1    3    3  502    0 -0.29164498839E+02  0.18253998225E+02  0.39481218610E+02  0.52535849347E+02  0.41800000000E+01 0. -1.
         -5    1    3    3    0  502 -0.21973814374E+02  0.63929881809E+01 -0.91403050401E+02  0.94317065468E+02  0.41800000000E+01 0. -1.
        -11    1    4    4    0    0  0.46231693940E+02 -0.41871285700E+01  0.17655046813E+02  0.49664899559E+02  0.00000000000E+00 0. -1.
         11    1    4    4    0    0  0.49066192733E+01 -0.20459857836E+02 -0.64224693767E+02  0.67583222658E+02  0.00000000000E+00 0.  1.
</event>
<event>
 8    1  0.6615242E-009  0.8467775E+02  0.7561462E-02  0.1316277E+00
          2   -1    0    0  501    0  0.00000000000E+00  0.00000000000E+00  0.93937575628E+03  0.93937575628E+03  0.00000000000E+00 0. -1.
         -2   -1    0    0    0  501 -0.00000000000E+00 -0.00000000000E+00 -0.15825925362E+02  0.15825925362E+02  0.00000000000E+00 0.  1.
         25    2    1    2    0    0  0.14381681810E+02  0.46906059302E+02  0.55537277816E+03  0.57139644495E+03  0.12509181993E+03 0.  0.
         23    2    1    2    0    0 -0.14381681810E+02 -0.46906059302E+02  0.36817705276E+03  0.38380523669E+03  0.96670090308E+02 0.  0.
          5    1    3    3  502    0  0.26694780649E+02  0.14806299978E+02  0.24418409085E+02  0.39313724514E+02  0.41800000000E+01 0.  1.
         -5    1    3    3    0  502 -0.12313098839E+02  0.32099759324E+02  0.53095436907E+03  0.53208272044E+03  0.41800000000E+01 0.  1.
        -11    1    4    4    0    0 -0.53443433296E+02 -0.30589023946E+02  0.16158995109E+03  0.17292542104E+03  0.00000000000E+00 0.  1.
         11    1    4    4    0    0  0.39061751486E+02 -0.16317035356E+02  0.20658710167E+03  0.21087981565E+03  0.00000000000E+00 0. -1.
</event>
<event>
 8    1  0.6615242E-009  0.9514872E+02  0.7561462E-02  0.1290841E+00
          1   -1    0    0  501    0  0.00000000000E+00  0.00000000000E+00  0.34737938622E+02  0.34737938622E+02  0.00000000000E+00 0. -1.
         -1   -1    0    0    0  501 -0.00000000000E+00 -0.00000000000E+00 -0.40168076365E+03  0.40168076365E+03  0.00000000000E+00 0.  1.
         25    2    1    2    0    0 -0.23939823265E+02 -0.17661809767E+02 -0.15331927942E+03  0.20009736991E+03  0.12508837411E+03 0.  0.
         23    2    1    2    0    0  0.23939823265E+02  0.17661809767E+02 -0.21362354560E+03  0.23632133236E+03  0.96580009487E+02 0.  0.
          5    1    3    3  502    0  0.31472220029E+02 -0.11625254604E+01 -0.13590787076E+03  0.13957175156E+03  0.41800000000E+01 0. -1.
         -5    1    3    3    0  502 -0.55412043294E+02 -0.16499284306E+02 -0.17411408665E+02  0.60525618347E+02  0.41800000000E+01 0. -1.
        -11    1    4    4    0    0 -0.27541337557E+02 -0.22261306787E+02 -0.64344830735E+02  0.73446227246E+02  0.00000000000E+00 0. -1.
         11    1    4    4    0    0  0.51481160822E+02  0.39923116554E+02 -0.14927871486E+03  0.16287510512E+03  0.00000000000E+00 0.  1.
</event>
<event>
 8    1  0.6615242E-009  0.1449274E+03  0.7561462E-02  0.1206848E+00
          3   -1    0    0  501    0  0.00000000000E+00  0.00000000000E+00  0.38399289755E+02  0.38399289755E+02  0.00000000000E+00 0. -1.
         -3   -1    0    0    0  501 -0.00000000000E+00 -0.00000000000E+00 -0.67377767235E+03  0.67377767235E+03  0.00000000000E+00 0.  1.
         25    2    1    2    0    0  0.14508074985E+02  0.11670565639E+03 -0.33947402217E+03  0.38042253372E+03  0.12509195803E+03 0.  0.
         23    2    1    2    0    0 -0.14508074985E+02 -0.11670565639E+03 -0.29590436043E+03  0.33175442838E+03  0.93117752100E+02 0.  0.
          5    1    3    3  502    0 -0.50475834164E+02  0.84573990655E+02 -0.18100411452E+03  0.20610805807E+03  0.41800000000E+01 0. -1.
         -5    1    3    3    0  502  0.64983909149E+02  0.32131665739E+02 -0.15846990765E+03  0.17431447565E+03  0.41800000000E+01 0. -1.
        -11    1    4    4    0    0  0.21905512954E+01 -0.44297815172E+02 -0.25146227685E+02  0.50984583069E+02  0.00000000000E+00 0.  1.
         11    1    4    4    0    0 -0.16698626280E+02 -0.72407841222E+02 -0.27075813274E+03  0.28076984531E+03  0.00000000000E+00 0. -1.
</event>
<event>
 8    1  0.6615242E-009  0.1082471E+03  0.7561462E-02  0.1263851E+00
          1   -1    0    0  501    0  0.00000000000E+00  0.00000000000E+00  0.47551003730E+02  0.47551003730E+02  0.00000000000E+00 0. -1.
         -1   -1    0    0    0  501 -0.00000000000E+00 -0.00000000000E+00 -0.47630296672E+03  0.47630296672E+03  0.00000000000E+00 0.  1.
         25    2    1    2    0    0  0.21358652099E+02 -0.81058892965E+02 -0.12391423049E+03  0.19501106388E+03  0.12509133611E+03 0.  0.
         23    2    1    2    0    0 -0.21358652099E+02  0.81058892965E+02 -0.30483773250E+03  0.32884290657E+03  0.90470314998E+02 0.  0.
          5    1    3    3  502    0  0.55692303865E+02 -0.65945835082E+02 -0.26264649592E+02  0.90320485454E+02  0.41800000000E+01 0.  1.
         -5    1    3    3    0  502 -0.34333651766E+02 -0.15113057883E+02 -0.97649580898E+02  0.10469057843E+03  0.41800000000E+01 0.  1.
        -11    1    4    4    0    0  0.11398992187E+02  0.18960748138E+02 -0.75484043250E+01  0.23375743853E+02  0.00000000000E+00 0. -1.
         11    1    4    4    0    0 -0.32757644285E+02  0.62098144827E+02 -0.29728932818E+03  0.30546716272E+03  0.00000000000E+00 0.  1.
</event>
<event>
 8    1  0.6615242E-009  0.9838698E+02  0.7561462E-02  0.1283725E+00
         -1   -1    0    0    0  501 -0.00000000000E+00  0.00000000000E+00  0.60508532537E+03  0.60508532537E+03  0.00000000000E+00 0.  1.
          1   -1    0    0  501    0  0.00000000000E+00 -0.00000000000E+00 -0.25327043610E+02  0.25327043610E+02  0.00000000000E+00 0. -1.
         25    2    1    2    0    0  0.15225469326E+02 -0.46552181737E+02  0.39217567936E+03  0.41454550738E+03  0.12508914289E+03 0.  0.
         23    2    1    2    0    0 -0.15225469326E+02  0.46552181737E+02  0.18758260240E+03  0.21586686160E+03  0.94933390711E+02 0.  0.
          5    1    3    3  502    0  0.48963738704E+02 -0.54224077304E+02  0.35915847857E+03  0.36653783352E+03  0.41800000000E+01 0. -1.
         -5    1    3    3    0  502 -0.33738269378E+02  0.76718955667E+01  0.33017200781E+02  0.48007673862E+02  0.41800000000E+01 0. -1.
        -11    1    4    4    0    0 -0.35523389068E+02  0.56030041998E+02  0.18060387174E+03  0.19240331407E+03  0.00000000000E+00 0.  1.
         11    1    4    4    0    0  0.20297919742E+02 -0.94778602607E+01  0.69787306598E+01  0.23463547528E+02  0.00000000000E+00 0. -1.
</event>
<event>
 8    1  0.6615242E-009  0.1161038E+03  0.7561462E-02  0.1249667E+00
         -4   -1    0    0    0  501 -0.00000000000E+00  0.00000000000E+00  0.65927573601E+02  0.65927573601E+02  0.00000000000E+00 0.  1.
          4   -1    0    0  501    0  0.00000000000E+00 -0.00000000000E+00 -0.28167377700E+03  0.28167377700E+03  0.00000000000E+00 0. -1.
         25    2    1    2    0    0 -0.21030585658E+02  0.61076983562E+02 -0.53295751254E+02  0.15053470451E+03  0.12509027423E+03 0.  0.
         23    2    1    2    0    0  0.21030585658E+02 -0.61076983562E+02 -0.16245045215E+03  0.19706664609E+03  0.90952900697E+02 0.  0.
          5    1    3    3  502    0  0.30878606302E+02  0.64117422568E+02  0.60216844577E+01  0.71542052582E+02  0.41800000000E+01 0. -1.
         -5    1    3    3    0  502 -0.51909191960E+02 -0.30404390062E+01 -0.59317435712E+02  0.78992651929E+02  0.41800000000E+01 0. -1.
        -11    1    4    4    0    0  0.24513952346E+02  0.17487278379E+02 -0.66546411060E+02  0.73042204168E+02  0.00000000000E+00 0. -1.
         11    1    4    4    0    0 -0.34833666878E+01 -0.78564261942E+02 -0.95904041087E+02  0.12402444192E+03  0.00000000000E+00 0.  1.
</event>
<event>
 8    1  0.6615242E-009  0.1557880E+03  0.7561462E-02  0.1193536E+00
          3   -1    0    0  501    0  0.00000000000E+00  0.00000000000E+00  0.10985602862E+04  0.10985602862E+04  0.00000000000E+00 0. -1.
         -3   -1    0    0    0  501 -0.00000000000E+00 -0.00000000000E+00 -0.26601345961E+02  0.26601345961E+02  0.00000000000E+00 0.  1.
         25    2    1    2    0    0  0.10129793271E+03 -0.81723984108E+02  0.55362694400E+03  0.58231382067E+03  0.12508601788E+03 0.  0.
         23    2    1    2    0    0 -0.10129793271E+03  0.81723984108E+02  0.51833199620E+03  0.54284781145E+03  0.95265982214E+02 0.  0.
          5    1    3    3  502    0 -0.14845639310E+01  0.11025465491E+02  0.22982705843E+03  0.23013412178E+03  0.41800000000E+01 0.  1.
         -5    1    3    3    0  502  0.10278249664E+03 -0.92749449598E+02  0.32379988557E+03  0.35217969889E+03  0.41800000000E+01 0.  1.
        -11    1    4    4    0    0  0.16200901227E+01  0.54772325436E+02  0.16687028740E+03  0.17563691281E+03  0.00000000000E+00 0. -1.
         11    1    4    4    0    0 -0.10291802283E+03  0.26951658671E+02  0.35146170880E+03  0.36721089864E+03  0.00000000000E+00 0.  1.
</event>
<event>
 8    1  0.6615242E-009  0.1560210E+03  0.7561462E-02  0.1193264E+00
         -2   -1    0    0    0  501 -0.00000000000E+00  0.00000000000E+00  0.36725647120E+02  0.36725647120E+02  0.00000000000E+00 0.  1.
          2   -1    0    0  501    0  0.00000000000E+00 -0.00000000000E+00 -0.75893513943E+03  0.75893513943E+03  0.00000000000E+00 0. -1.
         25    2    1    2    0    0 -0.96320556770E+02 -0.76044530914E+02 -0.45792679799E+03  0.49031128650E+03  0.12509110687E+03 0.  0.
         23    2    1    2    0    0  0.96320556770E+02  0.76044530914E+02 -0.26428269432E+03  0.30534950004E+03  0.91282825996E+02 0.  0.
          5    1    3    3  502    0  0.19862825338E+02  0.16447067337E+02 -0.83380712024E+02  0.87377648126E+02  0.41800000000E+01 0.  1.
         -5    1    3    3    0  502 -0.11618338211E+03 -0.92491598251E+02 -0.37454608596E+03  0.40293363838E+03  0.41800000000E+01 0.  1.
        -11    1    4    4    0    0  0.55731622402E+02  0.55460831920E+01 -0.17871143504E+03  0.18728200605E+03  0.00000000000E+00 0.  1.
         11    1    4    4    0    0  0.40588934367E+02  0.70498447722E+02 -0.85571259278E+02  0.11806749400E+03  0.00000000000E+00 0. -1.
</event>
<event>
 8    1  0.6615242E-009  0.7642591E+02  0.7561462E-02  0.1339511E+00
          2   -1    0    0  501    0  0.00000000000E+00  0.00000000000E+00  0.21912161929E+03  0.21912161929E+03  0.00000000000E+00 0.  1.
         -2   -1    0    0    0  501 -0.00000000000E+00 -0.00000000000E+00 -0.60948548447E+02  0.60948548447E+02  0.00000000000E+00 0. -1.
         25    2    1    2    0    0  0.31772614782E+02  0.18552772160E+02  0.10960596336E+03  0.17032789155E+03  0.12507765201E+03 0.  0.
         23    2    1    2    0    0 -0.31772614782E+02 -0.18552772160E+02  0.48567107479E+02  0.10974227618E+03  0.91273757714E+02 0.  0.
          5    1    3    3  502    0 -0.40474927351E+02  0.14651114173E+02  0.82130388795E+02  0.92821053938E+02  0.41800000000E+01 0. -1.
         -5    1    3    3    0  502  0.72247542134E+02  0.39016579878E+01  0.27475574564E+02  0.77506837615E+02  0.41800000000E+01 0. -1.
        -11    1    4    4    0    0 -0.17913558471E+02 -0.75687071478E+01  0.75255063304E+02  0.77727121765E+02  0.00000000000E+00 0.  1.
         11    1    4    4    0    0 -0.13859056312E+02 -0.10984065013E+02 -0.26687955825E+02  0.32015154414E+02  0.00000000000E+00 0. -1.
</event>
<event>
 8    1  0.6615242E-009  0.1192387E+03  0.7561462E-02  0.1244358E+00
          2   -1    0    0  501    0  0.00000000000E+00  0.00000000000E+00  0.17162129101E+03  0.17162129101E+03  0.00000000000E+00 0. -1.
         -2   -1    0    0    0  501 -0.00000000000E+00 -0.00000000000E+00 -0.11553583966E+03  0.11553583966E+03  0.00000000000E+00 0.  1.
         25    2    1    2    0    0  0.40649542636E+02 -0.74314247071E+02  0.42362830026E+01  0.15112558039E+03  0.12508398107E+03 0.  0.
         23    2    1    2    0    0 -0.40649542636E+02  0.74314247071E+02  0.51849168345E+02  0.13603155027E+03  0.92958344315E+02 0.  0.
          5    1    3    3  502    0  0.90911773375E+01 -0.84734674713E+02  0.46520651814E+02  0.97181572581E+02  0.41800000000E+01 0. -1.
         -5    1    3    3    0  502  0.31558365298E+02  0.10420427641E+02 -0.42284368812E+02  0.53944007807E+02  0.41800000000E+01 0. -1.
        -11    1    4    4    0    0 -0.50407690517E+02  0.61301857319E+01  0.43090547323E+02  0.66598120912E+02  0.00000000000E+00 0. -1.
         11    1    4    4    0    0  0.97581478816E+01  0.68184061339E+02  0.87586210219E+01  0.69433429362E+02  0.00000000000E+00 0.  1.
</event>
<event>
 8    1  0.6615242E-009  0.1122904E+03  0.7561462E-02  0.1256386E+00
         -3   -1    0    0    0  501 -0.00000000000E+00  0.00000000000E+00  0.35907852086E+02  0.35907852086E+02  0.00000000000E+00 0.  1.
          3   -1    0    0  501    0  0.00000000000E+00 -0.00000000000E+00 -0.52315304537E+03  0.52315304537E+03  0.00000000000E+00 0. -1.
         25    2    1    2    0    0 -0.30219140217E+02 -0.69172564594E+02 -0.35350717996E+03  0.38251127069E+03  0.12509798477E+03 0.  0.
         23    2    1    2    0    0  0.30219140217E+02  0.69172564594E+02 -0.13373801333E+03  0.17654962677E+03  0.87096925177E+02 0.  0.
          5    1    3    3  502    0 -0.61852553045E+02  0.73834062841E+01 -0.17106170262E+03  0.18209841161E+03  0.41800000000E+01 0.  1.
         -5    1    3    3    0  502  0.31633412829E+02 -0.76555970878E+02 -0.18244547734E+03  0.20041285909E+03  0.41800000000E+01 0.  1.
        -11    1    4    4    0    0 -0.17120694168E+01  0.23043787104E+02 -0.11515387508E+03  0.11744940295E+03  0.00000000000E+00 0. -1.
         11    1    4    4    0    0  0.31931209634E+02  0.46128777490E+02 -0.18584138243E+02  0.59100223821E+02  0.00000000000E+00 0.  1.
</event>
<event>
 7    1  0.6615242E-009  0.1831551E+03  0.7561462E-02  0.1164784E+00
         -4   -1    0    0    0  501 -0.00000000000E+00  0.00000000000E+00  0.40620462418E+02  0.40620462418E+02  0.00000000000E+00 0.  1.
          4   -1    0    0  501    0  0.00000000000E+00 -0.00000000000E+00 -0.97103469147E+03  0.97103469147E+03  0.00000000000E+00 0. -1.
         23    2    1    2    0    0 -0.13551178255E+03  0.79690918054E+02 -0.30663184522E+03  0.35630626820E+03  0.90647573758E+02 0.  0.
          5    1    1    2  502    0  0.15327847036E+03 -0.50005408949E+02 -0.44804285245E+03  0.47618767354E+03  0.41800000000E+01 0. -1.
         -5    1    1    2    0  502 -0.17766687810E+02 -0.29685509105E+02 -0.17573953139E+03  0.17916121215E+03  0.41800000000E+01 0. -1.
        -11    1    3    3    0    0 -0.13801668669E+03  0.60278185638E+02 -0.29992670137E+03  0.33561598839E+03  0.00000000000E+00 0. -1.
         11    1    3    3    0    0  0.25049041427E+01  0.19412732416E+02 -0.67051438480E+01  0.20690279811E+02  0.00000000000E+00 0.  1.
</event>
<event>
 8    1  0.6615242E-009  0.3221661E+03  0.7561462E-02  0.1074657E+00
          2   -1    0    0  501    0  0.00000000000E+00  0.00000000000E+00  0.17381359380E+04  0.17381359380E+04  0.00000000000E+00 0. -1.
         -2   -1    0    0    0  501 -0.00000000000E+00 -0.00000000000E+00 -0.96536230875E+02  0.96536230875E+02  0.00000000000E+00 0.  1.
         25    2    1    2    0    0  0.18468810627E+03  0.25046448915E+03  0.13730792754E+04  0.14134481475E+04  0.12508721845E+03 0.  0.
         23    2    1    2    0    0 -0.18468810627E+03 -0.25046448915E+03  0.26852043171E+03  0.42122402136E+03  0.92110243731E+02 0.  0.
          5    1    3    3  502    0  0.83700613542E+02  0.31643242484E+02  0.27488178898E+03  0.28910994070E+03  0.41800000000E+01 0. -1.
         -5    1    3    3    0  502  0.10098749273E+03  0.21882124667E+03  0.10981974865E+04  0.11243382068E+04  0.41800000000E+01 0. -1.
        -11    1    4    4    0    0 -0.27816481574E+02 -0.65653746190E+02  0.19999755269E+02  0.74055123029E+02  0.00000000000E+00 0.  1.
         11    1    4    4    0    0 -0.15687162470E+03 -0.18481074296E+03  0.24852067644E+03  0.34716889833E+03  0.00000000000E+00 0. -1.
</event>
<event>
 8    1  0.6615242E-009  0.1213761E+03  0.7561462E-02  0.1240844E+00
          1   -1    0    0  501    0  0.00000000000E+00  0.00000000000E+00  0.10043596089E+03  0.10043596089E+03  0.00000000000E+00 0. -1.
         -1   -1    0    0    0  501 -0.00000000000E+00 -0.00000000000E+00 -0.19105149557E+03  0.19105149557E+03  0.00000000000E+00 0.  1.
         25    2    1    2    0    0 -0.78297786102E+02  0.39245274091E+02 -0.52260387468E+02  0.16139379553E+03  0.12508426876E+03 0.  0.
         23    2    1    2    0    0  0.78297786102E+02 -0.39245274091E+02 -0.38355147207E+02  0.13009366092E+03  0.88218526673E+02 0.  0.
          5    1    3    3  502    0 -0.98795750906E+02 -0.97777757727E+01 -0.32437365488E+02  0.10452684046E+03  0.41800000000E+01 0. -1.
         -5    1    3    3    0  502  0.20497964805E+02  0.49023049863E+02 -0.19823021980E+02  0.56866955074E+02  0.41800000000E+01 0. -1.
        -11    1    4    4    0    0  0.14784058940E+02  0.11268229639E+01 -0.51591368729E+02  0.53679674515E+02  0.00000000000E+00 0.  1.
         11    1    4    4    0    0  0.63513727162E+02 -0.40372097054E+02  0.13236221522E+02  0.76413986408E+02  0.00000000000E+00 0. -1.
</event>
<event>
 7    1  0.6615242E-009  0.1184138E+03  0.7561462E-02  0.1245737E+00
          3   -1    0    0  501    0  0.00000000000E+00  0.00000000000E+00  0.27893062676E+03  0.27893062676E+03  0.00000000000E+00 0. -1.
         -3   -1    0    0    0  501 -0.00000000000E+00 -0.00000000000E+00 -0.83032906479E+02  0.83032906479E+02  0.00000000000E+00 0.  1.
         23    2    1    2    0    0  0.84790225353E+02 -0.22511154877E+01  0.15810729467E+03  0.20113069367E+03  0.90891085783E+02 0.  0.
          5    1    1    2  502    0  0.14332971779E+02 -0.22580949347E+01 -0.34722712599E+02  0.37863864607E+02  0.41800000000E+01 0.  1.
         -5    1    1    2    0  502 -0.99123197132E+02  0.45092104224E+01  0.72513138208E+02  0.12296897495E+03  0.41800000000E+01 0.  1.
        -11    1    3    3    0    0  0.89502605575E+02 -0.29901151856E+02  0.10573568663E+03  0.14172096074E+03  0.00000000000E+00 0.  1.
         11    1    3    3    0    0 -0.47123802222E+01  0.27650036368E+02  0.52371608035E+02  0.59409732929E+02  0.00000000000E+00 0. -1.
</event>
<event>
 8    1  0.6615242E-009  0.1254070E+03  0.7561462E-02  0.1234435E+00
          2   -1    0    0  501    0  0.00000000000E+00  0.00000000000E+00  0.24451688012E+03  0.24451688012E+03  0.00000000000E+00 0. -1.
         -2   -1    0    0    0  501 -0.00000000000E+00 -0.00000000000E+00 -0.11341216621E+03  0.11341216621E+03  0.00000000000E+00 0.  1.
         25    2    1    2    0    0 -0.35320213595E+02 -0.11130677548E+03  0.21591429325E+02  0.17247987478E+03  0.12508557722E+03 0.  0.
         23    2    1    2    0    0  0.35320213595E+02  0.11130677548E+03  0.10951328459E+03  0.18544917156E+03  0.93602991261E+02 0.  0.
          5    1    3    3  502    0 -0.80559257865E+01 -0.95065292110E+02  0.67191399617E+02  0.11676670881E+03  0.41800000000E+01 0. -1.
         -5    1    3    3    0  502 -0.27264287809E+02 -0.16241483374E+02 -0.45599970291E+02  0.55713165971E+02  0.41800000000E+01 0. -1.
        -11    1    4    4    0    0  0.22118104321E+02  0.16523306646E+02  0.81026252557E+02  0.85600723155E+02  0.00000000000E+00 0. -1.
         11    1    4    4    0    0  0.13202109275E+02  0.94783468838E+02  0.28487032029E+02  0.99848448401E+02  0.00000000000E+00 0.  1.
</event>
<event>
 8    1  0.6615242E-009  0.1321155E+03  0.7561462E-02  0.1224350E+00
         -2   -1    0    0    0  501 -0.00000000000E+00  0.00000000000E+00  0.99321369190E+02  0.99321369190E+02  0.00000000000E+00 0.  1.
          2   -1    0    0  501    0  0.00000000000E+00 -0.00000000000E+00 -0.21946888487E+03  0.21946888487E+03  0.00000000000E+00 0. -1.
         25    2    1    2    0    0 -0.82716550299E+02 -0.51130047756E+02 -0.88626275277E+02  0.18154106673E+03  0.12508490223E+03 0.  0.
         23    2    1    2    0    0  0.82716550299E+02  0.51130047756E+02 -0.31521240407E+02  0.13724918733E+03  0.91582975213E+02 0.  0.
          5    1    3    3  502    0 -0.10433875675E+03 -0.33933567802E+02 -0.10262333896E+03  0.15029000393E+03  0.41800000000E+01 0.  1.
         -5    1    3    3    0  502  0.21622206447E+02 -0.17196479953E+02  0.13997063683E+02  0.31251062801E+02  0.41800000000E+01 0.  1.
        -11    1    4    4    0    0  0.44735002050E+02  0.70777468452E+02 -0.41332351941E+02  0.93375766481E+02  0.00000000000E+00 0. -1.
         11    1    4    4    0    0  0.37981548249E+02 -0.19647420697E+02  0.98111115339E+01  0.43873420848E+02  0.00000000000E+00 0.  1.
</event>
<event>
 8    1  0.6615242E-009  0.1071175E+03  0.7561462E-02  0.1266003E+00
          1   -1    0    0  501    0  0.00000000000E+00  0.00000000000E+00  0.14830796225E+04  0.14830796225E+04  0.00000000000E+00 0. -1.
         -1   -1    0    0    0  501 -0.00000000000E+00 -0.00000000000E+00 -0.97877395864E+01  0.97877395864E+01  0.00000000000E+00 0.  1.
         25    2    1    2    0    0  0.44575531597E+02  0.55980555159E+01  0.99573157909E+03  0.10045633011E+04  0.12509089490E+03 0.  0.
         23    2    1    2    0    0 -0.44575531597E+02 -0.55980555159E+01  0.47756030387E+03  0.48830406107E+03  0.91425904369E+02 0.  0.
          5    1    3    3  502    0 -0.33731531937E+02 -0.39008506703E+01  0.60281791630E+03  0.60378799715E+03  0.41800000000E+01 0.  1.
         -5    1    3    3    0  502  0.78307063534E+02  0.94989061862E+01  0.39291366278E+03  0.40077530391E+03  0.41800000000E+01 0.  1.
        -11    1    4    4    0    0  0.16147538035E+02 -0.31200073193E+02  0.19702621931E+03  0.20013375189E+03  0.00000000000E+00 0.  1.
         11    1    4    4    0    0 -0.60723069632E+02  0.25602017677E+02  0.28053408456E+03  0.28817030918E+03  0.00000000000E+00 0. -1.
</event>
<event>
 8    1  0.6615242E-009  0.1073859E+03  0.7561462E-02  0.1265489E+00
          1   -1    0    0  501    0  0.00000000000E+00  0.00000000000E+00  0.38849025442E+02  0.38849025442E+02  0.00000000000E+00 0. -1.
         -1   -1    0    0    0  501 -0.00000000000E+00 -0.00000000000E+00 -0.30629568289E+03  0.30629568289E+03  0.00000000000E+00 0.  1.
         25    2    1    2    0    0 -0.54077449020E+01 -0.92300581208E+01 -0.13403618918E+03  0.18365041867E+03  0.12508932245E+03 0.  0.
         23    2    1    2    0    0  0.54077449020E+01  0.92300581208E+01 -0.13341046828E+03  0.16149428967E+03  0.90374857523E+02 0.  0.
          5    1    3    3  502    0 -0.19232953108E+02 -0.64161030901E+02 -0.87177233465E+02  0.11001766588E+03  0.41800000000E+01 0.  1.
         -5    1    3    3    0  502  0.13825208206E+02  0.54930972780E+02 -0.46858955710E+02  0.73632752785E+02  0.41800000000E+01 0.  1.
        -11    1    4    4    0    0 -0.33234276486E+02 -0.23104096704E+02 -0.63968773205E+02  0.75698879539E+02  0.00000000000E+00 0.  1.
         11    1    4    4    0    0  0.38642021388E+02  0.32334154824E+02 -0.69441695071E+02  0.85795410130E+02  0.00000000000E+00 0. -1.
</event>
<event>
 8    1  0.6615242E-009  0.1347538E+03  0.7561462E-02  0.1220568E+00
          1   -1    0    0  501    0  0.00000000000E+00  0.00000000000E+00  0.35521372481E+03  0.35521372481E+03  0.00000000000E+00 0.  1.
         -1   -1    0    0    0  501 -0.00000000000E+00 -0.00000000000E+00 -0.12545249368E+03  0.12545249368E+03  0.00000000000E+00 0. -1.
         25    2    1    2    0    0 -0.57433161724E+02  0.76831282907E+02  0.29464705456E+03  0.33416303874E+03  0.12508571302E+03 0.  0.
         23    2    1    2    0    0  0.57433161724E+02 -0.76831282907E+02 -0.64885823428E+02  0.14650317974E+03  0.89729579816E+02 0.  0.
          5    1    3    3  502    0 -0.82101837803E+02  0.79669134482E+02  0.28511384540E+03  0.30723811613E+03  0.41800000000E+01 0. -1.
         -5    1    3    3    0  502  0.24668676079E+02 -0.28378515748E+01  0.95332091572E+01  0.26924922616E+02  0.41800000000E+01 0. -1.
        -11    1    4    4    0    0 -0.57413803193E+01 -0.65395346765E+02 -0.21748522073E+02  0.69155715880E+02  0.00000000000E+00 0.  1.
         11    1    4    4    0    0  0.63174542043E+02 -0.11435936143E+02 -0.43137301355E+02  0.77347463863E+02  0.00000000000E+00 0. -1.
</event>
<event>
 8    1  0.6615242E-009  0.1068857E+03  0.7561462E-02  0.1266448E+00
         -2   -1    0    0    0  501 -0.00000000000E+00  0.00000000000E+00  0.42345314666E+02  0.42345314666E+02  0.00000000000E+00 0.  1.
          2   -1    0    0  501    0  0.00000000000E+00 -0.00000000000E+00 -0.42559492051E+03  0.42559492051E+03  0.00000000000E+00 0. -1.
         25    2    1    2    0    0  0.14239063155E+02  0.60279575765E+02 -0.11454257572E+03  0.18056551481E+03  0.12509006879E+03 0.  0.
         23    2    1    2    0    0 -0.14239063155E+02 -0.60279575765E+02 -0.26870703012E+03  0.28737472036E+03  0.80897365205E+02 0.  0.
          5    1    3    3  502    0 -0.44986090497E+02  0.63004228635E+02 -0.47290135291E+02  0.90813602836E+02  0.41800000000E+01 0.  1.
         -5    1    3    3    0  502  0.59225153651E+02 -0.27246528700E+01 -0.67252440432E+02  0.89751911971E+02  0.41800000000E+01 0.  1.
        -11    1    4    4    0    0  0.16065746656E+02 -0.29630472853E+02 -0.31007048938E+02  0.45798583177E+02  0.00000000000E+00 0.  1.
         11    1    4    4    0    0 -0.30304809810E+02 -0.30649102912E+02 -0.23769998118E+03  0.24157613719E+03  0.00000000000E+00 0. -1.
</event>
<event>
 8    1  0.6615242E-009  0.1019005E+03  0.7561462E-02  0.1276350E+00
          2   -1    0    0  501    0  0.00000000000E+00  0.00000000000E+00  0.57172425865E+03  0.57172425865E+03  0.00000000000E+00 0. -1.
         -2   -1    0    0    0  501 -0.00000000000E+00 -0.00000000000E+00 -0.24089738128E+02  0.24089738128E+02  0.00000000000E+00 0.  1.
         25    2    1    2    0    0  0.38744813053E+02 -0.19245741099E+02  0.27332352392E+03  0.30368509076E+03  0.12508927424E+03 0.  0.
         23    2    1    2    0    0 -0.38744813053E+02  0.19245741099E+02  0.27431099661E+03  0.29212890603E+03  0.90670920298E+02 0.  0.
          5    1    3    3  502    0  0.22759556197E+02  0.49333685152E+02  0.17045542580E+03  0.17895344220E+03  0.41800000000E+01 0.  1.
         -5    1    3    3    0  502  0.15985256856E+02 -0.68579426251E+02  0.10286809812E+03  0.12473164856E+03  0.41800000000E+01 0.  1.
        -11    1    4    4    0    0 -0.48475642757E+02  0.35319751521E+02  0.26393564314E+03  0.27066473082E+03  0.00000000000E+00 0. -1.
         11    1    4    4    0    0  0.97308297039E+01 -0.16074010422E+02  0.10375353463E+02  0.21464175206E+02  0.00000000000E+00 0.  1.
</event>
<event>
 8    1  0.6615242E-009  0.1652711E+03  0.7561462E-02  0.1182871E+00
          2   -1    0    0  501    0  0.00000000000E+00  0.00000000000E+00  0.18775585696E+04  0.18775585696E+04  0.00000000000E+00 0. -1.
         -2   -1    0    0    0  501 -0.00000000000E+00 -0.00000000000E+00 -0.20863154652E+02  0.20863154652E+02  0.00000000000E+00 0.  1.
         25    2    1    2    0    0 -0.13513411389E+03 -0.29274913776E+02  0.13345842536E+04  0.13475461824E+04  0.12508930591E+03 0.  0.
         23    2    1    2    0    0  0.13513411389E+03  0.29274913776E+02  0.52211116137E+03  0.55087554187E+03  0.10837688169E+03 0.  0.
          5    1    3    3  502    0  0.80361574304E+01 -0.27350403034E+01  0.51698324812E+03  0.51706983233E+03  0.41800000000E+01 0. -1.
         -5    1    3    3    0  502 -0.14317027132E+03 -0.26539873472E+02  0.81760100547E+03  0.83047635007E+03  0.41800000000E+01 0. -1.
        -11    1    4    4    0    0  0.10053328878E+03 -0.31605740150E+02  0.32847831808E+03  0.34496937605E+03  0.00000000000E+00 0. -1.
         11    1    4    4    0    0  0.34600825115E+02  0.60880653925E+02  0.19363284330E+03  0.20590616582E+03  0.00000000000E+00 0.  1.
</event>
<event>
 8    1  0.6615242E-009  0.1299186E+03  0.7561462E-02  0.1227577E+00
          2   -1    0    0  501    0  0.00000000000E+00  0.00000000000E+00  0.15702732921E+03  0.15702732921E+03  0.00000000000E+00 0. -1.
         -2   -1    0    0    0  501 -0.00000000000E+00 -0.00000000000E+00 -0.29960452716E+03  0.29960452716E+03  0.00000000000E+00 0.  1.
         25    2    1    2    0    0 -0.80590029343E+02  0.88815744345E+02 -0.23166517285E+03  0.28930877322E+03  0.12509126539E+03 0.  0.
         23    2    1    2    0    0  0.80590029343E+02 -0.88815744345E+02  0.89087974908E+02  0.16732308315E+03  0.75348242233E+02 0.  0.
          5    1    3    3  502    0 -0.25581905873E+02  0.10210147692E+01  0.88384474063E+01  0.27405600373E+02  0.41800000000E+01 0. -1.
         -5    1    3    3    0  502 -0.55008123469E+02  0.87794729576E+02 -0.24050362026E+03  0.26190317285E+03  0.41800000000E+01 0. -1.
        -11    1    4    4    0    0  0.16693208627E+02 -0.55883185626E+02  0.73393526347E+02  0.93745417806E+02  0.00000000000E+00 0. -1.
         11    1    4    4    0    0  0.63896820715E+02 -0.32932558719E+02  0.15694448560E+02  0.73577665340E+02  0.00000000000E+00 0.  1.
</event>
<event>
 8    1  0.6615242E-009  0.1604769E+03  0.7561462E-02  0.1188159E+00
         -2   -1    0    0    0  501 -0.00000000000E+00  0.00000000000E+00  0.32595248487E+03  0.32595248487E+03  0.00000000000E+00 0.  1.
          2   -1    0    0  501    0  0.00000000000E+00 -0.00000000000E+00 -0.85143263172E+02  0.85143263172E+02  0.00000000000E+00 0. -1.
         25    2    1    2    0    0  0.21413413317E+01  0.12728370107E+03  0.11866863526E+03  0.21432778821E+03  0.12509368451E+03 0.  0.
         23    2    1    2    0    0 -0.21413413317E+01 -0.12728370107E+03  0.12214058643E+03  0.19676795983E+03  0.87141157101E+02 0.  0.
          5    1    3    3  502    0 -0.38142136707E+02  0.12103246195E+03  0.54458481312E+02  0.13815526781E+03  0.41800000000E+01 0.  1.
         -5    1    3    3    0  502  0.40283478039E+02  0.62512391190E+01  0.64210153952E+02  0.76172520399E+02  0.41800000000E+01 0.  1.
        -11    1    4    4    0    0 -0.59883776735E+01  0.12135720613E+02  0.18885484931E+02  0.23233551666E+02  0.00000000000E+00 0.  1.
         11    1    4    4    0    0  0.38470363418E+01 -0.13941942168E+03  0.10325510150E+03  0.17353440816E+03  0.00000000000E+00 0. -1.
</event>
<event>
 8    1  0.6615242E-009  0.8724226E+02  0.7561462E-02  0.1309671E+00
          1   -1    0    0  501    0  0.00000000000E+00  0.00000000000E+00  0.24236944399E+03  0.24236944399E+03  0.00000000000E+00 0. -1.
         -1   -1    0    0    0  501 -0.00000000000E+00 -0.00000000000E+00 -0.66392145576E+02  0.66392145576E+02  0.00000000000E+00 0.  1.
         25    2    1    2    0    0 -0.43816983743E+02 -0.26317366306E+02  0.16093870955E+03  0.21014566636E+03  0.12508957200E+03 0.  0.
         23    2    1    2    0    0  0.43816983743E+02  0.26317366306E+02  0.15038588862E+02  0.98615923210E+02  0.82984392038E+02 0.  0.
          5    1    3    3  502    0 -0.26802383973E+02 -0.56452142551E+02  0.21195600213E+02  0.66120632586E+02  0.41800000000E+01 0. -1.
         -5    1    3    3    0  502 -0.17014599771E+02  0.30134776245E+02  0.13974310934E+03  0.14402503377E+03  0.41800000000E+01 0. -1.
        -11    1    4    4    0    0 -0.10893235977E+02  0.18859016322E+02 -0.22914975479E+02  0.31613623454E+02  0.00000000000E+00 0. -1.
         11    1    4    4    0    0  0.54710219720E+02  0.74583499840E+01  0.37953564341E+02  0.67002299756E+02  0.00000000000E+00 0.  1.
</event>
<event>
 8    1  0.6615242E-009  0.9002159E+02  0.7561462E-02  0.1302799E+00
          2   -1    0    0  501    0  0.00000000000E+00  0.00000000000E+00  0.40118382417E+03  0.40118382417E+03  0.00000000000E+00 0. -1.
         -2   -1    0    0    0  501 -0.00000000000E+00 -0.00000000000E+00 -0.42335255879E+02  0.42335255879E+02  0.00000000000E+00 0.  1.
         25    2    1    2    0    0 -0.17460692439E+02 -0.37713107260E+02  0.29967542436E+03  0.32738304069E+03  0.12508853316E+03 0.  0.
         23    2    1    2    0    0  0.17460692439E+02  0.37713107260E+02  0.59173143931E+02  0.11613603936E+03  0.90878844815E+02 0.  0.
          5    1    3    3  502    0 -0.67358511191E+02 -0.25591963597E+02  0.22772618892E+03  0.23889078499E+03  0.41800000000E+01 0.  1.
         -5    1    3    3    0  502  0.49897818752E+02 -0.12121143662E+02  0.71949235431E+02  0.88492255701E+02  0.41800000000E+01 0.  1.
        -11    1    4    4    0    0  0.28299554954E+02  0.17118741967E+02 -0.16502454045E+02  0.36962780288E+02  0.00000000000E+00 0.  1.
         11    1    4    4    0    0 -0.10838862515E+02  0.20594365293E+02  0.75675597976E+02  0.79173259068E+02  0.00000000000E+00 0. -1.
</event>
<event>
 8    1  0.6615242E-009  0.1057855E+03  0.7561462E-02  0.1268580E+00
          2   -1    0    0  501    0  0.00000000000E+00  0.00000000000E+00  0.10917522328E+03  0.10917522328E+03  0.00000000000E+00 0. -1.
         -2   -1    0    0    0  501 -0.00000000000E+00 -0.00000000000E+00 -0.11336939913E+03  0.11336939913E+03  0.00000000000E+00 0.  1.
         25    2    1    2    0    0  0.20552300900E+02  0.13641361120E+02  0.46981984611E+01  0.12758079954E+03  0.12508518512E+03 0.  0.
         23    2    1    2    0    0 -0.20552300900E+02 -0.13641361120E+02 -0.88923743029E+01  0.94963822871E+02  0.91271953677E+02 0.  0.
          5    1    3    3  502    0 -0.49565766012E+02 -0.43944246446E+01  0.19423167437E+02  0.53579921254E+02  0.41800000000E+01 0. -1.
         -5    1    3    3    0  502  0.70118066912E+02  0.18035785764E+02 -0.14724968976E+02  0.74000878285E+02  0.41800000000E+01 0. -1.
        -11    1    4    4    0    0  0.97582621720E+01 -0.44678706821E+02 -0.20407981893E+02  0.50078900235E+02  0.00000000000E+00 0.  1.
         11    1    4    4    0    0 -0.30310563072E+02  0.31037345701E+02  0.11515607590E+02  0.44884922636E+02  0.00000000000E+00 0. -1.
</event>
<event>
 8    1  0.6615242E-009  0.1240284E+03  0.7561462E-02  0.1236596E+00
         -2   -1    0    0    0  501 -0.00000000000E+00  0.00000000000E+00  0.58429611275E+02  0.58429611275E+02  0.00000000000E+00 0.  1.
          2   -1    0    0  501    0  0.00000000000E+00 -0.00000000000E+00 -0.40182636549E+03  0.40182636549E+03  0.00000000000E+00 0. -1.
         25    2    1    2    0    0 -0.58941996938E+02  0.66848897301E+02 -0.27819191542E+03  0.31777453555E+03  0.12508788737E+03 0.  0.
         23    2    1    2    0    0  0.58941996938E+02 -0.66848897301E+02 -0.65204838804E+02  0.14248144122E+03  0.90035304275E+02 0.  0.
          5    1    3    3  502    0 -0.32393498855E+02 -0.34970031778E+02 -0.76153301485E+02  0.89939088375E+02  0.41800000000E+01 0.  1.
         -5    1    3    3    0  502 -0.26548498083E+02  0.10181892908E+03 -0.20203861393E+03  0.22783544717E+03  0.41800000000E+01 0.  1.
        -11    1    4    4    0    0  0.42203969328E+02 -0.65744760892E+02 -0.85720617201E+02  0.11598091578E+03  0.00000000000E+00 0.  1.
         11    1    4    4    0    0  0.16738027610E+02 -0.11041364089E+01  0.20515778397E+02  0.26500525443E+02  0.00000000000E+00 0. -1.
</event>
<event>
 8    1  0.6615242E-009  0.2121226E+03  0.7561462E-02  0.1139896E+00
          2   -1    0    0  501    0  0.00000000000E+00  0.00000000000E+00  0.36947682167E+03  0.36947682167E+03  0.00000000000E+00 0. -1.
         -2   -1    0    0    0  501 -0.00000000000E+00 -0.00000000000E+00 -0.14153084477E+03  0.14153084477E+03  0.00000000000E+00 0.  1.
         25    2    1    2    0    0 -0.13492224083E+03 -0.14893425196E+03  0.11120731362E+03  0.26153394033E+03  0.12509001905E+03 0.  0.
         23    2    1    2    0    0  0.13492224083E+03  0.14893425196E+03  0.11673866327E+03  0.24947372610E+03  0.90685180900E+02 0.  0.
          5    1    3    3  502    0 -0.10765932908E+03 -0.92507045743E+02  0.13348333017E+03  0.19489319250E+03  0.41800000000E+01 0.  1.
         -5    1    3    3    0  502 -0.27262911758E+02 -0.56427206214E+02 -0.22276016547E+02  0.66640747834E+02  0.41800000000E+01 0.  1.
        -11    1    4    4    0    0  0.60525899719E+02  0.93282839248E+01  0.21940950090E+02  0.65052338226E+02  0.00000000000E+00 0.  1.
         11    1    4    4    0    0  0.74396341114E+02  0.13960596803E+03  0.94797713185E+02  0.18442138788E+03  0.00000000000E+00 0. -1.
</event>
<event>
 8    1  0.6615242E-009  0.1208468E+03  0.7561462E-02  0.1241707E+00
         -1   -1    0    0    0  501 -0.00000000000E+00  0.00000000000E+00  0.42385488185E+03  0.42385488185E+03  0.00000000000E+00 0.  1.
          1   -1    0    0  501    0  0.00000000000E+00 -0.00000000000E+00 -0.55104124515E+02  0.55104124515E+02  0.00000000000E+00 0. -1.
         25    2    1    2    0    0 -0.87342291981E+02 -0.38676337588E+02  0.26425840653E+03  0.30758189031E+03  0.12509827646E+03 0.  0.
         23    2    1    2    0    0  0.87342291981E+02  0.38676337588E+02  0.10449235081E+03  0.17137711605E+03  0.96576029477E+02 0.  0.
          5    1    3    3  502    0 -0.10659509793E+03 -0.47472879711E+01  0.23659421441E+03  0.25957531920E+03  0.41800000000E+01 0. -1.
         -5    1    3    3    0  502  0.19252805947E+02 -0.33929049617E+02  0.27664192112E+02  0.48006571112E+02  0.41800000000E+01 0. -1.
        -11    1    4    4    0    0  0.15018932178E+02  0.44549562752E+01  0.88382760744E+02  0.89760388568E+02  0.00000000000E+00 0.  1.
         11    1    4    4    0    0  0.72323359803E+02  0.34221381313E+02  0.16109590061E+02  0.81616727477E+02  0.00000000000E+00 0. -1.
</event>
<event>
 8    1  0.6615242E-009  0.1281020E+03  0.7561462E-02  0.1230300E+00
         -1   -1    0    0    0  501 -0.00000000000E+00  0.00000000000E+00  0.15820164318E+03  0.15820164318E+03  0.00000000000E+00 0.  1.
          1   -1    0    0  501    0  0.00000000000E+00 -0.00000000000E+00 -0.19843436563E+03  0.19843436563E+03  0.00000000000E+00 0. -1.
         25    2    1    2    0    0 -0.83165922592E+02 -0.90602224312E+02 -0.88541884834E+02  0.19648183385E+03  0.12506043311E+03 0.  0.
         23    2    1    2    0    0  0.83165922592E+02  0.90602224312E+02  0.48309162388E+02  0.16015417496E+03  0.90500004731E+02 0.  0.
          5    1    3    3  502    0 -0.22887101569E+02 -0.19740221477E+02  0.31961864104E+02  0.44187429425E+02  0.41800000000E+01 0.  1.
         -5    1    3    3    0  502 -0.60278821023E+02 -0.70862002836E+02 -0.12050374894E+03  0.15229440442E+03  0.41800000000E+01 0.  1.
        -11    1    4    4    0    0  0.86899021428E+02  0.69880754453E+02  0.68592321107E+02  0.13091854828E+03  0.00000000000E+00 0.  1.
         11    1    4    4    0    0 -0.37330988356E+01  0.20721469859E+02 -0.20283158720E+02  0.29235626685E+02  0.00000000000E+00 0. -1.
</event>
<event>
 8    1  0.6615242E-009  0.1709042E+03  0.7561462E-02  0.1176908E+00
         -2   -1    0    0    0  501 -0.00000000000E+00  0.00000000000E+00  0.45542675806E+03  0.45542675806E+03  0.00000000000E+00 0.  1.
          2   -1    0    0  501    0  0.00000000000E+00 -0.00000000000E+00 -0.85282197063E+02  0.85282197063E+02  0.00000000000E+00 0. -1.
         25    2    1    2    0    0 -0.12412988024E+03  0.10061899475E+03  0.15175819624E+03  0.25339680257E+03  0.12508788972E+03 0.  0.
         23    2    1    2    0    0  0.12412988024E+03 -0.10061899475E+03  0.21838636476E+03  0.28731215255E+03  0.96557026776E+02 0.  0.
          5    1    3    3  502    0 -0.31390441491E+02  0.70406365184E+01  0.11067067610E+03  0.11532736591E+03  0.41800000000E+01 0. -1.
         -5    1    3    3    0  502 -0.92739438747E+02  0.93578358231E+02  0.41087520141E+02  0.13806943666E+03  0.41800000000E+01 0. -1.
        -11    1    4    4    0    0  0.75161405584E+02 -0.10417178367E+03  0.19352908068E+03  0.23228108505E+03  0.00000000000E+00 0.  1.
         11    1    4    4    0    0  0.48968474654E+02  0.35527889166E+01  0.24857284076E+02  0.55031067504E+02  0.00000000000E+00 0. -1.
</event>
<event>
 8    1  0.6615242E-009  0.9961177E+02  0.7561462E-02  0.1281114E+00
          1   -1    0    0  501    0  0.00000000000E+00  0.00000000000E+00  0.12699767338E+03  0.12699767338E+03  0.00000000000E+00 0. -1.
         -1   -1    0    0    0  501 -0.00000000000E+00 -0.00000000000E+00 -0.96762482520E+02  0.96762482520E+02  0.00000000000E+00 0.  1.
         25    2    1    2    0    0 -0.17699620659E+02 -0.17626829608E+02  0.23863971094E+01  0.12758084058E+03  0.12508874569E+03 0.  0.
         23    2    1    2    0    0  0.17699620659E+02  0.17626829608E+02  0.27848793752E+02  0.96179315318E+02  0.88605438254E+02 0.  0.
          5    1    3    3  502    0 -0.29102512218E+02 -0.60462688852E+02 -0.28882531578E+02  0.73173533405E+02  0.41800000000E+01 0. -1.
         -5    1    3    3    0  502  0.11402891559E+02  0.42835859244E+02  0.31268928687E+02  0.54407307178E+02  0.41800000000E+01 0. -1.
        -11    1    4    4    0    0  0.49356907951E+02 -0.33825384931E+01  0.30455657668E+02  0.58095550718E+02  0.00000000000E+00 0.  1.
         11    1    4    4    0    0 -0.31657287292E+02  0.21009368101E+02 -0.26068639157E+01  0.38083764601E+02  0.00000000000E+00 0. -1.
</event>
<event>
 8    1  0.6615242E-009  0.1331681E+03  0.7561462E-02  0.1222829E+00
         -2   -1    0    0    0  501 -0.00000000000E+00  0.00000000000E+00  0.46878907661E+02  0.46878907661E+02  0.00000000000E+00 0.  1.
          2   -1    0    0  501    0  0.00000000000E+00 -0.00000000000E+00 -0.47723914615E+03  0.47723914615E+03  0.00000000000E+00 0. -1.
         25    2    1    2    0    0 -0.35043435663E+02 -0.73650205167E+02 -0.33848946884E+03  0.36996662755E+03  0.12509112632E+03 0.  0.
         23    2    1    2    0    0  0.35043435663E+02  0.73650205167E+02 -0.91870769646E+02  0.15415142625E+03  0.93112989409E+02 0.  0.
          5    1    3    3  502    0  0.40373311451E+02  0.41245894353E+01 -0.99229036927E+02  0.10728881901E+03  0.41800000000E+01 0.  1.
         -5    1    3    3    0  502 -0.75416747115E+02 -0.77774794602E+02 -0.23926043192E+03  0.26267780854E+03  0.41800000000E+01 0.  1.
        -11    1    4    4    0    0  0.43782136454E+02  0.89154375526E+02 -0.55791417907E+02  0.11392129063E+03  0.00000000000E+00 0.  1.
         11    1    4    4    0    0 -0.87387007911E+01 -0.15504170359E+02 -0.36079351739E+02  0.40230135619E+02  0.00000000000E+00 0. -1.
</event>
<event>
 8    1  0.6615242E-009  0.9879023E+02  0.7561462E-02  0.1282861E+00
         -2   -1    0    0    0  501 -0.00000000000E+00  0.00000000000E+00  0.18799807886E+03  0.18799807886E+03  0.00000000000E+00 0. -1.
          2   -1    0    0  501    0  0.00000000000E+00 -0.00000000000E+00 -0.16076735064E+03  0.16076735064E+03  0.00000000000E+00 0.  1.
         25    2    1    2    0    0 -0.94860459381E+02  0.16913193021E+01 -0.80949706827E+02  0.17663057582E+03  0.12507652843E+03 0.  0.
         23    2    1    2    0    0  0.94860459381E+02 -0.16913193021E+01  0.10818043504E+03  0.17213485368E+03  0.94477690545E+02 0.  0.
          5    1    3    3  502    0 -0.21271268336E+02 -0.15870478529E+02 -0.95732421550E+02  0.99430920146E+02  0.41800000000E+01 0. -1.
         -5    1    3    3    0  502 -0.73589191045E+02  0.17561797831E+02  0.14782714723E+02  0.77199655675E+02  0.41800000000E+01 0. -1.
        -11    1    4    4    0    0  0.42138503725E+02 -0.25274660350E+01 -0.94217070051E+01  0.43252862837E+02  0.00000000000E+00 0.  1.
         11    1    4    4    0    0  0.52721955656E+02  0.83614673284E+00  0.11760214205E+03  0.12888199084E+03  0.00000000000E+00 0. -1.
</event>
<event>
 8    1  0.6615242E-009  0.1415600E+03  0.7561462E-02  0.1211245E+00
          2   -1    0    0  501    0  0.00000000000E+00  0.00000000000E+00  0.76486720813E+02  0.76486720813E+02  0.00000000000E+00 0. -1.
         -2   -1    0    0    0  501 -0.00000000000E+00 -0.00000000000E+00 -0.38627630854E+03  0.38627630854E+03  0.00000000000E+00 0.  1.
         25    2    1    2    0    0  0.92738973374E+02  0.90296847340E+02 -0.12384536337E+03  0.21849517261E+03  0.12509367932E+03 0.  0.
         23    2    1    2    0    0 -0.92738973374E+02 -0.90296847340E+02 -0.18594422436E+03  0.24426785674E+03  0.91309875918E+02 0.  0.
          5    1    3    3  502    0  0.43686650836E+02  0.60785765805E+02 -0.14004894246E+03  0.15885405714E+03  0.41800000000E+01 0. -1.
         -5    1    3    3    0  502  0.49052322538E+02  0.29511081535E+02  0.16203579092E+02  0.59641115475E+02  0.41800000000E+01 0. -1.
        -11    1    4    4    0    0 -0.89113486362E+02 -0.35645652828E+02 -0.15220301042E+03  0.17993771811E+03  0.00000000000E+00 0. -1.
         11    1    4    4    0    0 -0.36254870125E+01 -0.54651194511E+02 -0.33741213933E+02  0.64330138623E+02  0.00000000000E+00 0.  1.
</event>
<event>
 8    1  0.6615242E-009  0.9366313E+02  0.7561462E-02  0.1294216E+00
          1   -1    0    0  501    0  0.00000000000E+00  0.00000000000E+00  0.12596193045E+03  0.12596193045E+03  0.00000000000E+00 0. -1.
         -1   -1    0    0    0  501 -0.00000000000E+00 -0.00000000000E+00 -0.10102003981E+03  0.10102003981E+03  0.00000000000E+00 0.  1.
         25    2    1    2    0    0  0.19136259449E+02  0.14717961831E+01  0.35975347604E+02  0.13157098031E+03  0.12509330364E+03 0.  0.
         23    2    1    2    0    0 -0.19136259449E+02 -0.14717961831E+01 -0.11033456964E+02  0.95410989953E+02  0.92807096827E+02 0.  0.
          5    1    3    3  502    0 -0.53563928058E+02  0.72317818781E+00  0.14974694366E+02  0.55779308413E+02  0.41800000000E+01 0. -1.
         -5    1    3    3    0  502  0.72700187507E+02  0.74861799525E+00  0.21000653238E+02  0.75791671896E+02  0.41800000000E+01 0. -1.
        -11    1    4    4    0    0  0.17804515201E+02 -0.13030693208E+02  0.31142114011E+02  0.38165835404E+02  0.00000000000E+00 0. -1.
         11    1    4    4    0    0 -0.36940774651E+02  0.11558897025E+02 -0.42175570975E+02  0.57245154549E+02  0.00000000000E+00 0.  1.
</event>
<event>
 8    1  0.6615242E-009  0.9501249E+02  0.7561462E-02  0.1291148E+00
          2   -1    0    0  501    0  0.00000000000E+00  0.00000000000E+00  0.78233855373E+02  0.78233855373E+02  0.00000000000E+00 0.  1.
         -2   -1    0    0    0  501 -0.00000000000E+00 -0.00000000000E+00 -0.18289393380E+03  0.18289393380E+03  0.00000000000E+00 0. -1.
         25    2    1    2    0    0  0.15656301859E+01 -0.32906584015E+02 -0.12575185359E+02  0.12996648888E+03  0.12509140048E+03 0.  0.
         23    2    1    2    0    0 -0.15656301859E+01  0.32906584015E+02 -0.92084893072E+02  0.13116130030E+03  0.87397738500E+02 0.  0.
          5    1    3    3  502    0 -0.59224166854E+02 -0.14276030548E+02  0.10962813293E+02  0.62040008567E+02  0.41800000000E+01 0. -1.
         -5    1    3    3    0  502  0.60789797040E+02 -0.18630553467E+02 -0.23537998652E+02  0.67926480309E+02  0.41800000000E+01 0. -1.
        -11    1    4    4    0    0 -0.28918610293E+02  0.18480478309E+02 -0.31454650224E+00  0.34320737744E+02  0.00000000000E+00 0.  1.
         11    1    4    4    0    0  0.27352980107E+02  0.14426105706E+02 -0.91770346570E+02  0.96840562556E+02  0.00000000000E+00 0. -1.
</event>
<event>
 8    1  0.6615242E-009  0.1004455E+03  0.7561462E-02  0.1279362E+00
         -2   -1    0    0    0  501 -0.00000000000E+00  0.00000000000E+00  0.45166224316E+03  0.45166224316E+03  0.00000000000E+00 0.  1.
          2   -1    0    0  501    0  0.00000000000E+00 -0.00000000000E+00 -0.29568846920E+02  0.29568846920E+02  0.00000000000E+00 0. -1.
         25    2    1    2    0    0  0.10341593742E+02  0.37275457147E+02  0.23301417863E+03  0.26727767392E+03  0.12508133061E+03 0.  0.
         23    2    1    2    0    0 -0.10341593742E+02 -0.37275457147E+02  0.18907921761E+03  0.21395341616E+03  0.92350990726E+02 0.  0.
          5    1    3    3  502    0  0.39402272089E+02 -0.16672061264E+02  0.18326050762E+03  0.18823491367E+03  0.41800000000E+01 0. -1.
         -5    1    3    3    0  502 -0.29060678347E+02  0.53947518411E+02  0.49753671018E+02  0.79042760253E+02  0.41800000000E+01 0. -1.
        -11    1    4    4    0    0  0.19302769822E+02 -0.57462947074E+02  0.89359780136E+02  0.10798035708E+03  0.00000000000E+00 0. -1.
         11    1    4    4    0    0 -0.29644363564E+02  0.20187489927E+02  0.99719437474E+02  0.10597305908E+03  0.00000000000E+00 0.  1.
</event>
<event>
 8    1  0.6615242E-009  0.7515710E+02  0.7561462E-02  0.1343385E+00
          1   -1    0    0  501    0  0.00000000000E+00  0.00000000000E+00  0.16623925431E+03  0.16623925431E+03  0.00000000000E+00 0. -1.
         -1   -1    0    0    0  501 -0.00000000000E+00 -0.00000000000E+00 -0.11459542691E+03  0.11459542691E+03  0.00000000000E+00 0.  1.
         25    2    1    2    0    0 -0.52369923540E+01  0.23582560705E+02 -0.54202154376E+02  0.13846085009E+03  0.12509984097E+03 0.  0.
         23    2    1    2    0    0  0.52369923540E+01 -0.23582560705E+02  0.10584598177E+03  0.14237383113E+03  0.92105226107E+02 0.  0.
          5    1    3    3  502    0 -0.27145314276E+02  0.89214033374E+01 -0.89593879952E+02  0.94132859563E+02  0.41800000000E+01 0.  1.
         -5    1    3    3    0  502  0.21908321922E+02  0.14661157368E+02  0.35391725577E+02  0.44327990527E+02  0.41800000000E+01 0.  1.
        -11    1    4    4    0    0  0.24395296194E+02  0.29518267839E+02  0.49852291851E+02  0.62862624949E+02  0.00000000000E+00 0. -1.
         11    1    4    4    0    0 -0.19158303840E+02 -0.53100828544E+02  0.55993689915E+02  0.79511206181E+02  0.00000000000E+00 0.  1.
</event>
<event>
 8    1  0.6615242E-009  0.1512955E+03  0.7561462E-02  0.1198890E+00
          1   -1    0    0  501    0  0.00000000000E+00  0.00000000000E+00  0.33234373227E+03  0.33234373227E+03  0.00000000000E+00 0. -1.
         -1   -1    0    0    0  501 -0.00000000000E+00 -0.00000000000E+00 -0.92448557192E+02  0.92448557192E+02  0.00000000000E+00 0.  1.
         25    2    1    2    0    0 -0.12382404613E+03  0.54052510718E+02  0.98190459423E+02  0.20867012326E+03  0.12509110961E+03 0.  0.
         23    2    1    2    0    0  0.12382404613E+03 -0.54052510718E+02  0.14170471565E+03  0.21612216620E+03  0.91512272242E+02 0.  0.
          5    1    3    3  502    0 -0.10771853233E+03  0.95371634694E+01  0.10243456608E+02  0.10870437202E+03  0.41800000000E+01 0. -1.
         -5    1    3    3    0  502 -0.16105513804E+02  0.44515347249E+02  0.87947002815E+02  0.99965751234E+02  0.41800000000E+01 0. -1.
        -11    1    4    4    0    0  0.16973614710E+02 -0.34182425074E+02  0.80031380544E+00  0.38173057023E+02  0.00000000000E+00 0.  1.
         11    1    4    4    0    0  0.10685043142E+03 -0.19870085644E+02  0.14090440185E+03  0.17794910918E+03  0.00000000000E+00 0. -1.
</event>
<event>
 7    1  0.6615242E-009  0.1983987E+03  0.7561462E-02  0.1151097E+00
         -2   -1    0    0    0  501 -0.00000000000E+00  0.00000000000E+00  0.91642575943E+02  0.91642575943E+02  0.00000000000E+00 0.  1.
          2   -1    0    0  501    0  0.00000000000E+00 -0.00000000000E+00 -0.50195288363E+03  0.50195288363E+03  0.00000000000E+00 0. -1.
         25    2    1    2    0    0  0.33629007934E+02 -0.13627944275E+03 -0.15544919135E+03  0.24395842560E+03  0.12509302794E+03 0.  0.
          5    1    3    3  502    0  0.33407495459E+02  0.11770651044E+02 -0.52945083799E+02  0.63837788788E+02  0.41800000000E+01 0.  1.
         -5    1    3    3    0  502  0.22151247430E+00 -0.14805009380E+03 -0.10250410755E+03  0.18012063681E+03  0.41800000000E+01 0.  1.
        -11    1    1    2    0    0  0.57599362212E+01 -0.35918010539E+02  0.36259082139E+01  0.36557182013E+02  0.00000000000E+00 0.  1.
         11    1    1    2    0    0 -0.39388944155E+02  0.17219745329E+03 -0.25848702455E+03  0.31307985196E+03  0.00000000000E+00 0. -1.
</event>
<event>
 8    1  0.6615242E-009  0.1037796E+03  0.7561462E-02  0.1272543E+00
         -2   -1    0    0    0  501 -0.00000000000E+00  0.00000000000E+00  0.30758425302E+02  0.30758425302E+02  0.00000000000E+00 0.  1.
          2   -1    0    0  501    0  0.00000000000E+00 -0.00000000000E+00 -0.53527988180E+03  0.53527988180E+03  0.00000000000E+00 0. -1.
         25    2    1    2    0    0 -0.19133070770E+02  0.93480137305E+01 -0.42352727200E+03  0.44211930302E+03  0.12506265718E+03 0.  0.
         23    2    1    2    0    0  0.19133070770E+02 -0.93480137305E+01 -0.80994184495E+02  0.12391900407E+03  0.91336749948E+02 0.  0.
          5    1    3    3  502    0 -0.22927927251E+02  0.64356186060E+02 -0.18471592496E+03  0.19698947653E+03  0.41800000000E+01 0.  1.
         -5    1    3    3    0  502  0.37948564816E+01 -0.55008172330E+02 -0.23881134704E+03  0.24512982649E+03  0.41800000000E+01 0.  1.
        -11    1    4    4    0    0  0.47482317082E+02 -0.22524488423E+02 -0.75788131546E+02  0.92226698398E+02  0.00000000000E+00 0. -1.
         11    1    4    4    0    0 -0.28349246312E+02  0.13176474693E+02 -0.52060529491E+01  0.31692305677E+02  0.00000000000E+00 0.  1.
</event>
<event>
 8    1  0.6615242E-009  0.1398738E+03  0.7561462E-02  0.1213499E+00
         -2   -1    0    0    0  501 -0.00000000000E+00  0.00000000000E+00  0.14779774457E+03  0.14779774457E+03  0.00000000000E+00 0.  1.
          2   -1    0    0  501    0  0.00000000000E+00 -0.00000000000E+00 -0.16946736802E+03  0.16946736802E+03  0.00000000000E+00 0. -1.
         25    2    1    2    0    0  0.11488872042E+03  0.90839550855E+01 -0.19414581787E+02  0.17118984788E+03  0.12508837561E+03 0.  0.
         23    2    1    2    0    0 -0.11488872042E+03 -0.90839550855E+01 -0.22550416592E+01  0.14607526471E+03  0.89727149890E+02 0.  0.
          5    1    3    3  502    0  0.13473836657E+03  0.32544933140E+01  0.97441498438E+01  0.13519408275E+03  0.41800000000E+01 0.  1.
         -5    1    3    3    0  502 -0.19849646158E+02  0.58294617716E+01 -0.29158731631E+02  0.35995765132E+02  0.41800000000E+01 0.  1.
        -11    1    4    4    0    0 -0.92790859799E+02  0.11622477564E+02 -0.36477010385E+02  0.10037827421E+03  0.00000000000E+00 0. -1.
         11    1    4    4    0    0 -0.22097860618E+02 -0.20706432650E+02  0.34221968726E+02  0.45696990496E+02  0.00000000000E+00 0.  1.
</event>
<event>
 8    1  0.6615242E-009  0.1176704E+03  0.7561462E-02  0.1246990E+00
          2   -1    0    0  501    0  0.00000000000E+00  0.00000000000E+00  0.14178208869E+04  0.14178208869E+04  0.00000000000E+00 0. -1.
         -2   -1    0    0    0  501 -0.00000000000E+00 -0.00000000000E+00 -0.17031918538E+02  0.17031918538E+02  0.00000000000E+00 0.  1.
         25    2    1    2    0    0 -0.54936728859E+02 -0.30853962722E+02  0.11687110924E+04  0.11770744185E+04  0.12509419672E+03 0.  0.
         23    2    1    2    0    0  0.54936728859E+02  0.30853962722E+02  0.23207787602E+03  0.25777838697E+03  0.92841505041E+02 0.  0.
          5    1    3    3  502    0  0.28747558463E+02  0.10152604894E+02  0.59786724724E+03  0.59865868007E+03  0.41800000000E+01 0.  1.
         -5    1    3    3    0  502 -0.83684287322E+02 -0.41006567616E+02  0.57084384511E+03  0.57841573841E+03  0.41800000000E+01 0.  1.
        -11    1    4    4    0    0  0.74000098807E+01 -0.31792599461E+02  0.83884018766E+02  0.90011433335E+02  0.00000000000E+00 0.  1.
         11    1    4    4    0    0  0.47536718979E+02  0.62646562183E+02  0.14819385726E+03  0.16776695364E+03  0.00000000000E+00 0. -1.
</event>
<event>
 8    1  0.6615242E-009  0.1873352E+03  0.7561462E-02  0.1160887E+00
          1   -1    0    0  501    0  0.00000000000E+00  0.00000000000E+00  0.79835205725E+03  0.79835205725E+03  0.00000000000E+00 0. -1.
         -1   -1    0    0    0  501 -0.00000000000E+00 -0.00000000000E+00 -0.48347388255E+02  0.48347388255E+02  0.00000000000E+00 0.  1.
         25    2    1    2    0    0 -0.16674170999E+02 -0.16778562627E+03  0.45981711362E+03  0.50547971771E+03  0.12509165710E+03 0.  0.
         23    2    1    2    0    0  0.16674170999E+02  0.16778562627E+03  0.29018755537E+03  0.34121972779E+03  0.61579550045E+02 0.  0.
          5    1    3    3  502    0 -0.59688164614E+02 -0.51197094529E+02  0.24415723844E+03  0.25654248959E+03  0.41800000000E+01 0. -1.
         -5    1    3    3    0  502  0.43013993615E+02 -0.11658853174E+03  0.21565987518E+03  0.24893722812E+03  0.41800000000E+01 0. -1.
        -11    1    4    4    0    0  0.24421825114E+02  0.15251565094E+03  0.21892171180E+03  0.26792567108E+03  0.00000000000E+00 0.  1.
         11    1    4    4    0    0 -0.77476541148E+01  0.15269975330E+02  0.71265843569E+02  0.73294056720E+02  0.00000000000E+00 0. -1.
</event>
<event>
 8    1  0.6615242E-009  0.9960180E+02  0.7561462E-02  0.1281136E+00
         -2   -1    0    0    0  501 -0.00000000000E+00  0.00000000000E+00  0.58826415247E+03  0.58826415247E+03  0.00000000000E+00 0.  1.
          2   -1    0    0  501    0  0.00000000000E+00 -0.00000000000E+00 -0.25017987158E+02  0.25017987158E+02  0.00000000000E+00 0. -1.
         25    2    1    2    0    0 -0.79017309514E+01 -0.44096300512E+02  0.35220679920E+03  0.37643606686E+03  0.12509021530E+03 0.  0.
         23    2    1    2    0    0  0.79017309514E+01  0.44096300512E+02  0.21103936611E+03  0.23684607276E+03  0.97731914251E+02 0.  0.
          5    1    3    3  502    0  0.53996535153E+02 -0.36498227227E+02  0.12825100741E+03  0.14392199172E+03  0.41800000000E+01 0.  1.
         -5    1    3    3    0  502 -0.61898266104E+02 -0.75980732853E+01  0.22395579179E+03  0.23251407514E+03  0.41800000000E+01 0.  1.
        -11    1    4    4    0    0  0.28206070559E+02  0.69357437731E+01  0.89882101033E+01  0.30405178489E+02  0.00000000000E+00 0. -1.
         11    1    4    4    0    0 -0.20304339608E+02  0.37160556739E+02  0.20205115601E+03  0.20644089427E+03  0.00000000000E+00 0.  1.
</event>
<event>
 8    1  0.6615242E-009  0.1106903E+03  0.7561462E-02  0.1259297E+00
         -2   -1    0    0    0  501 -0.00000000000E+00  0.00000000000E+00  0.96274908717E+02  0.96274908717E+02  0.00000000000E+00 0.  1.
          2   -1    0    0  501    0  0.00000000000E+00 -0.00000000000E+00 -0.23480512310E+03  0.23480512310E+03  0.00000000000E+00 0. -1.
         25    2    1    2    0    0 -0.47021273901E+02  0.75117340882E+02 -0.15826544869E+02  0.15410507961E+03  0.12507709997E+03 0.  0.
         23    2    1    2    0    0  0.47021273901E+02 -0.75117340882E+02 -0.12270366952E+03  0.17697495221E+03  0.91707840982E+02 0.  0.
          5    1    3    3  502    0  0.24333171257E+02  0.71414718488E+01  0.34776580944E+02  0.43243344294E+02  0.41800000000E+01 0.  1.
         -5    1    3    3    0  502 -0.71354445158E+02  0.67975869034E+02 -0.50603125812E+02  0.11086173531E+03  0.41800000000E+01 0.  1.
        -11    1    4    4    0    0  0.44821106296E+02 -0.35013884924E+02 -0.10549789842E+02  0.57846363522E+02  0.00000000000E+00 0.  1.
         11    1    4    4    0    0  0.22001676046E+01 -0.40103455959E+02 -0.11215387968E+03  0.11912858869E+03  0.00000000000E+00 0. -1.
</event>
<event>
 8    1  0.6615242E-009  0.1682061E+03  0.7561462E-02  0.1179732E+00
          1   -1    0    0  501    0  0.00000000000E+00  0.00000000000E+00  0.16196557417E+03  0.16196557417E+03  0.00000000000E+00 0. -1.
         -1   -1    0    0    0  501 -0.00000000000E+00 -0.00000000000E+00 -0.20316129008E+03  0.20316129008E+03  0.00000000000E+00 0.  1.
         25    2    1    2    0    0  0.11134575185E+03 -0.45900396034E+02 -0.69630226073E+02  0.18705106701E+03  0.12504003548E+03 0.  0.
         23    2    1    2    0    0 -0.11134575185E+03  0.45900396034E+02  0.28434510163E+02  0.17807579724E+03  0.12805368165E+03 0.  0.
          5    1    3    3  502    0  0.10646112182E+03  0.18991959891E+02 -0.39361066872E+02  0.11515828665E+03  0.41800000000E+01 0.  1.
         -5    1    3    3    0  502  0.48846300292E+01 -0.64892355925E+02 -0.30269159201E+02  0.71892780352E+02  0.41800000000E+01 0.  1.
        -11    1    4    4    0    0 -0.12399877510E+03  0.94071800850E+01  0.49776314068E+02  0.13394727584E+03  0.00000000000E+00 0. -1.
         11    1    4    4    0    0  0.12653023247E+02  0.36493215949E+02 -0.21341803905E+02  0.44128521406E+02  0.00000000000E+00 0.  1.
</event>
<event>
 8    1  0.6615242E-009  0.9408604E+02  0.7561462E-02  0.1293248E+00
         -1   -1    0    0    0  501 -0.00000000000E+00  0.00000000000E+00  0.11398849494E+03  0.11398849494E+03  0.00000000000E+00 0.  1.
          1   -1    0    0  501    0  0.00000000000E+00 -0.00000000000E+00 -0.14010619429E+03  0.14010619429E+03  0.00000000000E+00 0. -1.
         25    2    1    2    0    0  0.63069853818E+02 -0.84092204201E+01 -0.30448443583E+02  0.14361057799E+03  0.12509344086E+03 0.  0.
         23    2    1    2    0    0 -0.63069853818E+02  0.84092204201E+01  0.43307442398E+01  0.11048411124E+03  0.90218967193E+02 0.  0.
          5    1    3    3  502    0 -0.18699179425E+02 -0.26118133785E+02 -0.48111089693E+02  0.57999703232E+02  0.41800000000E+01 0.  1.
         -5    1    3    3    0  502  0.81769033243E+02  0.17708913365E+02  0.17662646110E+02  0.85610874763E+02  0.41800000000E+01 0.  1.
        -11    1    4    4    0    0 -0.29293733750E+02  0.20914438746E+02  0.44037717770E+02  0.56875804799E+02  0.00000000000E+00 0.  1.
         11    1    4    4    0    0 -0.33776120068E+02 -0.12505218325E+02 -0.39706973530E+02  0.53608306438E+02  0.00000000000E+00 0. -1.
</event>
<event>
 8    1  0.6615242E-009  0.1185669E+03  0.7561462E-02  0.1245480E+00
          1   -1    0    0  501    0  0.00000000000E+00  0.00000000000E+00  0.34394058859E+03  0.34394058859E+03  0.00000000000E+00 0. -1.
         -1   -1    0    0    0  501 -0.00000000000E+00 -0.00000000000E+00 -0.56463653000E+02  0.56463653000E+02  0.00000000000E+00 0.  1.
         25    2    1    2    0    0 -0.36999212343E+02 -0.64992842717E+02  0.22277733038E+03  0.26621538699E+03  0.12509149460E+03 0.  0.
         23    2    1    2    0    0  0.36999212343E+02  0.64992842717E+02  0.64699605215E+02  0.13418885461E+03  0.90706110416E+02 0.  0.
          5    1    3    3  502    0  0.35926713051E+02  0.93920472981E+01  0.89637589303E+02  0.97114927169E+02  0.41800000000E+01 0. -1.
         -5    1    3    3    0  502 -0.72925925394E+02 -0.74384890015E+02  0.13313974107E+03  0.16910045982E+03  0.41800000000E+01 0. -1.
        -11    1    4    4    0    0 -0.83993607507E+01 -0.66382377817E+01 -0.14585805132E+02  0.18093125027E+02  0.00000000000E+00 0.  1.
         11    1    4    4    0    0  0.45398573094E+02  0.71631080499E+02  0.79285410348E+02  0.11609572958E+03  0.00000000000E+00 0. -1.
</event>
<event>
 8    1  0.6615242E-009  0.1994039E+03  0.7561462E-02  0.1150243E+00
          2   -1    0    0  501    0  0.00000000000E+00  0.00000000000E+00  0.12241180549E+04  0.12241180549E+04  0.00000000000E+00 0. -1.
         -2   -1    0    0    0  501 -0.00000000000E+00 -0.00000000000E+00 -0.37025690676E+02  0.37025690676E+02  0.00000000000E+00 0.  1.
         25    2    1    2    0    0  0.15688724370E+03  0.59868488440E+02  0.79582243753E+03  0.82290873750E+03  0.12509034746E+03 0.  0.
         23    2    1    2    0    0 -0.15688724370E+03 -0.59868488440E+02  0.39126992674E+03  0.43823500812E+03  0.10373005174E+03 0.  0.
          5    1    3    3  502    0  0.10270624494E+03  0.95189033602E+02  0.61694663154E+03  0.63265325688E+03  0.41800000000E+01 0. -1.
         -5    1    3    3    0  502  0.54180998760E+02 -0.35320545161E+02  0.17887580599E+03  0.19025548062E+03  0.41800000000E+01 0. -1.
        -11    1    4    4    0    0 -0.15042796299E+03 -0.17960375818E+02  0.26773153795E+03  0.30762204661E+03  0.00000000000E+00 0. -1.
         11    1    4    4    0    0 -0.64592807074E+01 -0.41908112622E+02  0.12353838879E+03  0.13061296151E+03  0.00000000000E+00 0.  1.
</event>
<event>
 8    1  0.6615242E-009  0.6459726E+02  0.7561462E-02  0.1379493E+00
         -2   -1    0    0    0  501 -0.00000000000E+00  0.00000000000E+00  0.17953037266E+03  0.17953037266E+03  0.00000000000E+00 0.  1.
          2   -1    0    0  501    0  0.00000000000E+00 -0.00000000000E+00 -0.89879146770E+02  0.89879146770E+02  0.00000000000E+00 0. -1.
         25    2    1    2    0    0  0.49632152703E+02  0.21295335406E+02  0.90177209955E+02  0.16339001419E+03  0.12509007015E+03 0.  0.
         23    2    1    2    0    0 -0.49632152703E+02 -0.21295335406E+02 -0.52598406537E+00  0.10601950524E+03  0.91230570200E+02 0.  0.
          5    1    3    3  502    0  0.61791097063E+01 -0.37068763724E+01 -0.31045294772E+02  0.32143507225E+02  0.41800000000E+01 0.  1.
         -5    1    3    3    0  502  0.43453042997E+02  0.25002211778E+02  0.12122250473E+03  0.13124650697E+03  0.41800000000E+01 0.  1.
        -11    1    4    4    0    0 -0.20473186246E+01 -0.22855681161E+02  0.38257501390E+02  0.44611770728E+02  0.00000000000E+00 0.  1.
         11    1    4    4    0    0 -0.47584834079E+02  0.15603457552E+01 -0.38783485456E+02  0.61407734507E+02  0.00000000000E+00 0. -1.
</event>
<event>
 8    1  0.6615242E-009  0.1201988E+03  0.7561462E-02  0.1242769E+00
         -2   -1    0    0    0  501 -0.00000000000E+00  0.00000000000E+00  0.33502243563E+02  0.33502243563E+02  0.00000000000E+00 0. -1.
          2   -1    0    0  501    0  0.00000000000E+00 -0.00000000000E+00 -0.63109963879E+03  0.63109963879E+03  0.00000000000E+00 0.  1.
         25    2    1    2    0    0  0.30187803260E+02  0.89906426017E+02 -0.26539920031E+03  0.30834857616E+03  0.12509052718E+03 0.  0.
         23    2    1    2    0    0 -0.30187803260E+02 -0.89906426017E+02 -0.33219819492E+03  0.35625330619E+03  0.86984530586E+02 0.  0.
          5    1    3    3  502    0  0.50118861432E+02  0.30421143775E+02 -0.32609879621E+02  0.67217727637E+02  0.41800000000E+01 0. -1.
         -5    1    3    3    0  502 -0.19931058172E+02  0.59485282243E+02 -0.23278932069E+03  0.24113084853E+03  0.41800000000E+01 0. -1.
        -11    1    4    4    0    0 -0.51652079269E+02 -0.43175021248E+02 -0.25316103416E+03  0.26195902154E+03  0.00000000000E+00 0.  1.
         11    1    4    4    0    0  0.21464276009E+02 -0.46731404769E+02 -0.79037160760E+02  0.94294284648E+02  0.00000000000E+00 0. -1.
</event>
<event>
 8    1  0.6615242E-009  0.2008609E+03  0.7561462E-02  0.1149015E+00
         -2   -1    0    0    0  501 -0.00000000000E+00  0.00000000000E+00  0.23417154800E+02  0.23417154800E+02  0.00000000000E+00 0.  1.
          2   -1    0    0  501    0  0.00000000000E+00 -0.00000000000E+00 -0.22512291370E+04  0.22512291370E+04  0.00000000000E+00 0. -1.
         25    2    1    2    0    0 -0.16794303596E+03  0.10201607106E+03 -0.13956590437E+04  0.14149636105E+04  0.12508281544E+03 0.  0.
         23    2    1    2    0    0  0.16794303596E+03 -0.10201607106E+03 -0.83215293850E+03  0.85968268129E+03  0.89239326420E+02 0.  0.
          5    1    3    3  502    0 -0.30555110764E+02 -0.44604386433E+01 -0.58689041562E+03  0.58771706003E+03  0.41800000000E+01 0. -1.
         -5    1    3    3    0  502 -0.13738792519E+03  0.10647650970E+03 -0.80876862809E+03  0.82724655049E+03  0.41800000000E+01 0. -1.
        -11    1    4    4    0    0  0.21889388711E+02 -0.16835922602E+02 -0.33920532350E+02  0.43740097655E+02  0.00000000000E+00 0.  1.
         11    1    4    4    0    0  0.14605364725E+03 -0.85180148456E+02 -0.79823240615E+03  0.81594258364E+03  0.00000000000E+00 0. -1.
</event>
<event>
 7    1  0.6615242E-009  0.1022085E+03  0.7561462E-02  0.1275719E+00
         -2   -1    0    0    0  501 -0.00000000000E+00  0.00000000000E+00  0.31735081752E+02  0.31735081752E+02  0.00000000000E+00 0.  1.
          2   -1    0    0  501    0  0.00000000000E+00 -0.00000000000E+00 -0.68292284658E+03  0.68292284658E+03  0.00000000000E+00 0. -1.
         23    2    1    2    0    0 -0.28549998482E+02 -0.20635899714E+02 -0.52073888550E+03  0.53046996921E+03  0.94807481697E+02 0.  0.
          5    1    1    2  502    0  0.62329916603E+02 -0.34183279218E+01 -0.12795847082E+03  0.14243435724E+03  0.41800000000E+01 0.  1.
         -5    1    1    2    0  502 -0.33779918121E+02  0.24054227636E+02 -0.24904085057E+01  0.41753601880E+02  0.41800000000E+01 0.  1.
        -11    1    3    3    0    0  0.34633841774E+02 -0.10439394832E+02 -0.15425116295E+03  0.15843580792E+03  0.00000000000E+00 0.  1.
         11    1    3    3    0    0 -0.63183840256E+02 -0.10196504882E+02 -0.36648772256E+03  0.37203416129E+03  0.00000000000E+00 0. -1.
</event>
<event>
 8    1  0.6615242E-009  0.1726784E+03  0.7561462E-02  0.1175083E+00
          2   -1    0    0  501    0  0.00000000000E+00  0.00000000000E+00  0.69783051907E+03  0.69783051907E+03  0.00000000000E+00 0. -1.
         -2   -1    0    0    0  501 -0.00000000000E+00 -0.00000000000E+00 -0.49455542193E+02  0.49455542193E+02  0.00000000000E+00 0.  1.
         25    2    1    2    0    0 -0.48932013955E+02  0.12428066750E+03  0.20707001625E+03  0.27634125187E+03  0.12508584874E+03 0.  0.
         23    2    1    2    0    0  0.48932013955E+02 -0.12428066750E+03  0.44130496063E+03  0.47094480939E+03  0.95910994727E+02 0.  0.
          5    1    3    3  502    0 -0.84303962590E+02  0.48094802765E+02  0.91862474097E+02  0.13370285976E+03  0.41800000000E+01 0. -1.
         -5    1    3    3    0  502  0.35371948635E+02  0.76185864737E+02  0.11520754215E+03  0.14263839211E+03  0.41800000000E+01 0. -1.
        -11    1    4    4    0    0  0.74672973711E+02 -0.63210851784E+02  0.24834737444E+03  0.26692336574E+03  0.00000000000E+00 0.  1.
         11    1    4    4    0    0 -0.25740959755E+02 -0.61069815717E+02  0.19295758619E+03  0.20402144365E+03  0.00000000000E+00 0. -1.
</event>
<event>
 7    1  0.6615242E-009  0.1935713E+03  0.7561462E-02  0.1155279E+00
         -1   -1    0    0    0  501 -0.00000000000E+00  0.00000000000E+00  0.22812188175E+03  0.22812188175E+03  0.00000000000E+00 0.  1.
          1   -1    0    0  501    0  0.00000000000E+00 -0.00000000000E+00 -0.20992742611E+03  0.20992742611E+03  0.00000000000E+00 0. -1.
         23    2    1    2    0    0  0.11940046797E+03 -0.14661830240E+03 -0.19219817491E+02  0.20821968807E+03  0.85044922033E+02 0.  0.
          5    1    1    2  502    0 -0.83492039839E+02  0.95572897757E+02 -0.37346427710E+02  0.13235304139E+03  0.41800000000E+01 0. -1.
         -5    1    1    2    0  502 -0.35908428127E+02  0.51045404647E+02  0.74760700848E+02  0.97476578405E+02  0.41800000000E+01 0. -1.
        -11    1    3    3    0    0  0.40730159171E+02 -0.13350932376E+02 -0.31178870752E+02  0.53002973905E+02  0.00000000000E+00 0. -1.
         11    1    3    3    0    0  0.78670308795E+02 -0.13326737003E+03  0.11959053261E+02  0.15521671416E+03  0.00000000000E+00 0.  1.
</event>
<event>
 8    1  0.6615242E-009  0.1370285E+03  0.7561462E-02  0.1217384E+00
         -1   -1    0    0    0  501 -0.00000000000E+00  0.00000000000E+00  0.77625348370E+02  0.77625348370E+02  0.00000000000E+00 0.  1.
          1   -1    0    0  501    0  0.00000000000E+00 -0.00000000000E+00 -0.29012944078E+03  0.29012944078E+03  0.00000000000E+00 0. -1.
         25    2    1    2    0    0  0.34755990003E+02  0.90064979375E+02 -0.15476202481E+03  0.22117573411E+03  0.12509093366E+03 0.  0.
         23    2    1    2    0    0 -0.34755990003E+02 -0.90064979375E+02 -0.57742067605E+02  0.14657905505E+03  0.93976559079E+02 0.  0.
          5    1    3    3  502    0  0.75206311661E+01 -0.26138892591E+02 -0.24522021450E+01  0.27627654522E+02  0.41800000000E+01 0.  1.
         -5    1    3    3    0  502  0.27235358837E+02  0.11620387197E+03 -0.15230982266E+03  0.19354807958E+03  0.41800000000E+01 0.  1.
        -11    1    4    4    0    0  0.21336834237E+02 -0.39171275786E+00  0.71277082460E+01  0.22499292411E+02  0.00000000000E+00 0. -1.
         11    1    4    4    0    0 -0.56092824240E+02 -0.89673266617E+02 -0.64869775851E+02  0.12407976264E+03  0.00000000000E+00 0.  1.
</event>
<event>
 8    1  0.6615242E-009  0.1006979E+03  0.7561462E-02  0.1278835E+00
         -2   -1    0    0    0  501 -0.00000000000E+00  0.00000000000E+00  0.37688717919E+03  0.37688717919E+03  0.00000000000E+00 0.  1.
          2   -1    0    0  501    0  0.00000000000E+00 -0.00000000000E+00 -0.54465990164E+02  0.54465990164E+02  0.00000000000E+00 0. -1.
         25    2    1    2    0    0 -0.32378486248E+02 -0.87982299341E+02  0.19832369297E+03  0.25252548852E+03  0.12509030254E+03 0.  0.
         23    2    1    2    0    0  0.32378486248E+02  0.87982299341E+02  0.12409749605E+03  0.17882768083E+03  0.88260407521E+02 0.  0.
          5    1    3    3  502    0 -0.34655285029E+02 -0.24536345692E+02  0.18187034286E+03  0.18680823069E+03  0.41800000000E+01 0.  1.
         -5    1    3    3    0  502  0.22767987810E+01 -0.63445953650E+02  0.16453350110E+02  0.65717257833E+02  0.41800000000E+01 0.  1.
        -11    1    4    4    0    0  0.15176133321E+02  0.20758823500E+02 -0.10199463247E+02  0.27663564959E+02  0.00000000000E+00 0. -1.
         11    1    4    4    0    0  0.17202352927E+02  0.67223475841E+02  0.13429695930E+03  0.15116411587E+03  0.00000000000E+00 0.  1.
</event>
<event>
 8    1  0.6615242E-009  0.8136616E+02  0.7561462E-02  0.1325219E+00
          2   -1    0    0  501    0  0.00000000000E+00  0.00000000000E+00  0.36985131299E+02  0.36985131299E+02  0.00000000000E+00 0.  1.
         -2   -1    0    0    0  501 -0.00000000000E+00 -0.00000000000E+00 -0.50115849140E+03  0.50115849140E+03  0.00000000000E+00 0. -1.
         25    2    1    2    0    0  0.59980322272E+02  0.46596876270E+02 -0.31967729874E+03  0.35158265961E+03  0.12509149960E+03 0.  0.
         23    2    1    2    0    0 -0.59980322272E+02 -0.46596876270E+02 -0.14449606136E+03  0.18656096309E+03  0.90315963491E+02 0.  0.
          5    1    3    3  502    0  0.55941038700E+02  0.25899296175E+02 -0.45919736587E+02  0.76982257445E+02  0.41800000000E+01 0. -1.
         -5    1    3    3    0  502  0.40392835725E+01  0.20697580095E+02 -0.27375756216E+03  0.27460040217E+03  0.41800000000E+01 0. -1.
        -11    1    4    4    0    0 -0.57654417852E+01 -0.16412491589E+02  0.10003100900E+02  0.20066694465E+02  0.00000000000E+00 0.  1.
         11    1    4    4    0    0 -0.54214880487E+02 -0.30184384680E+02 -0.15449916226E+03  0.16649426862E+03  0.00000000000E+00 0. -1.
</event>
<event>
 8    1  0.6615242E-009  0.1268271E+03  0.7561462E-02  0.1232241E+00
          3   -1    0    0  501    0  0.00000000000E+00  0.00000000000E+00  0.34917714335E+03  0.34917714335E+03  0.00000000000E+00 0. -1.
         -3   -1    0    0    0  501 -0.00000000000E+00 -0.00000000000E+00 -0.57058986963E+02  0.57058986963E+02  0.00000000000E+00 0.  1.
         25    2    1    2    0    0 -0.73021474896E+02 -0.54193832048E+02  0.16795396251E+03  0.22830982009E+03  0.12509089974E+03 0.  0.
         23    2    1    2    0    0  0.73021474896E+02  0.54193832048E+02  0.12416419387E+03  0.17792631022E+03  0.89285595707E+02 0.  0.
          5    1    3    3  502    0 -0.29815571498E+02  0.26547702252E+02  0.11642362385E+03  0.12314902106E+03  0.41800000000E+01 0. -1.
         -5    1    3    3    0  502 -0.43205903398E+02 -0.80741534300E+02  0.51530338665E+02  0.10516079903E+03  0.41800000000E+01 0. -1.
        -11    1    4    4    0    0  0.87523507082E+02  0.27981595076E+02  0.11371443241E+03  0.14619954204E+03  0.00000000000E+00 0. -1.
         11    1    4    4    0    0 -0.14502032186E+02  0.26212236972E+02  0.10449761468E+02  0.31726768183E+02  0.00000000000E+00 0.  1.
</event>
<event>
 8    1  0.6615242E-009  0.1050280E+03  0.7561462E-02  0.1270064E+00
         -3   -1    0    0    0  501 -0.00000000000E+00  0.00000000000E+00  0.19139035488E+02  0.19139035488E+02  0.00000000000E+00 0.  1.
          3   -1    0    0  501    0  0.00000000000E+00 -0.00000000000E+00 -0.88492401269E+03  0.88492401269E+03  0.00000000000E+00 0. -1.
         25    2    1    2    0    0  0.38165669937E+02  0.29006227446E+02 -0.66859817040E+03  0.68188712417E+03  0.12509419272E+03 0.  0.
         23    2    1    2    0    0 -0.38165669937E+02 -0.29006227446E+02 -0.19718680681E+03  0.22217592401E+03  0.90451781854E+02 0.  0.
          5    1    3    3  502    0 -0.43241423353E+02  0.21152403638E+02 -0.33045656852E+03  0.33397044922E+03  0.41800000000E+01 0. -1.
         -5    1    3    3    0  502  0.81407093290E+02  0.78538238076E+01 -0.33814160188E+03  0.34791667495E+03  0.41800000000E+01 0. -1.
        -11    1    4    4    0    0  0.12698412432E+02  0.96582435104E+01 -0.11558798585E+01  0.15995855846E+02  0.00000000000E+00 0.  1.
         11    1    4    4    0    0 -0.50864082369E+02 -0.38664470956E+02 -0.19603092695E+03  0.20618006817E+03  0.00000000000E+00 0. -1.
</event>
<event>
 8    1  0.6615242E-009  0.1745941E+03  0.7561462E-02  0.1173140E+00
          1   -1    0    0  501    0  0.00000000000E+00  0.00000000000E+00  0.26082594293E+03  0.26082594293E+03  0.00000000000E+00 0. -1.
         -1   -1    0    0    0  501 -0.00000000000E+00 -0.00000000000E+00 -0.15083229086E+03  0.15083229086E+03  0.00000000000E+00 0.  1.
         25    2    1    2    0    0  0.37555656802E+02 -0.15434287777E+03  0.10439910791E+03  0.22754894618E+03  0.12508876009E+03 0.  0.
         23    2    1    2    0    0 -0.37555656802E+02  0.15434287777E+03  0.55945441583E+01  0.18410928761E+03  0.92912752534E+02 0.  0.
          5    1    3    3  502    0  0.18482014483E+02 -0.14076806621E+03  0.24435882602E+02  0.14412431468E+03  0.41800000000E+01 0.  1.
         -5    1    3    3    0  502  0.19073642319E+02 -0.13574811557E+02  0.79963225303E+02  0.83424631501E+02  0.41800000000E+01 0.  1.
        -11    1    4    4    0    0 -0.68160567508E+02  0.10044283007E+03 -0.36482442242E+01  0.12144107526E+03  0.00000000000E+00 0.  1.
         11    1    4    4    0    0  0.30604910706E+02  0.53900047700E+02  0.92427883825E+01  0.62668212345E+02  0.00000000000E+00 0. -1.
</event>
<event>
 8    1  0.6615242E-009  0.3065903E+03  0.7561462E-02  0.1081992E+00
         -2   -1    0    0    0  501 -0.00000000000E+00  0.00000000000E+00  0.12364906725E+03  0.12364906725E+03  0.00000000000E+00 0.  1.
          2   -1    0    0  501    0  0.00000000000E+00 -0.00000000000E+00 -0.81090347852E+03  0.81090347852E+03  0.00000000000E+00 0. -1.
         25    2    1    2    0    0 -0.19447868025E+02 -0.28971741140E+03 -0.25607251353E+03  0.40686019107E+03  0.12509070651E+03 0.  0.
         23    2    1    2    0    0  0.19447868025E+02  0.28971741140E+03 -0.43118189773E+03  0.52769235469E+03  0.90702779607E+02 0.  0.
          5    1    3    3  502    0 -0.60143593385E+02 -0.22055630738E+03 -0.22476188332E+03  0.32062082457E+03  0.41800000000E+01 0. -1.
         -5    1    3    3    0  502  0.40695725360E+02 -0.69161104016E+02 -0.31310630209E+02  0.86239366506E+02  0.41800000000E+01 0. -1.
        -11    1    4    4    0    0  0.55712354357E+02  0.15684588569E+03 -0.23237431051E+03  0.28583617418E+03  0.00000000000E+00 0. -1.
         11    1    4    4    0    0 -0.36264486332E+02  0.13287152571E+03 -0.19880758722E+03  0.24185618051E+03  0.00000000000E+00 0.  1.
</event>
<event>
 8    1  0.6615242E-009  0.7681589E+02  0.7561462E-02  0.1338338E+00
         -1   -1    0    0    0  501 -0.00000000000E+00  0.00000000000E+00  0.33369766079E+02  0.33369766079E+02  0.00000000000E+00 0.  1.
          1   -1    0    0  501    0  0.00000000000E+00 -0.00000000000E+00 -0.36172371790E+03  0.36172371790E+03  0.00000000000E+00 0. -1.
         25    2    1    2    0    0 -0.78961444536E+01  0.14686297471E+02 -0.19488478981E+03  0.23217320220E+03  0.12508508341E+03 0.  0.
         23    2    1    2    0    0  0.78961444536E+01 -0.14686297471E+02 -0.13346916202E+03  0.16292028178E+03  0.91929128006E+02 0.  0.
          5    1    3    3  502    0 -0.43247417138E+02  0.18427187517E+02 -0.16138113847E+02  0.49877965550E+02  0.41800000000E+01 0.  1.
         -5    1    3    3    0  502  0.35351272684E+02 -0.37408900454E+01 -0.17874667596E+03  0.18229523665E+03  0.41800000000E+01 0.  1.
        -11    1    4    4    0    0  0.12712143231E+02 -0.41498490825E+02 -0.22955458248E+02  0.49098639387E+02  0.00000000000E+00 0.  1.
         11    1    4    4    0    0 -0.48159987777E+01  0.26812193354E+02 -0.11051370377E+03  0.11382164240E+03  0.00000000000E+00 0. -1.
</event>
<event>
 8    1  0.6615242E-009  0.9294231E+02  0.7561462E-02  0.1295879E+00
          2   -1    0    0  501    0  0.00000000000E+00  0.00000000000E+00  0.46480256206E+03  0.46480256206E+03  0.00000000000E+00 0. -1.
         -2   -1    0    0    0  501 -0.00000000000E+00 -0.00000000000E+00 -0.26764206672E+02  0.26764206672E+02  0.00000000000E+00 0.  1.
         25    2    1    2    0    0 -0.87897856729E+01  0.17476038506E+02  0.21596825001E+03  0.25034616057E+03  0.12509293682E+03 0.  0.
         23    2    1    2    0    0  0.87897856729E+01 -0.17476038506E+02  0.22207010537E+03  0.24122060816E+03  0.92138905178E+02 0.  0.
          5    1    3    3  502    0  0.45423814829E+02  0.21190738637E+02  0.34813333240E+02  0.61170343541E+02  0.41800000000E+01 0. -1.
         -5    1    3    3    0  502 -0.54213600502E+02 -0.37147001311E+01  0.18115491677E+03  0.18917581702E+03  0.41800000000E+01 0. -1.
        -11    1    4    4    0    0  0.31934652502E+02  0.19533526824E+02  0.43487799179E+02  0.57380914754E+02  0.00000000000E+00 0.  1.
         11    1    4    4    0    0 -0.23144866829E+02 -0.37009565330E+02  0.17858230619E+03  0.18383969341E+03  0.00000000000E+00 0. -1.
</event>
<event>
 8    1  0.6615242E-009  0.8516056E+02  0.7561462E-02  0.1315013E+00
          2   -1    0    0  501    0  0.00000000000E+00  0.00000000000E+00  0.22676251567E+03  0.22676251567E+03  0.00000000000E+00 0. -1.
         -2   -1    0    0    0  501 -0.00000000000E+00 -0.00000000000E+00 -0.88815060459E+02  0.88815060459E+02  0.00000000000E+00 0.  1.
         25    2    1    2    0    0  0.21381256312E+02  0.68398805332E+02  0.12215891340E+02  0.14468345172E+03  0.12509403866E+03 0.  0.
         23    2    1    2    0    0 -0.21381256312E+02 -0.68398805332E+02  0.12573156388E+03  0.17089412441E+03  0.90889058258E+02 0.  0.
          5    1    3    3  502    0  0.99016122840E+01  0.33323450121E+02  0.68684748165E+02  0.77094495811E+02  0.41800000000E+01 0.  1.
         -5    1    3    3    0  502  0.11479644028E+02  0.35075355211E+02 -0.56468856825E+02  0.67588955912E+02  0.41800000000E+01 0.  1.
        -11    1    4    4    0    0 -0.15904077151E+00 -0.75716607018E+02  0.47215319669E+02  0.89231812061E+02  0.00000000000E+00 0.  1.
         11    1    4    4    0    0 -0.21222215541E+02  0.73178016855E+01  0.78516244206E+02  0.81662312349E+02  0.00000000000E+00 0. -1.
</event>
<event>
 7    1  0.6615242E-009  0.8698685E+02  0.7561462E-02  0.1310317E+00
         -4   -1    0    0    0  501 -0.00000000000E+00  0.00000000000E+00  0.21514798250E+03  0.21514798250E+03  0.00000000000E+00 0. -1.
          4   -1    0    0  501    0  0.00000000000E+00 -0.00000000000E+00 -0.63441524856E+02  0.63441524856E+02  0.00000000000E+00 0.  1.
         23    2    1    2    0    0  0.46752797043E+02  0.42693180449E+02  0.74197924500E+02  0.11848638351E+03  0.67269304952E+02 0.  0.
          5    1    1    2  502    0 -0.27049747220E+02 -0.54744846590E+02  0.10647953603E+03  0.12281714475E+03  0.41800000000E+01 0. -1.
         -5    1    1    2    0  502 -0.19703049823E+02  0.12051666141E+02 -0.28971002882E+02  0.37285979095E+02  0.41800000000E+01 0. -1.
        -11    1    3    3    0    0  0.95151169813E+01 -0.16684972938E+02  0.46811257878E+01  0.19769641164E+02  0.00000000000E+00 0.  1.
         11    1    3    3    0    0  0.37237680062E+02  0.59378153387E+02  0.69516798712E+02  0.98716742345E+02  0.00000000000E+00 0. -1.
</event>
<event>
 8    1  0.6615242E-009  0.1564840E+03  0.7561462E-02  0.1192724E+00
          1   -1    0    0  501    0  0.00000000000E+00  0.00000000000E+00  0.46890626598E+03  0.46890626598E+03  0.00000000000E+00 0. -1.
         -1   -1    0    0    0  501 -0.00000000000E+00 -0.00000000000E+00 -0.59246115118E+02  0.59246115118E+02  0.00000000000E+00 0.  1.
         25    2    1    2    0    0  0.11887112355E+03 -0.10093648726E+02  0.15458173286E+03  0.23189152113E+03  0.12508373069E+03 0.  0.
         23    2    1    2    0    0 -0.11887112355E+03  0.10093648726E+02  0.25507841800E+03  0.29626085996E+03  0.92050377820E+02 0.  0.
          5    1    3    3  502    0  0.22283734414E+02 -0.54867128066E+02  0.88341692095E+02  0.10643633554E+03  0.41800000000E+01 0. -1.
         -5    1    3    3    0  502  0.96587389132E+02  0.44773479340E+02  0.66240040760E+02  0.12545518559E+03  0.41800000000E+01 0. -1.
        -11    1    4    4    0    0 -0.11572803520E+03  0.35817094256E+02  0.23123105045E+03  0.26104337008E+03  0.00000000000E+00 0. -1.
         11    1    4    4    0    0 -0.31430883487E+01 -0.25723445530E+02  0.23847367558E+02  0.35217489884E+02  0.00000000000E+00 0.  1.
</event>
<event>
 8    1  0.6615242E-009  0.1202217E+03  0.7561462E-02  0.1242732E+00
          1   -1    0    0  501    0  0.00000000000E+00  0.00000000000E+00  0.19988525949E+02  0.19988525949E+02  0.00000000000E+00 0. -1.
         -1   -1    0    0    0  501 -0.00000000000E+00 -0.00000000000E+00 -0.10487113075E+04  0.10487113075E+04  0.00000000000E+00 0.  1.
         25    2    1    2    0    0  0.66238457026E+02  0.47093022870E+02 -0.71142537158E+03  0.72689698732E+03  0.12509150596E+03 0.  0.
         23    2    1    2    0    0 -0.66238457026E+02 -0.47093022870E+02 -0.31729740996E+03  0.34180284612E+03  0.97704929516E+02 0.  0.
          5    1    3    3  502    0 -0.20908131382E+02 -0.47446886889E+00 -0.38716125988E+03  0.38774822840E+03  0.41800000000E+01 0.  1.
         -5    1    3    3    0  502  0.87146588409E+02  0.47567491739E+02 -0.32426411170E+03  0.33914875892E+03  0.41800000000E+01 0.  1.
        -11    1    4    4    0    0  0.21713930725E+01 -0.51167820200E+02 -0.81561092350E+02  0.96307178119E+02  0.00000000000E+00 0.  1.
         11    1    4    4    0    0 -0.68409850099E+02  0.40747973298E+01 -0.23573631761E+03  0.24549566800E+03  0.00000000000E+00 0. -1.
</event>
<event>
 8    1  0.6615242E-009  0.2029148E+03  0.7561462E-02  0.1147303E+00
          1   -1    0    0  501    0  0.00000000000E+00  0.00000000000E+00  0.15049288600E+03  0.15049288600E+03  0.00000000000E+00 0. -1.
         -1   -1    0    0    0  501 -0.00000000000E+00 -0.00000000000E+00 -0.34214206581E+03  0.34214206581E+03  0.00000000000E+00 0.  1.
         25    2    1    2    0    0 -0.15708610559E+03 -0.84242693417E+02 -0.19553176928E+03  0.29266357478E+03  0.12508564761E+03 0.  0.
         23    2    1    2    0    0  0.15708610559E+03  0.84242693417E+02  0.38825894743E+01  0.19997137704E+03  0.90557170731E+02 0.  0.
          5    1    3    3  502    0  0.15574776012E+02 -0.33768485385E+02 -0.40625045303E+02  0.55233603530E+02  0.41800000000E+01 0.  1.
         -5    1    3    3    0  502 -0.17266088160E+03 -0.50474208032E+02 -0.15490672398E+03  0.23742997125E+03  0.41800000000E+01 0.  1.
        -11    1    4    4    0    0  0.11542130727E+03  0.28515382708E+02  0.34728487656E+02  0.12385989294E+03  0.00000000000E+00 0.  1.
         11    1    4    4    0    0  0.41664798315E+02  0.55727310709E+02 -0.30845898182E+02  0.76111484102E+02  0.00000000000E+00 0. -1.
</event>
<event>
 8    1  0.6615242E-009  0.1393874E+03  0.7561462E-02  0.1214156E+00
         -2   -1    0    0    0  501 -0.00000000000E+00  0.00000000000E+00  0.57411806152E+02  0.57411806152E+02  0.00000000000E+00 0. -1.
          2   -1    0    0  501    0  0.00000000000E+00 -0.00000000000E+00 -0.34147493616E+03  0.34147493616E+03  0.00000000000E+00 0.  1.
         25    2    1    2    0    0  0.83812471483E+02  0.25429692737E+02 -0.17322453685E+03  0.23092169268E+03  0.12508752270E+03 0.  0.
         23    2    1    2    0    0 -0.83812471483E+02 -0.25429692737E+02 -0.11083859316E+03  0.16796504963E+03  0.90861787983E+02 0.  0.
          5    1    3    3  502    0  0.10837265831E+03 -0.10400354867E+02 -0.12761895924E+03  0.16780009418E+03  0.41800000000E+01 0. -1.
         -5    1    3    3    0  502 -0.24560186824E+02  0.35830047605E+02 -0.45605577615E+02  0.63121598505E+02  0.41800000000E+01 0. -1.
        -11    1    4    4    0    0 -0.25913771511E+02  0.34306166401E+02 -0.36400346194E+02  0.56333132437E+02  0.00000000000E+00 0.  1.
         11    1    4    4    0    0 -0.57898699971E+02 -0.59735859138E+02 -0.74438246964E+02  0.11163191719E+03  0.00000000000E+00 0. -1.
</event>
<event>
 8    1  0.6615242E-009  0.1097082E+03  0.7561462E-02  0.1261111E+00
          3   -1    0    0  501    0  0.00000000000E+00  0.00000000000E+00  0.11045146861E+03  0.11045146861E+03  0.00000000000E+00 0. -1.
         -3   -1    0    0    0  501 -0.00000000000E+00 -0.00000000000E+00 -0.13589469167E+03  0.13589469167E+03  0.00000000000E+00 0.  1.
         25    2    1    2    0    0 -0.54849036034E+02  0.60180409699E+01  0.60947561718E+00  0.13672612998E+03  0.12509608143E+03 0.  0.
         23    2    1    2    0    0  0.54849036034E+02 -0.60180409699E+01 -0.26052698684E+02  0.10962003030E+03  0.91066867534E+02 0.  0.
          5    1    3    3  502    0  0.18390534700E+02 -0.43037471177E+02 -0.93725614774E+01  0.47914016743E+02  0.41800000000E+01 0. -1.
         -5    1    3    3    0  502 -0.73239570734E+02  0.49055512147E+02  0.99820370946E+01  0.88812113238E+02  0.41800000000E+01 0. -1.
        -11    1    4    4    0    0  0.59187975918E+02 -0.25333599018E+02 -0.47818833164E+02  0.80197559424E+02  0.00000000000E+00 0.  1.
         11    1    4    4    0    0 -0.43389398834E+01  0.19315558048E+02  0.21766134480E+02  0.29422470872E+02  0.00000000000E+00 0. -1.
</event>
<event>
 8    1  0.6615242E-009  0.9943937E+02  0.7561462E-02  0.1281479E+00
          2   -1    0    0  501    0  0.00000000000E+00  0.00000000000E+00  0.20290821403E+03  0.20290821403E+03  0.00000000000E+00 0. -1.
         -2   -1    0    0    0  501 -0.00000000000E+00 -0.00000000000E+00 -0.97449873076E+02  0.97449873076E+02  0.00000000000E+00 0.  1.
         25    2    1    2    0    0 -0.87953757762E+02  0.14400103118E+02  0.56746764010E+02  0.16374192421E+03  0.12509195035E+03 0.  0.
         23    2    1    2    0    0  0.87953757762E+02 -0.14400103118E+02  0.48711576947E+02  0.13661616290E+03  0.91367016820E+02 0.  0.
          5    1    3    3  502    0 -0.21507388346E+02 -0.23906259393E+02 -0.32555656520E+02  0.45950192198E+02  0.41800000000E+01 0.  1.
         -5    1    3    3    0  502 -0.66446369416E+02  0.38306362511E+02  0.89302420529E+02  0.11779173201E+03  0.41800000000E+01 0.  1.
        -11    1    4    4    0    0  0.90445240826E+01 -0.45306470397E+01  0.55862717553E+02  0.56771237356E+02  0.00000000000E+00 0. -1.
         11    1    4    4    0    0  0.78909233680E+02 -0.98694560779E+01 -0.71511406061E+01  0.79844925544E+02  0.00000000000E+00 0.  1.
</event>
<event>
 8    1  0.6615242E-009  0.2657804E+03  0.7561462E-02  0.1103719E+00
          2   -1    0    0  501    0  0.00000000000E+00  0.00000000000E+00  0.12841841052E+04  0.12841841052E+04  0.00000000000E+00 0. -1.
         -2   -1    0    0    0  501 -0.00000000000E+00 -0.00000000000E+00 -0.62135331511E+02  0.62135331511E+02  0.00000000000E+00 0.  1.
         25    2    1    2    0    0  0.25173366062E+03  0.65910876470E+02  0.60550832083E+03  0.67082209390E+03  0.12509146874E+03 0.  0.
         23    2    1    2    0    0 -0.25173366062E+03 -0.65910876470E+02  0.61654045286E+03  0.67549734281E+03  0.91980707755E+02 0.  0.
          5    1    3    3  502    0  0.17383363884E+03  0.80950317550E+02  0.30758600529E+03  0.36248822182E+03  0.41800000000E+01 0. -1.
         -5    1    3    3    0  502  0.77900021778E+02 -0.15039441081E+02  0.29792231554E+03  0.30833387209E+03  0.41800000000E+01 0. -1.
        -11    1    4    4    0    0 -0.82815886284E+02 -0.25007349489E+02  0.10982682325E+03  0.13980618604E+03  0.00000000000E+00 0.  1.
         11    1    4    4    0    0 -0.16891777434E+03 -0.40903526981E+02  0.50671362961E+03  0.53569115677E+03  0.00000000000E+00 0. -1.
</event>
<event>
 8    1  0.6615242E-009  0.1219888E+03  0.7561462E-02  0.1239852E+00
          2   -1    0    0  501    0  0.00000000000E+00  0.00000000000E+00  0.89926871361E+03  0.89926871361E+03  0.00000000000E+00 0.  1.
         -2   -1    0    0    0  501 -0.00000000000E+00 -0.00000000000E+00 -0.19924945561E+02  0.19924945561E+02  0.00000000000E+00 0. -1.
         25    2    1    2    0    0 -0.56130173039E+02  0.15144726949E+02  0.66394152090E+03  0.67811955352E+03  0.12509127315E+03 0.  0.
         23    2    1    2    0    0  0.56130173039E+02 -0.15144726949E+02  0.21540224716E+03  0.24107410565E+03  0.91316139078E+02 0.  0.
          5    1    3    3  502    0 -0.93560601302E+02  0.25197633850E+02  0.52143407405E+03  0.53037672729E+03  0.41800000000E+01 0. -1.
         -5    1    3    3    0  502  0.37430428263E+02 -0.10052906901E+02  0.14250744685E+03  0.14774282624E+03  0.41800000000E+01 0. -1.
        -11    1    4    4    0    0  0.71436270391E+02 -0.37684008604E+02  0.15384584482E+03  0.17375778889E+03  0.00000000000E+00 0.  1.
         11    1    4    4    0    0 -0.15306097352E+02  0.22539281655E+02  0.61556402336E+02  0.67316316760E+02  0.00000000000E+00 0. -1.
</event>
<event>
 8    1  0.6615242E-009  0.9522729E+02  0.7561462E-02  0.1290665E+00
          3   -1    0    0  501    0  0.00000000000E+00  0.00000000000E+00  0.79341815316E+02  0.79341815316E+02  0.00000000000E+00 0. -1.
         -3   -1    0    0    0  501 -0.00000000000E+00 -0.00000000000E+00 -0.31235956500E+03  0.31235956500E+03  0.00000000000E+00 0.  1.
         25    2    1    2    0    0  0.94725043869E+01 -0.41986088800E+02 -0.25554652132E+03  0.28775652187E+03  0.12508889371E+03 0.  0.
         23    2    1    2    0    0 -0.94725043869E+01  0.41986088800E+02  0.22528771633E+02  0.10394485845E+03  0.91893569165E+02 0.  0.
          5    1    3    3  502    0  0.36652285873E+02  0.33478438626E+02 -0.12393857009E+03  0.13357558709E+03  0.41800000000E+01 0. -1.
         -5    1    3    3    0  502 -0.27179781486E+02 -0.75464527426E+02 -0.13160795123E+03  0.15418093478E+03  0.41800000000E+01 0. -1.
        -11    1    4    4    0    0  0.16541190361E+02  0.11015980562E+02  0.50832446753E+02  0.54579304220E+02  0.00000000000E+00 0. -1.
         11    1    4    4    0    0 -0.26013694748E+02  0.30970108238E+02 -0.28303675120E+02  0.49365554225E+02  0.00000000000E+00 0.  1.
</event>
<event>
 8    1  0.6615242E-009  0.1190634E+03  0.7561462E-02  0.1244650E+00
          1   -1    0    0  501    0  0.00000000000E+00  0.00000000000E+00  0.61505131336E+03  0.61505131336E+03  0.00000000000E+00 0. -1.
         -1   -1    0    0    0  501 -0.00000000000E+00 -0.00000000000E+00 -0.30091076878E+02  0.30091076878E+02  0.00000000000E+00 0.  1.
         25    2    1    2    0    0  0.46281600374E+01  0.81271931965E+02  0.32868925679E+03  0.36098635544E+03  0.12509186422E+03 0.  0.
         23    2    1    2    0    0 -0.46281600374E+01 -0.81271931965E+02  0.25627097970E+03  0.28415603480E+03  0.91887378295E+02 0.  0.
          5    1    3    3  502    0 -0.45105253612E+02  0.61845558002E+02  0.27367245202E+03  0.28420668596E+03  0.41800000000E+01 0. -1.
         -5    1    3    3    0  502  0.49733413649E+02  0.19426373963E+02  0.55016804766E+02  0.76779669478E+02  0.41800000000E+01 0. -1.
        -11    1    4    4    0    0  0.20402566560E+02 -0.80309778115E+02  0.24093415484E+03  0.25478459952E+03  0.00000000000E+00 0. -1.
         11    1    4    4    0    0 -0.25030726597E+02 -0.96215385033E+00  0.15336824855E+02  0.29371435284E+02  0.00000000000E+00 0.  1.
</event>
<event>
 8    1  0.6615242E-009  0.9854337E+02  0.7561462E-02  0.1283389E+00
          2   -1    0    0  501    0  0.00000000000E+00  0.00000000000E+00  0.27516499949E+03  0.27516499949E+03  0.00000000000E+00 0. -1.
         -2   -1    0    0    0  501 -0.00000000000E+00 -0.00000000000E+00 -0.54366104427E+02  0.54366104427E+02  0.00000000000E+00 0.  1.
         25    2    1    2    0    0 -0.25894245518E+02 -0.51741683754E+02  0.13351698211E+03  0.19189749526E+03  0.12510056109E+03 0.  0.
         23    2    1    2    0    0  0.25894245518E+02  0.51741683754E+02  0.87281912948E+02  0.13763360865E+03  0.89314971392E+02 0.  0.
          5    1    3    3  502    0  0.25547723194E+02  0.20177740338E+01  0.11107221345E+03  0.11406693901E+03  0.41800000000E+01 0.  1.
         -5    1    3    3    0  502 -0.51441968712E+02 -0.53759457787E+02  0.22444768657E+02  0.77830556252E+02  0.41800000000E+01 0.  1.
        -11    1    4    4    0    0 -0.66853862217E+01  0.62062459021E+02  0.81995362083E+02  0.10305184429E+03  0.00000000000E+00 0. -1.
         11    1    4    4    0    0  0.32579631739E+02 -0.10320775268E+02  0.52865508651E+01  0.34581764363E+02  0.00000000000E+00 0.  1.
</event>
<event>
 8    1  0.6615242E-009  0.1156462E+03  0.7561462E-02  0.1250457E+00
         -2   -1    0    0    0  501 -0.00000000000E+00  0.00000000000E+00  0.27854538073E+02  0.27854538073E+02  0.00000000000E+00 0.  1.
          2   -1    0    0  501    0  0.00000000000E+00 -0.00000000000E+00 -0.94136120691E+03  0.94136120691E+03  0.00000000000E+00 0. -1.
         25    2    1    2    0    0 -0.98868945895E+02 -0.53871568430E+02 -0.59644136760E+03  0.61973252345E+03  0.12509548871E+03 0.  0.
         23    2    1    2    0    0  0.98868945895E+02  0.53871568430E+02 -0.31706530124E+03  0.34948322153E+03  0.94503452498E+02 0.  0.
          5    1    3    3  502    0 -0.67452050568E+02 -0.17474249295E+02 -0.54401060771E+03  0.54847073050E+03  0.41800000000E+01 0.  1.
         -5    1    3    3    0  502 -0.31416895327E+02 -0.36397319135E+02 -0.52430759881E+02  0.71261792947E+02  0.41800000000E+01 0.  1.
        -11    1    4    4    0    0  0.41311114872E+02  0.29277609536E+02 -0.37530279645E+02  0.63026252644E+02  0.00000000000E+00 0.  1.
         11    1    4    4    0    0  0.57557831024E+02  0.24593958894E+02 -0.27953502159E+03  0.28645696889E+03  0.00000000000E+00 0. -1.
</event>
<event>
 8    1  0.6615242E-009  0.1499113E+03  0.7561462E-02  0.1200582E+00
         -2   -1    0    0    0  501 -0.00000000000E+00  0.00000000000E+00  0.16479390694E+03  0.16479390694E+03  0.00000000000E+00 0.  1.
          2   -1    0    0  501    0  0.00000000000E+00 -0.00000000000E+00 -0.24199146844E+03  0.24199146844E+03  0.00000000000E+00 0. -1.
         25    2    1    2    0    0 -0.51432497144E+01 -0.14096002298E+03 -0.13032896632E+03  0.22919136869E+03  0.12508742113E+03 0.  0.
         23    2    1    2    0    0  0.51432497144E+01  0.14096002298E+03  0.53131404814E+02  0.17759400669E+03  0.93917537970E+02 0.  0.
          5    1    3    3  502    0  0.44734301214E+01 -0.12845252416E+03 -0.36113888702E+02  0.13357300587E+03  0.41800000000E+01 0. -1.
         -5    1    3    3    0  502 -0.96166798358E+01 -0.12507498817E+02 -0.94215077613E+02  0.95618362815E+02  0.41800000000E+01 0. -1.
        -11    1    4    4    0    0  0.32879706596E+02  0.10132868322E+03  0.68719626989E+02  0.12677130702E+03  0.00000000000E+00 0.  1.
         11    1    4    4    0    0 -0.27736456882E+02  0.39631339756E+02 -0.15588222176E+02  0.50822699670E+02  0.00000000000E+00 0. -1.
</event>
<event>
 8    1  0.6615242E-009  0.7967743E+02  0.7561462E-02  0.1329969E+00
         -1   -1    0    0    0  501 -0.00000000000E+00  0.00000000000E+00  0.10040465020E+03  0.10040465020E+03  0.00000000000E+00 0.  1.
          1   -1    0    0  501    0  0.00000000000E+00 -0.00000000000E+00 -0.14472700896E+03  0.14472700896E+03  0.00000000000E+00 0. -1.
         25    2    1    2    0    0 -0.24272921329E+02  0.22124409256E+02  0.25564673905E+02  0.13183111704E+03  0.12508887509E+03 0.  0.
         23    2    1    2    0    0  0.24272921329E+02 -0.22124409256E+02 -0.69887032664E+02  0.11330054212E+03  0.82910501845E+02 0.  0.
          5    1    3    3  502    0  0.37548457533E+02 -0.11081963320E+01 -0.27718472449E+02  0.46871109195E+02  0.41800000000E+01 0. -1.
         -5    1    3    3    0  502 -0.61821378863E+02  0.23232605588E+02  0.53283146354E+02  0.84960007841E+02  0.41800000000E+01 0. -1.
        -11    1    4    4    0    0  0.30351857933E+02  0.20840630519E+01  0.80449445906E+01  0.31469028142E+02  0.00000000000E+00 0.  1.
         11    1    4    4    0    0 -0.60789366032E+01 -0.24208472307E+02 -0.77931977254E+02  0.81831513981E+02  0.00000000000E+00 0. -1.
</event>
<event>
 8    1  0.6615242E-009  0.1098897E+03  0.7561462E-02  0.1260774E+00
         -3   -1    0    0    0  501 -0.00000000000E+00  0.00000000000E+00  0.33243702537E+02  0.33243702537E+02  0.00000000000E+00 0.  1.
          3   -1    0    0  501    0  0.00000000000E+00 -0.00000000000E+00 -0.36822559746E+03  0.36822559746E+03  0.00000000000E+00 0. -1.
         25    2    1    2    0    0  0.19212083183E+02  0.12303640219E+02 -0.18565900016E+03  0.22502792488E+03  0.12509124243E+03 0.  0.
         23    2    1    2    0    0 -0.19212083183E+02 -0.12303640219E+02 -0.14932289476E+03  0.17644137511E+03  0.91179757890E+02 0.  0.
          5    1    3    3  502    0  0.38529387148E+02 -0.48955373341E+02 -0.99733937076E+02  0.11766678740E+03  0.41800000000E+01 0. -1.
         -5    1    3    3    0  502 -0.19317303964E+02  0.61259013560E+02 -0.85925063081E+02  0.10736113748E+03  0.41800000000E+01 0. -1.
        -11    1    4    4    0    0  0.15418602188E+02 -0.43630358487E+02 -0.61376800219E+02  0.76866462650E+02  0.00000000000E+00 0.  1.
         11    1    4    4    0    0 -0.34630685372E+02  0.31326718268E+02 -0.87946094544E+02  0.99574912464E+02  0.00000000000E+00 0. -1.
</event>
<event>
 8    1  0.6615242E-009  0.9685272E+02  0.7561462E-02  0.1287057E+00
         -2   -1    0    0    0  501 -0.00000000000E+00  0.00000000000E+00  0.23601105012E+03  0.23601105012E+03  0.00000000000E+00 0.  1.
          2   -1    0    0  501    0  0.00000000000E+00 -0.00000000000E+00 -0.75842801012E+02  0.75842801012E+02  0.00000000000E+00 0. -1.
         25    2    1    2    0    0 -0.41869288411E+02 -0.33346275295E+02  0.15141936136E+03  0.20356872484E+03  0.12508953333E+03 0.  0.
         23    2    1    2    0    0  0.41869288411E+02  0.33346275295E+02  0.87488877485E+01  0.10828512630E+03  0.93723605097E+02 0.  0.
          5    1    3    3  502    0 -0.52676713926E+02  0.25945580816E+02  0.25993999748E+02  0.64351921314E+02  0.41800000000E+01 0. -1.
         -5    1    3    3    0  502  0.10807425515E+02 -0.59291856111E+02  0.12542536162E+03  0.13921680352E+03  0.41800000000E+01 0. -1.
        -11    1    4    4    0    0  0.43438187069E+02  0.45069958752E+02 -0.28810461674E+02  0.68907328926E+02  0.00000000000E+00 0. -1.
         11    1    4    4    0    0 -0.15688986585E+01 -0.11723683458E+02  0.37559349423E+02  0.39377797372E+02  0.00000000000E+00 0.  1.
</event>
<event>
 8    1  0.6615242E-009  0.8206585E+02  0.7561462E-02  0.1323289E+00
          1   -1    0    0  501    0  0.00000000000E+00  0.00000000000E+00  0.82237952340E+03  0.82237952340E+03  0.00000000000E+00 0. -1.
         -1   -1    0    0    0  501 -0.00000000000E+00 -0.00000000000E+00 -0.16187823026E+02  0.16187823026E+02  0.00000000000E+00 0.  1.
         25    2    1    2    0    0 -0.10208817488E+00  0.11821080991E+02  0.58591691559E+03  0.59923676479E+03  0.12508525062E+03 0.  0.
         23    2    1    2    0    0  0.10208817488E+00 -0.11821080991E+02  0.22027478479E+03  0.23933058164E+03  0.92835327961E+02 0.  0.
          5    1    3    3  502    0  0.13434508158E+02 -0.34953336321E+02  0.58653735156E+02  0.69713375884E+02  0.41800000000E+01 0. -1.
         -5    1    3    3    0  502 -0.13536596333E+02  0.46774417312E+02  0.52726318043E+03  0.52952338890E+03  0.41800000000E+01 0. -1.
        -11    1    4    4    0    0 -0.40799298912E+01 -0.44473802367E+02  0.55194498189E+02  0.70999982783E+02  0.00000000000E+00 0.  1.
         11    1    4    4    0    0  0.41820180661E+01  0.32652721376E+02  0.16508028660E+03  0.16833059886E+03  0.00000000000E+00 0. -1.
</event>
<event>
 8    1  0.6615242E-009  0.1566695E+03  0.7561462E-02  0.1192509E+00
         -2   -1    0    0    0  501 -0.00000000000E+00  0.00000000000E+00  0.27105031538E+03  0.27105031538E+03  0.00000000000E+00 0.  1.
          2   -1    0    0  501    0  0.00000000000E+00 -0.00000000000E+00 -0.10472804897E+03  0.10472804897E+03  0.00000000000E+00 0. -1.
         25    2    1    2    0    0  0.12528897019E+03  0.27230305066E+02  0.95783573004E+02  0.20312819663E+03  0.12509099026E+03 0.  0.
         23    2    1    2    0    0 -0.12528897019E+03 -0.27230305066E+02  0.70538693410E+02  0.17265016772E+03  0.91616360874E+02 0.  0.
          5    1    3    3  502    0  0.30089345121E+02 -0.44292798338E+02  0.55805958149E+02  0.77453199026E+02  0.41800000000E+01 0. -1.
         -5    1    3    3    0  502  0.95199625073E+02  0.71523103404E+02  0.39977614855E+02  0.12567499761E+03  0.41800000000E+01 0. -1.
        -11    1    4    4    0    0 -0.55693678903E+02  0.16746978376E+02 -0.81999196035E+01  0.58732323604E+02  0.00000000000E+00 0.  1.
         11    1    4    4    0    0 -0.69595291290E+02 -0.43977283442E+02  0.78738613014E+02  0.11391784412E+03  0.00000000000E+00 0. -1.
</event>
<event>
 8    1  0.6615242E-009  0.1855884E+03  0.7561462E-02  0.1162502E+00
         -2   -1    0    0    0  501 -0.00000000000E+00  0.00000000000E+00  0.18183214975E+03  0.18183214975E+03  0.00000000000E+00 0.  1.
          2   -1    0    0  501    0  0.00000000000E+00 -0.00000000000E+00 -0.30034515283E+03  0.30034515283E+03  0.00000000000E+00 0. -1.
         25    2    1    2    0    0  0.14979261923E+03 -0.52203506987E+02  0.74231546767E+02  0.21522725970E+03  0.12509762534E+03 0.  0.
         23    2    1    2    0    0 -0.14979261923E+03  0.52203506987E+02 -0.19274454984E+03  0.26695004288E+03  0.94598250433E+02 0.  0.
          5    1    3    3  502    0  0.12254068433E+03 -0.81566071348E+02  0.21427002873E+02  0.14881475788E+03  0.41800000000E+01 0. -1.
         -5    1    3    3    0  502  0.27251934897E+02  0.29362564361E+02  0.52804543894E+02  0.66412501815E+02  0.41800000000E+01 0. -1.
        -11    1    4    4    0    0 -0.54495367994E+02 -0.25978717765E+02 -0.50322738853E+02  0.78594000759E+02  0.00000000000E+00 0.  1.
         11    1    4    4    0    0 -0.95297251235E+02  0.78182224752E+02 -0.14242181099E+03  0.18835604213E+03  0.00000000000E+00 0. -1.
</event>
<event>
 7    1  0.6615242E-009  0.1737331E+03  0.7561462E-02  0.1174010E+00
          2   -1    0    0  501    0  0.00000000000E+00  0.00000000000E+00  0.36514036315E+04  0.36514036315E+04  0.00000000000E+00 0. -1.
         -2   -1    0    0    0  501 -0.00000000000E+00 -0.00000000000E+00 -0.14371951111E+02  0.14371951111E+02  0.00000000000E+00 0.  1.
         23    2    1    2    0    0  0.56182809552E+02 -0.15297661991E+03  0.90328569044E+03  0.92429950528E+03  0.10884016990E+03 0.  0.
          5    1    1    2  502    0 -0.47847612944E+02  0.42644670988E+02  0.18066551007E+04  0.18077964728E+04  0.41800000000E+01 0.  1.
         -5    1    1    2    0  502 -0.83351966077E+01  0.11033194893E+03  0.92709088925E+03  0.93367960446E+03  0.41800000000E+01 0.  1.
        -11    1    3    3    0    0  0.15381551844E+02 -0.12927530802E+01  0.12759983273E+02  0.20026994801E+02  0.00000000000E+00 0.  1.
         11    1    3    3    0    0  0.40801257708E+02 -0.15168386683E+03  0.89052570716E+03  0.90427251048E+03  0.00000000000E+00 0. -1.
</event>
<event>
 8    1  0.6615242E-009  0.6251599E+02  0.7561462E-02  0.1387567E+00
          4   -1    0    0  501    0  0.00000000000E+00  0.00000000000E+00  0.94979502168E+02  0.94979502168E+02  0.00000000000E+00 0. -1.
         -4   -1    0    0    0  501 -0.00000000000E+00 -0.00000000000E+00 -0.12186686494E+03  0.12186686494E+03  0.00000000000E+00 0.  1.
         25    2    1    2    0    0 -0.45581955011E+01  0.25859859757E+01 -0.17025549897E+02  0.12634925864E+03  0.12508717496E+03 0.  0.
         23    2    1    2    0    0  0.45581955011E+01 -0.25859859757E+01 -0.98618128736E+01  0.90497108471E+02  0.89805383017E+02 0.  0.
          5    1    3    3  502    0 -0.13709132777E+02  0.15546835387E+02 -0.68832060774E+02  0.72006731647E+02  0.41800000000E+01 0.  1.
         -5    1    3    3    0  502  0.91509372755E+01 -0.12960849411E+02  0.51806510876E+02  0.54342526990E+02  0.41800000000E+01 0.  1.
        -11    1    4    4    0    0  0.43721999481E+02 -0.15271928987E+02 -0.15736205416E+02  0.48912914598E+02  0.00000000000E+00 0. -1.
         11    1    4    4    0    0 -0.39163803980E+02  0.12685943012E+02  0.58743925422E+01  0.41584193873E+02  0.00000000000E+00 0.  1.
</event>
<event>
 8    1  0.6615242E-009  0.1179696E+03  0.7561462E-02  0.1246485E+00
         -4   -1    0    0    0  501 -0.00000000000E+00  0.00000000000E+00  0.74137612996E+02  0.74137612996E+02  0.00000000000E+00 0.  1.
          4   -1    0    0  501    0  0.00000000000E+00 -0.00000000000E+00 -0.19431893066E+03  0.19431893066E+03  0.00000000000E+00 0. -1.
         25    2    1    2    0    0  0.26905059163E+02 -0.42714066360E+02 -0.51995206519E+02  0.14456236995E+03  0.12508558522E+03 0.  0.
         23    2    1    2    0    0 -0.26905059163E+02  0.42714066360E+02 -0.68186111144E+02  0.12389417371E+03  0.90288686182E+02 0.  0.
          5    1    3    3  502    0 -0.90799372536E+01 -0.80801309354E+02 -0.39692098753E+02  0.90577215442E+02  0.41800000000E+01 0.  1.
         -5    1    3    3    0  502  0.35984996417E+02  0.38087242994E+02 -0.12303107765E+02  0.53985154503E+02  0.41800000000E+01 0.  1.
        -11    1    4    4    0    0  0.29860301339E+02 -0.16599681236E+01 -0.29954827527E+02  0.42328297655E+02  0.00000000000E+00 0.  1.
         11    1    4    4    0    0 -0.56765360502E+02  0.44374034484E+02 -0.38231283617E+02  0.81565876053E+02  0.00000000000E+00 0. -1.
</event>
<event>
 8    1  0.6615242E-009  0.1114528E+03  0.7561462E-02  0.1257903E+00
          2   -1    0    0  501    0  0.00000000000E+00  0.00000000000E+00  0.74840463091E+02  0.74840463091E+02  0.00000000000E+00 0. -1.
         -2   -1    0    0    0  501 -0.00000000000E+00 -0.00000000000E+00 -0.29137711791E+03  0.29137711791E+03  0.00000000000E+00 0.  1.
         25    2    1    2    0    0  0.99154021058E+02  0.40411262443E+01 -0.10516982223E+03  0.19118484866E+03  0.12507239605E+03 0.  0.
         23    2    1    2    0    0 -0.99154021058E+02 -0.40411262443E+01 -0.11136683259E+03  0.17503273235E+03  0.91575299063E+02 0.  0.
          5    1    3    3  502    0  0.93009770238E+02  0.27359556180E+02 -0.12600648784E+03  0.15904235301E+03  0.41800000000E+01 0. -1.
         -5    1    3    3    0  502  0.61442508195E+01 -0.23318429935E+02  0.20836665605E+02  0.32142495646E+02  0.41800000000E+01 0. -1.
        -11    1    4    4    0    0 -0.26891098423E+02 -0.10438044310E+02 -0.96842851835E+02  0.10104762192E+03  0.00000000000E+00 0.  1.
         11    1    4    4    0    0 -0.72262922635E+02  0.63969180653E+01 -0.14523980755E+02  0.73985110431E+02  0.00000000000E+00 0. -1.
</event>
<event>
 8    1  0.6615242E-009  0.8309385E+02  0.7561462E-02  0.1320494E+00
          1   -1    0    0  501    0  0.00000000000E+00  0.00000000000E+00  0.25649638543E+03  0.25649638543E+03  0.00000000000E+00 0. -1.
         -1   -1    0    0    0  501 -0.00000000000E+00 -0.00000000000E+00 -0.58329463091E+02  0.58329463091E+02  0.00000000000E+00 0.  1.
         25    2    1    2    0    0 -0.22494720979E+02 -0.33990652614E+01  0.17682400117E+03  0.21778465930E+03  0.12508342943E+03 0.  0.
         23    2    1    2    0    0  0.22494720979E+02  0.33990652614E+01  0.21342921172E+02  0.97041189228E+02  0.91890728619E+02 0.  0.
          5    1    3    3  502    0 -0.10332508165E+01 -0.43372616152E+02  0.16507417479E+03  0.17073138850E+03  0.41800000000E+01 0.  1.
         -5    1    3    3    0  502 -0.21461470162E+02  0.39973550890E+02  0.11749826385E+02  0.47053270794E+02  0.41800000000E+01 0.  1.
        -11    1    4    4    0    0  0.90412781286E+01  0.38448121348E+02  0.39041648678E+02  0.55536052047E+02  0.00000000000E+00 0. -1.
         11    1    4    4    0    0  0.13453442850E+02 -0.35049056087E+02 -0.17698727506E+02  0.41505137182E+02  0.00000000000E+00 0.  1.
</event>
<event>
 8    1  0.6615242E-009  0.1439775E+03  0.7561462E-02  0.1208075E+00
         -1   -1    0    0    0  501 -0.00000000000E+00  0.00000000000E+00  0.50929844296E+03  0.50929844296E+03  0.00000000000E+00 0.  1.
          1   -1    0    0  501    0  0.00000000000E+00 -0.00000000000E+00 -0.61617794919E+02  0.61617794919E+02  0.00000000000E+00 0. -1.
         25    2    1    2    0    0 -0.10938592511E+03  0.85396417658E+02  0.27553861020E+03  0.33290728960E+03  0.12509160242E+03 0.  0.
         23    2    1    2    0    0  0.10938592511E+03 -0.85396417658E+02  0.17214203784E+03  0.23800894828E+03  0.88076952196E+02 0.  0.
          5    1    3    3  502    0 -0.53582925641E+01  0.11724527322E+02  0.16074049749E+03  0.16131074289E+03  0.41800000000E+01 0.  1.
         -5    1    3    3    0  502 -0.10402763255E+03  0.73671890336E+02  0.11479811271E+03  0.17159654670E+03  0.41800000000E+01 0.  1.
        -11    1    4    4    0    0  0.63502826043E+02 -0.19243529173E+02  0.13268620398E+03  0.14835279255E+03  0.00000000000E+00 0.  1.
         11    1    4    4    0    0  0.45883099069E+02 -0.66152888484E+02  0.39455833864E+02  0.89656155733E+02  0.00000000000E+00 0. -1.
</event>
<event>
 8    1  0.6615242E-009  0.3413261E+03  0.7561462E-02  0.1066233E+00
         -1   -1    0    0    0  501 -0.00000000000E+00  0.00000000000E+00  0.74363334011E+02  0.74363334011E+02  0.00000000000E+00 0.  1.
          1   -1    0    0  501    0  0.00000000000E+00 -0.00000000000E+00 -0.16949139707E+04  0.16949139707E+04  0.00000000000E+00 0. -1.
         25    2    1    2    0    0  0.26038136437E+03 -0.21164496505E+03 -0.91931618446E+03  0.98660141307E+03  0.12509218642E+03 0.  0.
         23    2    1    2    0    0 -0.26038136437E+03  0.21164496505E+03 -0.70123445219E+03  0.78267589161E+03  0.90883156983E+02 0.  0.
          5    1    3    3  502    0  0.90585473246E+02 -0.31153282969E+02 -0.14712707621E+03  0.17561350734E+03  0.41800000000E+01 0. -1.
         -5    1    3    3    0  502  0.16979589113E+03 -0.18049168208E+03 -0.77218910825E+03  0.81098790573E+03  0.41800000000E+01 0. -1.
        -11    1    4    4    0    0 -0.10722325739E+03  0.11785989103E+03 -0.41760636885E+03  0.44697075983E+03  0.00000000000E+00 0. -1.
         11    1    4    4    0    0 -0.15315810698E+03  0.93785074019E+02 -0.28362808334E+03  0.33570513178E+03  0.00000000000E+00 0.  1.
</event>
<event>
 8    1  0.6615242E-009  0.1847403E+03  0.7561462E-02  0.1163293E+00
         -1   -1    0    0    0  501 -0.00000000000E+00  0.00000000000E+00  0.65253666652E+02  0.65253666652E+02  0.00000000000E+00 0.  1.
          1   -1    0    0  501    0  0.00000000000E+00 -0.00000000000E+00 -0.64196196981E+03  0.64196196981E+03  0.00000000000E+00 0. -1.
         25    2    1    2    0    0 -0.79197868594E+02  0.14742340067E+03 -0.37508375554E+03  0.42934803649E+03  0.12508377718E+03 0.  0.
         23    2    1    2    0    0  0.79197868594E+02 -0.14742340067E+03 -0.20162454762E+03  0.27786759997E+03  0.92476934721E+02 0.  0.
          5    1    3    3  502    0 -0.67665789803E+02  0.15995363678E+02 -0.18712739529E+03  0.19967134305E+03  0.41800000000E+01 0. -1.
         -5    1    3    3    0  502 -0.11532078790E+02  0.13142803700E+03 -0.18795636025E+03  0.22967669344E+03  0.41800000000E+01 0. -1.
        -11    1    4    4    0    0  0.69379063819E+02 -0.11892910162E+03 -0.20562403612E+03  0.24746480546E+03  0.00000000000E+00 0. -1.
         11    1    4    4    0    0  0.98188047749E+01 -0.28494299054E+02  0.39994885079E+01  0.30402794512E+02  0.00000000000E+00 0.  1.
</event>
<event>
 8    1  0.6615242E-009  0.1187030E+03  0.7561462E-02  0.1245252E+00
         -2   -1    0    0    0  501 -0.00000000000E+00  0.00000000000E+00  0.14289584368E+03  0.14289584368E+03  0.00000000000E+00 0.  1.
          2   -1    0    0  501    0  0.00000000000E+00 -0.00000000000E+00 -0.12523710748E+03  0.12523710748E+03  0.00000000000E+00 0. -1.
         25    2    1    2    0    0 -0.63315573046E+02  0.64033999585E+02  0.30996350100E+02  0.15720848522E+03  0.12507805248E+03 0.  0.
         23    2    1    2    0    0  0.63315573046E+02 -0.64033999585E+02 -0.13337613901E+02  0.11092446595E+03  0.63380835499E+02 0.  0.
          5    1    3    3  502    0 -0.51787888377E+02 -0.23898195329E+02  0.37176632784E+02  0.68210582373E+02  0.41800000000E+01 0. -1.
         -5    1    3    3    0  502 -0.11527684669E+02  0.87932194914E+02 -0.61802826842E+01  0.88997902842E+02  0.41800000000E+01 0. -1.
        -11    1    4    4    0    0  0.37558833836E+02 -0.48546660120E+02  0.21387981959E+02  0.64999153689E+02  0.00000000000E+00 0.  1.
         11    1    4    4    0    0  0.25756739210E+02 -0.15487339465E+02 -0.34725595860E+02  0.45925312261E+02  0.00000000000E+00 0. -1.
</event>
<event>
 8    1  0.6615242E-009  0.1242678E+03  0.7561462E-02  0.1236218E+00
          2   -1    0    0  501    0  0.00000000000E+00  0.00000000000E+00  0.10721828705E+04  0.10721828705E+04  0.00000000000E+00 0. -1.
         -2   -1    0    0    0  501 -0.00000000000E+00 -0.00000000000E+00 -0.18537228264E+02  0.18537228264E+02  0.00000000000E+00 0.  1.
         25    2    1    2    0    0 -0.32956642880E+02 -0.76951615315E+02  0.69686473716E+03  0.71293462819E+03  0.12509049032E+03 0.  0.
         23    2    1    2    0    0  0.32956642880E+02  0.76951615315E+02  0.35678090511E+03  0.37778547061E+03  0.91769036939E+02 0.  0.
          5    1    3    3  502    0 -0.40723041372E+02  0.57544555135E+01  0.46070328207E+03  0.46255428478E+03  0.41800000000E+01 0. -1.
         -5    1    3    3    0  502  0.77663984918E+01 -0.82706070828E+02  0.23616145509E+03  0.25038034341E+03  0.41800000000E+01 0. -1.
        -11    1    4    4    0    0 -0.21974854991E+02  0.63882367858E+02  0.20479007350E+03  0.21564513762E+03  0.00000000000E+00 0. -1.
         11    1    4    4    0    0  0.54931497871E+02  0.13069247456E+02  0.15199083161E+03  0.16214033299E+03  0.00000000000E+00 0.  1.
</event>
<event>
 8    1  0.6615242E-009  0.9228195E+02  0.7561462E-02  0.1297418E+00
         -4   -1    0    0    0  501 -0.00000000000E+00  0.00000000000E+00  0.86007174072E+02  0.86007174072E+02  0.00000000000E+00 0.  1.
          4   -1    0    0  501    0  0.00000000000E+00 -0.00000000000E+00 -0.21099445604E+03  0.21099445604E+03  0.00000000000E+00 0. -1.
         25    2    1    2    0    0  0.62885303634E+02  0.37088317042E+02 -0.10521658788E+03  0.17902052099E+03  0.12509081460E+03 0.  0.
         23    2    1    2    0    0 -0.62885303634E+02 -0.37088317042E+02 -0.19770694090E+02  0.11798110912E+03  0.90545883900E+02 0.  0.
          5    1    3    3  502    0  0.18155851357E+02 -0.10158635384E+02  0.25363458412E+02  0.33069778257E+02  0.41800000000E+01 0.  1.
         -5    1    3    3    0  502  0.44729452278E+02  0.47246952426E+02 -0.13058004629E+03  0.14595074273E+03  0.41800000000E+01 0.  1.
        -11    1    4    4    0    0 -0.52869007807E+01  0.17809769506E+02  0.21442721393E+02  0.28371279676E+02  0.00000000000E+00 0.  1.
         11    1    4    4    0    0 -0.57598402854E+02 -0.54898086548E+02 -0.41213415483E+02  0.89609829448E+02  0.00000000000E+00 0. -1.
</event>
<event>
 8    1  0.6615242E-009  0.1643038E+03  0.7561462E-02  0.1183922E+00
         -3   -1    0    0    0  501 -0.00000000000E+00  0.00000000000E+00  0.12643701774E+03  0.12643701774E+03  0.00000000000E+00 0.  1.
          3   -1    0    0  501    0  0.00000000000E+00 -0.00000000000E+00 -0.23582833662E+03  0.23582833662E+03  0.00000000000E+00 0. -1.
         25    2    1    2    0    0 -0.12904852774E+03 -0.37703088697E+01 -0.22409956299E+02  0.18115384492E+03  0.12508705628E+03 0.  0.
         23    2    1    2    0    0  0.12904852774E+03  0.37703088697E+01 -0.86981362586E+02  0.18111150944E+03  0.92562863365E+02 0.  0.
          5    1    3    3  502    0 -0.92263736234E+01  0.42536632661E+02  0.16702596690E+02  0.46807480434E+02  0.41800000000E+01 0.  1.
         -5    1    3    3    0  502 -0.11982215411E+03 -0.46306941531E+02 -0.39112552989E+02  0.13434636449E+03  0.41800000000E+01 0.  1.
        -11    1    4    4    0    0 -0.13493468914E+02  0.29414528644E+01 -0.18182598266E+02  0.22832711796E+02  0.00000000000E+00 0. -1.
         11    1    4    4    0    0  0.14254199665E+03  0.82885600532E+00 -0.68798764320E+02  0.15827879764E+03  0.00000000000E+00 0.  1.
</event>
<event>
 8    1  0.6615242E-009  0.1246227E+03  0.7561462E-02  0.1235660E+00
          2   -1    0    0  501    0  0.00000000000E+00  0.00000000000E+00  0.82423630643E+03  0.82423630643E+03  0.00000000000E+00 0. -1.
         -2   -1    0    0    0  501 -0.00000000000E+00 -0.00000000000E+00 -0.19398586882E+02  0.19398586882E+02  0.00000000000E+00 0.  1.
         25    2    1    2    0    0  0.11915712612E+02 -0.62944279292E+02  0.43608680380E+03  0.45817427223E+03  0.12509195331E+03 0.  0.
         23    2    1    2    0    0 -0.11915712612E+02  0.62944279292E+02  0.36875091575E+03  0.38546062109E+03  0.92188318327E+02 0.  0.
          5    1    3    3  502    0  0.58749573594E+02 -0.67969009166E+02  0.32979075402E+03  0.34183433479E+03  0.41800000000E+01 0. -1.
         -5    1    3    3    0  502 -0.46833860982E+02  0.50247298746E+01  0.10629604978E+03  0.11633993744E+03  0.41800000000E+01 0. -1.
        -11    1    4    4    0    0 -0.51927042639E+00  0.86158089542E+02  0.27253902276E+03  0.28583387651E+03  0.00000000000E+00 0.  1.
         11    1    4    4    0    0 -0.11396442185E+02 -0.23213810250E+02  0.96211892998E+02  0.99626744577E+02  0.00000000000E+00 0. -1.
</event>
<event>
 8    1  0.6615242E-009  0.1102866E+03  0.7561462E-02  0.1260040E+00
          2   -1    0    0  501    0  0.00000000000E+00  0.00000000000E+00  0.10989925602E+04  0.10989925602E+04  0.00000000000E+00 0. -1.
         -2   -1    0    0    0  501 -0.00000000000E+00 -0.00000000000E+00 -0.11425254249E+02  0.11425254249E+02  0.00000000000E+00 0.  1.
         25    2    1    2    0    0 -0.50286944908E+01 -0.32476537561E+02  0.66242623999E+03  0.67493380068E+03  0.12508836319E+03 0.  0.
         23    2    1    2    0    0  0.50286944908E+01  0.32476537561E+02  0.42514106600E+03  0.43548401381E+03  0.88438605981E+02 0.  0.
          5    1    3    3  502    0 -0.62981795555E+02 -0.11143240219E+01  0.30622307846E+03  0.31266274877E+03  0.41800000000E+01 0. -1.
         -5    1    3    3    0  502  0.57953101064E+02 -0.31362213539E+02  0.35620316153E+03  0.36227105190E+03  0.41800000000E+01 0. -1.
        -11    1    4    4    0    0 -0.40062308899E+02  0.19099750701E+02  0.26061888842E+03  0.26437094030E+03  0.00000000000E+00 0. -1.
         11    1    4    4    0    0  0.45091003390E+02  0.13376786861E+02  0.16452217757E+03  0.17111307351E+03  0.00000000000E+00 0.  1.
</event>
<event>
 8    1  0.6615242E-009  0.1060331E+03  0.7561462E-02  0.1268097E+00
         -2   -1    0    0    0  501 -0.00000000000E+00  0.00000000000E+00  0.19590176042E+03  0.19590176042E+03  0.00000000000E+00 0.  1.
          2   -1    0    0  501    0  0.00000000000E+00 -0.00000000000E+00 -0.10282307865E+03  0.10282307865E+03  0.00000000000E+00 0. -1.
         25    2    1    2    0    0  0.29235726333E+02  0.30468611682E+02 -0.37128969675E+02  0.13714628945E+03  0.12508988900E+03 0.  0.
         23    2    1    2    0    0 -0.29235726333E+02 -0.30468611682E+02  0.13020765144E+03  0.16157854962E+03  0.85851797944E+02 0.  0.
          5    1    3    3  502    0 -0.23624532537E+02 -0.34918276141E+02 -0.31462234001E+02  0.52770722134E+02  0.41800000000E+01 0. -1.
         -5    1    3    3    0  502  0.52860258870E+02  0.65386887822E+02 -0.56667356744E+01  0.84375567317E+02  0.41800000000E+01 0. -1.
        -11    1    4    4    0    0 -0.34810889960E+02  0.16283944277E+02  0.23760662263E+02  0.45183337329E+02  0.00000000000E+00 0.  1.
         11    1    4    4    0    0  0.55751636273E+01 -0.46752555958E+02  0.10644698918E+03  0.11639521229E+03  0.00000000000E+00 0. -1.
</event>
<event>
 8    1  0.6615242E-009  0.1133056E+03  0.7561462E-02  0.1254568E+00
          1   -1    0    0  501    0  0.00000000000E+00  0.00000000000E+00  0.30884329750E+02  0.30884329750E+02  0.00000000000E+00 0. -1.
         -1   -1    0    0    0  501 -0.00000000000E+00 -0.00000000000E+00 -0.71620742515E+03  0.71620742515E+03  0.00000000000E+00 0.  1.
         25    2    1    2    0    0 -0.29571563482E+02  0.19760405256E+02 -0.60606485917E+03  0.61985976933E+03  0.12508624679E+03 0.  0.
         23    2    1    2    0    0  0.29571563482E+02 -0.19760405256E+02 -0.79258236231E+02  0.12723198557E+03  0.92957835379E+02 0.  0.
          5    1    3    3  502    0  0.18213896715E+02 -0.43781049266E+02 -0.16775999326E+03  0.17438295228E+03  0.41800000000E+01 0.  1.
         -5    1    3    3    0  502 -0.47785460197E+02  0.63541454522E+02 -0.43830486591E+03  0.44547681705E+03  0.41800000000E+01 0.  1.
        -11    1    4    4    0    0 -0.68557615126E+01  0.33873109916E+02 -0.24435050789E+02  0.42325651187E+02  0.00000000000E+00 0. -1.
         11    1    4    4    0    0  0.36427324995E+02 -0.53633515172E+02 -0.54823185441E+02  0.84906334380E+02  0.00000000000E+00 0.  1.
</event>
<event>
 8    1  0.6615242E-009  0.1172699E+03  0.7561462E-02  0.1247670E+00
         -1   -1    0    0    0  501 -0.00000000000E+00  0.00000000000E+00  0.26847861088E+03  0.26847861088E+03  0.00000000000E+00 0.  1.
          1   -1    0    0  501    0  0.00000000000E+00 -0.00000000000E+00 -0.86547045803E+02  0.86547045803E+02  0.00000000000E+00 0. -1.
         25    2    1    2    0    0 -0.20183646716E+02  0.73588953386E+02  0.18652656986E+03  0.23719595428E+03  0.12508815214E+03 0.  0.
         23    2    1    2    0    0  0.20183646716E+02 -0.73588953386E+02 -0.45950047814E+01  0.11782970241E+03  0.89666108677E+02 0.  0.
          5    1    3    3  502    0 -0.41067633883E+02 -0.13916738369E+02  0.20125940361E+02  0.47986998603E+02  0.41800000000E+01 0.  1.
         -5    1    3    3    0  502  0.20883987167E+02  0.87505691755E+02  0.16640062950E+03  0.18920895568E+03  0.41800000000E+01 0.  1.
        -11    1    4    4    0    0  0.31201679403E+02 -0.51830199423E+01 -0.30421961468E+02  0.43885125417E+02  0.00000000000E+00 0. -1.
         11    1    4    4    0    0 -0.11018032687E+02 -0.68405933444E+02  0.25826956687E+02  0.73944576990E+02  0.00000000000E+00 0.  1.
</event>
<event>
 8    1  0.6615242E-009  0.5647565E+02  0.7561462E-02  0.1413247E+00
         -2   -1    0    0    0  501 -0.00000000000E+00  0.00000000000E+00  0.78890758885E+02  0.78890758885E+02  0.00000000000E+00 0. -1.
          2   -1    0    0  501    0  0.00000000000E+00 -0.00000000000E+00 -0.16953157715E+03  0.16953157715E+03  0.00000000000E+00 0.  1.
         25    2    1    2    0    0  0.66481579677E+01 -0.23722177017E+02 -0.17828370450E+02  0.12874327943E+03  0.12510012597E+03 0.  0.
         23    2    1    2    0    0 -0.66481579677E+01  0.23722177017E+02 -0.72812447818E+02  0.11967905661E+03  0.91730498458E+02 0.  0.
          5    1    3    3  502    0  0.41516412419E+02 -0.21363997765E+01  0.39923776724E+02  0.57788900768E+02  0.41800000000E+01 0.  1.
         -5    1    3    3    0  502 -0.34868254451E+02 -0.21585777241E+02 -0.57752147173E+02  0.70954378658E+02  0.41800000000E+01 0.  1.
        -11    1    4    4    0    0 -0.94448594485E+01  0.43897528234E+01  0.21220510349E+02  0.23638641233E+02  0.00000000000E+00 0. -1.
         11    1    4    4    0    0  0.27967014807E+01  0.19332424194E+02 -0.94032958168E+02  0.96040415379E+02  0.00000000000E+00 0.  1.
</event>
<event>
 8    1  0.6615242E-009  0.5663796E+02  0.7561462E-02  0.1412508E+00
         -2   -1    0    0    0  501 -0.00000000000E+00  0.00000000000E+00  0.58138340312E+02  0.58138340312E+02  0.00000000000E+00 0.  1.
          2   -1    0    0  501    0  0.00000000000E+00 -0.00000000000E+00 -0.37201777495E+03  0.37201777495E+03  0.00000000000E+00 0. -1.
         25    2    1    2    0    0 -0.96242251536E+00  0.43218428502E+01 -0.31388914417E+03  0.33792547669E+03  0.12509048079E+03 0.  0.
         23    2    1    2    0    0  0.96242251536E+00 -0.43218428502E+01  0.97095268360E-02  0.92230638578E+02  0.92124296554E+02 0.  0.
          5    1    3    3  502    0 -0.11638524712E+01  0.25199536855E+02 -0.23705439995E+01  0.25680013418E+02  0.41800000000E+01 0. -1.
         -5    1    3    3    0  502  0.20142995582E+00 -0.20877694005E+02 -0.31151860017E+03  0.31224546327E+03  0.41800000000E+01 0. -1.
        -11    1    4    4    0    0  0.23669647016E+01  0.30986269652E+02 -0.31960616115E+02  0.44578385023E+02  0.00000000000E+00 0. -1.
         11    1    4    4    0    0 -0.14045421862E+01 -0.35308112502E+02  0.31970325642E+02  0.47652253555E+02  0.00000000000E+00 0.  1.
</event>
<event>
 8    1  0.6615242E-009  0.1682411E+03  0.7561462E-02  0.1179695E+00
          3   -1    0    0  501    0  0.00000000000E+00  0.00000000000E+00  0.15039878423E+03  0.15039878423E+03  0.00000000000E+00 0. -1.
         -3   -1    0    0    0  501 -0.00000000000E+00 -0.00000000000E+00 -0.21398226024E+03  0.21398226024E+03  0.00000000000E+00 0.  1.
         25    2    1    2    0    0 -0.95896749729E+02  0.85981811732E+02  0.26980546970E+02  0.18156306857E+03  0.12509252334E+03 0.  0.
         23    2    1    2    0    0  0.95896749729E+02 -0.85981811732E+02 -0.90564022976E+02  0.18281797590E+03  0.92905928223E+02 0.  0.
          5    1    3    3  502    0 -0.73694221628E+02 -0.15259646670E+02  0.17651081589E+02  0.77412713421E+02  0.41800000000E+01 0.  1.
         -5    1    3    3    0  502 -0.22202528101E+02  0.10124145840E+03  0.93294653814E+01  0.10415035515E+03  0.41800000000E+01 0.  1.
        -11    1    4    4    0    0 -0.21196921519E+01 -0.54337738970E+02 -0.19881036723E+02  0.57899383351E+02  0.00000000000E+00 0.  1.
         11    1    4    4    0    0  0.98016441881E+02 -0.31644072762E+02 -0.70682986253E+02  0.12491859255E+03  0.00000000000E+00 0. -1.
</event>
<event>
 8    1  0.6615242E-009  0.8837961E+02  0.7561462E-02  0.1306824E+00
         -1   -1    0    0    0  501 -0.00000000000E+00  0.00000000000E+00  0.23494794928E+02  0.23494794928E+02  0.00000000000E+00 0.  1.
          1   -1    0    0  501    0  0.00000000000E+00 -0.00000000000E+00 -0.70135657941E+03  0.70135657941E+03  0.00000000000E+00 0. -1.
         25    2    1    2    0    0 -0.60419738924E+02 -0.33153846787E+02 -0.37085570670E+03  0.39740221835E+03  0.12507935701E+03 0.  0.
         23    2    1    2    0    0  0.60419738924E+02  0.33153846787E+02 -0.30700607778E+03  0.32744915598E+03  0.90666948509E+02 0.  0.
          5    1    3    3  502    0 -0.21159899247E+02 -0.40602347208E+01 -0.33721856134E+03  0.33793203068E+03  0.41800000000E+01 0.  1.
         -5    1    3    3    0  502 -0.39259839676E+02 -0.29093612066E+02 -0.33637145356E+02  0.59470187675E+02  0.41800000000E+01 0.  1.
        -11    1    4    4    0    0  0.40211624233E+02  0.59961818843E+02 -0.14474286236E+03  0.16174946877E+03  0.00000000000E+00 0. -1.
         11    1    4    4    0    0  0.20208114691E+02 -0.26807972056E+02 -0.16226321542E+03  0.16569968721E+03  0.00000000000E+00 0.  1.
</event>
<event>
 8    1  0.6615242E-009  0.2923544E+03  0.7561462E-02  0.1089126E+00
         -1   -1    0    0    0  501 -0.00000000000E+00  0.00000000000E+00  0.20045060145E+03  0.20045060145E+03  0.00000000000E+00 0.  1.
          1   -1    0    0  501    0  0.00000000000E+00 -0.00000000000E+00 -0.45192416556E+03  0.45192416556E+03  0.00000000000E+00 0. -1.
         25    2    1    2    0    0  0.11141535183E+03 -0.25713559025E+03 -0.12342261042E+03  0.33077582605E+03  0.12508962363E+03 0.  0.
         23    2    1    2    0    0 -0.11141535183E+03  0.25713559025E+03 -0.12805095369E+03  0.32159894097E+03  0.92177761379E+02 0.  0.
          5    1    3    3  502    0  0.86800934063E+02 -0.10281314035E+03 -0.50981185842E+01  0.13471602427E+03  0.41800000000E+01 0. -1.
         -5    1    3    3    0  502  0.24614417769E+02 -0.15432244990E+03 -0.11832449183E+03  0.19605980178E+03  0.41800000000E+01 0. -1.
        -11    1    4    4    0    0 -0.10448594960E+03  0.13160814487E+03 -0.87783989891E+02  0.18958915144E+03  0.00000000000E+00 0. -1.
         11    1    4    4    0    0 -0.69294022269E+01  0.12552744537E+03 -0.40266963803E+02  0.13200978953E+03  0.00000000000E+00 0.  1.
</event>
<event>
 8    1  0.6615242E-009  0.2176293E+03  0.7561462E-02  0.1135663E+00
         -1   -1    0    0    0  501 -0.00000000000E+00  0.00000000000E+00  0.23923234755E+03  0.23923234755E+03  0.00000000000E+00 0.  1.
          1   -1    0    0  501    0  0.00000000000E+00 -0.00000000000E+00 -0.22359126994E+03  0.22359126994E+03  0.00000000000E+00 0. -1.
         25    2    1    2    0    0  0.81861456606E+02  0.18370366939E+03 -0.21526652088E+02  0.23782042536E+03  0.12508725652E+03 0.  0.
         23    2    1    2    0    0 -0.81861456606E+02 -0.18370366939E+03  0.37167729699E+02  0.22500319212E+03  0.93790511816E+02 0.  0.
          5    1    3    3  502    0  0.35965294829E+02  0.18380893517E+03 -0.93582866517E+00  0.18734346868E+03  0.41800000000E+01 0. -1.
         -5    1    3    3    0  502  0.45896161777E+02 -0.10526577907E+00 -0.20590823423E+02  0.50476956683E+02  0.41800000000E+01 0. -1.
        -11    1    4    4    0    0 -0.80462077033E+02 -0.17026365398E+03  0.60706663970E+02  0.19786145850E+03  0.00000000000E+00 0.  1.
         11    1    4    4    0    0 -0.13993795724E+01 -0.13440015412E+02 -0.23538934271E+02  0.27141733623E+02  0.00000000000E+00 0. -1.
</event>
<event>
 7    1  0.6615242E-009  0.1091848E+03  0.7561462E-02  0.1262087E+00
          1   -1    0    0  501    0  0.00000000000E+00  0.00000000000E+00  0.44018785464E+03  0.44018785464E+03  0.00000000000E+00 0. -1.
         -1   -1    0    0    0  501 -0.00000000000E+00 -0.00000000000E+00 -0.49212457654E+02  0.49212457654E+02  0.00000000000E+00 0.  1.
         23    2    1    2    0    0 -0.69190747667E+02 -0.10286657717E+02  0.29706241696E+03  0.31832598711E+03  0.90510660207E+02 0.  0.
          5    1    1    2  502    0  0.78577995767E+01  0.36345783112E+02 -0.17402989760E+02  0.41268600859E+02  0.41800000000E+01 0.  1.
         -5    1    1    2    0  502  0.61332948090E+02 -0.26059125395E+02  0.11131596979E+03  0.12980572432E+03  0.41800000000E+01 0.  1.
        -11    1    3    3    0    0 -0.10799373344E+02 -0.44980631961E+02  0.12995863954E+03  0.13794611885E+03  0.00000000000E+00 0. -1.
         11    1    3    3    0    0 -0.58391374323E+02  0.34693974244E+02  0.16710377742E+03  0.18037986825E+03  0.00000000000E+00 0.  1.
</event>
<event>
 8    1  0.6615242E-009  0.8216684E+02  0.7561462E-02  0.1323012E+00
         -3   -1    0    0    0  501 -0.00000000000E+00  0.00000000000E+00  0.54226026113E+03  0.54226026113E+03  0.00000000000E+00 0.  1.
          3   -1    0    0  501    0  0.00000000000E+00 -0.00000000000E+00 -0.24381820805E+02  0.24381820805E+02  0.00000000000E+00 0. -1.
         25    2    1    2    0    0  0.16675880349E+02  0.14582331378E+02  0.37370133102E+03  0.39470273495E+03  0.12508730871E+03 0.  0.
         23    2    1    2    0    0 -0.16675880349E+02 -0.14582331378E+02  0.14417710931E+03  0.17193934698E+03  0.91024012321E+02 0.  0.
          5    1    3    3  502    0 -0.18258098263E+02 -0.15589818440E+02  0.73822337682E+01  0.25463117771E+02  0.41800000000E+01 0.  1.
         -5    1    3    3    0  502  0.34933978612E+02  0.30172149818E+02  0.36631909725E+03  0.36923961718E+03  0.41800000000E+01 0.  1.
        -11    1    4    4    0    0 -0.54045697090E+02 -0.16493137309E+01  0.80083547624E+02  0.96628319916E+02  0.00000000000E+00 0.  1.
         11    1    4    4    0    0  0.37369816741E+02 -0.12933017647E+02  0.64093561681E+02  0.75311027066E+02  0.00000000000E+00 0. -1.
</event>
<event>
 8    1  0.6615242E-009  0.2470981E+03  0.7561462E-02  0.1115153E+00
          1   -1    0    0  501    0  0.00000000000E+00  0.00000000000E+00  0.62586818341E+03  0.62586818341E+03  0.00000000000E+00 0. -1.
         -1   -1    0    0    0  501 -0.00000000000E+00 -0.00000000000E+00 -0.18736137143E+03  0.18736137143E+03  0.00000000000E+00 0.  1.
         25    2    1    2    0    0  0.18443375478E+03  0.13570492042E+03  0.49544802959E+03  0.55995194171E+03  0.12508313904E+03 0.  0.
         23    2    1    2    0    0 -0.18443375478E+03 -0.13570492042E+03 -0.56941217620E+02  0.25327761313E+03  0.92063085542E+02 0.  0.
          5    1    3    3  502    0 -0.32633436461E+01  0.37934769627E+02  0.14996044072E+03  0.15477500553E+03  0.41800000000E+01 0. -1.
         -5    1    3    3    0  502  0.18769709842E+03  0.97770150798E+02  0.34548758888E+03  0.40517693618E+03  0.41800000000E+01 0. -1.
        -11    1    4    4    0    0 -0.96612693442E+02 -0.19503122094E+02 -0.51758841865E+01  0.98697386402E+02  0.00000000000E+00 0. -1.
         11    1    4    4    0    0 -0.87821061335E+02 -0.11620179833E+03 -0.51765333433E+02  0.15458022673E+03  0.00000000000E+00 0.  1.
</event>
<event>
 8    1  0.6615242E-009  0.1248278E+03  0.7561462E-02  0.1235339E+00
          2   -1    0    0  501    0  0.00000000000E+00  0.00000000000E+00  0.17470614739E+03  0.17470614739E+03  0.00000000000E+00 0. -1.
         -2   -1    0    0    0  501 -0.00000000000E+00 -0.00000000000E+00 -0.98499755754E+02  0.98499755754E+02  0.00000000000E+00 0.  1.
         25    2    1    2    0    0  0.64868257649E+02  0.12125547807E+02  0.89848834857E+01  0.14171309314E+03  0.12508778068E+03 0.  0.
         23    2    1    2    0    0 -0.64868257649E+02 -0.12125547807E+02  0.67221508150E+02  0.13149281001E+03  0.91742619134E+02 0.  0.
          5    1    3    3  502    0 -0.78079562933E+01  0.55568434654E+02 -0.15243716369E+01  0.56290418547E+02  0.41800000000E+01 0. -1.
         -5    1    3    3    0  502  0.72676213942E+02 -0.43442886847E+02  0.10509255123E+02  0.85422674588E+02  0.41800000000E+01 0. -1.
        -11    1    4    4    0    0 -0.48647726826E+02  0.34241177158E+02  0.54663699584E+02  0.80790962309E+02  0.00000000000E+00 0. -1.
         11    1    4    4    0    0 -0.16220530823E+02 -0.46366724964E+02  0.12557808566E+02  0.50701847699E+02  0.00000000000E+00 0.  1.
</event>
<event>
 8    1  0.6615242E-009  0.1024179E+03  0.7561462E-02  0.1275292E+00
         -2   -1    0    0    0  501 -0.00000000000E+00  0.00000000000E+00  0.20499312662E+03  0.20499312662E+03  0.00000000000E+00 0.  1.
          2   -1    0    0  501    0  0.00000000000E+00 -0.00000000000E+00 -0.68964200520E+02  0.68964200520E+02  0.00000000000E+00 0. -1.
         25    2    1    2    0    0  0.11237180989E+02 -0.39605079885E+02  0.45302745000E+02  0.13926359922E+03  0.12508866765E+03 0.  0.
         23    2    1    2    0    0 -0.11237180989E+02  0.39605079885E+02  0.90726181098E+02  0.13469372791E+03  0.90643939749E+02 0.  0.
          5    1    3    3  502    0  0.12078150333E+02  0.34323610895E+02  0.53418321382E+02  0.64768676377E+02  0.41800000000E+01 0. -1.
         -5    1    3    3    0  502 -0.84096934448E+00 -0.73928690781E+02 -0.81155763816E+01  0.74494922847E+02  0.41800000000E+01 0. -1.
        -11    1    4    4    0    0 -0.33731379074E+02  0.56652426292E+02  0.81857044301E+02  0.10510889135E+03  0.00000000000E+00 0.  1.
         11    1    4    4    0    0  0.22494198085E+02 -0.17047346407E+02  0.88691367965E+01  0.29584836564E+02  0.00000000000E+00 0. -1.
</event>
<event>
 8    1  0.6615242E-009  0.1088330E+03  0.7561462E-02  0.1262746E+00
          1   -1    0    0  501    0  0.00000000000E+00  0.00000000000E+00  0.17411536947E+04  0.17411536947E+04  0.00000000000E+00 0. -1.
         -1   -1    0    0    0  501 -0.00000000000E+00 -0.00000000000E+00 -0.84570759300E+01  0.84570759300E+01  0.00000000000E+00 0.  1.
         25    2    1    2    0    0  0.26088438623E+02  0.78964501830E+01  0.13336861968E+04  0.13398165236E+04  0.12508590929E+03 0.  0.
         23    2    1    2    0    0 -0.26088438623E+02 -0.78964501830E+01  0.39901042188E+03  0.40979424698E+03  0.89325514481E+02 0.  0.
          5    1    3    3  502    0 -0.30413650002E+02 -0.41864345009E+02  0.61395963875E+03  0.61615056918E+03  0.41800000000E+01 0.  1.
         -5    1    3    3    0  502  0.56502088625E+02  0.49760795192E+02  0.71972655810E+03  0.72366595442E+03  0.41800000000E+01 0.  1.
        -11    1    4    4    0    0  0.30209939888E+02  0.90770268174E+01  0.93532711932E+02  0.98708667731E+02  0.00000000000E+00 0.  1.
         11    1    4    4    0    0 -0.56298378511E+02 -0.16973477000E+02  0.30547770995E+03  0.31108557925E+03  0.00000000000E+00 0. -1.
</event>
<event>
 8    1  0.6615242E-009  0.7533425E+02  0.7561462E-02  0.1342839E+00
         -2   -1    0    0    0  501 -0.00000000000E+00  0.00000000000E+00  0.55687722559E+03  0.55687722559E+03  0.00000000000E+00 0.  1.
          2   -1    0    0  501    0  0.00000000000E+00 -0.00000000000E+00 -0.30195857360E+02  0.30195857360E+02  0.00000000000E+00 0. -1.
         25    2    1    2    0    0  0.37147823745E+02 -0.59125380723E+02  0.31443867035E+03  0.34553567071E+03  0.12508977123E+03 0.  0.
         23    2    1    2    0    0 -0.37147823745E+02  0.59125380723E+02  0.21224269788E+03  0.24153741224E+03  0.91747410065E+02 0.  0.
          5    1    3    3  502    0  0.75415975000E+01  0.11252252912E+01 -0.10543021158E+02  0.13666364547E+02  0.41800000000E+01 0. -1.
         -5    1    3    3    0  502  0.29606226245E+02 -0.60250606014E+02  0.32498169151E+03  0.33186930617E+03  0.41800000000E+01 0. -1.
        -11    1    4    4    0    0 -0.12504455374E+02  0.44122369209E+02  0.20724281079E+03  0.21225627787E+03  0.00000000000E+00 0.  1.
         11    1    4    4    0    0 -0.24643368371E+02  0.15003011513E+02  0.49998870846E+01  0.29281134370E+02  0.00000000000E+00 0. -1.
</event>
<event>
 8    1  0.6615242E-009  0.9287103E+02  0.7561462E-02  0.1296044E+00
         -1   -1    0    0    0  501 -0.00000000000E+00  0.00000000000E+00  0.14969165069E+03  0.14969165069E+03  0.00000000000E+00 0.  1.
          1   -1    0    0  501    0  0.00000000000E+00 -0.00000000000E+00 -0.15037669991E+03  0.15037669991E+03  0.00000000000E+00 0. -1.
         25    2    1    2    0    0 -0.86575244366E+01 -0.56521941717E+02  0.82555826596E+02  0.16042315623E+03  0.12510172631E+03 0.  0.
         23    2    1    2    0    0  0.86575244366E+01  0.56521941717E+02 -0.83240875813E+02  0.13964519437E+03  0.96447157971E+02 0.  0.
          5    1    3    3  502    0  0.46596344737E+02 -0.79461552652E+00  0.64677023366E+02  0.79827567344E+02  0.41800000000E+01 0. -1.
         -5    1    3    3    0  502 -0.55253869174E+02 -0.55727326190E+02  0.17878803230E+02  0.80595588886E+02  0.41800000000E+01 0. -1.
        -11    1    4    4    0    0 -0.18636497709E+00  0.48264190280E+02 -0.10454303438E+03  0.11514648424E+03  0.00000000000E+00 0. -1.
         11    1    4    4    0    0  0.88438894136E+01  0.82577514364E+01  0.21302158566E+02  0.24498710135E+02  0.00000000000E+00 0.  1.
</event>
<event>
 8    1  0.6615242E-009  0.1122838E+03  0.7561462E-02  0.1256398E+00
         -1   -1    0    0    0  501 -0.00000000000E+00  0.00000000000E+00  0.14045347798E+03  0.14045347798E+03  0.00000000000E+00 0.  1.
          1   -1    0    0  501    0  0.00000000000E+00 -0.00000000000E+00 -0.16126124838E+03  0.16126124838E+03  0.00000000000E+00 0. -1.
         25    2    1    2    0    0 -0.39639742539E+02 -0.92962687333E+02  0.16926870206E+02  0.16170406559E+03  0.12509322710E+03 0.  0.
         23    2    1    2    0    0  0.39639742539E+02  0.92962687333E+02 -0.37734640600E+02  0.14001066078E+03  0.89250835321E+02 0.  0.
          5    1    3    3  502    0 -0.34886484371E+02 -0.41355109730E+02 -0.52139008677E+02  0.75254637853E+02  0.41800000000E+01 0. -1.
         -5    1    3    3    0  502 -0.47532581680E+01 -0.51607577603E+02  0.69065878883E+02  0.86449427732E+02  0.41800000000E+01 0. -1.
        -11    1    4    4    0    0  0.26146563967E+02  0.18619335619E+01 -0.40074834409E+02  0.47886344157E+02  0.00000000000E+00 0. -1.
         11    1    4    4    0    0  0.13493178572E+02  0.91100753771E+02  0.23401938096E+01  0.92124316620E+02  0.00000000000E+00 0.  1.
</event>
<event>
 7    1  0.6615242E-009  0.1540351E+03  0.7561462E-02  0.1195601E+00
          3   -1    0    0  501    0  0.00000000000E+00  0.00000000000E+00  0.10935330165E+03  0.10935330165E+03  0.00000000000E+00 0. -1.
         -3   -1    0    0    0  501 -0.00000000000E+00 -0.00000000000E+00 -0.29604022657E+03  0.29604022657E+03  0.00000000000E+00 0.  1.
         23    2    1    2    0    0 -0.87644406352E+02 -0.81096330501E+02 -0.17650336189E+03  0.23209998377E+03  0.91971783295E+02 0.  0.
          5    1    1    2  502    0  0.83045759441E+02  0.11297003861E+03 -0.11887082877E+02  0.14077500817E+03  0.41800000000E+01 0. -1.
         -5    1    1    2    0  502  0.45986469107E+01 -0.31873708110E+02  0.17035198498E+01  0.32518536282E+02  0.41800000000E+01 0. -1.
        -11    1    3    3    0    0  0.51206123107E+01 -0.27946230659E+02 -0.90603865237E+02  0.94954056650E+02  0.00000000000E+00 0.  1.
         11    1    3    3    0    0 -0.92765018662E+02 -0.53150099842E+02 -0.85899496657E+02  0.13714592712E+03  0.00000000000E+00 0. -1.
</event>
<event>
 8    1  0.6615242E-009  0.1093794E+03  0.7561462E-02  0.1261723E+00
         -3   -1    0    0    0  501 -0.00000000000E+00  0.00000000000E+00  0.25013333930E+03  0.25013333930E+03  0.00000000000E+00 0.  1.
          3   -1    0    0  501    0  0.00000000000E+00 -0.00000000000E+00 -0.54060371422E+02  0.54060371422E+02  0.00000000000E+00 0. -1.
         25    2    1    2    0    0 -0.44097967391E+02 -0.10458880314E+02  0.13788112304E+03  0.19160412838E+03  0.12508764533E+03 0.  0.
         23    2    1    2    0    0  0.44097967391E+02  0.10458880314E+02  0.58191844837E+02  0.11258958234E+03  0.85065294577E+02 0.  0.
          5    1    3    3  502    0  0.19554359621E+02  0.41515557124E+02  0.75082357197E+02  0.88095103301E+02  0.41800000000E+01 0.  1.
         -5    1    3    3    0  502 -0.63652327011E+02 -0.51974437438E+02  0.62798765847E+02  0.10350902508E+03  0.41800000000E+01 0.  1.
        -11    1    4    4    0    0 -0.18216666031E+02 -0.14485679687E+02  0.34078612338E+02  0.41267828344E+02  0.00000000000E+00 0.  1.
         11    1    4    4    0    0  0.62314633422E+02  0.24944560001E+02  0.24113232499E+02  0.71321754001E+02  0.00000000000E+00 0. -1.
</event>
<event>
 8    1  0.6615242E-009  0.1030414E+03  0.7561462E-02  0.1274027E+00
         -4   -1    0    0    0  501 -0.00000000000E+00  0.00000000000E+00  0.84889124341E+03  0.84889124341E+03  0.00000000000E+00 0.  1.
          4   -1    0    0  501    0  0.00000000000E+00 -0.00000000000E+00 -0.17680242400E+02  0.17680242400E+02  0.00000000000E+00 0. -1.
         25    2    1    2    0    0  0.47763033824E+02  0.23610759171E+02  0.52834916433E+03  0.54556217347E+03  0.12508585182E+03 0.  0.
         23    2    1    2    0    0 -0.47763033824E+02 -0.23610759171E+02  0.30286183668E+03  0.32100931234E+03  0.92102720605E+02 0.  0.
          5    1    3    3  502    0 -0.12576242714E+02  0.55957693981E+02  0.14253027712E+03  0.15369377896E+03  0.41800000000E+01 0.  1.
         -5    1    3    3    0  502  0.60339276538E+02 -0.32346934810E+02  0.38581888722E+03  0.39186839451E+03  0.41800000000E+01 0.  1.
        -11    1    4    4    0    0 -0.59912761297E+02 -0.83678723914E+01  0.29297003161E+03  0.29915046327E+03  0.00000000000E+00 0.  1.
         11    1    4    4    0    0  0.12149727473E+02 -0.15242886779E+02  0.98918050712E+01  0.21858849068E+02  0.00000000000E+00 0. -1.
</event>
<event>
 8    1  0.6615242E-009  0.6294015E+02  0.7561462E-02  0.1385892E+00
          2   -1    0    0  501    0  0.00000000000E+00  0.00000000000E+00  0.45904254608E+02  0.45904254608E+02  0.00000000000E+00 0. -1.
         -2   -1    0    0    0  501 -0.00000000000E+00 -0.00000000000E+00 -0.26502033293E+03  0.26502033293E+03  0.00000000000E+00 0.  1.
         25    2    1    2    0    0 -0.66584100913E+01  0.90928689481E+01 -0.10637626003E+03  0.16459114234E+03  0.12508925114E+03 0.  0.
         23    2    1    2    0    0  0.66584100913E+01 -0.90928689481E+01 -0.11273981829E+03  0.14633344519E+03  0.92607752713E+02 0.  0.
          5    1    3    3  502    0 -0.39958780746E+02  0.18190942293E+02  0.81960147236E+01  0.44858238904E+02  0.41800000000E+01 0.  1.
         -5    1    3    3    0  502  0.33300370655E+02 -0.90980733446E+01 -0.11457227475E+03  0.11973290344E+03  0.41800000000E+01 0.  1.
        -11    1    4    4    0    0  0.24481807687E+02 -0.14405808431E+02 -0.12220647131E+03  0.12546436886E+03  0.00000000000E+00 0.  1.
         11    1    4    4    0    0 -0.17823397596E+02  0.53129394824E+01  0.94666530123E+01  0.20869076334E+02  0.00000000000E+00 0. -1.
</event>
<event>
 8    1  0.6615242E-009  0.1058624E+03  0.7561462E-02  0.1268430E+00
          1   -1    0    0  501    0  0.00000000000E+00  0.00000000000E+00  0.61591014088E+03  0.61591014088E+03  0.00000000000E+00 0. -1.
         -1   -1    0    0    0  501 -0.00000000000E+00 -0.00000000000E+00 -0.21098055247E+02  0.21098055247E+02  0.00000000000E+00 0.  1.
         25    2    1    2    0    0  0.29447122101E+02 -0.17572389222E+02  0.32181006491E+03  0.34696462219E+03  0.12508720682E+03 0.  0.
         23    2    1    2    0    0 -0.29447122101E+02  0.17572389222E+02  0.27300202072E+03  0.29004357394E+03  0.91756468988E+02 0.  0.
          5    1    3    3  502    0 -0.16155884246E+02  0.39879076345E+02  0.53528423925E+02  0.68804926378E+02  0.41800000000E+01 0. -1.
         -5    1    3    3    0  502  0.45603006347E+02 -0.57451465567E+02  0.26828164099E+03  0.27815969581E+03  0.41800000000E+01 0. -1.
        -11    1    4    4    0    0 -0.10428950068E+02  0.53429043232E+02  0.12037493507E+03  0.13211188688E+03  0.00000000000E+00 0.  1.
         11    1    4    4    0    0 -0.19018172033E+02 -0.35856654010E+02  0.15262708565E+03  0.15793168706E+03  0.00000000000E+00 0. -1.
</event>
<event>
 8    1  0.6615242E-009  0.1076420E+03  0.7561462E-02  0.1265000E+00
         -2   -1    0    0    0  501 -0.00000000000E+00  0.00000000000E+00  0.46352904379E+03  0.46352904379E+03  0.00000000000E+00 0. -1.
          2   -1    0    0  501    0  0.00000000000E+00 -0.00000000000E+00 -0.37083346723E+02  0.37083346723E+02  0.00000000000E+00 0.  1.
         25    2    1    2    0    0 -0.17476222412E+02 -0.33596941926E+02  0.35925302242E+03  0.38229439435E+03  0.12510834098E+03 0.  0.
         23    2    1    2    0    0  0.17476222412E+02  0.33596941926E+02  0.67192674648E+02  0.11831799616E+03  0.89722460017E+02 0.  0.
          5    1    3    3  502    0 -0.55501361827E+02 -0.51605734162E+02  0.30031996029E+03  0.30976298022E+03  0.41800000000E+01 0. -1.
         -5    1    3    3    0  502  0.38025139416E+02  0.18008792236E+02  0.58933062125E+02  0.72531414137E+02  0.41800000000E+01 0. -1.
        -11    1    4    4    0    0  0.33747906688E+02  0.58392616195E+02  0.42417938847E+02  0.79673711900E+02  0.00000000000E+00 0.  1.
         11    1    4    4    0    0 -0.16271684276E+02 -0.24795674269E+02  0.24774735802E+02  0.38644284257E+02  0.00000000000E+00 0. -1.
</event>
<event>
 8    1  0.6615242E-009  0.7558178E+02  0.7561462E-02  0.1342079E+00
         -4   -1    0    0    0  501 -0.00000000000E+00  0.00000000000E+00  0.13914564075E+03  0.13914564075E+03  0.00000000000E+00 0. -1.
          4   -1    0    0  501    0  0.00000000000E+00 -0.00000000000E+00 -0.89326628609E+02  0.89326628609E+02  0.00000000000E+00 0.  1.
         25    2    1    2    0    0 -0.17672177456E+02  0.19323209395E+02  0.32057567427E+02  0.13176682403E+03  0.12509642684E+03 0.  0.
         23    2    1    2    0    0  0.17672177456E+02 -0.19323209395E+02  0.17761444711E+02  0.96705445326E+02  0.91382613008E+02 0.  0.
          5    1    3    3  502    0  0.22960893044E+02  0.22376587822E+02 -0.38442098054E+02  0.50231281038E+02  0.41800000000E+01 0.  1.
         -5    1    3    3    0  502 -0.40633070500E+02 -0.30533784262E+01  0.70499665481E+02  0.81535542992E+02  0.41800000000E+01 0.  1.
        -11    1    4    4    0    0 -0.28083950732E+02  0.29411100346E+00 -0.19781088450E+02  0.34352383473E+02  0.00000000000E+00 0.  1.
         11    1    4    4    0    0  0.45756128188E+02 -0.19617320399E+02  0.37542533161E+02  0.62353061854E+02  0.00000000000E+00 0. -1.
</event>
<event>
 7    1  0.1025573E-008  0.7875809E+02  0.7561462E-02  0.1332613E+00
          2   -1    0    0  501    0  0.00000000000E+00  0.00000000000E+00  0.10128446976E+03  0.10128446976E+03  0.00000000000E+00 0. -1.
         -2   -1    0    0    0  501 -0.00000000000E+00 -0.00000000000E+00 -0.96003802640E+02  0.96003802640E+02  0.00000000000E+00 0.  1.
         25    2    1    2    0    0 -0.18470432509E+02 -0.14379309085E+02 -0.34931776369E+02  0.13198220112E+03  0.12510456029E+03 0.  0.
          5    1    3    3  502    0  0.24515847426E+02  0.37086611617E+02 -0.45750883820E+02  0.63930112674E+02  0.41800000000E+01 0. -1.
         -5    1    3    3    0  502 -0.42986279935E+02 -0.51465920702E+02  0.10819107451E+02  0.68052088450E+02  0.41800000000E+01 0. -1.
        -11    1    1    2    0    0  0.30402243905E+02  0.57254180290E+01  0.39996548827E+02  0.50564817454E+02  0.00000000000E+00 0. -1.
         11    1    1    2    0    0 -0.11931811396E+02  0.86538910562E+01  0.21589465733E+00  0.14741253817E+02  0.00000000000E+00 0.  1.
</event>
<event>
 8    1  0.6615242E-009  0.2426619E+03  0.7561462E-02  0.1118032E+00
         -2   -1    0    0    0  501 -0.00000000000E+00  0.00000000000E+00  0.15703978144E+03  0.15703978144E+03  0.00000000000E+00 0. -1.
          2   -1    0    0  501    0  0.00000000000E+00 -0.00000000000E+00 -0.42418150820E+03  0.42418150820E+03  0.00000000000E+00 0.  1.
         25    2    1    2    0    0 -0.22685513943E+03 -0.52945123988E+01 -0.19028402755E+03  0.32147554422E+03  0.12508888137E+03 0.  0.
         23    2    1    2    0    0  0.22685513943E+03  0.52945123988E+01 -0.76857699205E+02  0.25974574542E+03  0.10034669995E+03 0.  0.
          5    1    3    3  502    0 -0.14413713488E+03 -0.62367711368E+02 -0.99383191511E+02  0.18590249118E+03  0.41800000000E+01 0. -1.
         -5    1    3    3    0  502 -0.82718004547E+02  0.57073198969E+02 -0.90900836037E+02  0.13557305303E+03  0.41800000000E+01 0. -1.
        -11    1    4    4    0    0  0.35673529285E+02 -0.57424686496E+01 -0.56636886912E+02  0.67181199728E+02  0.00000000000E+00 0.  1.
         11    1    4    4    0    0  0.19118161014E+03  0.11036981048E+02 -0.20220812293E+02  0.19256454569E+03  0.00000000000E+00 0. -1.
</event>
<event>
 8    1  0.6615242E-009  0.1108524E+03  0.7561462E-02  0.1259000E+00
          2   -1    0    0  501    0  0.00000000000E+00  0.00000000000E+00  0.58663453448E+03  0.58663453448E+03  0.00000000000E+00 0. -1.
         -2   -1    0    0    0  501 -0.00000000000E+00 -0.00000000000E+00 -0.21333119810E+02  0.21333119810E+02  0.00000000000E+00 0.  1.
         25    2    1    2    0    0  0.77189280649E+00 -0.34362290617E+02  0.31943862300E+03  0.34477650019E+03  0.12509371838E+03 0.  0.
         23    2    1    2    0    0 -0.77189280649E+00  0.34362290617E+02  0.24586279166E+03  0.26319115410E+03  0.87405425672E+02 0.  0.
          5    1    3    3  502    0 -0.17989765925E+02 -0.78998701912E+02  0.20060453306E+03  0.21638871890E+03  0.41800000000E+01 0.  1.
         -5    1    3    3    0  502  0.18761658732E+02  0.44636411294E+02  0.11883408994E+03  0.12838778129E+03  0.41800000000E+01 0.  1.
        -11    1    4    4    0    0  0.34288198274E+02 -0.97320673001E+01  0.12239019379E+03  0.12747451985E+03  0.00000000000E+00 0. -1.
         11    1    4    4    0    0 -0.35060091081E+02  0.44094357917E+02  0.12347259787E+03  0.13571663425E+03  0.00000000000E+00 0.  1.
</event>
<event>
 8    1  0.6615242E-009  0.9748994E+02  0.7561462E-02  0.1285665E+00
         -3   -1    0    0    0  501 -0.00000000000E+00  0.00000000000E+00  0.21673730006E+03  0.21673730006E+03  0.00000000000E+00 0.  1.
          3   -1    0    0  501    0  0.00000000000E+00 -0.00000000000E+00 -0.57105919797E+02  0.57105919797E+02  0.00000000000E+00 0. -1.
         25    2    1    2    0    0  0.18873837643E+02 -0.32381842585E+01  0.10966456008E+03  0.16745109947E+03  0.12508735905E+03 0.  0.
         23    2    1    2    0    0 -0.18873837643E+02  0.32381842585E+01  0.49966820186E+02  0.10639212039E+03  0.91955927356E+02 0.  0.
          5    1    3    3  502    0 -0.18144114145E+02 -0.44076483516E+02  0.10064912605E+03  0.11144354738E+03  0.41800000000E+01 0.  1.
         -5    1    3    3    0  502  0.37017951789E+02  0.40838299257E+02  0.90154340255E+01  0.56007552094E+02  0.41800000000E+01 0.  1.
        -11    1    4    4    0    0  0.19561084642E+02  0.36248715750E+02  0.33578813443E+02  0.53142658365E+02  0.00000000000E+00 0.  1.
         11    1    4    4    0    0 -0.38434922285E+02 -0.33010531491E+02  0.16388006743E+02  0.53249462020E+02  0.00000000000E+00 0. -1.
</event>
<event>
 8    1  0.6615242E-009  0.1027575E+03  0.7561462E-02  0.1274602E+00
          2   -1    0    0  501    0  0.00000000000E+00  0.00000000000E+00  0.11173731429E+04  0.11173731429E+04  0.00000000000E+00 0. -1.
         -2   -1    0    0    0  501 -0.00000000000E+00 -0.00000000000E+00 -0.26053377601E+02  0.26053377601E+02  0.00000000000E+00 0.  1.
         25    2    1    2    0    0  0.77482203812E+02  0.57775206752E+02  0.87215941342E+03  0.88637162547E+03  0.12510455470E+03 0.  0.
         23    2    1    2    0    0 -0.77482203812E+02 -0.57775206752E+02  0.21916035190E+03  0.25705489505E+03  0.93297871359E+02 0.  0.
          5    1    3    3  502    0  0.31885553756E+02  0.28969447701E+02  0.69395070114E+02  0.81786707933E+02  0.41800000000E+01 0. -1.
         -5    1    3    3    0  502  0.45596650056E+02  0.28805759051E+02  0.80276434330E+03  0.80458491754E+03  0.41800000000E+01 0. -1.
        -11    1    4    4    0    0 -0.73009944861E+02 -0.28265698554E+02  0.70265561057E+02  0.10519815034E+03  0.00000000000E+00 0.  1.
         11    1    4    4    0    0 -0.44722589507E+01 -0.29509508198E+02  0.14889479085E+03  0.15185674471E+03  0.00000000000E+00 0. -1.
</event>
<event>
 8    1  0.6615242E-009  0.6027297E+02  0.7561462E-02  0.1396690E+00
          1   -1    0    0  501    0  0.00000000000E+00  0.00000000000E+00  0.14692670376E+03  0.14692670376E+03  0.00000000000E+00 0. -1.
         -1   -1    0    0    0  501 -0.00000000000E+00 -0.00000000000E+00 -0.94370125837E+02  0.94370125837E+02  0.00000000000E+00 0.  1.
         25    2    1    2    0    0 -0.16025973675E+02  0.20214285471E+02  0.67976802567E+02  0.14470490183E+03  0.12511280413E+03 0.  0.
         23    2    1    2    0    0  0.16025973675E+02 -0.20214285471E+02 -0.15420224645E+02  0.96591927769E+02  0.91797429227E+02 0.  0.
          5    1    3    3  502    0 -0.21320997242E+02  0.80120862613E+01  0.10375400183E+03  0.10630683772E+03  0.41800000000E+01 0. -1.
         -5    1    3    3    0  502  0.52950235674E+01  0.12202199210E+02 -0.35777199264E+02  0.38398064109E+02  0.41800000000E+01 0. -1.
        -11    1    4    4    0    0 -0.25489420445E+02  0.14503764787E+02 -0.28522220711E+02  0.40909495498E+02  0.00000000000E+00 0.  1.
         11    1    4    4    0    0  0.41515394120E+02 -0.34718050258E+02  0.13101996066E+02  0.55682432271E+02  0.00000000000E+00 0. -1.
</event>
<event>
 8    1  0.6615242E-009  0.1129304E+03  0.7561462E-02  0.1255237E+00
          2   -1    0    0  501    0  0.00000000000E+00  0.00000000000E+00  0.12202570770E+03  0.12202570770E+03  0.00000000000E+00 0. -1.
         -2   -1    0    0    0  501 -0.00000000000E+00 -0.00000000000E+00 -0.17095018372E+03  0.17095018372E+03  0.00000000000E+00 0.  1.
         25    2    1    2    0    0 -0.22491179279E+02 -0.76158574776E+02 -0.78431810356E+02  0.16764574286E+03  0.12509022570E+03 0.  0.
         23    2    1    2    0    0  0.22491179279E+02  0.76158574776E+02  0.29507334343E+02  0.12533014856E+03  0.92363313606E+02 0.  0.
          5    1    3    3  502    0  0.13658366541E+02 -0.99516419118E+02 -0.35254893836E+02  0.10653848408E+03  0.41800000000E+01 0. -1.
         -5    1    3    3    0  502 -0.36149545821E+02  0.23357844342E+02 -0.43176916520E+02  0.61107258780E+02  0.41800000000E+01 0. -1.
        -11    1    4    4    0    0  0.16631556796E+02  0.21853125965E+02  0.57671200342E+02  0.63875935568E+02  0.00000000000E+00 0. -1.
         11    1    4    4    0    0  0.58596224832E+01  0.54305448811E+02 -0.28163865999E+02  0.61454212990E+02  0.00000000000E+00 0.  1.
</event>
<event>
 8    1  0.6615242E-009  0.1114954E+03  0.7561462E-02  0.1257825E+00
         -2   -1    0    0    0  501 -0.00000000000E+00  0.00000000000E+00  0.45832847276E+02  0.45832847276E+02  0.00000000000E+00 0.  1.
          2   -1    0    0  501    0  0.00000000000E+00 -0.00000000000E+00 -0.38617218828E+03  0.38617218828E+03  0.00000000000E+00 0. -1.
         25    2    1    2    0    0 -0.59012427813E+02 -0.24674410406E+02 -0.26084343392E+03  0.29627533288E+03  0.12509389548E+03 0.  0.
         23    2    1    2    0    0  0.59012427813E+02  0.24674410406E+02 -0.79495907075E+02  0.13572970267E+03  0.89507875524E+02 0.  0.
          5    1    3    3  502    0 -0.61977360578E+02  0.25230907184E+02 -0.62409975655E+02  0.91598413538E+02  0.41800000000E+01 0. -1.
         -5    1    3    3    0  502  0.29649327649E+01 -0.49905317590E+02 -0.19843345827E+03  0.20467691934E+03  0.41800000000E+01 0. -1.
        -11    1    4    4    0    0  0.77746475815E+02  0.39604408402E+01 -0.40466622932E+02  0.87736806215E+02  0.00000000000E+00 0.  1.
         11    1    4    4    0    0 -0.18734048002E+02  0.20713969566E+02 -0.39029284143E+02  0.47992896458E+02  0.00000000000E+00 0. -1.
</event>
<event>
 8    1  0.6615242E-009  0.2130525E+03  0.7561462E-02  0.1139171E+00
          2   -1    0    0  501    0  0.00000000000E+00  0.00000000000E+00  0.75669270373E+03  0.75669270373E+03  0.00000000000E+00 0.  1.
         -2   -1    0    0    0  501 -0.00000000000E+00 -0.00000000000E+00 -0.64782657950E+02  0.64782657950E+02  0.00000000000E+00 0. -1.
         25    2    1    2    0    0 -0.49316807762E+02  0.17785922188E+03  0.25998806257E+03  0.34249841806E+03  0.12508126704E+03 0.  0.
         23    2    1    2    0    0  0.49316807762E+02 -0.17785922188E+03  0.43192198321E+03  0.47897694362E+03  0.93788392651E+02 0.  0.
          5    1    3    3  502    0 -0.68464836456E+02  0.36771217674E+02  0.67388665229E+02  0.10294785516E+03  0.41800000000E+01 0.  1.
         -5    1    3    3    0  502  0.19148028694E+02  0.14108800421E+03  0.19259939734E+03  0.23955056291E+03  0.41800000000E+01 0.  1.
        -11    1    4    4    0    0  0.74238204250E+02 -0.15567521602E+03  0.34118212055E+03  0.38229742771E+03  0.00000000000E+00 0.  1.
         11    1    4    4    0    0 -0.24921396489E+02 -0.22184005865E+02  0.90739862667E+02  0.96679515907E+02  0.00000000000E+00 0. -1.
</event>
<event>
 8    1  0.6615242E-009  0.1319780E+03  0.7561462E-02  0.1224550E+00
         -2   -1    0    0    0  501 -0.00000000000E+00  0.00000000000E+00  0.20100831956E+02  0.20100831956E+02  0.00000000000E+00 0.  1.
          2   -1    0    0  501    0  0.00000000000E+00 -0.00000000000E+00 -0.14000852215E+04  0.14000852215E+04  0.00000000000E+00 0. -1.
         25    2    1    2    0    0  0.40216054181E+02  0.11874501692E+03 -0.83226993259E+03  0.85090469665E+03  0.12509137473E+03 0.  0.
         23    2    1    2    0    0 -0.40216054181E+02 -0.11874501692E+03 -0.54771445699E+03  0.56928135684E+03  0.91500966087E+02 0.  0.
          5    1    3    3  502    0 -0.14890451940E+00  0.74438818352E+02 -0.16651504095E+03  0.18244421370E+03  0.41800000000E+01 0.  1.
         -5    1    3    3    0  502  0.40364958701E+02  0.44306198567E+02 -0.66575489164E+03  0.66846048295E+03  0.41800000000E+01 0.  1.
        -11    1    4    4    0    0 -0.41097026407E+00 -0.49087674919E+02 -0.73873522445E+02  0.88696482703E+02  0.00000000000E+00 0. -1.
         11    1    4    4    0    0 -0.39805083917E+02 -0.69657342000E+02 -0.47384093455E+03  0.48058487414E+03  0.00000000000E+00 0.  1.
</event>
<event>
 8    1  0.6615242E-009  0.1984729E+03  0.7561462E-02  0.1151034E+00
         -3   -1    0    0    0  501 -0.00000000000E+00  0.00000000000E+00  0.21281428904E+03  0.21281428904E+03  0.00000000000E+00 0.  1.
          3   -1    0    0  501    0  0.00000000000E+00 -0.00000000000E+00 -0.21205531815E+03  0.21205531815E+03  0.00000000000E+00 0. -1.
         25    2    1    2    0    0  0.17451093784E+03 -0.25678640696E+02  0.46091917126E+02  0.22110055450E+03  0.12509008899E+03 0.  0.
         23    2    1    2    0    0 -0.17451093784E+03  0.25678640696E+02 -0.45332946243E+02  0.20376905269E+03  0.91396339118E+02 0.  0.
          5    1    3    3  502    0  0.44697149187E+02 -0.66208543921E+02  0.12578390942E+02  0.80975889944E+02  0.41800000000E+01 0.  1.
         -5    1    3    3    0  502  0.12981378865E+03  0.40529903225E+02  0.33513526184E+02  0.14012466456E+03  0.41800000000E+01 0.  1.
        -11    1    4    4    0    0 -0.10137595639E+03  0.34823499793E+02 -0.67658606214E+02  0.12675743634E+03  0.00000000000E+00 0. -1.
         11    1    4    4    0    0 -0.73134981454E+02 -0.91448590979E+01  0.22325659971E+02  0.77011616354E+02  0.00000000000E+00 0.  1.
</event>
<event>
 8    1  0.6615242E-009  0.1184082E+03  0.7561462E-02  0.1245746E+00
         -1   -1    0    0    0  501 -0.00000000000E+00  0.00000000000E+00  0.18245183359E+02  0.18245183359E+02  0.00000000000E+00 0.  1.
          1   -1    0    0  501    0  0.00000000000E+00 -0.00000000000E+00 -0.90896375152E+03  0.90896375152E+03  0.00000000000E+00 0. -1.
         25    2    1    2    0    0 -0.67213319788E+02  0.15910883221E+02 -0.48267996051E+03  0.50338708654E+03  0.12509127889E+03 0.  0.
         23    2    1    2    0    0  0.67213319788E+02 -0.15910883221E+02 -0.40803860765E+03  0.42382184834E+03  0.91425747113E+02 0.  0.
          5    1    3    3  502    0 -0.63705552770E+02 -0.40355142209E+02 -0.36628369945E+03  0.37398951301E+03  0.41800000000E+01 0. -1.
         -5    1    3    3    0  502 -0.35077670178E+01  0.56266025430E+02 -0.11639626106E+03  0.12939757353E+03  0.41800000000E+01 0. -1.
        -11    1    4    4    0    0 -0.16864312005E+02 -0.11796581024E+02 -0.29076561464E+02  0.35623177425E+02  0.00000000000E+00 0.  1.
         11    1    4    4    0    0  0.84077631793E+02 -0.41143021975E+01 -0.37896204618E+03  0.38819867091E+03  0.00000000000E+00 0. -1.
</event>
<event>
 8    1  0.6615242E-009  0.1177636E+03  0.7561462E-02  0.1246833E+00
         -1   -1    0    0    0  501 -0.00000000000E+00  0.00000000000E+00  0.30396500921E+02  0.30396500921E+02  0.00000000000E+00 0.  1.
          1   -1    0    0  501    0  0.00000000000E+00 -0.00000000000E+00 -0.61673329176E+03  0.61673329176E+03  0.00000000000E+00 0. -1.
         25    2    1    2    0    0 -0.18385552824E+02 -0.74522197826E+02 -0.24812536184E+03  0.28827590440E+03  0.12508083525E+03 0.  0.
         23    2    1    2    0    0  0.18385552824E+02  0.74522197826E+02 -0.33821142900E+03  0.35885388828E+03  0.92182188673E+02 0.  0.
          5    1    3    3  502    0 -0.39798126353E+02 -0.83304672693E+02 -0.92050152198E+02  0.13043872996E+03  0.41800000000E+01 0. -1.
         -5    1    3    3    0  502  0.21412573528E+02  0.87824748675E+01 -0.15607520964E+03  0.15783717444E+03  0.41800000000E+01 0. -1.
        -11    1    4    4    0    0 -0.28331450433E+02  0.66375748801E+02 -0.19023068126E+03  0.20346037257E+03  0.00000000000E+00 0.  1.
         11    1    4    4    0    0  0.46717003257E+02  0.81464490252E+01 -0.14798074774E+03  0.15539351571E+03  0.00000000000E+00 0. -1.
</event>
<event>
 8    1  0.6615242E-009  0.1001862E+03  0.7561462E-02  0.1279905E+00
         -2   -1    0    0    0  501 -0.00000000000E+00  0.00000000000E+00  0.15783490617E+02  0.15783490617E+02  0.00000000000E+00 0.  1.
          2   -1    0    0  501    0  0.00000000000E+00 -0.00000000000E+00 -0.11631266179E+04  0.11631266179E+04  0.00000000000E+00 0. -1.
         25    2    1    2    0    0  0.29908626639E+02  0.32741340914E+02 -0.87692752897E+03  0.88691303439E+03  0.12508524353E+03 0.  0.
         23    2    1    2    0    0 -0.29908626639E+02 -0.32741340914E+02 -0.27041559830E+03  0.29199707411E+03  0.10085223912E+03 0.  0.
          5    1    3    3  502    0  0.68425489709E+02  0.22704072631E+02 -0.29883398827E+03  0.30743576158E+03  0.41800000000E+01 0. -1.
         -5    1    3    3    0  502 -0.38516863070E+02  0.10037268283E+02 -0.57809354071E+03  0.57947727281E+03  0.41800000000E+01 0. -1.
        -11    1    4    4    0    0 -0.42880033078E+01 -0.54410956464E+02 -0.24184076366E+03  0.24792316173E+03  0.00000000000E+00 0. -1.
         11    1    4    4    0    0 -0.25620623331E+02  0.21669615550E+02 -0.28574834636E+02  0.44073912380E+02  0.00000000000E+00 0.  1.
</event>
<event>
 8    1  0.6615242E-009  0.1008816E+03  0.7561462E-02  0.1278453E+00
          1   -1    0    0  501    0  0.00000000000E+00  0.00000000000E+00  0.15597965908E+03  0.15597965908E+03  0.00000000000E+00 0. -1.
         -1   -1    0    0    0  501 -0.00000000000E+00 -0.00000000000E+00 -0.11973110389E+03  0.11973110389E+03  0.00000000000E+00 0.  1.
         25    2    1    2    0    0  0.77179007307E+02 -0.24824369521E+02  0.10633504535E+02  0.14944532526E+03  0.12509190754E+03 0.  0.
         23    2    1    2    0    0 -0.77179007307E+02  0.24824369521E+02  0.25615050652E+02  0.12626543770E+03  0.93348708868E+02 0.  0.
          5    1    3    3  502    0  0.42046720144E+02 -0.22208614927E+02 -0.56226201798E+02  0.73756405963E+02  0.41800000000E+01 0.  1.
         -5    1    3    3    0  502  0.35132287162E+02 -0.26157545940E+01  0.66859706334E+02  0.75688919297E+02  0.41800000000E+01 0.  1.
        -11    1    4    4    0    0  0.66991840878E+01  0.33557796073E+02  0.24217100833E+02  0.41922222239E+02  0.00000000000E+00 0. -1.
         11    1    4    4    0    0 -0.83878191395E+02 -0.87334265519E+01  0.13979498191E+01  0.84343215463E+02  0.00000000000E+00 0.  1.
</event>
<event>
 8    1  0.6615242E-009  0.4724447E+02  0.7561462E-02  0.1460797E+00
         -4   -1    0    0    0  501 -0.00000000000E+00  0.00000000000E+00  0.18504816877E+02  0.18504816877E+02  0.00000000000E+00 0. -1.
          4   -1    0    0  501    0  0.00000000000E+00 -0.00000000000E+00 -0.55289875083E+03  0.55289875083E+03  0.00000000000E+00 0.  1.
         25    2    1    2    0    0  0.11352430276E+01  0.30309611094E+01 -0.31961718495E+03  0.34324525766E+03  0.12510670041E+03 0.  0.
         23    2    1    2    0    0 -0.11352430276E+01 -0.30309611094E+01 -0.21477674900E+03  0.22815831005E+03  0.76920004101E+02 0.  0.
          5    1    3    3  502    0 -0.13618712084E+02 -0.37981921296E+00 -0.32598352971E+03  0.32629487833E+03  0.41800000000E+01 0.  1.
         -5    1    3    3    0  502  0.14753955112E+02  0.34107803224E+01  0.63663447578E+01  0.16950379330E+02  0.41800000000E+01 0.  1.
        -11    1    4    4    0    0 -0.65589497249E+01  0.30176591109E+02 -0.41973645725E+02  0.52109820647E+02  0.00000000000E+00 0. -1.
         11    1    4    4    0    0  0.54237066973E+01 -0.33207552218E+02 -0.17280310327E+03  0.17604848940E+03  0.00000000000E+00 0.  1.
</event>
<event>
 7    1  0.6615242E-009  0.1075390E+03  0.7561462E-02  0.1265196E+00
         -1   -1    0    0    0  501 -0.00000000000E+00  0.00000000000E+00  0.14978147574E+02  0.14978147574E+02  0.00000000000E+00 0.  1.
          1   -1    0    0  501    0  0.00000000000E+00 -0.00000000000E+00 -0.93004767331E+03  0.93004767331E+03  0.00000000000E+00 0. -1.
         23    2    1    2    0    0  0.24025835259E+02 -0.35086884892E+02 -0.30827200490E+03  0.32398627050E+03  0.90150675074E+02 0.  0.
          5    1    1    2  502    0  0.29138644136E+02  0.63881986471E+02 -0.36872394296E+03  0.37537286435E+03  0.41800000000E+01 0.  1.
         -5    1    1    2    0  502 -0.53164479395E+02 -0.28795101578E+02 -0.23807357787E+03  0.24566668603E+03  0.41800000000E+01 0.  1.
        -11    1    3    3    0    0  0.50239565127E+02 -0.23851225381E+02 -0.27309561500E+03  0.27870075311E+03  0.00000000000E+00 0. -1.
         11    1    3    3    0    0 -0.26213729868E+02 -0.11235659512E+02 -0.35176389905E+02  0.45285517387E+02  0.00000000000E+00 0.  1.
</event>
<event>
 8    1  0.6615242E-009  0.1021126E+03  0.7561462E-02  0.1275915E+00
          1   -1    0    0  501    0  0.00000000000E+00  0.00000000000E+00  0.17011583796E+03  0.17011583796E+03  0.00000000000E+00 0. -1.
         -1   -1    0    0    0  501 -0.00000000000E+00 -0.00000000000E+00 -0.93808576663E+02  0.93808576663E+02  0.00000000000E+00 0.  1.
         25    2    1    2    0    0  0.26762428958E+02  0.44101851423E+02 -0.55274653520E+00  0.13532048170E+03  0.12510046497E+03 0.  0.
         23    2    1    2    0    0 -0.26762428958E+02 -0.44101851423E+02  0.76860007837E+02  0.12860393293E+03  0.89276591880E+02 0.  0.
          5    1    3    3  502    0  0.54558691577E+02  0.75283888768E+02 -0.43319569361E+01  0.93169485270E+02  0.41800000000E+01 0.  1.
         -5    1    3    3    0  502 -0.27796262620E+02 -0.31182037345E+02  0.37792104010E+01  0.42150996428E+02  0.41800000000E+01 0.  1.
        -11    1    4    4    0    0 -0.17608976407E+02  0.57237010924E+01 -0.14914652028E+02  0.23775694509E+02  0.00000000000E+00 0.  1.
         11    1    4    4    0    0 -0.91534525511E+01 -0.49825552515E+02  0.91774659865E+02  0.10482823842E+03  0.00000000000E+00 0. -1.
</event>
<event>
 8    1  0.6615242E-009  0.1137600E+03  0.7561462E-02  0.1253761E+00
         -2   -1    0    0    0  501 -0.00000000000E+00  0.00000000000E+00  0.22707581823E+03  0.22707581823E+03  0.00000000000E+00 0.  1.
          2   -1    0    0  501    0  0.00000000000E+00 -0.00000000000E+00 -0.78116262617E+02  0.78116262617E+02  0.00000000000E+00 0. -1.
         25    2    1    2    0    0  0.32119682272E+02 -0.68010857485E+02  0.61619791414E+02  0.15843502434E+03  0.12508999767E+03 0.  0.
         23    2    1    2    0    0 -0.32119682272E+02  0.68010857485E+02  0.87339764202E+02  0.14675705651E+03  0.90841887366E+02 0.  0.
          5    1    3    3  502    0 -0.12361733369E+02  0.31547834331E+02  0.22692256870E+01  0.34215494853E+02  0.41800000000E+01 0. -1.
         -5    1    3    3    0  502  0.44481415641E+02 -0.99558691815E+02  0.59350565727E+02  0.12421952949E+03  0.41800000000E+01 0. -1.
        -11    1    4    4    0    0 -0.17736499292E+02  0.67577481515E+02  0.10365506148E+03  0.12500268471E+03  0.00000000000E+00 0.  1.
         11    1    4    4    0    0 -0.14383182980E+02  0.43337596948E+00 -0.16315297274E+02  0.21754371802E+02  0.00000000000E+00 0. -1.
</event>
<event>
 8    1  0.6615242E-009  0.8274203E+02  0.7561462E-02  0.1321445E+00
          1   -1    0    0  501    0  0.00000000000E+00  0.00000000000E+00  0.67686385034E+02  0.67686385034E+02  0.00000000000E+00 0. -1.
         -1   -1    0    0    0  501 -0.00000000000E+00 -0.00000000000E+00 -0.24011829368E+03  0.24011829368E+03  0.00000000000E+00 0.  1.
         25    2    1    2    0    0 -0.14457470848E+02  0.61638121849E+02 -0.13902624643E+03  0.19744365860E+03  0.12508966623E+03 0.  0.
         23    2    1    2    0    0  0.14457470848E+02 -0.61638121849E+02 -0.33405662223E+02  0.11036102011E+03  0.83996071121E+02 0.  0.
          5    1    3    3  502    0 -0.14817419521E+02  0.80687132738E+01 -0.14253956605E+03  0.14359547467E+03  0.41800000000E+01 0. -1.
         -5    1    3    3    0  502  0.35994867296E+00  0.53569408576E+02  0.35133196246E+01  0.53848183934E+02  0.41800000000E+01 0. -1.
        -11    1    4    4    0    0  0.24852519841E+02  0.63010329217E+01  0.11668670631E+02  0.28169285270E+02  0.00000000000E+00 0. -1.
         11    1    4    4    0    0 -0.10395048993E+02 -0.67939154771E+02 -0.45074332855E+02  0.82191734845E+02  0.00000000000E+00 0.  1.
</event>
<event>
 8    1  0.6615242E-009  0.1338969E+03  0.7561462E-02  0.1221785E+00
         -3   -1    0    0    0  501 -0.00000000000E+00  0.00000000000E+00  0.85605745997E+02  0.85605745997E+02  0.00000000000E+00 0.  1.
          3   -1    0    0  501    0  0.00000000000E+00 -0.00000000000E+00 -0.27237400837E+03  0.27237400837E+03  0.00000000000E+00 0. -1.
         25    2    1    2    0    0  0.14583935473E+02 -0.99191435526E+02 -0.54510115899E+02  0.16932751197E+03  0.12509524979E+03 0.  0.
         23    2    1    2    0    0 -0.14583935473E+02  0.99191435526E+02 -0.13225814648E+03  0.18865224240E+03  0.89698490491E+02 0.  0.
          5    1    3    3  502    0  0.56577374833E+02 -0.44877225283E+02  0.12375632859E+02  0.73386602188E+02  0.41800000000E+01 0. -1.
         -5    1    3    3    0  502 -0.41993439360E+02 -0.54314210242E+02 -0.66885748758E+02  0.95940909785E+02  0.41800000000E+01 0. -1.
        -11    1    4    4    0    0 -0.27227110879E+02  0.55501258208E+00 -0.59493559996E+02  0.65430171074E+02  0.00000000000E+00 0. -1.
         11    1    4    4    0    0  0.12643175406E+02  0.98636422944E+02 -0.72764586482E+02  0.12322207132E+03  0.00000000000E+00 0.  1.
</event>
<event>
 8    1  0.6615242E-009  0.6956142E+02  0.7561462E-02  0.1361591E+00
          1   -1    0    0  501    0  0.00000000000E+00  0.00000000000E+00  0.10424003437E+03  0.10424003437E+03  0.00000000000E+00 0. -1.
         -1   -1    0    0    0  501 -0.00000000000E+00 -0.00000000000E+00 -0.31303277908E+03  0.31303277908E+03  0.00000000000E+00 0.  1.
         25    2    1    2    0    0  0.18110417987E+02 -0.15311582874E+02  0.54627752099E+02  0.13853900545E+03  0.12508570231E+03 0.  0.
         23    2    1    2    0    0 -0.18110417987E+02  0.15311582874E+02 -0.26342049681E+03  0.27873380800E+03  0.87975824924E+02 0.  0.
          5    1    3    3  502    0 -0.40272847458E+01 -0.23377087715E+02 -0.36827508742E+02  0.44005057125E+02  0.41800000000E+01 0. -1.
         -5    1    3    3    0  502  0.22137702733E+02  0.80655048402E+01  0.91455260840E+02  0.94533948325E+02  0.41800000000E+01 0. -1.
        -11    1    4    4    0    0 -0.52066954123E+02  0.21954917605E+02 -0.16532412482E+03  0.17471420196E+03  0.00000000000E+00 0.  1.
         11    1    4    4    0    0  0.33956536136E+02 -0.66433347301E+01 -0.98096371993E+02  0.10401960604E+03  0.00000000000E+00 0. -1.
</event>
<event>
 8    1  0.6615242E-009  0.1823107E+03  0.7561462E-02  0.1165585E+00
         -1   -1    0    0    0  501 -0.00000000000E+00  0.00000000000E+00  0.36659978346E+02  0.36659978346E+02  0.00000000000E+00 0.  1.
          1   -1    0    0  501    0  0.00000000000E+00 -0.00000000000E+00 -0.11377592734E+04  0.11377592734E+04  0.00000000000E+00 0. -1.
         25    2    1    2    0    0 -0.11144908361E+03 -0.11544096946E+03 -0.75935005851E+03  0.78613522026E+03  0.12509419451E+03 0.  0.
         23    2    1    2    0    0  0.11144908361E+03  0.11544096946E+03 -0.34174923659E+03  0.38828403153E+03  0.90688658419E+02 0.  0.
          5    1    3    3  502    0  0.22857094328E+02  0.24509570760E+01 -0.12065755232E+03  0.12289902882E+03  0.41800000000E+01 0. -1.
         -5    1    3    3    0  502 -0.13430617794E+03 -0.11789192654E+03 -0.63869250619E+03  0.66323619144E+03  0.41800000000E+01 0. -1.
        -11    1    4    4    0    0  0.81371097023E+02  0.99242417440E+02 -0.16908991485E+03  0.21227744146E+03  0.00000000000E+00 0.  1.
         11    1    4    4    0    0  0.30077986587E+02  0.16198552025E+02 -0.17265932174E+03  0.17600659007E+03  0.00000000000E+00 0. -1.
</event>
<event>
 8    1  0.6615242E-009  0.1042459E+03  0.7561462E-02  0.1271613E+00
          3   -1    0    0  501    0  0.00000000000E+00  0.00000000000E+00  0.17207594416E+03  0.17207594416E+03  0.00000000000E+00 0. -1.
         -3   -1    0    0    0  501 -0.00000000000E+00 -0.00000000000E+00 -0.81383880574E+02  0.81383880574E+02  0.00000000000E+00 0.  1.
         25    2    1    2    0    0 -0.34869648276E+02 -0.81617158914E+01  0.22977728951E+02  0.13213043247E+03  0.12509184298E+03 0.  0.
         23    2    1    2    0    0  0.34869648276E+02  0.81617158914E+01  0.67714334639E+02  0.12132939227E+03  0.94090830240E+02 0.  0.
          5    1    3    3  502    0  0.44414572029E+02  0.11359794282E+02 -0.35610166236E+01  0.46171986897E+02  0.41800000000E+01 0. -1.
         -5    1    3    3    0  502 -0.79284220305E+02 -0.19521510173E+02  0.26538745575E+02  0.85958445574E+02  0.41800000000E+01 0. -1.
        -11    1    4    4    0    0  0.61374356322E+01  0.38457704884E+02 -0.31578211824E+01  0.39072177002E+02  0.00000000000E+00 0.  1.
         11    1    4    4    0    0  0.28732212644E+02 -0.30295988992E+02  0.70872155822E+02  0.82257215266E+02  0.00000000000E+00 0. -1.
</event>
<event>
 8    1  0.6615242E-009  0.1253128E+03  0.7561462E-02  0.1234581E+00
          2   -1    0    0  501    0  0.00000000000E+00  0.00000000000E+00  0.39563077808E+02  0.39563077808E+02  0.00000000000E+00 0.  1.
         -2   -1    0    0    0  501 -0.00000000000E+00 -0.00000000000E+00 -0.57448027086E+03  0.57448027086E+03  0.00000000000E+00 0. -1.
         25    2    1    2    0    0  0.46312959384E+02 -0.91878172515E+02 -0.23325333846E+03  0.28397143426E+03  0.12508463848E+03 0.  0.
         23    2    1    2    0    0 -0.46312959384E+02  0.91878172515E+02 -0.30166385460E+03  0.33007191441E+03  0.85789852076E+02 0.  0.
          5    1    3    3  502    0  0.59875975698E+02 -0.17092454988E+02 -0.34877840987E+02  0.71492801562E+02  0.41800000000E+01 0. -1.
         -5    1    3    3    0  502 -0.13563016314E+02 -0.74785717527E+02 -0.19837549747E+03  0.21247863270E+03  0.41800000000E+01 0. -1.
        -11    1    4    4    0    0  0.12168285336E+01  0.46069547862E+02 -0.22142039712E+03  0.22616559458E+03  0.00000000000E+00 0. -1.
         11    1    4    4    0    0 -0.47529787917E+02  0.45808624653E+02 -0.80243457480E+02  0.10390631983E+03  0.00000000000E+00 0.  1.
</event>
<event>
 8    1  0.6615242E-009  0.1086505E+03  0.7561462E-02  0.1263089E+00
          1   -1    0    0  501    0  0.00000000000E+00  0.00000000000E+00  0.79124195549E+02  0.79124195549E+02  0.00000000000E+00 0. -1.
         -1   -1    0    0    0  501 -0.00000000000E+00 -0.00000000000E+00 -0.20145212844E+03  0.20145212844E+03  0.00000000000E+00 0.  1.
         25    2    1    2    0    0  0.49098375954E+02  0.37535512403E+02 -0.51767075796E+02  0.14882067543E+03  0.12509275793E+03 0.  0.
         23    2    1    2    0    0 -0.49098375954E+02 -0.37535512403E+02 -0.70560857097E+02  0.13175564856E+03  0.92526488969E+02 0.  0.
          5    1    3    3  502    0  0.79480343074E+02  0.14757840164E+02 -0.69513543771E+02  0.10669828466E+03  0.41800000000E+01 0. -1.
         -5    1    3    3    0  502 -0.30381967120E+02  0.22777672239E+02  0.17746467975E+02  0.42122390771E+02  0.41800000000E+01 0. -1.
        -11    1    4    4    0    0  0.36352856897E+01 -0.44776811129E+02 -0.63900869853E+02  0.78112094357E+02  0.00000000000E+00 0. -1.
         11    1    4    4    0    0 -0.52733661643E+02  0.72412987259E+01 -0.66599872438E+01  0.53643554204E+02  0.00000000000E+00 0.  1.
</event>
<event>
 8    1  0.6615242E-009  0.8860454E+02  0.7561462E-02  0.1306267E+00
          1   -1    0    0  501    0  0.00000000000E+00  0.00000000000E+00  0.30857495031E+03  0.30857495031E+03  0.00000000000E+00 0. -1.
         -1   -1    0    0    0  501 -0.00000000000E+00 -0.00000000000E+00 -0.69020705619E+02  0.69020705619E+02  0.00000000000E+00 0.  1.
         25    2    1    2    0    0 -0.29939217346E+02  0.79118122939E+02  0.19550280348E+03  0.24703333846E+03  0.12509232602E+03 0.  0.
         23    2    1    2    0    0  0.29939217346E+02 -0.79118122939E+02  0.44051441206E+02  0.13056231746E+03  0.89162521031E+02 0.  0.
          5    1    3    3  502    0  0.63610192107E+01  0.18487787825E+02  0.17093669169E+03  0.17210196346E+03  0.41800000000E+01 0. -1.
         -5    1    3    3    0  502 -0.36300236557E+02  0.60630335114E+02  0.24566111795E+02  0.74931374996E+02  0.41800000000E+01 0. -1.
        -11    1    4    4    0    0  0.15931830876E+02 -0.63403569110E+02 -0.15680992255E+02  0.67228932232E+02  0.00000000000E+00 0.  1.
         11    1    4    4    0    0  0.14007386470E+02 -0.15714553829E+02  0.59732433462E+02  0.63333385233E+02  0.00000000000E+00 0. -1.
</event>
<event>
 8    1  0.6615242E-009  0.1062665E+03  0.7561462E-02  0.1267644E+00
         -2   -1    0    0    0  501 -0.00000000000E+00  0.00000000000E+00  0.43368516939E+03  0.43368516939E+03  0.00000000000E+00 0.  1.
          2   -1    0    0  501    0  0.00000000000E+00 -0.00000000000E+00 -0.58417355167E+02  0.58417355167E+02  0.00000000000E+00 0. -1.
         25    2    1    2    0    0  0.70254370386E+01  0.26609913937E+02  0.28627030227E+02  0.13124205633E+03  0.12509007236E+03 0.  0.
         23    2    1    2    0    0 -0.70254370386E+01 -0.26609913937E+02  0.34664078400E+03  0.36086046823E+03  0.96452061234E+02 0.  0.
          5    1    3    3  502    0  0.36286900665E+02 -0.33164136278E+02  0.40102202304E+02  0.63578755293E+02  0.41800000000E+01 0. -1.
         -5    1    3    3    0  502 -0.29261463626E+02  0.59774050215E+02 -0.11475172077E+02  0.67663301034E+02  0.41800000000E+01 0. -1.
        -11    1    4    4    0    0 -0.11545098168E+02  0.33911893795E+02  0.84388202946E+02  0.91677012544E+02  0.00000000000E+00 0.  1.
         11    1    4    4    0    0  0.45196611293E+01 -0.60521807731E+02  0.26225258105E+03  0.26918345569E+03  0.00000000000E+00 0. -1.
</event>
<event>
 8    1  0.6615242E-009  0.1059245E+03  0.7561462E-02  0.1268309E+00
         -2   -1    0    0    0  501 -0.00000000000E+00  0.00000000000E+00  0.70590066508E+02  0.70590066508E+02  0.00000000000E+00 0.  1.
          2   -1    0    0  501    0  0.00000000000E+00 -0.00000000000E+00 -0.30803315172E+03  0.30803315172E+03  0.00000000000E+00 0. -1.
         25    2    1    2    0    0  0.34344377929E+02 -0.58451109378E+02 -0.22045203275E+03  0.26238059538E+03  0.12509360337E+03 0.  0.
         23    2    1    2    0    0 -0.34344377929E+02  0.58451109378E+02 -0.16991052463E+02  0.11624262285E+03  0.92884783579E+02 0.  0.
          5    1    3    3  502    0 -0.66475512819E+01 -0.82600561055E+02 -0.18545733270E+03  0.20317218628E+03  0.41800000000E+01 0.  1.
         -5    1    3    3    0  502  0.40991929211E+02  0.24149451677E+02 -0.34994700050E+02  0.59208409101E+02  0.41800000000E+01 0.  1.
        -11    1    4    4    0    0 -0.10281884982E+02 -0.62864130418E+01  0.30252965206E+02  0.32564981982E+02  0.00000000000E+00 0.  1.
         11    1    4    4    0    0 -0.24062492947E+02  0.64737522420E+02 -0.47244017669E+02  0.83677640869E+02  0.00000000000E+00 0. -1.
</event>
<event>
 8    1  0.6615242E-009  0.1172658E+03  0.7561462E-02  0.1247677E+00
         -2   -1    0    0    0  501 -0.00000000000E+00  0.00000000000E+00  0.22731589755E+02  0.22731589755E+02  0.00000000000E+00 0.  1.
          2   -1    0    0  501    0  0.00000000000E+00 -0.00000000000E+00 -0.10165646699E+04  0.10165646699E+04  0.00000000000E+00 0. -1.
         25    2    1    2    0    0  0.25443039256E+02 -0.83573632823E+02 -0.73517741788E+03  0.75084294795E+03  0.12508955344E+03 0.  0.
         23    2    1    2    0    0 -0.25443039256E+02  0.83573632823E+02 -0.25865566230E+03  0.28845331174E+03  0.93116384502E+02 0.  0.
          5    1    3    3  502    0 -0.27165598859E+02 -0.44168244159E+02 -0.57917932808E+03  0.58151093715E+03  0.41800000000E+01 0.  1.
         -5    1    3    3    0  502  0.52608638115E+02 -0.39405388664E+02 -0.15599808979E+03  0.16933201079E+03  0.41800000000E+01 0.  1.
        -11    1    4    4    0    0  0.21447176042E+02  0.60892336416E+02 -0.82496099597E+02  0.10475430513E+03  0.00000000000E+00 0.  1.
         11    1    4    4    0    0 -0.46890215297E+02  0.22681296407E+02 -0.17615956270E+03  0.18369900661E+03  0.00000000000E+00 0. -1.
</event>
<event>
 8    1  0.6615242E-009  0.3225151E+03  0.7561462E-02  0.1074498E+00
         -1   -1    0    0    0  501 -0.00000000000E+00  0.00000000000E+00  0.64679026853E+02  0.64679026853E+02  0.00000000000E+00 0.  1.
          1   -1    0    0  501    0  0.00000000000E+00 -0.00000000000E+00 -0.16984324932E+04  0.16984324932E+04  0.00000000000E+00 0. -1.
         25    2    1    2    0    0 -0.31047347035E+03 -0.37670895836E+00 -0.88746049625E+03  0.94848632266E+03  0.12508498781E+03 0.  0.
         23    2    1    2    0    0  0.31047347035E+03  0.37670895836E+00 -0.74629297011E+03  0.81462519740E+03  0.10132668603E+03 0.  0.
          5    1    3    3  502    0  0.89969300342E+01  0.10568322864E+02 -0.50907440039E+02  0.52930842138E+02  0.41800000000E+01 0. -1.
         -5    1    3    3    0  502 -0.31947040039E+03 -0.10945031822E+02 -0.83655305621E+03  0.89555548052E+03  0.41800000000E+01 0. -1.
        -11    1    4    4    0    0  0.19301812041E+03 -0.71815511967E+01 -0.57674578661E+03  0.60822962099E+03  0.00000000000E+00 0. -1.
         11    1    4    4    0    0  0.11745534995E+03  0.75582601550E+01 -0.16954718351E+03  0.20639557641E+03  0.00000000000E+00 0.  1.
</event>
<event>
 7    1  0.6615242E-009  0.9549859E+02  0.7561462E-02  0.1290057E+00
         -1   -1    0    0    0  501 -0.00000000000E+00  0.00000000000E+00  0.12912280627E+02  0.12912280627E+02  0.00000000000E+00 0.  1.
          1   -1    0    0  501    0  0.00000000000E+00 -0.00000000000E+00 -0.11788548269E+04  0.11788548269E+04  0.00000000000E+00 0. -1.
         23    2    1    2    0    0  0.42149545058E+02  0.33079268888E+02 -0.38422508759E+03  0.39828094899E+03  0.90155278366E+02 0.  0.
          5    1    1    2  502    0 -0.60579712821E+02 -0.29671303795E+02 -0.19364644130E+03  0.20510169308E+03  0.41800000000E+01 0. -1.
         -5    1    1    2    0  502  0.18430167763E+02 -0.34079650930E+01 -0.58807101739E+03  0.58838446547E+03  0.41800000000E+01 0. -1.
        -11    1    3    3    0    0  0.70468996796E+02  0.22414047049E+02 -0.25125616191E+03  0.26191206141E+03  0.00000000000E+00 0.  1.
         11    1    3    3    0    0 -0.28319451738E+02  0.10665221839E+02 -0.13296892567E+03  0.13636888757E+03  0.00000000000E+00 0. -1.
</event>
<event>
 8    1  0.6615242E-009  0.1305671E+03  0.7561462E-02  0.1226617E+00
         -2   -1    0    0    0  501 -0.00000000000E+00  0.00000000000E+00  0.13494711956E+02  0.13494711956E+02  0.00000000000E+00 0.  1.
          2   -1    0    0  501    0  0.00000000000E+00 -0.00000000000E+00 -0.20419112196E+04  0.20419112196E+04  0.00000000000E+00 0. -1.
         25    2    1    2    0    0 -0.57591270056E+02 -0.55821771406E+02 -0.16827676108E+04  0.16893151985E+04  0.12508470499E+03 0.  0.
         23    2    1    2    0    0  0.57591270056E+02  0.55821771406E+02 -0.34564889682E+03  0.36609073302E+03  0.90091289144E+02 0.  0.
          5    1    3    3  502    0 -0.78539012808E+02 -0.81688080466E+02 -0.13942938979E+04  0.13988975178E+04  0.41800000000E+01 0. -1.
         -5    1    3    3    0  502  0.20947742752E+02  0.25866309059E+02 -0.28847371288E+03  0.29041768075E+03  0.41800000000E+01 0. -1.
        -11    1    4    4    0    0  0.43212180285E+02 -0.12011712917E+02 -0.81871617663E+02  0.93351676744E+02  0.00000000000E+00 0.  1.
         11    1    4    4    0    0  0.14379089771E+02  0.67833484323E+02 -0.26377727916E+03  0.27273905628E+03  0.00000000000E+00 0. -1.
</event>
<event>
 8    1  0.6615242E-009  0.6805984E+02  0.7561462E-02  0.1366818E+00
         -2   -1    0    0    0  501 -0.00000000000E+00  0.00000000000E+00  0.37483973087E+02  0.37483973087E+02  0.00000000000E+00 0.  1.
          2   -1    0    0  501    0  0.00000000000E+00 -0.00000000000E+00 -0.45750510334E+03  0.45750510334E+03  0.00000000000E+00 0. -1.
         25    2    1    2    0    0  0.34634284636E+02 -0.42149188437E+01 -0.11093387731E+03  0.17079529100E+03  0.12508959621E+03 0.  0.
         23    2    1    2    0    0 -0.34634284636E+02  0.42149188437E+01 -0.30908725294E+03  0.32419378542E+03  0.91374949333E+02 0.  0.
          5    1    3    3  502    0  0.20723708397E+02  0.42300659514E+01 -0.13759921871E+03  0.13927807774E+03  0.41800000000E+01 0. -1.
         -5    1    3    3    0  502  0.13910576239E+02 -0.84449847950E+01  0.26665341404E+02  0.31517213261E+02  0.41800000000E+01 0. -1.
        -11    1    4    4    0    0 -0.92656256278E+01 -0.43092727411E+02 -0.14460964307E+03  0.15117798730E+03  0.00000000000E+00 0. -1.
         11    1    4    4    0    0 -0.25368659009E+02  0.47307646255E+02 -0.16447760986E+03  0.17301579813E+03  0.00000000000E+00 0.  1.
</event>
<event>
 8    1  0.6615242E-009  0.1685942E+03  0.7561462E-02  0.1179322E+00
          2   -1    0    0  501    0  0.00000000000E+00  0.00000000000E+00  0.89970648662E+03  0.89970648662E+03  0.00000000000E+00 0. -1.
         -2   -1    0    0    0  501 -0.00000000000E+00 -0.00000000000E+00 -0.36747530423E+02  0.36747530423E+02  0.00000000000E+00 0.  1.
         25    2    1    2    0    0  0.14087592222E+03  0.35059687975E+02  0.41975070394E+03  0.46142510881E+03  0.12508904988E+03 0.  0.
         23    2    1    2    0    0 -0.14087592222E+03 -0.35059687975E+02  0.44320825226E+03  0.47502890823E+03  0.90242460095E+02 0.  0.
          5    1    3    3  502    0  0.68414804168E+02  0.66373836903E+02  0.13108769677E+03  0.16213429094E+03  0.41800000000E+01 0.  1.
         -5    1    3    3    0  502  0.72461118054E+02 -0.31314148927E+02  0.28866300718E+03  0.29929081788E+03  0.41800000000E+01 0.  1.
        -11    1    4    4    0    0 -0.89706428349E+02  0.15221058373E+02  0.31761460069E+03  0.33039061499E+03  0.00000000000E+00 0. -1.
         11    1    4    4    0    0 -0.51169493874E+02 -0.50280746349E+02  0.12559365157E+03  0.14463829324E+03  0.00000000000E+00 0.  1.
</event>
<event>
 8    1  0.6615242E-009  0.9987884E+02  0.7561462E-02  0.1280551E+00
         -2   -1    0    0    0  501 -0.00000000000E+00  0.00000000000E+00  0.66973946154E+02  0.66973946154E+02  0.00000000000E+00 0.  1.
          2   -1    0    0  501    0  0.00000000000E+00 -0.00000000000E+00 -0.18493706603E+03  0.18493706603E+03  0.00000000000E+00 0. -1.
         25    2    1    2    0    0  0.19195858444E+02  0.15228154377E+02 -0.69530346004E+02  0.14519128546E+03  0.12508262345E+03 0.  0.
         23    2    1    2    0    0 -0.19195858444E+02 -0.15228154377E+02 -0.48432773872E+02  0.10671972673E+03  0.91885737854E+02 0.  0.
          5    1    3    3  502    0  0.66678714813E+02  0.34096135739E+02 -0.50895570954E+02  0.90644520100E+02  0.41800000000E+01 0. -1.
         -5    1    3    3    0  502 -0.47482856369E+02 -0.18867981362E+02 -0.18634775051E+02  0.54546765356E+02  0.41800000000E+01 0. -1.
        -11    1    4    4    0    0  0.26058073843E+02 -0.10080121995E+02  0.12530908064E+02  0.30621164719E+02  0.00000000000E+00 0.  1.
         11    1    4    4    0    0 -0.45253932287E+02 -0.51480323816E+01 -0.60963681936E+02  0.76098562010E+02  0.00000000000E+00 0. -1.
</event>
<event>
 8    1  0.6615242E-009  0.7077700E+02  0.7561462E-02  0.1357471E+00
          2   -1    0    0  501    0  0.00000000000E+00  0.00000000000E+00  0.63251568699E+02  0.63251568699E+02  0.00000000000E+00 0. -1.
         -2   -1    0    0    0  501 -0.00000000000E+00 -0.00000000000E+00 -0.40935564058E+03  0.40935564058E+03  0.00000000000E+00 0.  1.
         25    2    1    2    0    0 -0.20848246381E+02 -0.13112108193E+02 -0.15330773173E+02  0.12841594635E+03  0.12509614667E+03 0.  0.
         23    2    1    2    0    0  0.20848246381E+02  0.13112108193E+02 -0.33077329871E+03  0.34419126294E+03  0.91924281794E+02 0.  0.
          5    1    3    3  502    0  0.10010316889E+02 -0.11043803217E+02  0.51972392312E+02  0.54228903698E+02  0.41800000000E+01 0. -1.
         -5    1    3    3    0  502 -0.30858563270E+02 -0.20683049762E+01 -0.67303165485E+02  0.74187042648E+02  0.41800000000E+01 0. -1.
        -11    1    4    4    0    0  0.13367130555E+02  0.52806120944E+02 -0.17623008437E+03  0.18445652394E+03  0.00000000000E+00 0. -1.
         11    1    4    4    0    0  0.74811158258E+01 -0.39694012751E+02 -0.15454321434E+03  0.15973473899E+03  0.00000000000E+00 0.  1.
</event>
<event>
 8    1  0.6615242E-009  0.5820669E+02  0.7561462E-02  0.1405515E+00
         -3   -1    0    0    0  501 -0.00000000000E+00  0.00000000000E+00  0.23505856589E+03  0.23505856589E+03  0.00000000000E+00 0.  1.
          3   -1    0    0  501    0  0.00000000000E+00 -0.00000000000E+00 -0.55953497574E+02  0.55953497574E+02  0.00000000000E+00 0. -1.
         25    2    1    2    0    0 -0.26623516688E+02  0.74681039112E+01  0.12775805120E+03  0.18092253157E+03  0.12508500537E+03 0.  0.
         23    2    1    2    0    0  0.26623516688E+02 -0.74681039112E+01  0.51347017115E+02  0.11008953189E+03  0.93373468651E+02 0.  0.
          5    1    3    3  502    0 -0.15262601538E+02  0.58989959599E+01 -0.23629144415E+02  0.29044001529E+02  0.41800000000E+01 0.  1.
         -5    1    3    3    0  502 -0.11360915150E+02  0.15691079513E+01  0.15138719561E+03  0.15187853004E+03  0.41800000000E+01 0.  1.
        -11    1    4    4    0    0 -0.28075250469E+02 -0.15441288878E+02 -0.34847501959E+01  0.32230367281E+02  0.00000000000E+00 0. -1.
         11    1    4    4    0    0  0.54698767157E+02  0.79731849673E+01  0.54831767311E+02  0.77859164608E+02  0.00000000000E+00 0.  1.
</event>
<event>
 7    1  0.6615242E-009  0.1473698E+03  0.7561462E-02  0.1203743E+00
          1   -1    0    0  501    0  0.00000000000E+00  0.00000000000E+00  0.17274285404E+03  0.17274285404E+03  0.00000000000E+00 0. -1.
         -1   -1    0    0    0  501 -0.00000000000E+00 -0.00000000000E+00 -0.15882987217E+03  0.15882987217E+03  0.00000000000E+00 0.  1.
         23    2    1    2    0    0 -0.10101092963E+02 -0.12267097115E+03 -0.12269353848E+02  0.15377461085E+03  0.91355868224E+02 0.  0.
          5    1    1    2  502    0 -0.53607887789E+02  0.53792618487E+02  0.34490642743E+02  0.83513641243E+02  0.41800000000E+01 0.  1.
         -5    1    1    2    0  502  0.63708980752E+02  0.68878352659E+02 -0.83083070239E+01  0.94284474114E+02  0.41800000000E+01 0.  1.
        -11    1    3    3    0    0 -0.93864397015E+01 -0.20036295782E+02  0.34498699771E+02  0.40984371226E+02  0.00000000000E+00 0. -1.
         11    1    3    3    0    0 -0.71465326202E+00 -0.10263467536E+03 -0.46768053619E+02  0.11279023963E+03  0.00000000000E+00 0.  1.
</event>
<event>
 8    1  0.6615242E-009  0.1145143E+03  0.7561462E-02  0.1252431E+00
          2   -1    0    0  501    0  0.00000000000E+00  0.00000000000E+00  0.13277039453E+04  0.13277039453E+04  0.00000000000E+00 0. -1.
         -2   -1    0    0    0  501 -0.00000000000E+00 -0.00000000000E+00 -0.21420533074E+02  0.21420533074E+02  0.00000000000E+00 0.  1.
         25    2    1    2    0    0 -0.88204298732E+02 -0.26391764563E+02  0.10547130810E+04  0.10660886935E+04  0.12509554614E+03 0.  0.
         23    2    1    2    0    0  0.88204298732E+02  0.26391764563E+02  0.25157033126E+03  0.28303578489E+03  0.91351521094E+02 0.  0.
          5    1    3    3  502    0  0.13120787802E+02 -0.25610433296E+02  0.65174819647E+02  0.71367211534E+02  0.41800000000E+01 0. -1.
         -5    1    3    3    0  502 -0.10132508653E+03 -0.78133126689E+00  0.98953826131E+03  0.99472148195E+03  0.41800000000E+01 0. -1.
        -11    1    4    4    0    0  0.24109092556E+02  0.24559169749E+02  0.14324061913E+02  0.37277069525E+02  0.00000000000E+00 0.  1.
         11    1    4    4    0    0  0.64095206175E+02  0.18325948141E+01  0.23724626935E+03  0.24575871537E+03  0.00000000000E+00 0. -1.
</event>
<event>
 8    1  0.6615242E-009  0.1307209E+03  0.7561462E-02  0.1226390E+00
          1   -1    0    0  501    0  0.00000000000E+00  0.00000000000E+00  0.99977604258E+02  0.99977604258E+02  0.00000000000E+00 0. -1.
         -1   -1    0    0    0  501 -0.00000000000E+00 -0.00000000000E+00 -0.32232091712E+03  0.32232091712E+03  0.00000000000E+00 0.  1.
         25    2    1    2    0    0  0.11380879210E+03  0.12309396319E+02 -0.19654867460E+02  0.17069817123E+03  0.12509032516E+03 0.  0.
         23    2    1    2    0    0 -0.11380879210E+03 -0.12309396319E+02 -0.20268844541E+03  0.25160035015E+03  0.95478625348E+02 0.  0.
          5    1    3    3  502    0  0.21710345676E+02 -0.36364196889E+02 -0.46509285943E+02  0.63041890863E+02  0.41800000000E+01 0. -1.
         -5    1    3    3    0  502  0.92098446428E+02  0.48673593208E+02  0.26854418482E+02  0.10765628037E+03  0.41800000000E+01 0. -1.
        -11    1    4    4    0    0 -0.59221859636E+02 -0.33785976019E+01 -0.18382645990E+03  0.19316006560E+03  0.00000000000E+00 0.  1.
         11    1    4    4    0    0 -0.54586932467E+02 -0.89307987173E+01 -0.18861985502E+02  0.58440284556E+02  0.00000000000E+00 0. -1.
</event>
<event>
 8    1  0.6615242E-009  0.1097808E+03  0.7561462E-02  0.1260976E+00
          2   -1    0    0  501    0  0.00000000000E+00  0.00000000000E+00  0.32309187127E+03  0.32309187127E+03  0.00000000000E+00 0. -1.
         -2   -1    0    0    0  501 -0.00000000000E+00 -0.00000000000E+00 -0.55547629708E+02  0.55547629708E+02  0.00000000000E+00 0.  1.
         25    2    1    2    0    0  0.16818187839E+02 -0.59507951456E+02  0.74967209037E+02  0.15840365696E+03  0.12509032088E+03 0.  0.
         23    2    1    2    0    0 -0.16818187839E+02  0.59507951456E+02  0.19257703253E+03  0.22023584402E+03  0.87142789764E+02 0.  0.
          5    1    3    3  502    0  0.38507022188E+02 -0.88003109570E+02  0.75651640704E+02  0.12234370108E+03  0.41800000000E+01 0. -1.
         -5    1    3    3    0  502 -0.21688834349E+02  0.28495158114E+02 -0.68443166687E+00  0.36059955880E+02  0.41800000000E+01 0. -1.
        -11    1    4    4    0    0 -0.39857477200E+02  0.45084186489E+02  0.60281169350E+02  0.85176415388E+02  0.00000000000E+00 0.  1.
         11    1    4    4    0    0  0.23039289361E+02  0.14423764967E+02  0.13229586318E+03  0.13505942864E+03  0.00000000000E+00 0. -1.
</event>
<event>
 8    1  0.6615242E-009  0.1054300E+03  0.7561462E-02  0.1269275E+00
          1   -1    0    0  501    0  0.00000000000E+00  0.00000000000E+00  0.47660187446E+02  0.47660187446E+02  0.00000000000E+00 0. -1.
         -1   -1    0    0    0  501 -0.00000000000E+00 -0.00000000000E+00 -0.31230014592E+03  0.31230014592E+03  0.00000000000E+00 0.  1.
         25    2    1    2    0    0 -0.52759803347E+02 -0.13706416856E+02 -0.13417755982E+03  0.19138983980E+03  0.12511990452E+03 0.  0.
         23    2    1    2    0    0  0.52759803347E+02  0.13706416856E+02 -0.13046239865E+03  0.16857049357E+03  0.91782956629E+02 0.  0.
          5    1    3    3  502    0 -0.45619435507E+00 -0.50856150726E+02 -0.11251818595E+03  0.12354906211E+03  0.41800000000E+01 0.  1.
         -5    1    3    3    0  502 -0.52303608992E+02  0.37149733870E+02 -0.21659373873E+02  0.67840777684E+02  0.41800000000E+01 0.  1.
        -11    1    4    4    0    0  0.21336994697E+02 -0.32970067956E+02 -0.93055387760E+02  0.10100295993E+03  0.00000000000E+00 0.  1.
         11    1    4    4    0    0  0.31422808650E+02  0.46676484812E+02 -0.37407010891E+02  0.67567533636E+02  0.00000000000E+00 0. -1.
</event>
<event>
 8    1  0.6615242E-009  0.1211326E+03  0.7561462E-02  0.1241240E+00
         -3   -1    0    0    0  501 -0.00000000000E+00  0.00000000000E+00  0.16405686880E+02  0.16405686880E+02  0.00000000000E+00 0.  1.
          3   -1    0    0  501    0  0.00000000000E+00 -0.00000000000E+00 -0.17595059758E+04  0.17595059758E+04  0.00000000000E+00 0. -1.
         25    2    1    2    0    0  0.89697680962E+01  0.10635564478E+03 -0.13239126949E+04  0.13340875540E+04  0.12511114208E+03 0.  0.
         23    2    1    2    0    0 -0.89697680962E+01 -0.10635564478E+03 -0.41918759401E+03  0.44182410875E+03  0.89990689466E+02 0.  0.
          5    1    3    3  502    0 -0.19579854935E+02  0.38278568752E+02 -0.10337558782E+04  0.10346580632E+04  0.41800000000E+01 0.  1.
         -5    1    3    3    0  502  0.28549623031E+02  0.68077076032E+02 -0.29015681670E+03  0.29942949075E+03  0.41800000000E+01 0.  1.
        -11    1    4    4    0    0 -0.36954177681E+02 -0.49654482170E+02 -0.30576618267E+03  0.31196816714E+03  0.00000000000E+00 0. -1.
         11    1    4    4    0    0  0.27984409585E+02 -0.56701162614E+02 -0.11342141134E+03  0.12985594161E+03  0.00000000000E+00 0.  1.
</event>
<event>
 8    1  0.6615242E-009  0.1489668E+03  0.7561462E-02  0.1201748E+00
          1   -1    0    0  501    0  0.00000000000E+00  0.00000000000E+00  0.18713910313E+04  0.18713910313E+04  0.00000000000E+00 0. -1.
         -1   -1    0    0    0  501 -0.00000000000E+00 -0.00000000000E+00 -0.17733078101E+02  0.17733078101E+02  0.00000000000E+00 0.  1.
         25    2    1    2    0    0 -0.16708632639E+02  0.11733971547E+03  0.13901942184E+04  0.14008338413E+04  0.12509076283E+03 0.  0.
         23    2    1    2    0    0  0.16708632639E+02 -0.11733971547E+03  0.46346373485E+03  0.48829026811E+03  0.97882404843E+02 0.  0.
          5    1    3    3  502    0 -0.46387747516E+02  0.98128759425E+02  0.59436945727E+03  0.60421320797E+03  0.41800000000E+01 0.  1.
         -5    1    3    3    0  502  0.29679114876E+02  0.19210956045E+02  0.79582476112E+03  0.79662063337E+03  0.41800000000E+01 0.  1.
        -11    1    4    4    0    0 -0.38732748909E+02 -0.73314164886E+02  0.24819790510E+03  0.26168185399E+03  0.00000000000E+00 0. -1.
         11    1    4    4    0    0  0.55441381549E+02 -0.44025550584E+02  0.21526582975E+03  0.22660841412E+03  0.00000000000E+00 0.  1.
</event>
<event>
 8    1  0.6615242E-009  0.3817296E+03  0.7561462E-02  0.1050296E+00
         -2   -1    0    0    0  501 -0.00000000000E+00  0.00000000000E+00  0.15729296929E+03  0.15729296929E+03  0.00000000000E+00 0.  1.
          2   -1    0    0  501    0  0.00000000000E+00 -0.00000000000E+00 -0.11014794500E+04  0.11014794500E+04  0.00000000000E+00 0. -1.
         25    2    1    2    0    0  0.37170182307E+03 -0.52712656121E+02 -0.69349828842E+03  0.79845320893E+03  0.12508709531E+03 0.  0.
         23    2    1    2    0    0 -0.37170182307E+03  0.52712656121E+02 -0.25068819230E+03  0.46031921037E+03  0.90046300830E+02 0.  0.
          5    1    3    3  502    0  0.33330124012E+03 -0.77101574152E+02 -0.65390854300E+03  0.73800286207E+03  0.41800000000E+01 0. -1.
         -5    1    3    3    0  502  0.38400582945E+02  0.24388918031E+02 -0.39589745421E+02  0.60450346862E+02  0.41800000000E+01 0. -1.
        -11    1    4    4    0    0 -0.76698663580E+02  0.16237631183E+02 -0.99963985585E+02  0.12703993103E+03  0.00000000000E+00 0. -1.
         11    1    4    4    0    0 -0.29500315949E+03  0.36475024938E+02 -0.15072420672E+03  0.33327927935E+03  0.00000000000E+00 0.  1.
</event>
<event>
 8    1  0.6615242E-009  0.1551766E+03  0.7561462E-02  0.1194252E+00
         -1   -1    0    0    0  501 -0.00000000000E+00  0.00000000000E+00  0.42329840368E+03  0.42329840368E+03  0.00000000000E+00 0.  1.
          1   -1    0    0  501    0  0.00000000000E+00 -0.00000000000E+00 -0.65482483856E+02  0.65482483856E+02  0.00000000000E+00 0. -1.
         25    2    1    2    0    0  0.54157619269E+02  0.11321656887E+03  0.19654738184E+03  0.26463016567E+03  0.12508881677E+03 0.  0.
         23    2    1    2    0    0 -0.54157619269E+02 -0.11321656887E+03  0.16126853798E+03  0.22415072187E+03  0.92113872887E+02 0.  0.
          5    1    3    3  502    0 -0.29052590315E+02  0.21114163405E+02  0.10295282302E+03  0.10911744621E+03  0.41800000000E+01 0.  1.
         -5    1    3    3    0  502  0.83210209584E+02  0.92102405467E+02  0.93594558822E+02  0.15551271946E+03  0.41800000000E+01 0.  1.
        -11    1    4    4    0    0 -0.34556837242E+02  0.54781655024E+00  0.14644544032E+02  0.37535819866E+02  0.00000000000E+00 0. -1.
         11    1    4    4    0    0 -0.19600782027E+02 -0.11376438542E+03  0.14662399395E+03  0.18661490200E+03  0.00000000000E+00 0.  1.
</event>
<event>
 8    1  0.6615242E-009  0.7848027E+02  0.7561462E-02  0.1333420E+00
         -2   -1    0    0    0  501 -0.00000000000E+00  0.00000000000E+00  0.43122312799E+02  0.43122312799E+02  0.00000000000E+00 0.  1.
          2   -1    0    0  501    0  0.00000000000E+00 -0.00000000000E+00 -0.61042014014E+03  0.61042014014E+03  0.00000000000E+00 0. -1.
         25    2    1    2    0    0  0.19679812041E+01 -0.26533556323E+01 -0.52418552102E+03  0.53891468332E+03  0.12509061596E+03 0.  0.
         23    2    1    2    0    0 -0.19679812041E+01  0.26533556323E+01 -0.43112306323E+02  0.11462776962E+03  0.10615998006E+03 0.  0.
          5    1    3    3  502    0 -0.16746577897E+02  0.57389617650E+02 -0.20570916478E+03  0.21426093662E+03  0.41800000000E+01 0.  1.
         -5    1    3    3    0  502  0.18714559101E+02 -0.60042973283E+02 -0.31847635624E+03  0.32465374670E+03  0.41800000000E+01 0.  1.
        -11    1    4    4    0    0  0.57418532002E+01  0.16874282037E+02  0.32628009887E+02  0.37179259024E+02  0.00000000000E+00 0.  1.
         11    1    4    4    0    0 -0.77098344043E+01 -0.14220926405E+02 -0.75740316209E+02  0.77448510598E+02  0.00000000000E+00 0. -1.
</event>
<event>
 8    1  0.6615242E-009  0.1695187E+03  0.7561462E-02  0.1178351E+00
          2   -1    0    0  501    0  0.00000000000E+00  0.00000000000E+00  0.17125847340E+04  0.17125847340E+04  0.00000000000E+00 0. -1.
         -2   -1    0    0    0  501 -0.00000000000E+00 -0.00000000000E+00 -0.23141186844E+02  0.23141186844E+02  0.00000000000E+00 0.  1.
         25    2    1    2    0    0  0.73198883164E+02 -0.10944518652E+03  0.13300442269E+04  0.13423862477E+04  0.12508743856E+03 0.  0.
         23    2    1    2    0    0 -0.73198883164E+02  0.10944518652E+03  0.35939932030E+03  0.39333967314E+03  0.90619543607E+02 0.  0.
          5    1    3    3  502    0 -0.34669066357E+02 -0.14371475896E+02  0.27301947248E+03  0.27561855568E+03  0.41800000000E+01 0. -1.
         -5    1    3    3    0  502  0.10786794952E+03 -0.95073710626E+02  0.10570247544E+04  0.10667676920E+04  0.41800000000E+01 0. -1.
        -11    1    4    4    0    0 -0.50024508231E+02  0.48072279429E+01  0.84882074425E+02  0.98643435783E+02  0.00000000000E+00 0.  1.
         11    1    4    4    0    0 -0.23174374933E+02  0.10463795858E+03  0.27451724588E+03  0.29469623736E+03  0.00000000000E+00 0. -1.
</event>
<event>
 8    1  0.6615242E-009  0.1058313E+03  0.7561462E-02  0.1268490E+00
         -2   -1    0    0    0  501 -0.00000000000E+00  0.00000000000E+00  0.20392254434E+02  0.20392254434E+02  0.00000000000E+00 0.  1.
          2   -1    0    0  501    0  0.00000000000E+00 -0.00000000000E+00 -0.87135081795E+03  0.87135081795E+03  0.00000000000E+00 0. -1.
         25    2    1    2    0    0  0.65516266691E+02  0.16356401563E+02 -0.33446411534E+03  0.36342353577E+03  0.12510199372E+03 0.  0.
         23    2    1    2    0    0 -0.65516266691E+02 -0.16356401563E+02 -0.51649444818E+03  0.52831953661E+03  0.88289890090E+02 0.  0.
          5    1    3    3  502    0 -0.13471708953E+02 -0.10247113277E+02  0.12626770313E+01  0.17480189527E+02  0.41800000000E+01 0. -1.
         -5    1    3    3    0  502  0.78987975644E+02  0.26603514840E+02 -0.33572679237E+03  0.34594334625E+03  0.41800000000E+01 0. -1.
        -11    1    4    4    0    0 -0.35064095856E+02 -0.52738378795E+02 -0.31656134863E+03  0.32283419097E+03  0.00000000000E+00 0.  1.
         11    1    4    4    0    0 -0.30452170835E+02  0.36381977232E+02 -0.19993309955E+03  0.20548534564E+03  0.00000000000E+00 0. -1.
</event>
<event>
 8    1  0.6615242E-009  0.1491051E+03  0.7561462E-02  0.1201577E+00
          1   -1    0    0  501    0  0.00000000000E+00  0.00000000000E+00  0.36069147241E+03  0.36069147241E+03  0.00000000000E+00 0. -1.
         -1   -1    0    0    0  501 -0.00000000000E+00 -0.00000000000E+00 -0.88360034671E+02  0.88360034671E+02  0.00000000000E+00 0.  1.
         25    2    1    2    0    0 -0.11741730749E+03  0.48586625488E+02  0.66022525696E+02  0.19014183088E+03  0.12508979846E+03 0.  0.
         23    2    1    2    0    0  0.11741730749E+03 -0.48586625488E+02  0.20630891205E+03  0.25890967620E+03  0.91232499521E+02 0.  0.
          5    1    3    3  502    0  0.35662472351E+01 -0.26390289095E+02  0.35395618938E+02  0.44491434208E+02  0.41800000000E+01 0.  1.
         -5    1    3    3    0  502 -0.12098355472E+03  0.74976914583E+02  0.30626906758E+02  0.14565039667E+03  0.41800000000E+01 0.  1.
        -11    1    4    4    0    0  0.68453301615E+02 -0.16805330759E+02  0.18290882205E+03  0.19602017965E+03  0.00000000000E+00 0. -1.
         11    1    4    4    0    0  0.48964005871E+02 -0.31781294729E+02  0.23400089993E+02  0.62889496558E+02  0.00000000000E+00 0.  1.
</event>
<event>
 8    1  0.6615242E-009  0.1790790E+03  0.7561462E-02  0.1168697E+00
          1   -1    0    0  501    0  0.00000000000E+00  0.00000000000E+00  0.68519419463E+03  0.68519419463E+03  0.00000000000E+00 0. -1.
         -1   -1    0    0    0  501 -0.00000000000E+00 -0.00000000000E+00 -0.48001634201E+02  0.48001634201E+02  0.00000000000E+00 0.  1.
         25    2    1    2    0    0 -0.10753922019E+03 -0.96219508623E+02  0.35782355765E+03  0.40559644620E+03  0.12509157062E+03 0.  0.
         23    2    1    2    0    0  0.10753922019E+03  0.96219508623E+02  0.27936900278E+03  0.32759938263E+03  0.91931703276E+02 0.  0.
          5    1    3    3  502    0  0.11988435596E+02 -0.62757526150E+02  0.90808756705E+02  0.11111225122E+03  0.41800000000E+01 0.  1.
         -5    1    3    3    0  502 -0.11952765579E+03 -0.33461982473E+02  0.26701480095E+03  0.29448419498E+03  0.41800000000E+01 0.  1.
        -11    1    4    4    0    0  0.90208972349E+02  0.20833969789E+02  0.17101675728E+03  0.19446964868E+03  0.00000000000E+00 0.  1.
         11    1    4    4    0    0  0.17330247845E+02  0.75385538835E+02  0.10835224550E+03  0.13312973394E+03  0.00000000000E+00 0. -1.
</event>
<event>
 8    1  0.6615242E-009  0.1495630E+03  0.7561462E-02  0.1201011E+00
         -2   -1    0    0    0  501 -0.00000000000E+00  0.00000000000E+00  0.52739968118E+02  0.52739968118E+02  0.00000000000E+00 0. -1.
          2   -1    0    0  501    0  0.00000000000E+00 -0.00000000000E+00 -0.61178849280E+03  0.61178849280E+03  0.00000000000E+00 0.  1.
         25    2    1    2    0    0  0.76822501168E+02  0.10913904329E+03 -0.38869011427E+03  0.42958124599E+03  0.12508802708E+03 0.  0.
         23    2    1    2    0    0 -0.76822501168E+02 -0.10913904329E+03 -0.17035841041E+03  0.23494721493E+03  0.91461348934E+02 0.  0.
          5    1    3    3  502    0 -0.11745352225E+02 -0.79620260675E+01 -0.13981013489E+03  0.14059051667E+03  0.41800000000E+01 0.  1.
         -5    1    3    3    0  502  0.88567853393E+02  0.11710106936E+03 -0.24887997938E+03  0.28899072932E+03  0.41800000000E+01 0.  1.
        -11    1    4    4    0    0 -0.36045424075E+02 -0.78712867644E+02 -0.16158912483E+03  0.18331948449E+03  0.00000000000E+00 0.  1.
         11    1    4    4    0    0 -0.40777077094E+02 -0.30426175646E+02 -0.87692855792E+01  0.51627730439E+02  0.00000000000E+00 0. -1.
</event>
<event>
 8    1  0.6615242E-009  0.1032134E+03  0.7561462E-02  0.1273680E+00
         -1   -1    0    0    0  501 -0.00000000000E+00  0.00000000000E+00  0.70122521256E+02  0.70122521256E+02  0.00000000000E+00 0.  1.
          1   -1    0    0  501    0  0.00000000000E+00 -0.00000000000E+00 -0.24356332200E+03  0.24356332200E+03  0.00000000000E+00 0. -1.
         25    2    1    2    0    0 -0.28795402687E+02  0.51651847483E+02 -0.14739678646E+03  0.20215801818E+03  0.12507982688E+03 0.  0.
         23    2    1    2    0    0  0.28795402687E+02 -0.51651847483E+02 -0.26044014282E+02  0.11152782507E+03  0.90901465997E+02 0.  0.
          5    1    3    3  502    0  0.22240703356E+02 -0.34916242993E+01  0.12028193422E+02  0.25864844152E+02  0.41800000000E+01 0. -1.
         -5    1    3    3    0  502 -0.51036106042E+02  0.55143471782E+02 -0.15942497988E+03  0.17629317403E+03  0.41800000000E+01 0. -1.
        -11    1    4    4    0    0  0.11158694875E+02 -0.76774408359E+02 -0.21440981463E+02  0.80489390209E+02  0.00000000000E+00 0.  1.
         11    1    4    4    0    0  0.17636707812E+02  0.25122560876E+02 -0.46030328192E+01  0.31038434860E+02  0.00000000000E+00 0. -1.
</event>
<event>
 8    1  0.6615242E-009  0.6933150E+02  0.7561462E-02  0.1362381E+00
         -1   -1    0    0    0  501 -0.00000000000E+00  0.00000000000E+00  0.75756236085E+02  0.75756236085E+02  0.00000000000E+00 0.  1.
          1   -1    0    0  501    0  0.00000000000E+00 -0.00000000000E+00 -0.22805867065E+03  0.22805867065E+03  0.00000000000E+00 0. -1.
         25    2    1    2    0    0 -0.28707376296E+02 -0.35378034770E+02 -0.17696552246E+02  0.13428263542E+03  0.12507173708E+03 0.  0.
         23    2    1    2    0    0  0.28707376296E+02  0.35378034770E+02 -0.13460588231E+03  0.16953227131E+03  0.92448518986E+02 0.  0.
          5    1    3    3  502    0 -0.29275235348E+02 -0.59338290374E+00  0.49978172273E+02  0.58074793256E+02  0.41800000000E+01 0.  1.
         -5    1    3    3    0  502  0.56785905182E+00 -0.34784651867E+02 -0.67674724519E+02  0.76207842169E+02  0.41800000000E+01 0.  1.
        -11    1    4    4    0    0 -0.93687484841E+01  0.34721871818E+02 -0.73585972069E+01  0.36708728983E+02  0.00000000000E+00 0.  1.
         11    1    4    4    0    0  0.38076124780E+02  0.65616295237E+00 -0.12724728511E+03  0.13282354232E+03  0.00000000000E+00 0. -1.
</event>
<event>
 8    1  0.6615242E-009  0.1133886E+03  0.7561462E-02  0.1254420E+00
          3   -1    0    0  501    0  0.00000000000E+00  0.00000000000E+00  0.33197610378E+02  0.33197610378E+02  0.00000000000E+00 0. -1.
         -3   -1    0    0    0  501 -0.00000000000E+00 -0.00000000000E+00 -0.46555444050E+03  0.46555444050E+03  0.00000000000E+00 0.  1.
         25    2    1    2    0    0  0.61240989840E+02  0.37346901089E+02 -0.21686230725E+03  0.26042851723E+03  0.12509397437E+03 0.  0.
         23    2    1    2    0    0 -0.61240989840E+02 -0.37346901089E+02 -0.21549452287E+03  0.23832353365E+03  0.72214731494E+02 0.  0.
          5    1    3    3  502    0  0.26333258768E+02  0.80929218310E+02 -0.15580406906E+03  0.17758197890E+03  0.41800000000E+01 0. -1.
         -5    1    3    3    0  502  0.34907731071E+02 -0.43582317221E+02 -0.61058238190E+02  0.82846538333E+02  0.41800000000E+01 0. -1.
        -11    1    4    4    0    0 -0.87664919558E+01  0.11107184087E+02 -0.34378303839E+01  0.14561579492E+02  0.00000000000E+00 0. -1.
         11    1    4    4    0    0 -0.52474497884E+02 -0.48454085176E+02 -0.21205669249E+03  0.22376195416E+03  0.00000000000E+00 0.  1.
</event>
<event>
 8    1  0.6615242E-009  0.7271870E+02  0.7561462E-02  0.1351085E+00
         -1   -1    0    0    0  501 -0.00000000000E+00  0.00000000000E+00  0.43106885517E+03  0.43106885517E+03  0.00000000000E+00 0.  1.
          1   -1    0    0  501    0  0.00000000000E+00 -0.00000000000E+00 -0.28812555383E+02  0.28812555383E+02  0.00000000000E+00 0. -1.
         25    2    1    2    0    0 -0.19750680758E+02 -0.38714501169E+01  0.21263681185E+03  0.24751826045E+03  0.12508316427E+03 0.  0.
         23    2    1    2    0    0  0.19750680758E+02  0.38714501169E+01  0.18961948793E+03  0.21236315010E+03  0.93474487436E+02 0.  0.
          5    1    3    3  502    0 -0.15543459038E+02  0.20841880004E+02  0.21959472714E+03  0.22116803492E+03  0.41800000000E+01 0.  1.
         -5    1    3    3    0  502 -0.42072217192E+01 -0.24713330121E+02 -0.69579152898E+01  0.26350225529E+02  0.41800000000E+01 0.  1.
        -11    1    4    4    0    0  0.18112961301E+02  0.47082688296E+02  0.12296355919E+03  0.13290935179E+03  0.00000000000E+00 0.  1.
         11    1    4    4    0    0  0.16377194570E+01 -0.43211238179E+02  0.66655928739E+02  0.79453798311E+02  0.00000000000E+00 0. -1.
</event>
<event>
 8    1  0.6615242E-009  0.1152919E+03  0.7561462E-02  0.1251072E+00
          1   -1    0    0  501    0  0.00000000000E+00  0.00000000000E+00  0.18647330432E+03  0.18647330432E+03  0.00000000000E+00 0. -1.
         -1   -1    0    0    0  501 -0.00000000000E+00 -0.00000000000E+00 -0.10539180701E+03  0.10539180701E+03  0.00000000000E+00 0.  1.
         25    2    1    2    0    0 -0.17855782772E+02  0.84472033657E+02  0.66276786070E+02  0.16582055037E+03  0.12509791807E+03 0.  0.
         23    2    1    2    0    0  0.17855782772E+02 -0.84472033657E+02  0.14804711233E+02  0.12604456095E+03  0.90629456707E+02 0.  0.
          5    1    3    3  502    0 -0.11915285166E+02  0.10202408198E+03  0.89160010912E+02  0.13608037063E+03  0.41800000000E+01 0. -1.
         -5    1    3    3    0  502 -0.59404976063E+01 -0.17552048323E+02 -0.22883224842E+02  0.29740179746E+02  0.41800000000E+01 0. -1.
        -11    1    4    4    0    0 -0.67694408401E+01 -0.83880521502E+02 -0.16962963094E+02  0.85845846339E+02  0.00000000000E+00 0.  1.
         11    1    4    4    0    0  0.24625223612E+02 -0.59151215523E+00  0.31767674328E+02  0.40198714616E+02  0.00000000000E+00 0. -1.
</event>
<event>
 8    1  0.6615242E-009  0.1104205E+03  0.7561462E-02  0.1259793E+00
         -1   -1    0    0    0  501 -0.00000000000E+00  0.00000000000E+00  0.36551996572E+02  0.36551996572E+02  0.00000000000E+00 0.  1.
          1   -1    0    0  501    0  0.00000000000E+00 -0.00000000000E+00 -0.34842401382E+03  0.34842401382E+03  0.00000000000E+00 0. -1.
         25    2    1    2    0    0  0.24979082723E+02  0.93851972600E+01 -0.16819313523E+03  0.21132125525E+03  0.12512276244E+03 0.  0.
         23    2    1    2    0    0 -0.24979082723E+02 -0.93851972600E+01 -0.14367888201E+03  0.17365475514E+03  0.93810001302E+02 0.  0.
          5    1    3    3  502    0  0.52325285795E+02  0.52071722437E+02 -0.12174429288E+03  0.14243786386E+03  0.41800000000E+01 0.  1.
         -5    1    3    3    0  502 -0.27346203073E+02 -0.42686525177E+02 -0.46448842354E+02  0.68883391396E+02  0.41800000000E+01 0.  1.
        -11    1    4    4    0    0  0.10731498373E+02 -0.44605922396E+02 -0.53604515268E+02  0.70557050868E+02  0.00000000000E+00 0.  1.
         11    1    4    4    0    0 -0.35710581095E+02  0.35220725136E+02 -0.90074366742E+02  0.10309770427E+03  0.00000000000E+00 0. -1.
</event>
<event>
 8    1  0.6615242E-009  0.8390770E+02  0.7561462E-02  0.1318314E+00
          1   -1    0    0  501    0  0.00000000000E+00  0.00000000000E+00  0.23580968027E+03  0.23580968027E+03  0.00000000000E+00 0. -1.
         -1   -1    0    0    0  501 -0.00000000000E+00 -0.00000000000E+00 -0.63916738789E+02  0.63916738789E+02  0.00000000000E+00 0.  1.
         25    2    1    2    0    0 -0.39658430158E+02  0.34883128817E+01  0.90283051612E+02  0.15932879873E+03  0.12509867020E+03 0.  0.
         23    2    1    2    0    0  0.39658430158E+02 -0.34883128817E+01  0.81609889867E+02  0.14039762033E+03  0.10708108265E+03 0.  0.
          5    1    3    3  502    0  0.20370292211E+02  0.31050153248E+02  0.85095808291E+02  0.92939925813E+02  0.41800000000E+01 0.  1.
         -5    1    3    3    0  502 -0.60028722368E+02 -0.27561840366E+02  0.51872433206E+01  0.66388872914E+02  0.41800000000E+01 0.  1.
        -11    1    4    4    0    0  0.33818801184E+02  0.20515729316E+02 -0.13759951397E+02  0.41880099395E+02  0.00000000000E+00 0.  1.
         11    1    4    4    0    0  0.58396289732E+01 -0.24004042198E+02  0.95369841264E+02  0.98517520934E+02  0.00000000000E+00 0. -1.
</event>
<event>
 8    1  0.6615242E-009  0.1616361E+03  0.7561462E-02  0.1186862E+00
         -1   -1    0    0    0  501 -0.00000000000E+00  0.00000000000E+00  0.32958739830E+03  0.32958739830E+03  0.00000000000E+00 0.  1.
          1   -1    0    0  501    0  0.00000000000E+00 -0.00000000000E+00 -0.12038455887E+03  0.12038455887E+03  0.00000000000E+00 0. -1.
         25    2    1    2    0    0  0.63290930305E+02  0.14795470418E+03  0.16036967636E+03  0.25935206000E+03  0.12509485034E+03 0.  0.
         23    2    1    2    0    0 -0.63290930305E+02 -0.14795470418E+03  0.48833163071E+02  0.19061989717E+03  0.89749267594E+02 0.  0.
          5    1    3    3  502    0  0.47548186583E+01  0.28943072055E+02  0.11555808894E+03  0.11929565809E+03  0.41800000000E+01 0. -1.
         -5    1    3    3    0  502  0.58536111647E+02  0.11901163212E+03  0.44811587418E+02  0.14005640190E+03  0.41800000000E+01 0. -1.
        -11    1    4    4    0    0 -0.16177356654E+02 -0.34604557882E+02  0.55854581038E+02  0.67667691829E+02  0.00000000000E+00 0.  1.
         11    1    4    4    0    0 -0.47113573651E+02 -0.11335014630E+03 -0.70214179668E+01  0.12295220534E+03  0.00000000000E+00 0. -1.
</event>
<event>
 8    1  0.6615242E-009  0.1135467E+03  0.7561462E-02  0.1254139E+00
         -2   -1    0    0    0  501 -0.00000000000E+00  0.00000000000E+00  0.60971970982E+03  0.60971970982E+03  0.00000000000E+00 0.  1.
          2   -1    0    0  501    0  0.00000000000E+00 -0.00000000000E+00 -0.24153941548E+02  0.24153941548E+02  0.00000000000E+00 0. -1.
         25    2    1    2    0    0 -0.47165321097E+02 -0.25191527386E+02  0.29464021339E+03  0.32452938074E+03  0.12508910045E+03 0.  0.
         23    2    1    2    0    0  0.47165321097E+02  0.25191527386E+02  0.29092555489E+03  0.30934427064E+03  0.90537388528E+02 0.  0.
          5    1    3    3  502    0 -0.82790648482E+02  0.12351909055E+02  0.17125654753E+03  0.19066499051E+03  0.41800000000E+01 0.  1.
         -5    1    3    3    0  502  0.35625327385E+02 -0.37543436441E+02  0.12338366585E+03  0.13386439023E+03  0.41800000000E+01 0.  1.
        -11    1    4    4    0    0  0.22937287180E+02 -0.26030644105E+02  0.44171567568E+02  0.56167970918E+02  0.00000000000E+00 0. -1.
         11    1    4    4    0    0  0.24228033917E+02  0.51222171491E+02  0.24675398732E+03  0.25317629972E+03  0.00000000000E+00 0.  1.
</event>
<event>
 8    1  0.6615242E-009  0.1771777E+03  0.7561462E-02  0.1170563E+00
         -2   -1    0    0    0  501 -0.00000000000E+00  0.00000000000E+00  0.17435795284E+02  0.17435795284E+02  0.00000000000E+00 0.  1.
          2   -1    0    0  501    0  0.00000000000E+00 -0.00000000000E+00 -0.22991772711E+04  0.22991772711E+04  0.00000000000E+00 0. -1.
         25    2    1    2    0    0  0.15990867862E+03 -0.22361123677E+02 -0.14763648286E+04  0.14904267149E+04  0.12509148686E+03 0.  0.
         23    2    1    2    0    0 -0.15990867862E+03  0.22361123677E+02 -0.80537664718E+03  0.82618635142E+03  0.88778027137E+02 0.  0.
          5    1    3    3  502    0  0.17464074915E+03 -0.26220895567E+02 -0.11320005268E+04  0.11457004808E+04  0.41800000000E+01 0. -1.
         -5    1    3    3    0  502 -0.14732070523E+02  0.38597718903E+01 -0.34436430180E+03  0.34472623412E+03  0.41800000000E+01 0. -1.
        -11    1    4    4    0    0 -0.13468893600E+03  0.14337153647E+02 -0.77097285720E+03  0.78278081861E+03  0.00000000000E+00 0. -1.
         11    1    4    4    0    0 -0.25219742628E+02  0.80239700296E+01 -0.34403789984E+02  0.43405532810E+02  0.00000000000E+00 0.  1.
</event>
<event>
 8    1  0.6615242E-009  0.1700322E+03  0.7561462E-02  0.1177814E+00
         -3   -1    0    0    0  501 -0.00000000000E+00  0.00000000000E+00  0.12142762235E+04  0.12142762235E+04  0.00000000000E+00 0.  1.
          3   -1    0    0  501    0  0.00000000000E+00 -0.00000000000E+00 -0.52639870755E+02  0.52639870755E+02  0.00000000000E+00 0. -1.
         25    2    1    2    0    0 -0.14698527348E+03  0.15796451491E+02  0.10280962953E+04  0.10461757216E+04  0.12508976603E+03 0.  0.
         23    2    1    2    0    0  0.14698527348E+03 -0.15796451491E+02  0.13354005751E+03  0.22074037272E+03  0.95074532272E+02 0.  0.
          5    1    3    3  502    0  0.84835773468E+01 -0.28694427884E+02  0.11746491816E+03  0.12128817203E+03  0.41800000000E+01 0. -1.
         -5    1    3    3    0  502 -0.15546885083E+03  0.44490879376E+02  0.91063137711E+03  0.92488754955E+03  0.41800000000E+01 0. -1.
        -11    1    4    4    0    0  0.92464799502E+02 -0.14160721197E+02  0.21283251073E+02  0.95933528800E+02  0.00000000000E+00 0. -1.
         11    1    4    4    0    0  0.54520473979E+02 -0.16357302943E+01  0.11225680644E+03  0.12480684392E+03  0.00000000000E+00 0.  1.
</event>
<event>
 8    1  0.6615242E-009  0.1451960E+03  0.7561462E-02  0.1206503E+00
         -2   -1    0    0    0  501 -0.00000000000E+00  0.00000000000E+00  0.36033758980E+02  0.36033758980E+02  0.00000000000E+00 0.  1.
          2   -1    0    0  501    0  0.00000000000E+00 -0.00000000000E+00 -0.62957429613E+03  0.62957429613E+03  0.00000000000E+00 0. -1.
         25    2    1    2    0    0  0.67451801204E+02 -0.69850213488E+02 -0.40604533318E+03  0.43582979386E+03  0.12508396703E+03 0.  0.
         23    2    1    2    0    0 -0.67451801204E+02  0.69850213488E+02 -0.18749520397E+03  0.22977826125E+03  0.90635533991E+02 0.  0.
          5    1    3    3  502    0  0.67648356413E+01  0.35413460680E+02 -0.79749369730E+02  0.87620263472E+02  0.41800000000E+01 0. -1.
         -5    1    3    3    0  502  0.60686965562E+02 -0.10526367417E+03 -0.32629596345E+03  0.34820953039E+03  0.41800000000E+01 0. -1.
        -11    1    4    4    0    0 -0.83741186350E+02  0.77880724301E+02 -0.15608444272E+03  0.19349508202E+03  0.00000000000E+00 0. -1.
         11    1    4    4    0    0  0.16289385147E+02 -0.80305108129E+01 -0.31410761249E+02  0.36283179225E+02  0.00000000000E+00 0.  1.
</event>
<event>
 8    1  0.6615242E-009  0.1139049E+03  0.7561462E-02  0.1253505E+00
         -2   -1    0    0    0  501 -0.00000000000E+00  0.00000000000E+00  0.24956735581E+02  0.24956735581E+02  0.00000000000E+00 0. -1.
          2   -1    0    0  501    0  0.00000000000E+00 -0.00000000000E+00 -0.60296698761E+03  0.60296698761E+03  0.00000000000E+00 0.  1.
         25    2    1    2    0    0 -0.51182728452E+02  0.32967321814E+01 -0.37554905217E+03  0.39914344679E+03  0.12509140817E+03 0.  0.
         23    2    1    2    0    0  0.51182728452E+02 -0.32967321814E+01 -0.20246119986E+03  0.22878027640E+03  0.93377391724E+02 0.  0.
          5    1    3    3  502    0 -0.11847226607E+02  0.62554703838E+02 -0.16818881670E+03  0.17988440236E+03  0.41800000000E+01 0. -1.
         -5    1    3    3    0  502 -0.39335501845E+02 -0.59257971656E+02 -0.20736023547E+03  0.21925904443E+03  0.41800000000E+01 0. -1.
        -11    1    4    4    0    0  0.29796405252E+02  0.36778344252E+02 -0.15906464474E+03  0.16595792713E+03  0.00000000000E+00 0.  1.
         11    1    4    4    0    0  0.21386323200E+02 -0.40075076433E+02 -0.43396555126E+02  0.62822349271E+02  0.00000000000E+00 0. -1.
</event>
<event>
 8    1  0.6615242E-009  0.8748718E+02  0.7561462E-02  0.1309054E+00
         -1   -1    0    0    0  501 -0.00000000000E+00  0.00000000000E+00  0.45070252589E+03  0.45070252589E+03  0.00000000000E+00 0.  1.
          1   -1    0    0  501    0  0.00000000000E+00 -0.00000000000E+00 -0.35010860505E+02  0.35010860505E+02  0.00000000000E+00 0. -1.
         25    2    1    2    0    0 -0.86962736519E+01 -0.13247613998E+02  0.34616910463E+03  0.36841822734E+03  0.12509123385E+03 0.  0.
         23    2    1    2    0    0  0.86962736519E+01  0.13247613998E+02  0.69522560758E+02  0.11729515905E+03  0.93132397324E+02 0.  0.
          5    1    3    3  502    0 -0.11969931555E+02 -0.66998135371E+02  0.23706656375E+03  0.24667804412E+03  0.41800000000E+01 0.  1.
         -5    1    3    3    0  502  0.32736579036E+01  0.53750521373E+02  0.10910254088E+03  0.12174018322E+03  0.41800000000E+01 0.  1.
        -11    1    4    4    0    0  0.60374115117E+01 -0.19247042705E+02 -0.16014100709E+02  0.25755589921E+02  0.00000000000E+00 0. -1.
         11    1    4    4    0    0  0.26588621402E+01  0.32494656704E+02  0.85536661467E+02  0.91539569133E+02  0.00000000000E+00 0.  1.
</event>
<event>
 8    1  0.6615242E-009  0.1199268E+03  0.7561462E-02  0.1243218E+00
          2   -1    0    0  501    0  0.00000000000E+00  0.00000000000E+00  0.69846022003E+03  0.69846022003E+03  0.00000000000E+00 0. -1.
         -2   -1    0    0    0  501 -0.00000000000E+00 -0.00000000000E+00 -0.26188354089E+02  0.26188354089E+02  0.00000000000E+00 0.  1.
         25    2    1    2    0    0 -0.61116571263E+02 -0.49532979078E+02  0.39241289014E+03  0.41931920874E+03  0.12510783817E+03 0.  0.
         23    2    1    2    0    0  0.61116571263E+02  0.49532979078E+02  0.27985897580E+03  0.30532936538E+03  0.93360718327E+02 0.  0.
          5    1    3    3  502    0 -0.90289789652E+02 -0.26808142572E+02  0.17533840589E+03  0.19907775266E+03  0.41800000000E+01 0. -1.
         -5    1    3    3    0  502  0.29173218389E+02 -0.22724836506E+02  0.21707448425E+03  0.22024145608E+03  0.41800000000E+01 0. -1.
        -11    1    4    4    0    0 -0.56005931815E+01  0.40673647165E+02  0.44546949858E+02  0.60581704824E+02  0.00000000000E+00 0.  1.
         11    1    4    4    0    0  0.66717164444E+02  0.88593319131E+01  0.23531202594E+03  0.24474766056E+03  0.00000000000E+00 0. -1.
</event>
<event>
 8    1  0.6615242E-009  0.2549058E+03  0.7561462E-02  0.1110243E+00
         -2   -1    0    0    0  501 -0.00000000000E+00  0.00000000000E+00  0.24105683882E+03  0.24105683882E+03  0.00000000000E+00 0.  1.
          2   -1    0    0  501    0  0.00000000000E+00 -0.00000000000E+00 -0.29788299961E+03  0.29788299961E+03  0.00000000000E+00 0. -1.
         25    2    1    2    0    0  0.18051429057E+03 -0.15192298451E+03 -0.92767067671E+02  0.28269860243E+03  0.12508704428E+03 0.  0.
         23    2    1    2    0    0 -0.18051429057E+03  0.15192298451E+03  0.35940906877E+02  0.25624123600E+03  0.93283545818E+02 0.  0.
          5    1    3    3  502    0  0.11782679731E+03 -0.15398164810E+03 -0.34486709122E+02  0.19697793690E+03  0.41800000000E+01 0.  1.
         -5    1    3    3    0  502  0.62687493252E+02  0.20586635929E+01 -0.58280358549E+02  0.85720665528E+02  0.41800000000E+01 0.  1.
        -11    1    4    4    0    0 -0.46583378096E+02  0.98243002912E+02  0.24824913473E+02  0.11152566998E+03  0.00000000000E+00 0. -1.
         11    1    4    4    0    0 -0.13393091247E+03  0.53679981599E+02  0.11115993404E+02  0.14471556602E+03  0.00000000000E+00 0.  1.
</event>
<event>
 8    1  0.6615242E-009  0.1659545E+03  0.7561462E-02  0.1182134E+00
         -1   -1    0    0    0  501 -0.00000000000E+00  0.00000000000E+00  0.29036139197E+03  0.29036139197E+03  0.00000000000E+00 0.  1.
          1   -1    0    0  501    0  0.00000000000E+00 -0.00000000000E+00 -0.13797860559E+03  0.13797860559E+03  0.00000000000E+00 0. -1.
         25    2    1    2    0    0  0.41426760972E+02 -0.14880203806E+03  0.10113294988E+03  0.22301096185E+03  0.12509113676E+03 0.  0.
         23    2    1    2    0    0 -0.41426760972E+02  0.14880203806E+03  0.51249836502E+02  0.20532903571E+03  0.12520081513E+03 0.  0.
          5    1    3    3  502    0  0.44935427996E+02 -0.13305567569E+03  0.12887066998E+03  0.19065184894E+03  0.41800000000E+01 0. -1.
         -5    1    3    3    0  502 -0.35086670232E+01 -0.15746362368E+02 -0.27737720097E+02  0.32359112909E+02  0.41800000000E+01 0. -1.
        -11    1    4    4    0    0 -0.63081103695E+02  0.13514336738E+03  0.77996059988E+02  0.16830431000E+03  0.00000000000E+00 0.  1.
         11    1    4    4    0    0  0.21654342722E+02  0.13658670684E+02 -0.26746223486E+02  0.37024725716E+02  0.00000000000E+00 0. -1.
</event>
<event>
 8    1  0.6615242E-009  0.8311033E+02  0.7561462E-02  0.1320450E+00
          1   -1    0    0  501    0  0.00000000000E+00  0.00000000000E+00  0.25947183029E+03  0.25947183029E+03  0.00000000000E+00 0. -1.
         -1   -1    0    0    0  501 -0.00000000000E+00 -0.00000000000E+00 -0.58587445323E+02  0.58587445323E+02  0.00000000000E+00 0.  1.
         25    2    1    2    0    0  0.41331114926E+02  0.23866221276E+02  0.15189946062E+03  0.20247388582E+03  0.12507745890E+03 0.  0.
         23    2    1    2    0    0 -0.41331114926E+02 -0.23866221276E+02  0.48984924349E+02  0.11558538979E+03  0.93180480471E+02 0.  0.
          5    1    3    3  502    0  0.31266461265E+02  0.55205855156E+02  0.15654974474E+03  0.16896914814E+03  0.41800000000E+01 0.  1.
         -5    1    3    3    0  502  0.10064653661E+02 -0.31339633881E+02 -0.46502841199E+01  0.33504737687E+02  0.41800000000E+01 0.  1.
        -11    1    4    4    0    0 -0.20591905287E+02  0.14951181128E+02 -0.20945475257E+02  0.32958721368E+02  0.00000000000E+00 0.  1.
         11    1    4    4    0    0 -0.20739209639E+02 -0.38817402404E+02  0.69930399606E+02  0.82626668424E+02  0.00000000000E+00 0. -1.
</event>
<event>
 8    1  0.6615242E-009  0.2192166E+03  0.7561462E-02  0.1134468E+00
         -4   -1    0    0    0  501 -0.00000000000E+00  0.00000000000E+00  0.11472892580E+04  0.11472892580E+04  0.00000000000E+00 0.  1.
          4   -1    0    0  501    0  0.00000000000E+00 -0.00000000000E+00 -0.62319504093E+02  0.62319504093E+02  0.00000000000E+00 0. -1.
         25    2    1    2    0    0  0.19328063874E+03 -0.56029393604E+02  0.24454797137E+03  0.34051138246E+03  0.12509033946E+03 0.  0.
         23    2    1    2    0    0 -0.19328063874E+03  0.56029393604E+02  0.84042178253E+03  0.86909737962E+03  0.92329759320E+02 0.  0.
          5    1    3    3  502    0  0.20906163756E+03 -0.37949423558E+02  0.22183903259E+03  0.30720832643E+03  0.41800000000E+01 0.  1.
         -5    1    3    3    0  502 -0.15780998818E+02 -0.18079970046E+02  0.22708938776E+02  0.33303056030E+02  0.41800000000E+01 0.  1.
        -11    1    4    4    0    0 -0.71679779992E+02  0.26480563001E+02  0.16058476943E+03  0.17783891377E+03  0.00000000000E+00 0.  1.
         11    1    4    4    0    0 -0.12160085875E+03  0.29548830603E+02  0.67983701309E+03  0.69125846585E+03  0.00000000000E+00 0. -1.
</event>
<event>
 8    1  0.6615242E-009  0.1579646E+03  0.7561462E-02  0.1191014E+00
         -2   -1    0    0    0  501 -0.00000000000E+00  0.00000000000E+00  0.26482739050E+02  0.26482739050E+02  0.00000000000E+00 0.  1.
          2   -1    0    0  501    0  0.00000000000E+00 -0.00000000000E+00 -0.11178384192E+04  0.11178384192E+04  0.00000000000E+00 0. -1.
         25    2    1    2    0    0 -0.57503480994E+02 -0.11704233149E+03 -0.48627812365E+03  0.51876766216E+03  0.12509163072E+03 0.  0.
         23    2    1    2    0    0  0.57503480994E+02  0.11704233149E+03 -0.60507755649E+03  0.62555349608E+03  0.90513918262E+02 0.  0.
          5    1    3    3  502    0 -0.33871965457E+02  0.10549687262E+02 -0.21588919336E+03  0.21882463790E+03  0.41800000000E+01 0.  1.
         -5    1    3    3    0  502 -0.23631515537E+02 -0.12759201876E+03 -0.27038893029E+03  0.29994302426E+03  0.41800000000E+01 0.  1.
        -11    1    4    4    0    0  0.55173786354E+02  0.29049614102E+02 -0.15733381440E+03  0.16923934511E+03  0.00000000000E+00 0.  1.
         11    1    4    4    0    0  0.23296946402E+01  0.87992717393E+02 -0.44774374210E+03  0.45631415097E+03  0.00000000000E+00 0. -1.
</event>
<event>
 8    1  0.6615242E-009  0.9851346E+02  0.7561462E-02  0.1283453E+00
          1   -1    0    0  501    0  0.00000000000E+00  0.00000000000E+00  0.12084546773E+03  0.12084546773E+03  0.00000000000E+00 0. -1.
         -1   -1    0    0    0  501 -0.00000000000E+00 -0.00000000000E+00 -0.17835650694E+03  0.17835650694E+03  0.00000000000E+00 0.  1.
         25    2    1    2    0    0 -0.43047415202E+02  0.62631344892E+02 -0.95587998998E+02  0.17481771434E+03  0.12509357448E+03 0.  0.
         23    2    1    2    0    0  0.43047415202E+02 -0.62631344892E+02  0.38076959788E+02  0.12438426032E+03  0.90806519759E+02 0.  0.
          5    1    3    3  502    0  0.10529793866E+02  0.55387247285E+02 -0.10550043643E+03  0.11969310008E+03  0.41800000000E+01 0. -1.
         -5    1    3    3    0  502 -0.53577209068E+02  0.72440976069E+01  0.99124374302E+01  0.55124614261E+02  0.41800000000E+01 0. -1.
        -11    1    4    4    0    0 -0.37137378499E+01 -0.27575353354E+02  0.56605971696E+02  0.63074780960E+02  0.00000000000E+00 0. -1.
         11    1    4    4    0    0  0.46761153051E+02 -0.35055991538E+02 -0.18529011908E+02  0.61309479362E+02  0.00000000000E+00 0.  1.
</event>
<event>
 8    1  0.6615242E-009  0.1138284E+03  0.7561462E-02  0.1253640E+00
          3   -1    0    0  501    0  0.00000000000E+00  0.00000000000E+00  0.10962954156E+03  0.10962954156E+03  0.00000000000E+00 0. -1.
         -3   -1    0    0    0  501 -0.00000000000E+00 -0.00000000000E+00 -0.17934276164E+03  0.17934276164E+03  0.00000000000E+00 0.  1.
         25    2    1    2    0    0 -0.28586889168E+00 -0.76081439973E+02 -0.84332467994E+02  0.16897050205E+03  0.12510235080E+03 0.  0.
         23    2    1    2    0    0  0.28586889168E+00  0.76081439973E+02  0.14619247915E+02  0.12000180116E+03  0.91641926228E+02 0.  0.
          5    1    3    3  502    0  0.14852674609E+02  0.28759737338E+02  0.13462368934E+01  0.32665106590E+02  0.41800000000E+01 0.  1.
         -5    1    3    3    0  502 -0.15138543501E+02 -0.10484117731E+03 -0.85678704888E+02  0.13630539546E+03  0.41800000000E+01 0.  1.
        -11    1    4    4    0    0  0.21778477415E+02  0.22676018776E+02 -0.32787869888E+02  0.45426295445E+02  0.00000000000E+00 0.  1.
         11    1    4    4    0    0 -0.21492608523E+02  0.53405421197E+02  0.47407117803E+02  0.74575505716E+02  0.00000000000E+00 0. -1.
</event>
<event>
 8    1  0.6615242E-009  0.1026711E+03  0.7561462E-02  0.1274777E+00
          1   -1    0    0  501    0  0.00000000000E+00  0.00000000000E+00  0.14653121912E+04  0.14653121912E+04  0.00000000000E+00 0. -1.
         -1   -1    0    0    0  501 -0.00000000000E+00 -0.00000000000E+00 -0.21491746455E+02  0.21491746455E+02  0.00000000000E+00 0.  1.
         25    2    1    2    0    0  0.85954018664E+02 -0.35463759054E+02  0.11959239418E+04  0.12060384492E+04  0.12509554298E+03 0.  0.
         23    2    1    2    0    0 -0.85954018664E+02  0.35463759054E+02  0.24789650294E+03  0.28076548844E+03  0.93438813124E+02 0.  0.
          5    1    3    3  502    0  0.58175257444E+02 -0.37860690262E+02  0.11503429942E+04  0.11524427401E+04  0.41800000000E+01 0. -1.
         -5    1    3    3    0  502  0.27778761219E+02  0.23969312084E+01  0.45580947627E+02  0.53595709163E+02  0.41800000000E+01 0. -1.
        -11    1    4    4    0    0 -0.30334433876E+02 -0.13787838162E+02  0.16956061065E+03  0.17280359673E+03  0.00000000000E+00 0. -1.
         11    1    4    4    0    0 -0.55619584787E+02  0.49251597216E+02  0.78335892293E+02  0.10796189171E+03  0.00000000000E+00 0.  1.
</event>
<event>
 8    1  0.6615242E-009  0.1016080E+03  0.7561462E-02  0.1276950E+00
         -2   -1    0    0    0  501 -0.00000000000E+00  0.00000000000E+00  0.10228308652E+03  0.10228308652E+03  0.00000000000E+00 0.  1.
          2   -1    0    0  501    0  0.00000000000E+00 -0.00000000000E+00 -0.13819185748E+03  0.13819185748E+03  0.00000000000E+00 0. -1.
         25    2    1    2    0    0 -0.17767354689E+02  0.42019926516E+02 -0.19197672858E+01  0.13316253153E+03  0.12508885315E+03 0.  0.
         23    2    1    2    0    0  0.17767354689E+02 -0.42019926516E+02 -0.33989003683E+02  0.10731241246E+03  0.90990924715E+02 0.  0.
          5    1    3    3  502    0 -0.35474010916E+02 -0.25122867781E+02 -0.35159963524E+02  0.56064778346E+02  0.41800000000E+01 0. -1.
         -5    1    3    3    0  502  0.17706656227E+02  0.67142794297E+02  0.33240196238E+02  0.77097753188E+02  0.41800000000E+01 0. -1.
        -11    1    4    4    0    0 -0.29868617182E+02 -0.65162788038E+01  0.11315740347E+02  0.32598192610E+02  0.00000000000E+00 0.  1.
         11    1    4    4    0    0  0.47635971871E+02 -0.35503647712E+02 -0.45304744029E+02  0.74714219855E+02  0.00000000000E+00 0. -1.
</event>
<event>
 8    1  0.6615242E-009  0.9562914E+02  0.7561462E-02  0.1289765E+00
         -1   -1    0    0    0  501 -0.00000000000E+00  0.00000000000E+00  0.58542129515E+02  0.58542129515E+02  0.00000000000E+00 0.  1.
          1   -1    0    0  501    0  0.00000000000E+00 -0.00000000000E+00 -0.30381563591E+03  0.30381563591E+03  0.00000000000E+00 0. -1.
         25    2    1    2    0    0  0.67209961547E+01  0.59987858941E+02 -0.64635272637E+02  0.15319392107E+03  0.12508774510E+03 0.  0.
         23    2    1    2    0    0 -0.67209961547E+01 -0.59987858941E+02 -0.18063823375E+03  0.20916384435E+03  0.86461709917E+02 0.  0.
          5    1    3    3  502    0 -0.17531474997E+01 -0.17520355759E+02 -0.72492743617E+02  0.74717512466E+02  0.41800000000E+01 0. -1.
         -5    1    3    3    0  502  0.84741436543E+01  0.77508214699E+02  0.78574709797E+01  0.78476408600E+02  0.41800000000E+01 0. -1.
        -11    1    4    4    0    0 -0.21653058829E+02  0.97597429765E+01 -0.13215356250E+02  0.27180014357E+02  0.00000000000E+00 0.  1.
         11    1    4    4    0    0  0.14932062675E+02 -0.69747601917E+02 -0.16742287750E+03  0.18198383000E+03  0.00000000000E+00 0. -1.
</event>
<event>
 8    1  0.6615242E-009  0.3540184E+03  0.7561462E-02  0.1060978E+00
         -1   -1    0    0    0  501 -0.00000000000E+00  0.00000000000E+00  0.70719472964E+03  0.70719472964E+03  0.00000000000E+00 0.  1.
          1   -1    0    0  501    0  0.00000000000E+00 -0.00000000000E+00 -0.19076624432E+03  0.19076624432E+03  0.00000000000E+00 0. -1.
         25    2    1    2    0    0  0.33709094409E+02  0.34762219297E+03  0.28601898285E+03  0.46843677635E+03  0.12509461536E+03 0.  0.
         23    2    1    2    0    0 -0.33709094409E+02 -0.34762219297E+03  0.23040950247E+03  0.42952419761E+03  0.97082467090E+02 0.  0.
          5    1    3    3  502    0 -0.17866169822E+02  0.81175422083E+02  0.13288261650E+03  0.15679257426E+03  0.41800000000E+01 0. -1.
         -5    1    3    3    0  502  0.51575264231E+02  0.26644677089E+03  0.15313636635E+03  0.31164420209E+03  0.41800000000E+01 0. -1.
        -11    1    4    4    0    0 -0.31805589919E+02 -0.84935866351E+02  0.10402213446E+03  0.13800833816E+03  0.00000000000E+00 0.  1.
         11    1    4    4    0    0 -0.19035044904E+01 -0.26268632662E+03  0.12638736800E+03  0.29151585945E+03  0.00000000000E+00 0. -1.
</event>
<event>
 8    1  0.6615242E-009  0.8166770E+02  0.7561462E-02  0.1324384E+00
         -1   -1    0    0    0  501 -0.00000000000E+00  0.00000000000E+00  0.10057809247E+02  0.10057809247E+02  0.00000000000E+00 0.  1.
          1   -1    0    0  501    0  0.00000000000E+00 -0.00000000000E+00 -0.11940054518E+04  0.11940054518E+04  0.00000000000E+00 0. -1.
         25    2    1    2    0    0 -0.10267066213E+02  0.11495021732E+02 -0.79200122891E+03  0.80196651933E+03  0.12508718299E+03 0.  0.
         23    2    1    2    0    0  0.10267066213E+02 -0.11495021732E+02 -0.39194641361E+03  0.40209674169E+03  0.88443486825E+02 0.  0.
          5    1    3    3  502    0 -0.34231377282E+02 -0.18798653517E+02 -0.71146868669E+03  0.71255199186E+03  0.41800000000E+01 0.  1.
         -5    1    3    3    0  502  0.23964311070E+02  0.30293675250E+02 -0.80532542226E+02  0.89414527470E+02  0.41800000000E+01 0.  1.
        -11    1    4    4    0    0 -0.11449753954E+02 -0.44360652126E+02 -0.27243978193E+03  0.27626508846E+03  0.00000000000E+00 0.  1.
         11    1    4    4    0    0  0.21716820166E+02  0.32865630394E+02 -0.11950663168E+03  0.12583165323E+03  0.00000000000E+00 0. -1.
</event>
<event>
 8    1  0.6615242E-009  0.1375749E+03  0.7561462E-02  0.1216630E+00
         -1   -1    0    0    0  501 -0.00000000000E+00  0.00000000000E+00  0.12005121676E+03  0.12005121676E+03  0.00000000000E+00 0.  1.
          1   -1    0    0  501    0  0.00000000000E+00 -0.00000000000E+00 -0.18431511773E+03  0.18431511773E+03  0.00000000000E+00 0. -1.
         25    2    1    2    0    0  0.89762052577E+02  0.42015677822E+02 -0.53402695610E+02  0.16828893231E+03  0.12508706397E+03 0.  0.
         23    2    1    2    0    0 -0.89762052577E+02 -0.42015677822E+02 -0.10861205362E+02  0.13607740218E+03  0.92609666542E+02 0.  0.
          5    1    3    3  502    0 -0.14627689455E+02 -0.27942840110E+02 -0.22036830343E+02  0.38702272592E+02  0.41800000000E+01 0.  1.
         -5    1    3    3    0  502  0.10438974203E+03  0.69958517932E+02 -0.31365865267E+02  0.12958665972E+03  0.41800000000E+01 0.  1.
        -11    1    4    4    0    0 -0.35336657789E+02  0.15348586348E+02 -0.36378806957E+02  0.52987508737E+02  0.00000000000E+00 0.  1.
         11    1    4    4    0    0 -0.54425394789E+02 -0.57364264169E+02  0.25517601595E+02  0.83089893445E+02  0.00000000000E+00 0. -1.
</event>
<event>
 8    1  0.6615242E-009  0.1066964E+03  0.7561462E-02  0.1266813E+00
         -1   -1    0    0    0  501 -0.00000000000E+00  0.00000000000E+00  0.46164778783E+02  0.46164778783E+02  0.00000000000E+00 0.  1.
          1   -1    0    0  501    0  0.00000000000E+00 -0.00000000000E+00 -0.26327710030E+03  0.26327710030E+03  0.00000000000E+00 0. -1.
         25    2    1    2    0    0 -0.18101266799E+02  0.34322207640E+01 -0.11487486505E+03  0.17083020252E+03  0.12508911813E+03 0.  0.
         23    2    1    2    0    0  0.18101266799E+02 -0.34322207640E+01 -0.10223745646E+03  0.13861167656E+03  0.91767441804E+02 0.  0.
          5    1    3    3  502    0 -0.24917148105E+02  0.62177316022E+02 -0.63065812567E+02  0.92095884881E+02  0.41800000000E+01 0.  1.
         -5    1    3    3    0  502  0.68158813056E+01 -0.58745095258E+02 -0.51809052487E+02  0.78734317641E+02  0.41800000000E+01 0.  1.
        -11    1    4    4    0    0 -0.34396121862E+02 -0.24821827745E+01 -0.67070228633E+02  0.75416642721E+02  0.00000000000E+00 0. -1.
         11    1    4    4    0    0  0.52497388661E+02 -0.95003798946E+00 -0.35167227826E+02  0.63195033835E+02  0.00000000000E+00 0.  1.
</event>
<event>
 8    1  0.6615242E-009  0.1671031E+03  0.7561462E-02  0.1180903E+00
         -2   -1    0    0    0  501 -0.00000000000E+00  0.00000000000E+00  0.91351052117E+02  0.91351052117E+02  0.00000000000E+00 0.  1.
          2   -1    0    0  501    0  0.00000000000E+00 -0.00000000000E+00 -0.38521639848E+03  0.38521639848E+03  0.00000000000E+00 0. -1.
         25    2    1    2    0    0  0.30603113125E+02 -0.14939337762E+03 -0.14583455003E+03  0.24529738587E+03  0.12509260459E+03 0.  0.
         23    2    1    2    0    0 -0.30603113125E+02  0.14939337762E+03 -0.14803079633E+03  0.23127006473E+03  0.91201942784E+02 0.  0.
          5    1    3    3  502    0 -0.28744076453E+02 -0.97128229524E+02 -0.31392310117E+02  0.10612758565E+03  0.41800000000E+01 0.  1.
         -5    1    3    3    0  502  0.59347189578E+02 -0.52265148095E+02 -0.11444223992E+03  0.13916980022E+03  0.41800000000E+01 0.  1.
        -11    1    4    4    0    0  0.81800123268E+00  0.34917685335E+02  0.73896392546E+01  0.35700429178E+02  0.00000000000E+00 0.  1.
         11    1    4    4    0    0 -0.31421114358E+02  0.11447569228E+03 -0.15542043559E+03  0.19556963555E+03  0.00000000000E+00 0. -1.
</event>
<event>
 8    1  0.6615242E-009  0.1213637E+03  0.7561462E-02  0.1240864E+00
         -2   -1    0    0    0  501 -0.00000000000E+00  0.00000000000E+00  0.15436629146E+02  0.15436629146E+02  0.00000000000E+00 0.  1.
          2   -1    0    0  501    0  0.00000000000E+00 -0.00000000000E+00 -0.11998773848E+04  0.11998773848E+04  0.00000000000E+00 0. -1.
         25    2    1    2    0    0  0.28201074692E+01  0.68902911658E+02 -0.85559281835E+03  0.86743451445E+03  0.12509197339E+03 0.  0.
         23    2    1    2    0    0 -0.28201074692E+01 -0.68902911658E+02 -0.32884793726E+03  0.34787949945E+03  0.90131104832E+02 0.  0.
          5    1    3    3  502    0  0.48837406442E+02 -0.10864663676E+02 -0.33539606966E+03  0.33913290776E+03  0.41800000000E+01 0.  1.
         -5    1    3    3    0  502 -0.46017298973E+02  0.79767575334E+02 -0.52019674869E+03  0.52830160669E+03  0.41800000000E+01 0.  1.
        -11    1    4    4    0    0 -0.11877487926E+02  0.13188125163E+02 -0.14666019548E+02  0.23023759340E+02  0.00000000000E+00 0.  1.
         11    1    4    4    0    0  0.90573804572E+01 -0.82091036821E+02 -0.31418191771E+03  0.32485574011E+03  0.00000000000E+00 0. -1.
</event>
<event>
 8    1  0.6615242E-009  0.1007149E+03  0.7561462E-02  0.1278800E+00
         -2   -1    0    0    0  501 -0.00000000000E+00  0.00000000000E+00  0.10464281179E+03  0.10464281179E+03  0.00000000000E+00 0.  1.
          2   -1    0    0  501    0  0.00000000000E+00 -0.00000000000E+00 -0.18810563208E+03  0.18810563208E+03  0.00000000000E+00 0. -1.
         25    2    1    2    0    0 -0.51069285239E+02 -0.20633578823E+02 -0.12085406075E+03  0.18244648355E+03  0.12508876405E+03 0.  0.
         23    2    1    2    0    0  0.51069285239E+02  0.20633578823E+02  0.37391240464E+02  0.11030196032E+03  0.87946581045E+02 0.  0.
          5    1    3    3  502    0  0.17208002127E+02 -0.54190157843E+02 -0.31922557424E+02  0.65339196634E+02  0.41800000000E+01 0. -1.
         -5    1    3    3    0  502 -0.68277287366E+02  0.33556579020E+02 -0.88931503324E+02  0.11710728692E+03  0.41800000000E+01 0. -1.
        -11    1    4    4    0    0  0.17243225822E+02  0.28673193240E+02  0.60092059788E+02  0.68778895723E+02  0.00000000000E+00 0.  1.
         11    1    4    4    0    0  0.33826059417E+02 -0.80396144178E+01 -0.22700819324E+02  0.41523064598E+02  0.00000000000E+00 0. -1.
</event>
<event>
 8    1  0.6615242E-009  0.9347792E+02  0.7561462E-02  0.1294641E+00
          1   -1    0    0  501    0  0.00000000000E+00  0.00000000000E+00  0.45557642503E+03  0.45557642503E+03  0.00000000000E+00 0. -1.
         -1   -1    0    0    0  501 -0.00000000000E+00 -0.00000000000E+00 -0.43697615449E+02  0.43697615449E+02  0.00000000000E+00 0.  1.
         25    2    1    2    0    0  0.77419757444E+02  0.31472660176E+02  0.28581579639E+03  0.32299041514E+03  0.12509113327E+03 0.  0.
         23    2    1    2    0    0 -0.77419757444E+02 -0.31472660176E+02  0.12606301318E+03  0.17628362534E+03  0.90552118072E+02 0.  0.
          5    1    3    3  502    0 -0.13918278238E+01  0.23559273019E+02  0.21599193075E+03  0.21731765478E+03  0.41800000000E+01 0. -1.
         -5    1    3    3    0  502  0.78811585268E+02  0.79133871577E+01  0.69823865647E+02  0.10567276036E+03  0.41800000000E+01 0. -1.
        -11    1    4    4    0    0 -0.50710280839E+02 -0.18527584210E+02  0.13491020189E+03  0.14531196280E+03  0.00000000000E+00 0. -1.
         11    1    4    4    0    0 -0.26709476605E+02 -0.12945075966E+02 -0.88471887037E+01  0.30971662536E+02  0.00000000000E+00 0.  1.
</event>
<event>
 8    1  0.6615242E-009  0.3600252E+03  0.7561462E-02  0.1058574E+00
         -1   -1    0    0    0  501 -0.00000000000E+00  0.00000000000E+00  0.92112103028E+02  0.92112103028E+02  0.00000000000E+00 0.  1.
          1   -1    0    0  501    0  0.00000000000E+00 -0.00000000000E+00 -0.14386639327E+04  0.14386639327E+04  0.00000000000E+00 0. -1.
         25    2    1    2    0    0  0.13228408036E+03 -0.32103055846E+03 -0.67496694355E+03  0.76927753031E+03  0.12509135210E+03 0.  0.
         23    2    1    2    0    0 -0.13228408036E+03  0.32103055846E+03 -0.67158488607E+03  0.76149850537E+03  0.91071494420E+02 0.  0.
          5    1    3    3  502    0  0.13421191631E+03 -0.32964084116E+03 -0.66910773624E+03  0.75789086136E+03  0.41800000000E+01 0. -1.
         -5    1    3    3    0  502 -0.19278359488E+01  0.86102826943E+01 -0.58592073181E+01  0.11386668956E+02  0.41800000000E+01 0. -1.
        -11    1    4    4    0    0 -0.95417962365E+02  0.13886129326E+03 -0.38053344292E+03  0.41616432751E+03  0.00000000000E+00 0. -1.
         11    1    4    4    0    0 -0.36866117997E+02  0.18216926520E+03 -0.29105144315E+03  0.34533417786E+03  0.00000000000E+00 0.  1.
</event>
<event>
 8    1  0.6615242E-009  0.1430846E+03  0.7561462E-02  0.1209238E+00
         -1   -1    0    0    0  501 -0.00000000000E+00  0.00000000000E+00  0.12247023079E+03  0.12247023079E+03  0.00000000000E+00 0.  1.
          1   -1    0    0  501    0  0.00000000000E+00 -0.00000000000E+00 -0.26910269253E+03  0.26910269253E+03  0.00000000000E+00 0. -1.
         25    2    1    2    0    0  0.78452438334E+02  0.75579142458E+02 -0.18254206693E+03  0.24664945971E+03  0.12508939972E+03 0.  0.
         23    2    1    2    0    0 -0.78452438334E+02 -0.75579142458E+02  0.35909605189E+02  0.14492346362E+03  0.88579448558E+02 0.  0.
          5    1    3    3  502    0  0.11002140724E+03  0.45956557401E+02 -0.11119069622E+03  0.16308757937E+03  0.41800000000E+01 0. -1.
         -5    1    3    3    0  502 -0.31568968908E+02  0.29622585057E+02 -0.71351370707E+02  0.83561880335E+02  0.41800000000E+01 0. -1.
        -11    1    4    4    0    0  0.94840304179E+01 -0.58568170004E+01  0.30608772006E+02  0.32575236946E+02  0.00000000000E+00 0.  1.
         11    1    4    4    0    0 -0.87936468752E+02 -0.69722325458E+02  0.53008331824E+01  0.11234822667E+03  0.00000000000E+00 0. -1.
</event>
<event>
 8    1  0.6615242E-009  0.1072076E+03  0.7561462E-02  0.1265830E+00
          1   -1    0    0  501    0  0.00000000000E+00  0.00000000000E+00  0.71573421415E+03  0.71573421415E+03  0.00000000000E+00 0. -1.
         -1   -1    0    0    0  501 -0.00000000000E+00 -0.00000000000E+00 -0.16598861486E+02  0.16598861486E+02  0.00000000000E+00 0.  1.
         25    2    1    2    0    0 -0.17401199528E+02  0.40721842446E+02  0.38317327595E+03  0.40549369255E+03  0.12506920123E+03 0.  0.
         23    2    1    2    0    0  0.17401199528E+02 -0.40721842446E+02  0.31596207672E+03  0.32683938309E+03  0.70928684042E+02 0.  0.
          5    1    3    3  502    0  0.26104153013E+02  0.73436387103E+02  0.22999344701E+03  0.24287607503E+03  0.41800000000E+01 0. -1.
         -5    1    3    3    0  502 -0.43505352542E+02 -0.32714544657E+02  0.15317982894E+03  0.16261761751E+03  0.41800000000E+01 0. -1.
        -11    1    4    4    0    0  0.23619604345E+02 -0.58419385994E+02  0.21077325526E+03  0.21999108050E+03  0.00000000000E+00 0. -1.
         11    1    4    4    0    0 -0.62184048172E+01  0.17697543548E+02  0.10518882146E+03  0.10684830259E+03  0.00000000000E+00 0.  1.
</event>
<event>
 8    1  0.6615242E-009  0.1123474E+03  0.7561462E-02  0.1256284E+00
         -2   -1    0    0    0  501 -0.00000000000E+00  0.00000000000E+00  0.24802759908E+03  0.24802759908E+03  0.00000000000E+00 0.  1.
          2   -1    0    0  501    0  0.00000000000E+00 -0.00000000000E+00 -0.77243792228E+02  0.77243792228E+02  0.00000000000E+00 0. -1.
         25    2    1    2    0    0 -0.56444406839E+02 -0.41845524435E+02  0.14752934407E+03  0.20578886055E+03  0.12508848383E+03 0.  0.
         23    2    1    2    0    0  0.56444406839E+02  0.41845524435E+02  0.23254462788E+02  0.11948253076E+03  0.93799179843E+02 0.  0.
          5    1    3    3  502    0 -0.51541908538E+02  0.37220338478E+02  0.73678152316E+02  0.97405669552E+02  0.41800000000E+01 0. -1.
         -5    1    3    3    0  502 -0.49024983004E+01 -0.79065862913E+02  0.73851191750E+02  0.10838319100E+03  0.41800000000E+01 0. -1.
        -11    1    4    4    0    0  0.52740302546E+02  0.15389805600E+02 -0.28015456639E+02  0.61670507050E+02  0.00000000000E+00 0. -1.
         11    1    4    4    0    0  0.37041042924E+01  0.26455718835E+02  0.51269919427E+02  0.57812023713E+02  0.00000000000E+00 0.  1.
</event>
<event>
 8    1  0.6615242E-009  0.6237020E+02  0.7561462E-02  0.1388146E+00
         -1   -1    0    0    0  501 -0.00000000000E+00  0.00000000000E+00  0.80961752308E+02  0.80961752308E+02  0.00000000000E+00 0.  1.
          1   -1    0    0  501    0  0.00000000000E+00 -0.00000000000E+00 -0.14469676345E+03  0.14469676345E+03  0.00000000000E+00 0. -1.
         25    2    1    2    0    0  0.24902963621E+02 -0.19992135755E+02 -0.52481845956E+02  0.13936872429E+03  0.12509777802E+03 0.  0.
         23    2    1    2    0    0 -0.24902963621E+02  0.19992135755E+02 -0.11253165190E+02  0.86289791471E+02  0.79369082748E+02 0.  0.
          5    1    3    3  502    0 -0.67233282708E+01 -0.13481254216E+02  0.39132958853E+02  0.42140339662E+02  0.41800000000E+01 0. -1.
         -5    1    3    3    0  502  0.31626291891E+02 -0.65108815387E+01 -0.91614804809E+02  0.97228384628E+02  0.41800000000E+01 0. -1.
        -11    1    4    4    0    0  0.23239597909E+02  0.16051135351E+02 -0.23177092248E+02  0.36536221235E+02  0.00000000000E+00 0. -1.
         11    1    4    4    0    0 -0.48142561529E+02  0.39410004036E+01  0.11923927058E+02  0.49753570237E+02  0.00000000000E+00 0.  1.
</event>
<event>
 8    1  0.6615242E-009  0.1377732E+03  0.7561462E-02  0.1216357E+00
         -2   -1    0    0    0  501 -0.00000000000E+00  0.00000000000E+00  0.42668303160E+03  0.42668303160E+03  0.00000000000E+00 0.  1.
          2   -1    0    0  501    0  0.00000000000E+00 -0.00000000000E+00 -0.47447674595E+02  0.47447674595E+02  0.00000000000E+00 0. -1.
         25    2    1    2    0    0  0.81370288910E+02 -0.32890218486E+02  0.16135672592E+03  0.22222562489E+03  0.12508135340E+03 0.  0.
         23    2    1    2    0    0 -0.81370288910E+02  0.32890218486E+02  0.21787863108E+03  0.25190508130E+03  0.91006492706E+02 0.  0.
          5    1    3    3  502    0  0.14417126385E+02 -0.72897554352E+02  0.72177572050E+02  0.10367729390E+03  0.41800000000E+01 0. -1.
         -5    1    3    3    0  502  0.66953162524E+02  0.40007335867E+02  0.89179153872E+02  0.11854833099E+03  0.41800000000E+01 0. -1.
        -11    1    4    4    0    0 -0.74359579784E+02  0.59663000711E+02  0.19024246463E+03  0.21279383476E+03  0.00000000000E+00 0.  1.
         11    1    4    4    0    0 -0.70107091251E+01 -0.26772782226E+02  0.27636166444E+02  0.39111246545E+02  0.00000000000E+00 0. -1.
</event>
<event>
 8    1  0.6615242E-009  0.1108586E+03  0.7561462E-02  0.1258988E+00
          2   -1    0    0  501    0  0.00000000000E+00  0.00000000000E+00  0.76412865574E+02  0.76412865574E+02  0.00000000000E+00 0. -1.
         -2   -1    0    0    0  501 -0.00000000000E+00 -0.00000000000E+00 -0.17632770442E+03  0.17632770442E+03  0.00000000000E+00 0.  1.
         25    2    1    2    0    0 -0.45204176036E+01  0.43305477147E+02 -0.65389922651E+02  0.14771352508E+03  0.12509054713E+03 0.  0.
         23    2    1    2    0    0  0.45204176036E+01 -0.43305477147E+02 -0.34524916199E+02  0.10502704492E+03  0.89123014983E+02 0.  0.
          5    1    3    3  502    0  0.44608957050E+02  0.62870868412E+02 -0.51746604423E+02  0.92940242163E+02  0.41800000000E+01 0.  1.
         -5    1    3    3    0  502 -0.49129374653E+02 -0.19565391265E+02 -0.13643318227E+02  0.54773282916E+02  0.41800000000E+01 0.  1.
        -11    1    4    4    0    0 -0.31042690576E+02 -0.46339008771E+02 -0.59222663972E+00  0.55779056145E+02  0.00000000000E+00 0.  1.
         11    1    4    4    0    0  0.35563108180E+02  0.30335316240E+01 -0.33932689559E+02  0.49247988773E+02  0.00000000000E+00 0. -1.
</event>
<event>
 8    1  0.6615242E-009  0.3086956E+03  0.7561462E-02  0.1080973E+00
         -2   -1    0    0    0  501 -0.00000000000E+00  0.00000000000E+00  0.20343126543E+03  0.20343126543E+03  0.00000000000E+00 0.  1.
          2   -1    0    0  501    0  0.00000000000E+00 -0.00000000000E+00 -0.49720130407E+03  0.49720130407E+03  0.00000000000E+00 0. -1.
         25    2    1    2    0    0  0.47776290802E+02 -0.29508938920E+03 -0.14285172513E+03  0.35413966361E+03  0.12509182383E+03 0.  0.
         23    2    1    2    0    0 -0.47776290802E+02  0.29508938920E+03 -0.15091831351E+03  0.34649290588E+03  0.88998173540E+02 0.  0.
          5    1    3    3  502    0 -0.21629487918E+02 -0.19427457422E+03 -0.12044073707E+03  0.22963860408E+03  0.41800000000E+01 0.  1.
         -5    1    3    3    0  502  0.69405778720E+02 -0.10081481498E+03 -0.22410988060E+02  0.12450105953E+03  0.41800000000E+01 0.  1.
        -11    1    4    4    0    0 -0.14006459010E+02  0.47486015570E+02  0.82794908377E+01  0.50196140661E+02  0.00000000000E+00 0.  1.
         11    1    4    4    0    0 -0.33769831792E+02  0.24760337363E+03 -0.15919780435E+03  0.29629676522E+03  0.00000000000E+00 0. -1.
</event>
<event>
 8    1  0.6615242E-009  0.8945422E+02  0.7561462E-02  0.1304179E+00
         -1   -1    0    0    0  501 -0.00000000000E+00  0.00000000000E+00  0.57481889164E+02  0.57481889164E+02  0.00000000000E+00 0.  1.
          1   -1    0    0  501    0  0.00000000000E+00 -0.00000000000E+00 -0.28316045087E+03  0.28316045087E+03  0.00000000000E+00 0. -1.
         25    2    1    2    0    0 -0.17525422812E+02  0.57433563249E+02 -0.16456299883E+03  0.21525702675E+03  0.12509537301E+03 0.  0.
         23    2    1    2    0    0  0.17525422812E+02 -0.57433563249E+02 -0.61115562877E+02  0.12538531329E+03  0.91545672374E+02 0.  0.
          5    1    3    3  502    0 -0.36285477846E+01  0.86301459466E+02 -0.58563676740E+02  0.10444273502E+03  0.41800000000E+01 0.  1.
         -5    1    3    3    0  502 -0.13896875027E+02 -0.28867896217E+02 -0.10599932209E+03  0.11081429173E+03  0.41800000000E+01 0.  1.
        -11    1    4    4    0    0  0.62815236157E+01 -0.16045617516E+02  0.24310310821E+02  0.29797828656E+02  0.00000000000E+00 0.  1.
         11    1    4    4    0    0  0.11243899196E+02 -0.41387945733E+02 -0.85425873699E+02  0.95587484632E+02  0.00000000000E+00 0. -1.
</event>
<event>
 8    1  0.6615242E-009  0.1786769E+03  0.7561462E-02  0.1169090E+00
          2   -1    0    0  501    0  0.00000000000E+00  0.00000000000E+00  0.44356918872E+03  0.44356918872E+03  0.00000000000E+00 0. -1.
         -2   -1    0    0    0  501 -0.00000000000E+00 -0.00000000000E+00 -0.17100112075E+03  0.17100112075E+03  0.00000000000E+00 0.  1.
         25    2    1    2    0    0 -0.65991238700E+02  0.14633429509E+03 -0.78439837080E+02  0.21809932094E+03  0.12508371696E+03 0.  0.
         23    2    1    2    0    0  0.65991238700E+02 -0.14633429509E+03  0.35100790505E+03  0.39647098853E+03  0.90631814694E+02 0.  0.
          5    1    3    3  502    0 -0.15037297314E+02  0.14052837631E+03 -0.86889197330E+02  0.16595646981E+03  0.41800000000E+01 0. -1.
         -5    1    3    3    0  502 -0.50953941386E+02  0.58059187826E+01  0.84493602502E+01  0.52142851134E+02  0.41800000000E+01 0. -1.
        -11    1    4    4    0    0  0.94605499029E+01 -0.63629084965E+02  0.23279176833E+03  0.24151639667E+03  0.00000000000E+00 0. -1.
         11    1    4    4    0    0  0.56530688797E+02 -0.82705210124E+02  0.11821613671E+03  0.15495459185E+03  0.00000000000E+00 0.  1.
</event>
<event>
 8    1  0.6615242E-009  0.1266216E+03  0.7561462E-02  0.1232557E+00
          2   -1    0    0  501    0  0.00000000000E+00  0.00000000000E+00  0.23824344022E+03  0.23824344022E+03  0.00000000000E+00 0. -1.
         -2   -1    0    0    0  501 -0.00000000000E+00 -0.00000000000E+00 -0.93991942397E+02  0.93991942397E+02  0.00000000000E+00 0.  1.
         25    2    1    2    0    0  0.18823777559E+02 -0.10071153144E+03  0.68224304052E+02  0.17549907821E+03  0.12509286000E+03 0.  0.
         23    2    1    2    0    0 -0.18823777559E+02  0.10071153144E+03  0.76027193774E+02  0.15673630441E+03  0.91043878205E+02 0.  0.
          5    1    3    3  502    0  0.24911844154E+02  0.31472856678E+01  0.66672300230E+02  0.71366472550E+02  0.41800000000E+01 0. -1.
         -5    1    3    3    0  502 -0.60880665952E+01 -0.10385881711E+03  0.15520038213E+01  0.10413260566E+03  0.41800000000E+01 0. -1.
        -11    1    4    4    0    0 -0.22564602988E+02  0.11071271549E+03  0.41129974542E+02  0.12024201215E+03  0.00000000000E+00 0. -1.
         11    1    4    4    0    0  0.37408254293E+01 -0.10001184049E+02  0.34897219232E+02  0.36494292258E+02  0.00000000000E+00 0.  1.
</event>
<event>
 8    1  0.6615242E-009  0.1123355E+03  0.7561462E-02  0.1256305E+00
         -1   -1    0    0    0  501 -0.00000000000E+00  0.00000000000E+00  0.41395282238E+02  0.41395282238E+02  0.00000000000E+00 0.  1.
          1   -1    0    0  501    0  0.00000000000E+00 -0.00000000000E+00 -0.37792780304E+03  0.37792780304E+03  0.00000000000E+00 0. -1.
         25    2    1    2    0    0 -0.10684564317E+02  0.50097023679E+02 -0.12709464710E+03  0.18553797239E+03  0.12508964059E+03 0.  0.
         23    2    1    2    0    0  0.10684564317E+02 -0.50097023679E+02 -0.20943787370E+03  0.23378511289E+03  0.90373582258E+02 0.  0.
          5    1    3    3  502    0 -0.51976191733E+02  0.65191222202E+02 -0.11021110519E+03  0.13825838154E+03  0.41800000000E+01 0. -1.
         -5    1    3    3    0  502  0.41291627417E+02 -0.15094198523E+02 -0.16883541914E+02  0.47279590854E+02  0.41800000000E+01 0. -1.
        -11    1    4    4    0    0 -0.60431213000E+01  0.22104055406E+02 -0.20184046624E+02  0.30536933679E+02  0.00000000000E+00 0.  1.
         11    1    4    4    0    0  0.16727685616E+02 -0.72201079085E+02 -0.18925382708E+03  0.20324817921E+03  0.00000000000E+00 0. -1.
</event>
<event>
 8    1  0.6615242E-009  0.1114086E+03  0.7561462E-02  0.1257983E+00
          1   -1    0    0  501    0  0.00000000000E+00  0.00000000000E+00  0.41772219970E+02  0.41772219970E+02  0.00000000000E+00 0. -1.
         -1   -1    0    0    0  501 -0.00000000000E+00 -0.00000000000E+00 -0.43007509589E+03  0.43007509589E+03  0.00000000000E+00 0.  1.
         25    2    1    2    0    0  0.33895609967E+02 -0.69220582561E+02 -0.24879547242E+03  0.28894565053E+03  0.12509996179E+03 0.  0.
         23    2    1    2    0    0 -0.33895609967E+02  0.69220582561E+02 -0.13950740350E+03  0.18290166533E+03  0.89723475879E+02 0.  0.
          5    1    3    3  502    0  0.78053515614E+02 -0.24231773706E+02 -0.11687176880E+03  0.14267449982E+03  0.41800000000E+01 0.  1.
         -5    1    3    3    0  502 -0.44157905647E+02 -0.44988808855E+02 -0.13192370362E+03  0.14627115071E+03  0.41800000000E+01 0.  1.
        -11    1    4    4    0    0 -0.31663187390E+02  0.55443476715E+02 -0.15156088131E+03  0.16446044293E+03  0.00000000000E+00 0.  1.
         11    1    4    4    0    0 -0.22324225772E+01  0.13777105846E+02  0.12053477812E+02  0.18441222395E+02  0.00000000000E+00 0. -1.
</event>
<event>
 8    1  0.6615242E-009  0.1638340E+03  0.7561462E-02  0.1184435E+00
         -2   -1    0    0    0  501 -0.00000000000E+00  0.00000000000E+00  0.24299654547E+03  0.24299654547E+03  0.00000000000E+00 0. -1.
          2   -1    0    0  501    0  0.00000000000E+00 -0.00000000000E+00 -0.12659959343E+03  0.12659959343E+03  0.00000000000E+00 0.  1.
         25    2    1    2    0    0  0.11897602401E+03  0.69453473953E+02  0.69740320377E+02  0.19873150297E+03  0.12510562998E+03 0.  0.
         23    2    1    2    0    0 -0.11897602401E+03 -0.69453473953E+02  0.46656631658E+02  0.17086463593E+03  0.89659373185E+02 0.  0.
          5    1    3    3  502    0 -0.17278311880E+02 -0.93234841837E+01 -0.97985039707E+01  0.22337199887E+02  0.41800000000E+01 0. -1.
         -5    1    3    3    0  502  0.13625433589E+03  0.78776958137E+02  0.79538824347E+02  0.17639430308E+03  0.41800000000E+01 0. -1.
        -11    1    4    4    0    0 -0.32980567996E+02 -0.53259113831E+02 -0.14254907036E+02  0.64245260106E+02  0.00000000000E+00 0.  1.
         11    1    4    4    0    0 -0.85995456013E+02 -0.16194360122E+02  0.60911538694E+02  0.10661937582E+03  0.00000000000E+00 0. -1.
</event>
<event>
 8    1  0.6615242E-009  0.9197871E+02  0.7561462E-02  0.1298130E+00
         -2   -1    0    0    0  501 -0.00000000000E+00  0.00000000000E+00  0.10191598219E+03  0.10191598219E+03  0.00000000000E+00 0. -1.
          2   -1    0    0  501    0  0.00000000000E+00 -0.00000000000E+00 -0.13034062297E+03  0.13034062297E+03  0.00000000000E+00 0.  1.
         25    2    1    2    0    0  0.37555486852E+02 -0.42140971520E+01 -0.25926689224E+02  0.13322063561E+03  0.12508945331E+03 0.  0.
         23    2    1    2    0    0 -0.37555486852E+02  0.42140971520E+01 -0.24979515551E+01  0.99035969554E+02  0.91507979412E+02 0.  0.
          5    1    3    3  502    0  0.65733785522E+02  0.30800392388E+02  0.12697380888E+02  0.73812536955E+02  0.41800000000E+01 0. -1.
         -5    1    3    3    0  502 -0.28178298670E+02 -0.35014489540E+02 -0.38624070112E+02  0.59408098654E+02  0.41800000000E+01 0. -1.
        -11    1    4    4    0    0 -0.48828302337E+02  0.14406315222E+02 -0.35930319057E+02  0.62311578819E+02  0.00000000000E+00 0.  1.
         11    1    4    4    0    0  0.11272815484E+02 -0.10192218070E+02  0.33432367502E+02  0.36724390736E+02  0.00000000000E+00 0. -1.
</event>
<event>
 8    1  0.6615242E-009  0.9383283E+02  0.7561462E-02  0.1293827E+00
          1   -1    0    0  501    0  0.00000000000E+00  0.00000000000E+00  0.54561991602E+02  0.54561991602E+02  0.00000000000E+00 0. -1.
         -1   -1    0    0    0  501 -0.00000000000E+00 -0.00000000000E+00 -0.35112243426E+03  0.35112243426E+03  0.00000000000E+00 0.  1.
         25    2    1    2    0    0  0.10197834525E+02 -0.41597198244E+02 -0.55135457060E+02  0.14325330714E+03  0.12508904288E+03 0.  0.
         23    2    1    2    0    0 -0.10197834525E+02  0.41597198244E+02 -0.24142498560E+03  0.26243111872E+03  0.93540075228E+02 0.  0.
          5    1    3    3  502    0 -0.80981539396E+01  0.35626136861E+02 -0.52040482744E+02  0.63721942603E+02  0.41800000000E+01 0. -1.
         -5    1    3    3    0  502  0.18295988464E+02 -0.77223335104E+02 -0.30949743162E+01  0.79531364533E+02  0.41800000000E+01 0. -1.
        -11    1    4    4    0    0 -0.32792514619E+02  0.13744770918E+02 -0.21490432411E+03  0.21782593111E+03  0.00000000000E+00 0.  1.
         11    1    4    4    0    0  0.22594680095E+02  0.27852427326E+02 -0.26520661489E+02  0.44605187617E+02  0.00000000000E+00 0. -1.
</event>
<event>
 8    1  0.6615242E-009  0.1257511E+03  0.7561462E-02  0.1233900E+00
         -2   -1    0    0    0  501 -0.00000000000E+00  0.00000000000E+00  0.11798205057E+03  0.11798205057E+03  0.00000000000E+00 0.  1.
          2   -1    0    0  501    0  0.00000000000E+00 -0.00000000000E+00 -0.21934710402E+03  0.21934710402E+03  0.00000000000E+00 0. -1.
         25    2    1    2    0    0 -0.11169438000E+02  0.96928904237E+02  0.16909551074E+02  0.15953860250E+03  0.12508662577E+03 0.  0.
         23    2    1    2    0    0  0.11169438000E+02 -0.96928904237E+02 -0.11827460452E+03  0.17779055209E+03  0.90003497246E+02 0.  0.
          5    1    3    3  502    0  0.54620558367E+01  0.12222074586E+03 -0.40544962930E+01  0.12248124801E+03  0.41800000000E+01 0. -1.
         -5    1    3    3    0  502 -0.16631493837E+02 -0.25291841624E+02  0.20964047367E+02  0.37057354492E+02  0.41800000000E+01 0. -1.
        -11    1    4    4    0    0 -0.23135917223E+01 -0.38363619001E+02 -0.11074370533E+03  0.11722324104E+03  0.00000000000E+00 0. -1.
         11    1    4    4    0    0  0.13483029722E+02 -0.58565285235E+02 -0.75308991881E+01  0.60567311050E+02  0.00000000000E+00 0.  1.
</event>
<event>
 8    1  0.6615242E-009  0.1327245E+03  0.7561462E-02  0.1223468E+00
          2   -1    0    0  501    0  0.00000000000E+00  0.00000000000E+00  0.12128816536E+04  0.12128816536E+04  0.00000000000E+00 0.  1.
         -2   -1    0    0    0  501 -0.00000000000E+00 -0.00000000000E+00 -0.33330100938E+02  0.33330100938E+02  0.00000000000E+00 0. -1.
         25    2    1    2    0    0  0.84616435725E+02 -0.45126657978E+02  0.10554373461E+04  0.10671417980E+04  0.12508904435E+03 0.  0.
         23    2    1    2    0    0 -0.84616435725E+02  0.45126657978E+02  0.12411420654E+03  0.17906995652E+03  0.86402295165E+02 0.  0.
          5    1    3    3  502    0  0.28192709801E+02  0.34935932577E+02  0.57726410059E+03  0.57902216063E+03  0.41800000000E+01 0. -1.
         -5    1    3    3    0  502  0.56423725924E+02 -0.80062590554E+02  0.47817324549E+03  0.48811963734E+03  0.41800000000E+01 0. -1.
        -11    1    4    4    0    0  0.20393460615E+01  0.35023860265E+02  0.64438647124E+02  0.73370082209E+02  0.00000000000E+00 0.  1.
         11    1    4    4    0    0 -0.86655781787E+02  0.10102797713E+02  0.59675559411E+02  0.10569987431E+03  0.00000000000E+00 0. -1.
</event>
<event>
 8    1  0.6615242E-009  0.1249428E+03  0.7561462E-02  0.1235159E+00
         -1   -1    0    0    0  501 -0.00000000000E+00  0.00000000000E+00  0.12649000992E+03  0.12649000992E+03  0.00000000000E+00 0.  1.
          1   -1    0    0  501    0  0.00000000000E+00 -0.00000000000E+00 -0.13742964608E+03  0.13742964608E+03  0.00000000000E+00 0. -1.
         25    2    1    2    0    0  0.61195773437E+02  0.37375799023E+02 -0.35933550939E+02  0.14860490566E+03  0.12510125845E+03 0.  0.
         23    2    1    2    0    0 -0.61195773437E+02 -0.37375799023E+02  0.24993914779E+02  0.11531475034E+03  0.86780889782E+02 0.  0.
          5    1    3    3  502    0 -0.27181196989E+02  0.45948771778E+02 -0.24821984470E+02  0.59022965113E+02  0.41800000000E+01 0.  1.
         -5    1    3    3    0  502  0.88376970425E+02 -0.85729727558E+01 -0.11111566469E+02  0.89581940551E+02  0.41800000000E+01 0.  1.
        -11    1    4    4    0    0 -0.43741894682E+02 -0.62845364715E+02  0.33060948985E+02  0.83402155633E+02  0.00000000000E+00 0.  1.
         11    1    4    4    0    0 -0.17453878755E+02  0.25469565692E+02 -0.80670342056E+01  0.31912594709E+02  0.00000000000E+00 0. -1.
</event>
<event>
 8    1  0.6615242E-009  0.9689961E+02  0.7561462E-02  0.1286954E+00
         -1   -1    0    0    0  501 -0.00000000000E+00  0.00000000000E+00  0.31574924323E+03  0.31574924323E+03  0.00000000000E+00 0.  1.
          1   -1    0    0  501    0  0.00000000000E+00 -0.00000000000E+00 -0.48981773912E+02  0.48981773912E+02  0.00000000000E+00 0. -1.
         25    2    1    2    0    0 -0.34933102855E+02 -0.11604747699E+02  0.21577570477E+03  0.25213221717E+03  0.12512596980E+03 0.  0.
         23    2    1    2    0    0  0.34933102855E+02  0.11604747699E+02  0.50991764548E+02  0.11259879998E+03  0.93398810810E+02 0.  0.
          5    1    3    3  502    0  0.44569135892E+02  0.13778312565E+02  0.74909429007E+02  0.88346730135E+02  0.41800000000E+01 0. -1.
         -5    1    3    3    0  502 -0.79502238747E+02 -0.25383060264E+02  0.14086627577E+03  0.16378548703E+03  0.41800000000E+01 0. -1.
        -11    1    4    4    0    0  0.39210549424E+02  0.26879400018E+02  0.71997717164E+02  0.86276535677E+02  0.00000000000E+00 0.  1.
         11    1    4    4    0    0 -0.42774465699E+01 -0.15274652319E+02 -0.21005952617E+02  0.26322264302E+02  0.00000000000E+00 0. -1.
</event>
<event>
 8    1  0.6615242E-009  0.1164766E+03  0.7561462E-02  0.1249025E+00
         -1   -1    0    0    0  501 -0.00000000000E+00  0.00000000000E+00  0.55693758703E+02  0.55693758703E+02  0.00000000000E+00 0.  1.
          1   -1    0    0  501    0  0.00000000000E+00 -0.00000000000E+00 -0.26364396500E+03  0.26364396500E+03  0.00000000000E+00 0. -1.
         25    2    1    2    0    0  0.17198061896E+02 -0.47568576613E+02 -0.11410138648E+03  0.17669851183E+03  0.12507875468E+03 0.  0.
         23    2    1    2    0    0 -0.17198061896E+02  0.47568576613E+02 -0.93848819816E+02  0.14263921187E+03  0.94761811765E+02 0.  0.
          5    1    3    3  502    0  0.17475565907E+01 -0.84846700035E+02 -0.10508738821E+03  0.13514010516E+03  0.41800000000E+01 0. -1.
         -5    1    3    3    0  502  0.15450505306E+02  0.37278123422E+02 -0.90139982645E+01  0.41558406668E+02  0.41800000000E+01 0. -1.
        -11    1    4    4    0    0  0.48469837347E+01  0.73341508059E+02 -0.64098152665E+02  0.97524577573E+02  0.00000000000E+00 0.  1.
         11    1    4    4    0    0 -0.22045045631E+02 -0.25772931446E+02 -0.29750667151E+02  0.45114634301E+02  0.00000000000E+00 0. -1.
</event>
<event>
 8    1  0.6615242E-009  0.1180000E+03  0.7561462E-02  0.1246433E+00
         -1   -1    0    0    0  501 -0.00000000000E+00  0.00000000000E+00  0.42021111370E+02  0.42021111370E+02  0.00000000000E+00 0.  1.
          1   -1    0    0  501    0  0.00000000000E+00 -0.00000000000E+00 -0.43169764492E+03  0.43169764492E+03  0.00000000000E+00 0. -1.
         25    2    1    2    0    0 -0.50026975688E+02  0.93730297050E+01 -0.10368612481E+03  0.17025975466E+03  0.12508804738E+03 0.  0.
         23    2    1    2    0    0  0.50026975688E+02 -0.93730297050E+01 -0.28599040874E+03  0.30345900163E+03  0.87785532963E+02 0.  0.
          5    1    3    3  502    0  0.39060138897E+02 -0.15388800310E+02 -0.27305984103E+02  0.50255335970E+02  0.41800000000E+01 0. -1.
         -5    1    3    3    0  502 -0.89087114585E+02  0.24761830015E+02 -0.76380140711E+02  0.12000441869E+03  0.41800000000E+01 0. -1.
        -11    1    4    4    0    0  0.70450344519E+02 -0.25816054065E+02 -0.20283559097E+03  0.21626834408E+03  0.00000000000E+00 0.  1.
         11    1    4    4    0    0 -0.20423368831E+02  0.16443024360E+02 -0.83154817774E+02  0.87190657547E+02  0.00000000000E+00 0. -1.
</event>
<event>
 8    1  0.6615242E-009  0.1115611E+03  0.7561462E-02  0.1257706E+00
          1   -1    0    0  501    0  0.00000000000E+00  0.00000000000E+00  0.53572396191E+02  0.53572396191E+02  0.00000000000E+00 0. -1.
         -1   -1    0    0    0  501 -0.00000000000E+00 -0.00000000000E+00 -0.37891986042E+03  0.37891986042E+03  0.00000000000E+00 0.  1.
         25    2    1    2    0    0  0.15128087745E+02  0.84442914783E+02 -0.22731122669E+03  0.27326888113E+03  0.12508406260E+03 0.  0.
         23    2    1    2    0    0 -0.15128087745E+02 -0.84442914783E+02 -0.98036237532E+02  0.15922337548E+03  0.91550611868E+02 0.  0.
          5    1    3    3  502    0 -0.80883835823E+01  0.99397964107E+02 -0.94156375834E+02  0.13721615331E+03  0.41800000000E+01 0. -1.
         -5    1    3    3    0  502  0.23216471327E+02 -0.14955049324E+02 -0.13315485086E+03  0.13605272783E+03  0.41800000000E+01 0. -1.
        -11    1    4    4    0    0 -0.20108866195E+02 -0.13410505405E+02  0.12902383237E+02  0.27398533684E+02  0.00000000000E+00 0. -1.
         11    1    4    4    0    0  0.49807784497E+01 -0.71032409378E+02 -0.11093862077E+03  0.13182484179E+03  0.00000000000E+00 0.  1.
</event>
<event>
 8    1  0.6615242E-009  0.7838898E+02  0.7561462E-02  0.1333686E+00
         -1   -1    0    0    0  501 -0.00000000000E+00  0.00000000000E+00  0.22123048572E+03  0.22123048572E+03  0.00000000000E+00 0.  1.
          1   -1    0    0  501    0  0.00000000000E+00 -0.00000000000E+00 -0.64678351060E+02  0.64678351060E+02  0.00000000000E+00 0. -1.
         25    2    1    2    0    0 -0.22951968772E+02  0.23636797160E+02  0.12891322539E+03  0.18262380550E+03  0.12508934249E+03 0.  0.
         23    2    1    2    0    0  0.22951968772E+02 -0.23636797160E+02  0.27638909268E+02  0.10328503127E+03  0.93906322095E+02 0.  0.
          5    1    3    3  502    0 -0.66690204076E+02  0.23084300343E+02  0.34884289568E+02  0.78834347214E+02  0.41800000000E+01 0. -1.
         -5    1    3    3    0  502  0.43738235304E+02  0.55249681777E+00  0.94028935823E+02  0.10378945829E+03  0.41800000000E+01 0. -1.
        -11    1    4    4    0    0  0.12782683442E+02  0.34231879391E+01  0.59097816399E+02  0.60561267447E+02  0.00000000000E+00 0.  1.
         11    1    4    4    0    0  0.10169285330E+02 -0.27059985100E+02 -0.31458907131E+02  0.42723763828E+02  0.00000000000E+00 0. -1.
</event>
<event>
 8    1  0.6615242E-009  0.1123998E+03  0.7561462E-02  0.1256189E+00
         -1   -1    0    0    0  501 -0.00000000000E+00  0.00000000000E+00  0.22436282700E+03  0.22436282700E+03  0.00000000000E+00 0.  1.
          1   -1    0    0  501    0  0.00000000000E+00 -0.00000000000E+00 -0.11518259345E+03  0.11518259345E+03  0.00000000000E+00 0. -1.
         25    2    1    2    0    0 -0.68365517648E+02 -0.45154659718E+02 -0.37335800044E+02  0.15411759841E+03  0.12508191266E+03 0.  0.
         23    2    1    2    0    0  0.68365517648E+02  0.45154659718E+02  0.14651603360E+03  0.18542782204E+03  0.78763835529E+02 0.  0.
          5    1    3    3  502    0  0.26286710163E+02 -0.27523679494E+02  0.18730084293E+02  0.42624318430E+02  0.41800000000E+01 0.  1.
         -5    1    3    3    0  502 -0.94652227810E+02 -0.17630980224E+02 -0.56065884337E+02  0.11149327998E+03  0.41800000000E+01 0.  1.
        -11    1    4    4    0    0  0.34229270313E+02  0.44312603486E+02  0.13984151072E+03  0.15063498231E+03  0.00000000000E+00 0.  1.
         11    1    4    4    0    0  0.34136247335E+02  0.84205623185E+00  0.66745228738E+01  0.34792839729E+02  0.00000000000E+00 0. -1.
</event>
<event>
 8    1  0.6615242E-009  0.1201048E+03  0.7561462E-02  0.1242924E+00
          3   -1    0    0  501    0  0.00000000000E+00  0.00000000000E+00  0.14798589932E+03  0.14798589932E+03  0.00000000000E+00 0. -1.
         -3   -1    0    0    0  501 -0.00000000000E+00 -0.00000000000E+00 -0.12496166830E+03  0.12496166830E+03  0.00000000000E+00 0.  1.
         25    2    1    2    0    0  0.62652110103E+02 -0.16519016544E+01 -0.40345347290E+02  0.14561393950E+03  0.12509059377E+03 0.  0.
         23    2    1    2    0    0 -0.62652110103E+02  0.16519016544E+01  0.63369578311E+02  0.12733362812E+03  0.90940275545E+02 0.  0.
          5    1    3    3  502    0 -0.72637564843E+00  0.50284346102E+02 -0.38626095243E+02  0.63549120515E+02  0.41800000000E+01 0. -1.
         -5    1    3    3    0  502  0.63378485751E+02 -0.51936247756E+02 -0.17192520467E+01  0.82064818983E+02  0.41800000000E+01 0. -1.
        -11    1    4    4    0    0 -0.79974881203E+02 -0.17509162374E+02  0.59518105116E+02  0.10121737611E+03  0.00000000000E+00 0. -1.
         11    1    4    4    0    0  0.17322771101E+02  0.19161064028E+02  0.38514731953E+01  0.26116252010E+02  0.00000000000E+00 0.  1.
</event>
<event>
 8    1  0.6615242E-009  0.1462000E+03  0.7561462E-02  0.1205222E+00
         -1   -1    0    0    0  501 -0.00000000000E+00  0.00000000000E+00  0.87142255693E+02  0.87142255693E+02  0.00000000000E+00 0.  1.
          1   -1    0    0  501    0  0.00000000000E+00 -0.00000000000E+00 -0.27893357750E+03  0.27893357750E+03  0.00000000000E+00 0. -1.
         25    2    1    2    0    0 -0.99138588144E+02  0.23530236961E+02 -0.16327915169E+03  0.22954019171E+03  0.12508591657E+03 0.  0.
         23    2    1    2    0    0  0.99138588144E+02 -0.23530236961E+02 -0.28512170113E+02  0.13653564148E+03  0.86295456648E+02 0.  0.
          5    1    3    3  502    0 -0.98633746123E+02  0.64805760228E+02 -0.10513870716E+03  0.15811395440E+03  0.41800000000E+01 0.  1.
         -5    1    3    3    0  502 -0.50484202041E+00 -0.41275523267E+02 -0.58140444530E+02  0.71426237313E+02  0.41800000000E+01 0.  1.
        -11    1    4    4    0    0  0.48761849182E+02 -0.54934363576E+02 -0.87720796439E+01  0.73976020564E+02  0.00000000000E+00 0. -1.
         11    1    4    4    0    0  0.50376738961E+02  0.31404126616E+02 -0.19740090470E+02  0.62559620912E+02  0.00000000000E+00 0.  1.
</event>
<event>
 8    1  0.6615242E-009  0.9091207E+02  0.7561462E-02  0.1300658E+00
          1   -1    0    0  501    0  0.00000000000E+00  0.00000000000E+00  0.30595832349E+03  0.30595832349E+03  0.00000000000E+00 0. -1.
         -1   -1    0    0    0  501 -0.00000000000E+00 -0.00000000000E+00 -0.47424777152E+02  0.47424777152E+02  0.00000000000E+00 0.  1.
         25    2    1    2    0    0 -0.18609552447E+02 -0.27476143809E+02  0.86135652438E+02  0.15545994071E+03  0.12508872301E+03 0.  0.
         23    2    1    2    0    0  0.18609552447E+02  0.27476143809E+02  0.17239789390E+03  0.19792315993E+03  0.91385389950E+02 0.  0.
          5    1    3    3  502    0 -0.30957662463E+02  0.32532745352E+02 -0.51986070053E+01  0.45401038536E+02  0.41800000000E+01 0. -1.
         -5    1    3    3    0  502  0.12348110017E+02 -0.60008889161E+02  0.91334259443E+02  0.11005890217E+03  0.41800000000E+01 0. -1.
        -11    1    4    4    0    0  0.39539402698E+02 -0.15008250358E+01  0.26288363453E+02  0.47504682870E+02  0.00000000000E+00 0.  1.
         11    1    4    4    0    0 -0.20929850252E+02  0.28976968845E+02  0.14610953044E+03  0.15041847706E+03  0.00000000000E+00 0. -1.
</event>
<event>
 8    1  0.6615242E-009  0.1136941E+03  0.7561462E-02  0.1253878E+00
          2   -1    0    0  501    0  0.00000000000E+00  0.00000000000E+00  0.45445568565E+03  0.45445568565E+03  0.00000000000E+00 0.  1.
         -2   -1    0    0    0  501 -0.00000000000E+00 -0.00000000000E+00 -0.36156564792E+02  0.36156564792E+02  0.00000000000E+00 0. -1.
         25    2    1    2    0    0  0.14977848107E+00 -0.43913231875E+02  0.13142288063E+03  0.18667613382E+03  0.12509041136E+03 0.  0.
         23    2    1    2    0    0 -0.14977848107E+00  0.43913231875E+02  0.28687624022E+03  0.30393611662E+03  0.90281733569E+02 0.  0.
          5    1    3    3  502    0 -0.56545692874E+02 -0.42578886118E+02  0.47665542010E+02  0.85439178488E+02  0.41800000000E+01 0.  1.
         -5    1    3    3    0  502  0.56695471355E+02 -0.13343457569E+01  0.83757338624E+02  0.10123695533E+03  0.41800000000E+01 0.  1.
        -11    1    4    4    0    0  0.43423202892E+02  0.33426580887E+02  0.13878531226E+03  0.14921217698E+03  0.00000000000E+00 0.  1.
         11    1    4    4    0    0 -0.43572981373E+02  0.10486650988E+02  0.14809092796E+03  0.15472393964E+03  0.00000000000E+00 0. -1.
</event>
<event>
 8    1  0.6615242E-009  0.1098298E+03  0.7561462E-02  0.1260885E+00
          1   -1    0    0  501    0  0.00000000000E+00  0.00000000000E+00  0.51640334748E+03  0.51640334748E+03  0.00000000000E+00 0. -1.
         -1   -1    0    0    0  501 -0.00000000000E+00 -0.00000000000E+00 -0.40855051653E+02  0.40855051653E+02  0.00000000000E+00 0.  1.
         25    2    1    2    0    0  0.91945846815E+01  0.67685829049E+02  0.11951075499E+03  0.18599838109E+03  0.12508663145E+03 0.  0.
         23    2    1    2    0    0 -0.91945846815E+01 -0.67685829049E+02  0.35603754083E+03  0.37126001805E+03  0.80033484710E+02 0.  0.
          5    1    3    3  502    0  0.18197821887E+02 -0.21095967217E+02 -0.89220037761E+01  0.29551228496E+02  0.41800000000E+01 0.  1.
         -5    1    3    3    0  502 -0.90032372059E+01  0.88781796266E+02  0.12843275877E+03  0.15644715259E+03  0.41800000000E+01 0.  1.
        -11    1    4    4    0    0 -0.15454057339E+02 -0.83618380694E+02  0.32356024966E+03  0.33454759996E+03  0.00000000000E+00 0. -1.
         11    1    4    4    0    0  0.62594726575E+01  0.15932551644E+02  0.32477291178E+02  0.36712418091E+02  0.00000000000E+00 0.  1.
</event>
<event>
 8    1  0.6615242E-009  0.1023749E+03  0.7561462E-02  0.1275380E+00
          2   -1    0    0  501    0  0.00000000000E+00  0.00000000000E+00  0.35127905196E+03  0.35127905196E+03  0.00000000000E+00 0. -1.
         -2   -1    0    0    0  501 -0.00000000000E+00 -0.00000000000E+00 -0.42473581163E+02  0.42473581163E+02  0.00000000000E+00 0.  1.
         25    2    1    2    0    0  0.23537232261E+02 -0.38057338425E+02  0.22348671024E+03  0.25999405276E+03  0.12509290750E+03 0.  0.
         23    2    1    2    0    0 -0.23537232261E+02  0.38057338425E+02  0.85318760555E+02  0.13375858036E+03  0.92788493932E+02 0.  0.
          5    1    3    3  502    0  0.36933730616E+02 -0.80006868895E+02  0.15815581729E+03  0.18109647835E+03  0.41800000000E+01 0. -1.
         -5    1    3    3    0  502 -0.13396498355E+02  0.41949530470E+02  0.65330892950E+02  0.78897574414E+02  0.41800000000E+01 0. -1.
        -11    1    4    4    0    0 -0.23591227657E+02  0.52654813357E+02  0.98458005313E+02  0.11411859709E+03  0.00000000000E+00 0. -1.
         11    1    4    4    0    0  0.53995395617E-01 -0.14597474932E+02 -0.13139244758E+02  0.19639983266E+02  0.00000000000E+00 0.  1.
</event>
<event>
 8    1  0.6615242E-009  0.1150969E+03  0.7561462E-02  0.1251412E+00
         -1   -1    0    0    0  501 -0.00000000000E+00  0.00000000000E+00  0.93971249978E+02  0.93971249978E+02  0.00000000000E+00 0.  1.
          1   -1    0    0  501    0  0.00000000000E+00 -0.00000000000E+00 -0.21492172891E+03  0.21492172891E+03  0.00000000000E+00 0. -1.
         25    2    1    2    0    0 -0.22123649093E+02 -0.67154589713E+02 -0.76962422173E+01  0.14389335626E+03  0.12508745366E+03 0.  0.
         23    2    1    2    0    0  0.22123649093E+02  0.67154589713E+02 -0.11325423672E+03  0.16499962262E+03  0.96949257674E+02 0.  0.
          5    1    3    3  502    0  0.39857257759E+02 -0.63320461412E+02 -0.25500489975E+02  0.79156990964E+02  0.41800000000E+01 0. -1.
         -5    1    3    3    0  502 -0.61980906852E+02 -0.38341283014E+01  0.17804247758E+02  0.64736365300E+02  0.41800000000E+01 0. -1.
        -11    1    4    4    0    0 -0.17990987511E+02  0.41939830577E+02 -0.38761945520E+01  0.45800108130E+02  0.00000000000E+00 0.  1.
         11    1    4    4    0    0  0.40114636604E+02  0.25214759136E+02 -0.10937804216E+03  0.11919951450E+03  0.00000000000E+00 0. -1.
</event>
<event>
 8    1  0.6615242E-009  0.1506952E+03  0.7561462E-02  0.1199621E+00
         -2   -1    0    0    0  501 -0.00000000000E+00  0.00000000000E+00  0.24982985794E+02  0.24982985794E+02  0.00000000000E+00 0.  1.
          2   -1    0    0  501    0  0.00000000000E+00 -0.00000000000E+00 -0.18364696557E+04  0.18364696557E+04  0.00000000000E+00 0. -1.
         25    2    1    2    0    0 -0.18244554868E+02  0.11923814954E+03 -0.15214743981E+04  0.15313660801E+04  0.12508847705E+03 0.  0.
         23    2    1    2    0    0  0.18244554868E+02 -0.11923814954E+03 -0.29001227182E+03  0.33008656142E+03  0.10148605881E+03 0.  0.
          5    1    3    3  502    0  0.43142762636E+02  0.95424187650E+02 -0.10656634385E+04  0.10708048889E+04  0.41800000000E+01 0. -1.
         -5    1    3    3    0  502 -0.61387317504E+02  0.23813961893E+02 -0.45581095960E+03  0.46056119118E+03  0.41800000000E+01 0. -1.
        -11    1    4    4    0    0  0.35132186223E+02 -0.92876378707E+02 -0.11344361228E+03  0.15076387299E+03  0.00000000000E+00 0.  1.
         11    1    4    4    0    0 -0.16887631356E+02 -0.26361770836E+02 -0.17656865954E+03  0.17932268843E+03  0.00000000000E+00 0. -1.
</event>
<event>
 7    1  0.6615242E-009  0.1069667E+03  0.7561462E-02  0.1266292E+00
          2   -1    0    0  501    0  0.00000000000E+00  0.00000000000E+00  0.36484889445E+03  0.36484889445E+03  0.00000000000E+00 0. -1.
         -2   -1    0    0    0  501 -0.00000000000E+00 -0.00000000000E+00 -0.46948550698E+02  0.46948550698E+02  0.00000000000E+00 0.  1.
         23    2    1    2    0    0  0.39341033017E+02  0.63295934537E+02  0.18235258790E+03  0.21291980891E+03  0.80797812508E+02 0.  0.
          5    1    1    2  502    0 -0.32886434244E+02  0.14360299474E+02 -0.65932277383E+01  0.36724362625E+02  0.41800000000E+01 0.  1.
         -5    1    1    2    0  502 -0.64545987735E+01 -0.77656234011E+02  0.14214098359E+03  0.16215327361E+03  0.41800000000E+01 0.  1.
        -11    1    3    3    0    0  0.52758114578E+02  0.23467566050E+02  0.58784059989E+02  0.82399702784E+02  0.00000000000E+00 0.  1.
         11    1    3    3    0    0 -0.13417081561E+02  0.39828368487E+02  0.12356852791E+03  0.13052010613E+03  0.00000000000E+00 0. -1.
</event>
<event>
 8    1  0.6615242E-009  0.1009675E+03  0.7561462E-02  0.1278274E+00
          2   -1    0    0  501    0  0.00000000000E+00  0.00000000000E+00  0.41523006839E+03  0.41523006839E+03  0.00000000000E+00 0. -1.
         -2   -1    0    0    0  501 -0.00000000000E+00 -0.00000000000E+00 -0.33687496034E+02  0.33687496034E+02  0.00000000000E+00 0.  1.
         25    2    1    2    0    0  0.23218315580E+02  0.17945790868E+02  0.13430097615E+03  0.18586383656E+03  0.12508985554E+03 0.  0.
         23    2    1    2    0    0 -0.23218315580E+02 -0.17945790868E+02  0.24724159621E+03  0.26305372786E+03  0.84898264169E+02 0.  0.
          5    1    3    3  502    0  0.67519860369E+02  0.30947640573E+02  0.11191178218E+03  0.13438157386E+03  0.41800000000E+01 0.  1.
         -5    1    3    3    0  502 -0.44301544788E+02 -0.13001849705E+02  0.22389193964E+02  0.51482262700E+02  0.41800000000E+01 0.  1.
        -11    1    4    4    0    0 -0.50707448104E+02 -0.54866567644E+01  0.94761880805E+02  0.10761581087E+03  0.00000000000E+00 0.  1.
         11    1    4    4    0    0  0.27489132524E+02 -0.12459134103E+02  0.15247971540E+03  0.15543791699E+03  0.00000000000E+00 0. -1.
</event>
<event>
 8    1  0.6615242E-009  0.2600946E+03  0.7561462E-02  0.1107086E+00
         -2   -1    0    0    0  501 -0.00000000000E+00  0.00000000000E+00  0.41659571007E+02  0.41659571007E+02  0.00000000000E+00 0.  1.
          2   -1    0    0  501    0  0.00000000000E+00 -0.00000000000E+00 -0.21011079242E+04  0.21011079242E+04  0.00000000000E+00 0. -1.
         25    2    1    2    0    0 -0.23625432714E+03 -0.80631535170E+02 -0.14787453848E+04  0.15048758410E+04  0.12508330096E+03 0.  0.
         23    2    1    2    0    0  0.23625432714E+03  0.80631535170E+02 -0.58070296844E+03  0.63789165426E+03  0.85861944214E+02 0.  0.
          5    1    3    3  502    0 -0.10902348155E+03 -0.67388063584E+02 -0.44095844299E+03  0.45922662323E+03  0.41800000000E+01 0.  1.
         -5    1    3    3    0  502 -0.12723084559E+03 -0.13243471586E+02 -0.10377869418E+04  0.10456492177E+04  0.41800000000E+01 0.  1.
        -11    1    4    4    0    0  0.64282757854E+02 -0.16625081167E+02 -0.14971851394E+03  0.16378125564E+03  0.00000000000E+00 0. -1.
         11    1    4    4    0    0  0.17197156928E+03  0.97256616336E+02 -0.43098445450E+03  0.47411039862E+03  0.00000000000E+00 0.  1.
</event>
<event>
 8    1  0.6615242E-009  0.1158349E+03  0.7561462E-02  0.1250131E+00
          3   -1    0    0  501    0  0.00000000000E+00  0.00000000000E+00  0.19356566864E+03  0.19356566864E+03  0.00000000000E+00 0. -1.
         -3   -1    0    0    0  501 -0.00000000000E+00 -0.00000000000E+00 -0.16231242809E+03  0.16231242809E+03  0.00000000000E+00 0.  1.
         25    2    1    2    0    0  0.75015393160E+02  0.41641883648E+02  0.12748979354E+03  0.19814745796E+03  0.12508961568E+03 0.  0.
         23    2    1    2    0    0 -0.75015393160E+02 -0.41641883648E+02 -0.96236552993E+02  0.15773063877E+03  0.90863219130E+02 0.  0.
          5    1    3    3  502    0 -0.28145651390E+02  0.25479219792E+02  0.67748380158E+02  0.77773284278E+02  0.41800000000E+01 0.  1.
         -5    1    3    3    0  502  0.10316104455E+03  0.16162663855E+02  0.59741413386E+02  0.12037417368E+03  0.41800000000E+01 0.  1.
        -11    1    4    4    0    0 -0.16770586002E+02 -0.21662617751E+02 -0.92018617599E+02  0.96010142941E+02  0.00000000000E+00 0.  1.
         11    1    4    4    0    0 -0.58244807158E+02 -0.19979265897E+02 -0.42179353941E+01  0.61720495831E+02  0.00000000000E+00 0. -1.
</event>
<event>
 7    1  0.6615242E-009  0.2057148E+03  0.7561462E-02  0.1145005E+00
          2   -1    0    0  501    0  0.00000000000E+00  0.00000000000E+00  0.50530887524E+03  0.50530887524E+03  0.00000000000E+00 0. -1.
         -2   -1    0    0    0  501 -0.00000000000E+00 -0.00000000000E+00 -0.99626289844E+02  0.99626289844E+02  0.00000000000E+00 0.  1.
         25    2    1    2    0    0  0.16382993092E+03 -0.70034345400E+02  0.26671349645E+03  0.34427947591E+03  0.12508881861E+03 0.  0.
          5    1    3    3  502    0  0.78229559989E+02  0.29555307733E+01  0.33374625706E+02  0.85205265443E+02  0.41800000000E+01 0.  1.
         -5    1    3    3    0  502  0.85600370928E+02 -0.72989876174E+02  0.23333887075E+03  0.25907421046E+03  0.41800000000E+01 0.  1.
        -11    1    1    2    0    0 -0.87259293144E+02  0.10479642183E+03  0.83026001450E+02  0.15965522599E+03  0.00000000000E+00 0.  1.
         11    1    1    2    0    0 -0.76570637773E+02 -0.34762076428E+02  0.55943087499E+02  0.10100046319E+03  0.00000000000E+00 0. -1.
</event>
<event>
 8    1  0.6615242E-009  0.8035683E+02  0.7561462E-02  0.1328042E+00
         -1   -1    0    0    0  501 -0.00000000000E+00  0.00000000000E+00  0.44845893429E+02  0.44845893429E+02  0.00000000000E+00 0.  1.
          1   -1    0    0  501    0  0.00000000000E+00 -0.00000000000E+00 -0.30354475563E+03  0.30354475563E+03  0.00000000000E+00 0. -1.
         25    2    1    2    0    0 -0.61848014096E+01 -0.40751426425E+02 -0.13147055049E+03  0.18609068187E+03  0.12508519380E+03 0.  0.
         23    2    1    2    0    0  0.61848014096E+01  0.40751426425E+02 -0.12722831171E+03  0.16229996719E+03  0.91952735278E+02 0.  0.
          5    1    3    3  502    0  0.32001902710E+02  0.15141137568E+02 -0.10894128402E+03  0.11462570213E+03  0.41800000000E+01 0.  1.
         -5    1    3    3    0  502 -0.38186704119E+02 -0.55892563993E+02 -0.22529266465E+02  0.71464979736E+02  0.41800000000E+01 0.  1.
        -11    1    4    4    0    0 -0.46080336223E+01  0.45298450891E+02 -0.13865367997E+03  0.14593843427E+03  0.00000000000E+00 0. -1.
         11    1    4    4    0    0  0.10792835032E+02 -0.45470244662E+01  0.11425368264E+02  0.16361532920E+02  0.00000000000E+00 0.  1.
</event>
<event>
 8    1  0.6615242E-009  0.1477006E+03  0.7561462E-02  0.1203327E+00
          2   -1    0    0  501    0  0.00000000000E+00  0.00000000000E+00  0.77062807429E+03  0.77062807429E+03  0.00000000000E+00 0. -1.
         -2   -1    0    0    0  501 -0.00000000000E+00 -0.00000000000E+00 -0.33341898362E+02  0.33341898362E+02  0.00000000000E+00 0.  1.
         25    2    1    2    0    0  0.11245459602E+03 -0.12816631797E+02  0.48009022698E+03  0.50886544182E+03  0.12508840724E+03 0.  0.
         23    2    1    2    0    0 -0.11245459602E+03  0.12816631797E+02  0.25719594894E+03  0.29510453082E+03  0.90147799436E+02 0.  0.
          5    1    3    3  502    0 -0.18233101923E+02  0.53795548012E+01  0.12825473672E+02  0.23309886111E+02  0.41800000000E+01 0. -1.
         -5    1    3    3    0  502  0.13068769794E+03 -0.18196186598E+02  0.46726475331E+03  0.48555555571E+03  0.41800000000E+01 0. -1.
        -11    1    4    4    0    0  0.41573453611E+01 -0.21869384113E+02  0.51802297209E+02  0.56382900582E+02  0.00000000000E+00 0. -1.
         11    1    4    4    0    0 -0.11661194138E+03  0.34686015910E+02  0.20539365174E+03  0.23872163024E+03  0.00000000000E+00 0.  1.
</event>
<event>
 8    1  0.6615242E-009  0.1027168E+03  0.7561462E-02  0.1274684E+00
         -1   -1    0    0    0  501 -0.00000000000E+00  0.00000000000E+00  0.50637605966E+02  0.50637605966E+02  0.00000000000E+00 0.  1.
          1   -1    0    0  501    0  0.00000000000E+00 -0.00000000000E+00 -0.25549289301E+03  0.25549289301E+03  0.00000000000E+00 0. -1.
         25    2    1    2    0    0  0.90199234574E+01 -0.12102276606E+02 -0.16028782239E+03  0.20388092313E+03  0.12508965062E+03 0.  0.
         23    2    1    2    0    0 -0.90199234574E+01  0.12102276606E+02 -0.44567464661E+02  0.10224957585E+03  0.90779362947E+02 0.  0.
          5    1    3    3  502    0 -0.41509202061E+02  0.26730703542E+02 -0.27825426963E+02  0.56826676423E+02  0.41800000000E+01 0. -1.
         -5    1    3    3    0  502  0.50529125519E+02 -0.38832980149E+02 -0.13246239542E+03  0.14705424671E+03  0.41800000000E+01 0. -1.
        -11    1    4    4    0    0 -0.49171731641E+02  0.15928512798E+02 -0.25541683331E+02  0.57653744891E+02  0.00000000000E+00 0. -1.
         11    1    4    4    0    0  0.40151808183E+02 -0.38262361919E+01 -0.19025781330E+02  0.44595830960E+02  0.00000000000E+00 0.  1.
</event>
<event>
 8    1  0.6615242E-009  0.9524024E+02  0.7561462E-02  0.1290636E+00
          2   -1    0    0  501    0  0.00000000000E+00  0.00000000000E+00  0.32467580017E+03  0.32467580017E+03  0.00000000000E+00 0.  1.
         -2   -1    0    0    0  501 -0.00000000000E+00 -0.00000000000E+00 -0.55498737132E+02  0.55498737132E+02  0.00000000000E+00 0. -1.
         25    2    1    2    0    0  0.16383526681E+02 -0.51966037534E+02  0.68027246691E+02  0.15246251758E+03  0.12509286139E+03 0.  0.
         23    2    1    2    0    0 -0.16383526681E+02  0.51966037534E+02  0.20114981634E+03  0.22771201972E+03  0.91774867519E+02 0.  0.
          5    1    3    3  502    0  0.10365608466E+02 -0.93242393986E+02  0.40241729673E+02  0.10216877743E+03  0.41800000000E+01 0. -1.
         -5    1    3    3    0  502  0.60179182147E+01  0.41276356452E+02  0.27785517018E+02  0.50293740142E+02  0.41800000000E+01 0. -1.
        -11    1    4    4    0    0 -0.12065900815E+02  0.31486300537E+02  0.20383987053E+03  0.20660993660E+03  0.00000000000E+00 0.  1.
         11    1    4    4    0    0 -0.43176258664E+01  0.20479736997E+02 -0.26900541881E+01  0.21102083122E+02  0.00000000000E+00 0. -1.
</event>
<event>
 8    1  0.6615242E-009  0.1089757E+03  0.7561462E-02  0.1262479E+00
         -1   -1    0    0    0  501 -0.00000000000E+00  0.00000000000E+00  0.47702781906E+03  0.47702781906E+03  0.00000000000E+00 0.  1.
          1   -1    0    0  501    0  0.00000000000E+00 -0.00000000000E+00 -0.29931685659E+02  0.29931685659E+02  0.00000000000E+00 0. -1.
         25    2    1    2    0    0 -0.38621133406E+01  0.18612271495E+02  0.15872646693E+03  0.20298036468E+03  0.12508239113E+03 0.  0.
         23    2    1    2    0    0  0.38621133406E+01 -0.18612271495E+02  0.28836966647E+03  0.30397914004E+03  0.94259856083E+02 0.  0.
          5    1    3    3  502    0 -0.44944984844E+02 -0.36174301761E+02  0.69336739605E+02  0.90297772007E+02  0.41800000000E+01 0.  1.
         -5    1    3    3    0  502  0.41082871503E+02  0.54786573256E+02  0.89389727328E+02  0.11268259267E+03  0.41800000000E+01 0.  1.
        -11    1    4    4    0    0  0.12533972297E+02  0.35007081347E+02  0.73754781184E+02  0.82597602589E+02  0.00000000000E+00 0. -1.
         11    1    4    4    0    0 -0.86718589569E+01 -0.53619352843E+02  0.21461488529E+03  0.22138153745E+03  0.00000000000E+00 0.  1.
</event>
<event>
 8    1  0.6615242E-009  0.7229074E+02  0.7561462E-02  0.1352472E+00
         -2   -1    0    0    0  501 -0.00000000000E+00  0.00000000000E+00  0.29239065194E+02  0.29239065194E+02  0.00000000000E+00 0.  1.
          2   -1    0    0  501    0  0.00000000000E+00 -0.00000000000E+00 -0.58925249985E+03  0.58925249985E+03  0.00000000000E+00 0. -1.
         25    2    1    2    0    0 -0.35176927954E+02 -0.22230828668E+02 -0.45281249460E+03  0.47161301869E+03  0.12509219852E+03 0.  0.
         23    2    1    2    0    0  0.35176927954E+02  0.22230828668E+02 -0.10720094006E+03  0.14687854636E+03  0.91376363610E+02 0.  0.
          5    1    3    3  502    0 -0.33420484925E+02 -0.18496459333E+02 -0.46040940000E+03  0.46201010360E+03  0.41800000000E+01 0.  1.
         -5    1    3    3    0  502 -0.17564430283E+01 -0.37343693354E+01  0.75969054045E+01  0.96029150871E+01  0.41800000000E+01 0.  1.
        -11    1    4    4    0    0  0.46657166225E+01 -0.35062130786E+02 -0.41330132754E+02  0.54399465074E+02  0.00000000000E+00 0.  1.
         11    1    4    4    0    0  0.30511211331E+02  0.57292959454E+02 -0.65870807310E+02  0.92479081286E+02  0.00000000000E+00 0. -1.
</event>
<event>
 8    1  0.6615242E-009  0.1123463E+03  0.7561462E-02  0.1256286E+00
         -2   -1    0    0    0  501 -0.00000000000E+00  0.00000000000E+00  0.23854807554E+02  0.23854807554E+02  0.00000000000E+00 0.  1.
          2   -1    0    0  501    0  0.00000000000E+00 -0.00000000000E+00 -0.67960787570E+03  0.67960787570E+03  0.00000000000E+00 0. -1.
         25    2    1    2    0    0  0.24086483746E+02  0.44273097553E+02 -0.44949579866E+03  0.46929132525E+03  0.12509040361E+03 0.  0.
         23    2    1    2    0    0 -0.24086483746E+02 -0.44273097553E+02 -0.20625726949E+03  0.23417135801E+03  0.98761823734E+02 0.  0.
          5    1    3    3  502    0  0.53702315946E+02  0.70807864371E+02 -0.36682059361E+03  0.37745531218E+03  0.41800000000E+01 0. -1.
         -5    1    3    3    0  502 -0.29615832201E+02 -0.26534766818E+02 -0.82675205050E+02  0.91836013073E+02  0.41800000000E+01 0. -1.
        -11    1    4    4    0    0  0.15063781791E+02 -0.53448749104E+02 -0.17392153891E+03  0.18257159691E+03  0.00000000000E+00 0. -1.
         11    1    4    4    0    0 -0.39150265536E+02  0.91756515503E+01 -0.32335730583E+02  0.51599761097E+02  0.00000000000E+00 0.  1.
</event>
<event>
 8    1  0.6615242E-009  0.9694654E+02  0.7561462E-02  0.1286851E+00
         -3   -1    0    0    0  501 -0.00000000000E+00  0.00000000000E+00  0.18463232258E+02  0.18463232258E+02  0.00000000000E+00 0.  1.
          3   -1    0    0  501    0  0.00000000000E+00 -0.00000000000E+00 -0.99847070404E+03  0.99847070404E+03  0.00000000000E+00 0. -1.
         25    2    1    2    0    0  0.39083583182E+02  0.37854460447E+02 -0.76701418317E+03  0.77904972617E+03  0.12508889638E+03 0.  0.
         23    2    1    2    0    0 -0.39083583182E+02 -0.37854460447E+02 -0.21299328860E+03  0.23788421013E+03  0.90897028491E+02 0.  0.
          5    1    3    3  502    0  0.40304935876E+02  0.70889015075E+02 -0.69405934301E+03  0.69884589456E+03  0.41800000000E+01 0. -1.
         -5    1    3    3    0  502 -0.12213526941E+01 -0.33034554628E+02 -0.72954840161E+02  0.80203831610E+02  0.41800000000E+01 0. -1.
        -11    1    4    4    0    0 -0.19622011535E+02  0.13622228559E+02 -0.73317067995E+01  0.24986843983E+02  0.00000000000E+00 0.  1.
         11    1    4    4    0    0 -0.19461571647E+02 -0.51476689007E+02 -0.20566158180E+03  0.21289736615E+03  0.00000000000E+00 0. -1.
</event>
<event>
 8    1  0.6615242E-009  0.8792981E+02  0.7561462E-02  0.1307944E+00
         -1   -1    0    0    0  501 -0.00000000000E+00  0.00000000000E+00  0.28650528189E+02  0.28650528189E+02  0.00000000000E+00 0.  1.
          1   -1    0    0  501    0  0.00000000000E+00 -0.00000000000E+00 -0.53159016276E+03  0.53159016276E+03  0.00000000000E+00 0. -1.
         25    2    1    2    0    0 -0.32993049766E+02  0.14772857212E+02 -0.17426610691E+03  0.21753652467E+03  0.12508670954E+03 0.  0.
         23    2    1    2    0    0  0.32993049766E+02 -0.14772857212E+02 -0.32867352766E+03  0.34270416628E+03  0.90072632680E+02 0.  0.
          5    1    3    3  502    0 -0.16779750495E+02  0.55807175279E+02 -0.28161145100E+02  0.64857716061E+02  0.41800000000E+01 0.  1.
         -5    1    3    3    0  502 -0.16213299272E+02 -0.41034318067E+02 -0.14610496181E+03  0.15267880861E+03  0.41800000000E+01 0.  1.
        -11    1    4    4    0    0 -0.19127645441E+02 -0.75284987595E+00 -0.14727226574E+02  0.24152118036E+02  0.00000000000E+00 0.  1.
         11    1    4    4    0    0  0.52120695208E+02 -0.14020007336E+02 -0.31394630108E+03  0.31855204824E+03  0.00000000000E+00 0. -1.
</event>
<event>
 8    1  0.6615242E-009  0.7705433E+02  0.7561462E-02  0.1337625E+00
         -1   -1    0    0    0  501 -0.00000000000E+00  0.00000000000E+00  0.30130903385E+02  0.30130903385E+02  0.00000000000E+00 0.  1.
          1   -1    0    0  501    0  0.00000000000E+00 -0.00000000000E+00 -0.47636749589E+03  0.47636749589E+03  0.00000000000E+00 0. -1.
         25    2    1    2    0    0 -0.43025870110E+02  0.23279848325E+01 -0.20066326952E+03  0.24034700008E+03  0.12507712702E+03 0.  0.
         23    2    1    2    0    0  0.43025870110E+02 -0.23279848325E+01 -0.24557332298E+03  0.26615139919E+03  0.93132514819E+02 0.  0.
          5    1    3    3  502    0 -0.48690682083E+02  0.22873897214E+00 -0.10428709692E+02  0.49970643673E+02  0.41800000000E+01 0.  1.
         -5    1    3    3    0  502  0.56648119734E+01  0.20992458604E+01 -0.19023455982E+03  0.19037635641E+03  0.41800000000E+01 0.  1.
        -11    1    4    4    0    0  0.93129573095E+01 -0.43609900162E+02 -0.15262316925E+03  0.15900435955E+03  0.00000000000E+00 0. -1.
         11    1    4    4    0    0  0.33712912801E+02  0.41281915330E+02 -0.92950153737E+02  0.10714703963E+03  0.00000000000E+00 0.  1.
</event>
<event>
 8    1  0.6615242E-009  0.3053913E+03  0.7561462E-02  0.1082576E+00
          2   -1    0    0  501    0  0.00000000000E+00  0.00000000000E+00  0.11649147576E+04  0.11649147576E+04  0.00000000000E+00 0. -1.
         -2   -1    0    0    0  501 -0.00000000000E+00 -0.00000000000E+00 -0.13501127793E+03  0.13501127793E+03  0.00000000000E+00 0.  1.
         25    2    1    2    0    0  0.18244326774E+03  0.23375550072E+03  0.91337948106E+03  0.96841971211E+03  0.12508989696E+03 0.  0.
         23    2    1    2    0    0 -0.18244326774E+03 -0.23375550072E+03  0.11652399863E+03  0.33150632345E+03  0.91604695114E+02 0.  0.
          5    1    3    3  502    0  0.18564592497E+03  0.23835060320E+03  0.80533796508E+03  0.86015238761E+03  0.41800000000E+01 0.  1.
         -5    1    3    3    0  502 -0.32026572315E+01 -0.45951024792E+01  0.10804151597E+03  0.10826732450E+03  0.41800000000E+01 0.  1.
        -11    1    4    4    0    0 -0.72313556312E+02 -0.51778249615E+02 -0.70893892539E-01  0.88939544554E+02  0.00000000000E+00 0.  1.
         11    1    4    4    0    0 -0.11012971143E+03 -0.18197725111E+03  0.11659489252E+03  0.24256677889E+03  0.00000000000E+00 0. -1.
</event>
<event>
 8    1  0.6615242E-009  0.2273154E+03  0.7561462E-02  0.1128544E+00
          1   -1    0    0  501    0  0.00000000000E+00  0.00000000000E+00  0.15356746573E+04  0.15356746573E+04  0.00000000000E+00 0. -1.
         -1   -1    0    0    0  501 -0.00000000000E+00 -0.00000000000E+00 -0.44804143641E+02  0.44804143641E+02  0.00000000000E+00 0.  1.
         25    2    1    2    0    0 -0.14380521257E+03  0.15930023884E+03  0.10747300538E+04  0.11030625785E+04  0.12508340556E+03 0.  0.
         23    2    1    2    0    0  0.14380521257E+03 -0.15930023884E+03  0.41614045993E+03  0.47741622249E+03  0.93256966751E+02 0.  0.
          5    1    3    3  502    0 -0.10564243577E+03  0.14660028269E+03  0.60051416233E+03  0.62712574392E+03  0.41800000000E+01 0. -1.
         -5    1    3    3    0  502 -0.38162776791E+02  0.12699956150E+02  0.47421589143E+03  0.47593683457E+03  0.41800000000E+01 0. -1.
        -11    1    4    4    0    0  0.10406126957E+03 -0.46740329332E+02  0.18705692576E+03  0.21909746618E+03  0.00000000000E+00 0.  1.
         11    1    4    4    0    0  0.39743942992E+02 -0.11255990950E+03  0.22908353417E+03  0.25831875631E+03  0.00000000000E+00 0. -1.
</event>
<event>
 8    1  0.6615242E-009  0.2270964E+03  0.7561462E-02  0.1128700E+00
          1   -1    0    0  501    0  0.00000000000E+00  0.00000000000E+00  0.52155147758E+03  0.52155147758E+03  0.00000000000E+00 0. -1.
         -1   -1    0    0    0  501 -0.00000000000E+00 -0.00000000000E+00 -0.17571570720E+03  0.17571570720E+03  0.00000000000E+00 0.  1.
         25    2    1    2    0    0 -0.21321177963E+03 -0.18046988000E+02  0.38915928124E+03  0.46138605511E+03  0.12508872421E+03 0.  0.
         23    2    1    2    0    0  0.21321177963E+03  0.18046988000E+02 -0.43323510854E+02  0.23588112967E+03  0.89319785012E+02 0.  0.
          5    1    3    3  502    0 -0.42250151809E+02 -0.49713122718E+02  0.16634312321E+03  0.17872878039E+03  0.41800000000E+01 0.  1.
         -5    1    3    3    0  502 -0.17096162782E+03  0.31666134719E+02  0.22281615803E+03  0.28265727472E+03  0.41800000000E+01 0.  1.
        -11    1    4    4    0    0  0.10159992547E+03  0.18578051922E+02  0.23321563363E+02  0.10588476844E+03  0.00000000000E+00 0.  1.
         11    1    4    4    0    0  0.11161185416E+03 -0.53106392279E+00 -0.66645074217E+02  0.12999636124E+03  0.00000000000E+00 0. -1.
</event>
<event>
 8    1  0.6615242E-009  0.9726325E+02  0.7561462E-02  0.1286159E+00
         -4   -1    0    0    0  501 -0.00000000000E+00  0.00000000000E+00  0.14331262799E+03  0.14331262799E+03  0.00000000000E+00 0. -1.
          4   -1    0    0  501    0  0.00000000000E+00 -0.00000000000E+00 -0.10394522307E+03  0.10394522307E+03  0.00000000000E+00 0.  1.
         25    2    1    2    0    0  0.38566771441E+02 -0.25111516711E+02  0.52927165238E+02  0.14341362208E+03  0.12509275777E+03 0.  0.
         23    2    1    2    0    0 -0.38566771441E+02  0.25111516711E+02 -0.13559760319E+02  0.10384422898E+03  0.92096539904E+02 0.  0.
          5    1    3    3  502    0  0.43397397176E+02 -0.66450475523E+02  0.47599378481E+01  0.79618648489E+02  0.41800000000E+01 0.  1.
         -5    1    3    3    0  502 -0.48306257357E+01  0.41338958812E+02  0.48167227390E+02  0.63794973588E+02  0.41800000000E+01 0.  1.
        -11    1    4    4    0    0  0.12020207095E+02  0.18698502529E+02  0.29615042899E+02  0.37029314621E+02  0.00000000000E+00 0. -1.
         11    1    4    4    0    0 -0.50586978535E+02  0.64130141816E+01 -0.43174803218E+02  0.66814914361E+02  0.00000000000E+00 0.  1.
</event>
<event>
 8    1  0.6615242E-009  0.1305731E+03  0.7561462E-02  0.1226608E+00
         -1   -1    0    0    0  501 -0.00000000000E+00  0.00000000000E+00  0.29886032893E+02  0.29886032893E+02  0.00000000000E+00 0.  1.
          1   -1    0    0  501    0  0.00000000000E+00 -0.00000000000E+00 -0.98224058953E+03  0.98224058953E+03  0.00000000000E+00 0. -1.
         25    2    1    2    0    0  0.99691006791E+02 -0.90757305422E+01 -0.76588408082E+03  0.78245962101E+03  0.12507584713E+03 0.  0.
         23    2    1    2    0    0 -0.99691006791E+02  0.90757305422E+01 -0.18647047582E+03  0.22966700142E+03  0.89190960683E+02 0.  0.
          5    1    3    3  502    0  0.11066978667E+03  0.31489404475E+02 -0.48892753939E+03  0.50230169764E+03  0.41800000000E+01 0.  1.
         -5    1    3    3    0  502 -0.10978779877E+02 -0.40565135017E+02 -0.27695654143E+03  0.28015792337E+03  0.41800000000E+01 0.  1.
        -11    1    4    4    0    0 -0.53578844591E+02 -0.88446327175E+01 -0.23175604401E+02  0.59042601187E+02  0.00000000000E+00 0.  1.
         11    1    4    4    0    0 -0.46112162200E+02  0.17920363260E+02 -0.16329487142E+03  0.17062440023E+03  0.00000000000E+00 0. -1.
</event>
<event>
 8    1  0.6615242E-009  0.9947701E+02  0.7561462E-02  0.1281400E+00
         -3   -1    0    0    0  501 -0.00000000000E+00  0.00000000000E+00  0.16493798759E+03  0.16493798759E+03  0.00000000000E+00 0.  1.
          3   -1    0    0  501    0  0.00000000000E+00 -0.00000000000E+00 -0.95655340043E+02  0.95655340043E+02  0.00000000000E+00 0. -1.
         25    2    1    2    0    0  0.60487677455E+02 -0.15131906499E+02  0.31464514083E+02  0.14326751507E+03  0.12509129270E+03 0.  0.
         23    2    1    2    0    0 -0.60487677455E+02  0.15131906499E+02  0.37818133459E+02  0.11732581256E+03  0.91909745705E+02 0.  0.
          5    1    3    3  502    0 -0.18824715680E+02  0.28563667240E+02  0.39311885927E+02  0.52279535019E+02  0.41800000000E+01 0. -1.
         -5    1    3    3    0  502  0.79312393135E+02 -0.43695573739E+02 -0.78473718437E+01  0.90987980053E+02  0.41800000000E+01 0. -1.
        -11    1    4    4    0    0 -0.51825203908E+02 -0.48611314708E+01  0.64495950739E+02  0.82880697518E+02  0.00000000000E+00 0.  1.
         11    1    4    4    0    0 -0.86624735467E+01  0.19993037970E+02 -0.26677817280E+02  0.34445115039E+02  0.00000000000E+00 0. -1.
</event>
<event>
 8    1  0.6615242E-009  0.8395528E+02  0.7561462E-02  0.1318187E+00
         -2   -1    0    0    0  501 -0.00000000000E+00  0.00000000000E+00  0.10022780377E+03  0.10022780377E+03  0.00000000000E+00 0.  1.
          2   -1    0    0  501    0  0.00000000000E+00 -0.00000000000E+00 -0.11906386810E+03  0.11906386810E+03  0.00000000000E+00 0. -1.
         25    2    1    2    0    0 -0.83959317853E+00 -0.12231018785E+02 -0.20704653170E+02  0.12742183558E+03  0.12512928827E+03 0.  0.
         23    2    1    2    0    0  0.83959317853E+00  0.12231018785E+02  0.18685888402E+01  0.91869836281E+02  0.91028964934E+02 0.  0.
          5    1    3    3  502    0 -0.58314818691E+02 -0.26265332088E+02  0.14448058753E+01  0.64109637440E+02  0.41800000000E+01 0. -1.
         -5    1    3    3    0  502  0.57475225512E+02  0.14034313303E+02 -0.22149459046E+02  0.63312198142E+02  0.41800000000E+01 0. -1.
        -11    1    4    4    0    0 -0.14309582555E+02  0.22170249328E+02  0.40994222478E+02  0.48752542341E+02  0.00000000000E+00 0.  1.
         11    1    4    4    0    0  0.15149175734E+02 -0.99392305430E+01 -0.39125633637E+02  0.43117293940E+02  0.00000000000E+00 0. -1.
</event>
<event>
 8    1  0.6615242E-009  0.1083967E+03  0.7561462E-02  0.1263568E+00
          3   -1    0    0  501    0  0.00000000000E+00  0.00000000000E+00  0.11294293283E+03  0.11294293283E+03  0.00000000000E+00 0. -1.
         -3   -1    0    0    0  501 -0.00000000000E+00 -0.00000000000E+00 -0.16786411340E+03  0.16786411340E+03  0.00000000000E+00 0.  1.
         25    2    1    2    0    0 -0.54641075311E+02 -0.34291353122E+02 -0.85803239669E+02  0.16479671258E+03  0.12503686068E+03 0.  0.
         23    2    1    2    0    0  0.54641075311E+02  0.34291353122E+02  0.30882059104E+02  0.11601033365E+03  0.91340855755E+02 0.  0.
          5    1    3    3  502    0 -0.80519369546E+02 -0.24672609007E+02 -0.11100353613E+02  0.85045850914E+02  0.41800000000E+01 0. -1.
         -5    1    3    3    0  502  0.25878294236E+02 -0.96187441149E+01 -0.74702886057E+02  0.79750861664E+02  0.41800000000E+01 0. -1.
        -11    1    4    4    0    0  0.75765584101E+02  0.17997030678E+02  0.37573535438E+01  0.77964315896E+02  0.00000000000E+00 0.  1.
         11    1    4    4    0    0 -0.21124508791E+02  0.16294322444E+02  0.27124705560E+02  0.38046017759E+02  0.00000000000E+00 0. -1.
</event>
<event>
 8    1  0.6615242E-009  0.1839319E+03  0.7561462E-02  0.1164051E+00
          1   -1    0    0  501    0  0.00000000000E+00  0.00000000000E+00  0.76518253498E+02  0.76518253498E+02  0.00000000000E+00 0. -1.
         -1   -1    0    0    0  501 -0.00000000000E+00 -0.00000000000E+00 -0.63244768542E+03  0.63244768542E+03  0.00000000000E+00 0.  1.
         25    2    1    2    0    0  0.10634004942E+03  0.13301725507E+03 -0.15292359907E+03  0.26083508627E+03  0.12509004284E+03 0.  0.
         23    2    1    2    0    0 -0.10634004942E+03 -0.13301725507E+03 -0.40300583285E+03  0.44813085265E+03  0.96983315718E+02 0.  0.
          5    1    3    3  502    0  0.49330782169E+02  0.12617767671E+02  0.81863109286E+01  0.51741880687E+02  0.41800000000E+01 0. -1.
         -5    1    3    3    0  502  0.57009267252E+02  0.12039948740E+03 -0.16110991000E+03  0.20909320558E+03  0.41800000000E+01 0. -1.
        -11    1    4    4    0    0 -0.17422953409E+02 -0.75756670791E+02 -0.25240997667E+03  0.26410874427E+03  0.00000000000E+00 0.  1.
         11    1    4    4    0    0 -0.88917096013E+02 -0.57260584284E+02 -0.15059585618E+03  0.18402210838E+03  0.00000000000E+00 0. -1.
</event>
<event>
 8    1  0.6615242E-009  0.1086874E+03  0.7561462E-02  0.1263020E+00
         -1   -1    0    0    0  501 -0.00000000000E+00  0.00000000000E+00  0.15100393208E+03  0.15100393208E+03  0.00000000000E+00 0.  1.
          1   -1    0    0  501    0  0.00000000000E+00 -0.00000000000E+00 -0.12437954236E+03  0.12437954236E+03  0.00000000000E+00 0. -1.
         25    2    1    2    0    0 -0.58394946235E+02  0.46869811182E+02 -0.18822128320E+02  0.14699834979E+03  0.12508994117E+03 0.  0.
         23    2    1    2    0    0  0.58394946235E+02 -0.46869811182E+02  0.45446518044E+02  0.12838512465E+03  0.93864824528E+02 0.  0.
          5    1    3    3  502    0 -0.41863857523E+02 -0.54580121318E+01  0.45590054200E+02  0.62275981767E+02  0.41800000000E+01 0.  1.
         -5    1    3    3    0  502 -0.16531088712E+02  0.52327823314E+02 -0.64412182519E+02  0.84722368024E+02  0.41800000000E+01 0.  1.
        -11    1    4    4    0    0  0.99882948641E+01 -0.66816525261E+02  0.28862668872E+02  0.73466099234E+02  0.00000000000E+00 0. -1.
         11    1    4    4    0    0  0.48406651371E+02  0.19946714079E+02  0.16583849172E+02  0.54919025418E+02  0.00000000000E+00 0.  1.
</event>
<event>
 8    1  0.6615242E-009  0.1014952E+03  0.7561462E-02  0.1277183E+00
          1   -1    0    0  501    0  0.00000000000E+00  0.00000000000E+00  0.40301174436E+03  0.40301174436E+03  0.00000000000E+00 0. -1.
         -1   -1    0    0    0  501 -0.00000000000E+00 -0.00000000000E+00 -0.34141053733E+02  0.34141053733E+02  0.00000000000E+00 0.  1.
         25    2    1    2    0    0  0.37476733237E+02 -0.21021389133E+02  0.21467377251E+03  0.25215147509E+03  0.12509649658E+03 0.  0.
         23    2    1    2    0    0 -0.37476733237E+02  0.21021389133E+02  0.15419691812E+03  0.18500132300E+03  0.92749100361E+02 0.  0.
          5    1    3    3  502    0 -0.18435579592E+02 -0.57901470181E+02  0.13413834396E+03  0.14731944394E+03  0.41800000000E+01 0.  1.
         -5    1    3    3    0  502  0.55912312829E+02  0.36880081048E+02  0.80535428547E+02  0.10483203115E+03  0.41800000000E+01 0.  1.
        -11    1    4    4    0    0 -0.11497465331E+02 -0.21937214452E+02  0.12392868974E+03  0.12637940191E+03  0.00000000000E+00 0. -1.
         11    1    4    4    0    0 -0.25979267906E+02  0.42958603585E+02  0.30268228389E+02  0.58621921093E+02  0.00000000000E+00 0.  1.
</event>
<event>
 8    1  0.6615242E-009  0.1271978E+03  0.7561462E-02  0.1231674E+00
          2   -1    0    0  501    0  0.00000000000E+00  0.00000000000E+00  0.80226833449E+03  0.80226833449E+03  0.00000000000E+00 0. -1.
         -2   -1    0    0    0  501 -0.00000000000E+00 -0.00000000000E+00 -0.38794292534E+02  0.38794292534E+02  0.00000000000E+00 0.  1.
         25    2    1    2    0    0 -0.77577083011E+02  0.54691993603E+02  0.16112182687E+03  0.22498545045E+03  0.12509513120E+03 0.  0.
         23    2    1    2    0    0  0.77577083011E+02 -0.54691993603E+02  0.60235221508E+03  0.61607717657E+03  0.87826411183E+02 0.  0.
          5    1    3    3  502    0  0.38630268957E+01 -0.16313786059E+02  0.98558727161E+02  0.10006176938E+03  0.41800000000E+01 0. -1.
         -5    1    3    3    0  502 -0.81440109907E+02  0.71005779662E+02  0.62563099711E+02  0.12492368107E+03  0.41800000000E+01 0. -1.
        -11    1    4    4    0    0 -0.19541705188E+02 -0.66912965441E+01  0.11361345371E+03  0.11547583538E+03  0.00000000000E+00 0. -1.
         11    1    4    4    0    0  0.97118788199E+02 -0.48000697059E+02  0.48873876137E+03  0.50060134119E+03  0.00000000000E+00 0.  1.
</event>
<event>
 8    1  0.6615242E-009  0.1333909E+03  0.7561462E-02  0.1222509E+00
         -1   -1    0    0    0  501 -0.00000000000E+00  0.00000000000E+00  0.78900539895E+02  0.78900539895E+02  0.00000000000E+00 0.  1.
          1   -1    0    0  501    0  0.00000000000E+00 -0.00000000000E+00 -0.30932310047E+03  0.30932310047E+03  0.00000000000E+00 0. -1.
         25    2    1    2    0    0  0.99026559393E+02 -0.26591539763E+02 -0.17773454389E+03  0.24031582754E+03  0.12509500160E+03 0.  0.
         23    2    1    2    0    0 -0.99026559393E+02  0.26591539763E+02 -0.52688016691E+02  0.14790781282E+03  0.92667818251E+02 0.  0.
          5    1    3    3  502    0  0.11761435295E+03  0.10281451771E+02 -0.14744302929E+03  0.18893322513E+03  0.41800000000E+01 0.  1.
         -5    1    3    3    0  502 -0.18587793562E+02 -0.36872991534E+02 -0.30291514592E+02  0.51382602411E+02  0.41800000000E+01 0.  1.
        -11    1    4    4    0    0 -0.11467331245E+02 -0.69133474487E+01 -0.52475436762E+02  0.54156860342E+02  0.00000000000E+00 0. -1.
         11    1    4    4    0    0 -0.87559228148E+02  0.33504887212E+02 -0.21257992946E+00  0.93750952482E+02  0.00000000000E+00 0.  1.
</event>
<event>
 8    1  0.6615242E-009  0.1072362E+03  0.7561462E-02  0.1265775E+00
         -2   -1    0    0    0  501 -0.00000000000E+00  0.00000000000E+00  0.47891049350E+02  0.47891049350E+02  0.00000000000E+00 0.  1.
          2   -1    0    0  501    0  0.00000000000E+00 -0.00000000000E+00 -0.30827615730E+03  0.30827615730E+03  0.00000000000E+00 0. -1.
         25    2    1    2    0    0  0.30570174515E+02 -0.46361088942E+02 -0.13200690917E+03  0.19015151696E+03  0.12509152328E+03 0.  0.
         23    2    1    2    0    0 -0.30570174515E+02  0.46361088942E+02 -0.12837819878E+03  0.16601568969E+03  0.89422375072E+02 0.  0.
          5    1    3    3  502    0 -0.42186600376E+02 -0.30109877520E+02 -0.91403380550E+02  0.10515875785E+03  0.41800000000E+01 0. -1.
         -5    1    3    3    0  502  0.72756774891E+02 -0.16251211422E+02 -0.40603528615E+02  0.84992759110E+02  0.41800000000E+01 0. -1.
        -11    1    4    4    0    0 -0.22272788935E+02 -0.14374095954E+02 -0.89697554924E+02  0.93532577858E+02  0.00000000000E+00 0. -1.
         11    1    4    4    0    0 -0.82973855797E+01  0.60735184895E+02 -0.38680643856E+02  0.72483111832E+02  0.00000000000E+00 0.  1.
</event>
<event>
 8    1  0.6615242E-009  0.8615210E+02  0.7561462E-02  0.1312447E+00
         -2   -1    0    0    0  501 -0.00000000000E+00  0.00000000000E+00  0.38524307454E+02  0.38524307454E+02  0.00000000000E+00 0.  1.
          2   -1    0    0  501    0  0.00000000000E+00 -0.00000000000E+00 -0.39923838105E+03  0.39923838105E+03  0.00000000000E+00 0. -1.
         25    2    1    2    0    0  0.10951103223E+00  0.18179308010E+02 -0.99662964398E+02  0.16096477637E+03  0.12508578467E+03 0.  0.
         23    2    1    2    0    0 -0.10951103223E+00 -0.18179308010E+02 -0.26105110920E+03  0.27679791214E+03  0.90215870647E+02 0.  0.
          5    1    3    3  502    0  0.18374024036E+02  0.46009343069E+02 -0.11408394032E+03  0.12444710622E+03  0.41800000000E+01 0.  1.
         -5    1    3    3    0  502 -0.18264513003E+02 -0.27830035059E+02  0.14420975917E+02  0.36517670148E+02  0.41800000000E+01 0.  1.
        -11    1    4    4    0    0  0.18425110643E+01  0.35386607684E+02 -0.71275516482E+02  0.79597776980E+02  0.00000000000E+00 0.  1.
         11    1    4    4    0    0 -0.19520220965E+01 -0.53565915694E+02 -0.18977559272E+03  0.19720013516E+03  0.00000000000E+00 0. -1.
</event>
<event>
 8    1  0.6615242E-009  0.1938032E+03  0.7561462E-02  0.1155075E+00
          2   -1    0    0  501    0  0.00000000000E+00  0.00000000000E+00  0.30322284688E+03  0.30322284688E+03  0.00000000000E+00 0. -1.
         -2   -1    0    0    0  501 -0.00000000000E+00 -0.00000000000E+00 -0.15609582367E+03  0.15609582367E+03  0.00000000000E+00 0.  1.
         25    2    1    2    0    0 -0.15790818640E+03  0.63487802913E+02 -0.87258025766E+01  0.21139897450E+03  0.12509072843E+03 0.  0.
         23    2    1    2    0    0  0.15790818640E+03 -0.63487802913E+02  0.15585282579E+03  0.24791969604E+03  0.90600087914E+02 0.  0.
          5    1    3    3  502    0 -0.17193708855E+03  0.76081530619E+02  0.42871947306E+01  0.18811330139E+03  0.41800000000E+01 0.  1.
         -5    1    3    3    0  502  0.14028902154E+02 -0.12593727706E+02 -0.13012997307E+02  0.23285673108E+02  0.41800000000E+01 0.  1.
        -11    1    4    4    0    0  0.47499297007E+02  0.87393465341E+01  0.66528505241E+01  0.48752639047E+02  0.00000000000E+00 0.  1.
         11    1    4    4    0    0  0.11040888939E+03 -0.72227149447E+02  0.14919997526E+03  0.19916705700E+03  0.00000000000E+00 0. -1.
</event>
<event>
 8    1  0.6615242E-009  0.9636361E+02  0.7561462E-02  0.1288134E+00
          2   -1    0    0  501    0  0.00000000000E+00  0.00000000000E+00  0.16272929456E+03  0.16272929456E+03  0.00000000000E+00 0. -1.
         -2   -1    0    0    0  501 -0.00000000000E+00 -0.00000000000E+00 -0.79966743393E+02  0.79966743393E+02  0.00000000000E+00 0.  1.
         25    2    1    2    0    0  0.16390133035E+02 -0.31324418096E+02  0.34374697737E+02  0.13445367434E+03  0.12508523122E+03 0.  0.
         23    2    1    2    0    0 -0.16390133035E+02  0.31324418096E+02  0.48387853426E+02  0.10824236361E+03  0.90139720938E+02 0.  0.
          5    1    3    3  502    0 -0.32645639862E+02  0.82518800732E+01  0.57860218768E+02  0.67075395210E+02  0.41800000000E+01 0. -1.
         -5    1    3    3    0  502  0.49035772896E+02 -0.39576298169E+02 -0.23485521031E+02  0.67378279129E+02  0.41800000000E+01 0. -1.
        -11    1    4    4    0    0 -0.35579032387E+02 -0.20024086695E+02  0.29079846574E+02  0.50124535612E+02  0.00000000000E+00 0.  1.
         11    1    4    4    0    0  0.19188899353E+02  0.51348504791E+02  0.19308006853E+02  0.58117827998E+02  0.00000000000E+00 0. -1.
</event>
<event>
 8    1  0.6615242E-009  0.2212451E+03  0.7561462E-02  0.1132958E+00
          1   -1    0    0  501    0  0.00000000000E+00  0.00000000000E+00  0.11930930313E+04  0.11930930313E+04  0.00000000000E+00 0. -1.
         -1   -1    0    0    0  501 -0.00000000000E+00 -0.00000000000E+00 -0.44844301715E+02  0.44844301715E+02  0.00000000000E+00 0.  1.
         25    2    1    2    0    0  0.20252396565E+03  0.22928336497E+01  0.64752907380E+03  0.68990035178E+03  0.12508948886E+03 0.  0.
         23    2    1    2    0    0 -0.20252396565E+03 -0.22928336497E+01  0.50071965577E+03  0.54803698122E+03  0.92753142058E+02 0.  0.
          5    1    3    3  502    0  0.10294163817E+03 -0.60707982733E+02  0.30243691661E+03  0.32521992707E+03  0.41800000000E+01 0.  1.
         -5    1    3    3    0  502  0.99582327480E+02  0.63000816383E+02  0.34509215719E+03  0.36468042471E+03  0.41800000000E+01 0.  1.
        -11    1    4    4    0    0 -0.14460366802E+03  0.12719267590E+02  0.23954487786E+03  0.28009596406E+03  0.00000000000E+00 0.  1.
         11    1    4    4    0    0 -0.57920297627E+02 -0.15012101240E+02  0.26117477791E+03  0.26794101716E+03  0.00000000000E+00 0. -1.
</event>
<event>
 8    1  0.6615242E-009  0.2523423E+03  0.7561462E-02  0.1111833E+00
         -3   -1    0    0    0  501 -0.00000000000E+00  0.00000000000E+00  0.44312633389E+03  0.44312633389E+03  0.00000000000E+00 0.  1.
          3   -1    0    0  501    0  0.00000000000E+00 -0.00000000000E+00 -0.15252955277E+03  0.15252955277E+03  0.00000000000E+00 0. -1.
         25    2    1    2    0    0 -0.76123657318E+02  0.21808458385E+03  0.93866168865E+02  0.27895207859E+03  0.12509079734E+03 0.  0.
         23    2    1    2    0    0  0.76123657318E+02 -0.21808458385E+03  0.19673061225E+03  0.31670380807E+03  0.90789158661E+02 0.  0.
          5    1    3    3  502    0 -0.96705569147E+01  0.18505827091E+03  0.85599539840E+02  0.20416864824E+03  0.41800000000E+01 0.  1.
         -5    1    3    3    0  502 -0.66453100404E+02  0.33026312932E+02  0.82666290257E+01  0.74783430348E+02  0.41800000000E+01 0.  1.
        -11    1    4    4    0    0  0.72677729424E+02 -0.84843764044E+02  0.11513234348E+03  0.16042435341E+03  0.00000000000E+00 0.  1.
         11    1    4    4    0    0  0.34459278943E+01 -0.13324081980E+03  0.81598268770E+02  0.15627945465E+03  0.00000000000E+00 0. -1.
</event>
<event>
 8    1  0.6615242E-009  0.1320793E+03  0.7561462E-02  0.1224403E+00
         -2   -1    0    0    0  501 -0.00000000000E+00  0.00000000000E+00  0.54766139628E+02  0.54766139628E+02  0.00000000000E+00 0.  1.
          2   -1    0    0  501    0  0.00000000000E+00 -0.00000000000E+00 -0.37059876842E+03  0.37059876842E+03  0.00000000000E+00 0. -1.
         25    2    1    2    0    0  0.78222380317E+02  0.48959485060E+02 -0.15853231546E+03  0.22202690413E+03  0.12509068371E+03 0.  0.
         23    2    1    2    0    0 -0.78222380317E+02 -0.48959485060E+02 -0.15730031334E+03  0.20333800393E+03  0.89928767945E+02 0.  0.
          5    1    3    3  502    0  0.60257824217E+02 -0.28836370492E+02 -0.36788322692E+02  0.76376663510E+02  0.41800000000E+01 0.  1.
         -5    1    3    3    0  502  0.17964556100E+02  0.77795855552E+02 -0.12174399277E+03  0.14565024062E+03  0.41800000000E+01 0.  1.
        -11    1    4    4    0    0 -0.12761049333E+02  0.19017018175E+02 -0.73994914410E+02  0.77457980343E+02  0.00000000000E+00 0.  1.
         11    1    4    4    0    0 -0.65461330984E+02 -0.67976503235E+02 -0.83305398929E+02  0.12588002358E+03  0.00000000000E+00 0. -1.
</event>
<event>
 8    1  0.6615242E-009  0.1239043E+03  0.7561462E-02  0.1236792E+00
          1   -1    0    0  501    0  0.00000000000E+00  0.00000000000E+00  0.81981815957E+03  0.81981815957E+03  0.00000000000E+00 0. -1.
         -1   -1    0    0    0  501 -0.00000000000E+00 -0.00000000000E+00 -0.19240827887E+02  0.19240827887E+02  0.00000000000E+00 0.  1.
         25    2    1    2    0    0 -0.41954232123E+02 -0.52085253743E+02  0.45835462191E+03  0.47981149872E+03  0.12512826869E+03 0.  0.
         23    2    1    2    0    0  0.41954232123E+02  0.52085253743E+02  0.34222270978E+03  0.35924748874E+03  0.86425365667E+02 0.  0.
          5    1    3    3  502    0 -0.35182808454E+02 -0.91836140507E+02  0.27666347172E+03  0.29365261058E+03  0.41800000000E+01 0. -1.
         -5    1    3    3    0  502 -0.67714236684E+01  0.39750886764E+02  0.18169115019E+03  0.18615888814E+03  0.41800000000E+01 0. -1.
        -11    1    4    4    0    0  0.32070595011E+02  0.76254104123E+02  0.27325590956E+03  0.28550307103E+03  0.00000000000E+00 0. -1.
         11    1    4    4    0    0  0.98836371112E+01 -0.24168850380E+02  0.68966800216E+02  0.73744417709E+02  0.00000000000E+00 0.  1.
</event>
<event>
 8    1  0.6615242E-009  0.1081520E+03  0.7561462E-02  0.1264031E+00
         -2   -1    0    0    0  501 -0.00000000000E+00  0.00000000000E+00  0.18332732515E+02  0.18332732515E+02  0.00000000000E+00 0. -1.
          2   -1    0    0  501    0  0.00000000000E+00 -0.00000000000E+00 -0.71277523266E+03  0.71277523266E+03  0.00000000000E+00 0.  1.
         25    2    1    2    0    0 -0.22448051337E+01  0.18974441239E+02 -0.29563886984E+03  0.32160515902E+03  0.12514978377E+03 0.  0.
         23    2    1    2    0    0  0.22448051337E+01 -0.18974441239E+02 -0.39880363030E+03  0.40950280615E+03  0.91011780187E+02 0.  0.
          5    1    3    3  502    0 -0.50313622711E+02 -0.27706651269E+02 -0.16432766236E+03  0.17412688526E+03  0.41800000000E+01 0. -1.
         -5    1    3    3    0  502  0.48068817577E+02  0.46681092508E+02 -0.13131120748E+03  0.14747827375E+03  0.41800000000E+01 0. -1.
        -11    1    4    4    0    0  0.45429733036E+02 -0.16462615004E+02 -0.24564927549E+03  0.25035663539E+03  0.00000000000E+00 0.  1.
         11    1    4    4    0    0 -0.43184927903E+02 -0.25118262344E+01 -0.15315435481E+03  0.15914617076E+03  0.00000000000E+00 0. -1.
</event>
<event>
 8    1  0.6615242E-009  0.1325485E+03  0.7561462E-02  0.1223722E+00
         -1   -1    0    0    0  501 -0.00000000000E+00  0.00000000000E+00  0.36593011291E+02  0.36593011291E+02  0.00000000000E+00 0.  1.
          1   -1    0    0  501    0  0.00000000000E+00 -0.00000000000E+00 -0.50187630996E+03  0.50187630996E+03  0.00000000000E+00 0. -1.
         25    2    1    2    0    0  0.70376826597E+02 -0.29124361646E+02 -0.20492708577E+03  0.25188117736E+03  0.12509152994E+03 0.  0.
         23    2    1    2    0    0 -0.70376826597E+02  0.29124361646E+02 -0.26035621290E+03  0.28658814389E+03  0.92446094888E+02 0.  0.
          5    1    3    3  502    0  0.22881730653E+02  0.48797019407E+02 -0.62024882429E+02  0.82275641237E+02  0.41800000000E+01 0.  1.
         -5    1    3    3    0  502  0.47495095943E+02 -0.77921381052E+02 -0.14290220334E+03  0.16960553612E+03  0.41800000000E+01 0.  1.
        -11    1    4    4    0    0  0.20000780162E+01  0.45449525316E+02 -0.10445904334E+03  0.11393573364E+03  0.00000000000E+00 0.  1.
         11    1    4    4    0    0 -0.72376904613E+02 -0.16325163670E+02 -0.15589716956E+03  0.17265241025E+03  0.00000000000E+00 0. -1.
</event>
<event>
 8    1  0.6615242E-009  0.1554960E+03  0.7561462E-02  0.1193878E+00
          3   -1    0    0  501    0  0.00000000000E+00  0.00000000000E+00  0.44103978412E+02  0.44103978412E+02  0.00000000000E+00 0. -1.
         -3   -1    0    0    0  501 -0.00000000000E+00 -0.00000000000E+00 -0.64922819380E+03  0.64922819380E+03  0.00000000000E+00 0.  1.
         25    2    1    2    0    0 -0.83905006220E+02  0.93679646563E+02 -0.26034587255E+03  0.31502944232E+03  0.12509056690E+03 0.  0.
         23    2    1    2    0    0  0.83905006220E+02 -0.93679646563E+02 -0.34477834284E+03  0.37830272989E+03  0.91787382053E+02 0.  0.
          5    1    3    3  502    0 -0.48931550577E-01 -0.17905344934E+02  0.13185923201E+01  0.18434067843E+02  0.41800000000E+01 0. -1.
         -5    1    3    3    0  502 -0.83856074670E+02  0.11158499150E+03 -0.26166446487E+03  0.29659537448E+03  0.41800000000E+01 0. -1.
        -11    1    4    4    0    0 -0.12674885439E+02 -0.41070247254E+02 -0.67653673623E+02  0.80152588761E+02  0.00000000000E+00 0.  1.
         11    1    4    4    0    0  0.96579891659E+02 -0.52609399309E+02 -0.27712466922E+03  0.29815014113E+03  0.00000000000E+00 0. -1.
</event>
<event>
 8    1  0.6615242E-009  0.1269845E+03  0.7561462E-02  0.1232000E+00
         -2   -1    0    0    0  501 -0.00000000000E+00  0.00000000000E+00  0.52840777977E+02  0.52840777977E+02  0.00000000000E+00 0. -1.
          2   -1    0    0  501    0  0.00000000000E+00 -0.00000000000E+00 -0.39929856961E+03  0.39929856961E+03  0.00000000000E+00 0.  1.
         25    2    1    2    0    0  0.52484215565E+02  0.72163881398E+02 -0.24430695908E+03  0.28860954164E+03  0.12508940247E+03 0.  0.
         23    2    1    2    0    0 -0.52484215565E+02 -0.72163881398E+02 -0.10215083255E+03  0.16352980594E+03  0.91350895887E+02 0.  0.
          5    1    3    3  502    0  0.86703991305E+02  0.32286334853E+02 -0.10690521034E+03  0.14144322509E+03  0.41800000000E+01 0.  1.
         -5    1    3    3    0  502 -0.34219775739E+02  0.39877546546E+02 -0.13740174874E+03  0.14716631655E+03  0.41800000000E+01 0.  1.
        -11    1    4    4    0    0 -0.60977373011E+02 -0.77498539643E+02 -0.50264969571E+02  0.11068347136E+03  0.00000000000E+00 0. -1.
         11    1    4    4    0    0  0.84931574454E+01  0.53346582444E+01 -0.51885862980E+02  0.52846334585E+02  0.00000000000E+00 0.  1.
</event>
<event>
 8    1  0.6615242E-009  0.1678078E+03  0.7561462E-02  0.1180153E+00
         -2   -1    0    0    0  501 -0.00000000000E+00  0.00000000000E+00  0.15981071338E+02  0.15981071338E+02  0.00000000000E+00 0.  1.
          2   -1    0    0  501    0  0.00000000000E+00 -0.00000000000E+00 -0.19337935679E+04  0.19337935679E+04  0.00000000000E+00 0. -1.
         25    2    1    2    0    0 -0.87987894239E+02  0.10317092826E+03 -0.11226324916E+04  0.11376905313E+04  0.12509965522E+03 0.  0.
         23    2    1    2    0    0  0.87987894239E+02 -0.10317092826E+03 -0.79518000493E+03  0.81208410795E+03  0.93718985154E+02 0.  0.
          5    1    3    3  502    0 -0.10823278856E+03  0.10799064781E+03 -0.10709817828E+04  0.10818483110E+04  0.41800000000E+01 0. -1.
         -5    1    3    3    0  502  0.20244894321E+02 -0.48197195479E+01 -0.51650708784E+02  0.55842220232E+02  0.41800000000E+01 0. -1.
        -11    1    4    4    0    0 -0.16389042739E+02 -0.29279364172E+02 -0.10753067101E+03  0.11264425017E+03  0.00000000000E+00 0.  1.
         11    1    4    4    0    0  0.10437693698E+03 -0.73891564088E+02 -0.68764933392E+03  0.69943985778E+03  0.00000000000E+00 0. -1.
</event>
<event>
 8    1  0.6615242E-009  0.1182614E+03  0.7561462E-02  0.1245993E+00
          2   -1    0    0  501    0  0.00000000000E+00  0.00000000000E+00  0.17284703135E+02  0.17284703135E+02  0.00000000000E+00 0. -1.
         -2   -1    0    0    0  501 -0.00000000000E+00 -0.00000000000E+00 -0.11320020573E+04  0.11320020573E+04  0.00000000000E+00 0.  1.
         25    2    1    2    0    0 -0.69020800649E+02  0.53448004451E+02 -0.55783447322E+03  0.57831467018E+03  0.12509195870E+03 0.  0.
         23    2    1    2    0    0  0.69020800649E+02 -0.53448004451E+02 -0.55688288091E+03  0.57097209022E+03  0.90939675920E+02 0.  0.
          5    1    3    3  502    0 -0.80091576952E+02  0.30080212381E+02 -0.17757711307E+03  0.19715624099E+03  0.41800000000E+01 0. -1.
         -5    1    3    3    0  502  0.11070776302E+02  0.23367792070E+02 -0.38025736015E+03  0.38115842919E+03  0.41800000000E+01 0. -1.
        -11    1    4    4    0    0  0.17887269541E+02  0.25176658389E+02 -0.17758372633E+03  0.18024926740E+03  0.00000000000E+00 0.  1.
         11    1    4    4    0    0  0.51133531108E+02 -0.78624662840E+02 -0.37929915458E+03  0.39072282283E+03  0.00000000000E+00 0. -1.
</event>
<event>
 8    1  0.6615242E-009  0.1074026E+03  0.7561462E-02  0.1265457E+00
          1   -1    0    0  501    0  0.00000000000E+00  0.00000000000E+00  0.36370081545E+02  0.36370081545E+02  0.00000000000E+00 0. -1.
         -1   -1    0    0    0  501 -0.00000000000E+00 -0.00000000000E+00 -0.58272966683E+03  0.58272966683E+03  0.00000000000E+00 0.  1.
         25    2    1    2    0    0 -0.76568750943E+02 -0.43484644581E+01 -0.16902326180E+03  0.22382648158E+03  0.12509095915E+03 0.  0.
         23    2    1    2    0    0  0.76568750943E+02  0.43484644581E+01 -0.37733632349E+03  0.39527326680E+03  0.89311654660E+02 0.  0.
          5    1    3    3  502    0 -0.12500341069E+02  0.35505074185E+02  0.87239861769E+00  0.37882744081E+02  0.41800000000E+01 0. -1.
         -5    1    3    3    0  502 -0.64068409875E+02 -0.39853538643E+02 -0.16989566041E+03  0.18594373750E+03  0.41800000000E+01 0. -1.
        -11    1    4    4    0    0  0.38672689935E+02  0.35356505801E+02 -0.29386405918E+03  0.29849915365E+03  0.00000000000E+00 0.  1.
         11    1    4    4    0    0  0.37896061008E+02 -0.31008041343E+02 -0.83472264306E+02  0.96774113151E+02  0.00000000000E+00 0. -1.
</event>
<event>
 8    1  0.6615242E-009  0.9153582E+02  0.7561462E-02  0.1299175E+00
         -1   -1    0    0    0  501 -0.00000000000E+00  0.00000000000E+00  0.93198365505E+03  0.93198365505E+03  0.00000000000E+00 0.  1.
          1   -1    0    0  501    0  0.00000000000E+00 -0.00000000000E+00 -0.15912831584E+02  0.15912831584E+02  0.00000000000E+00 0. -1.
         25    2    1    2    0    0 -0.45990431391E+02  0.59167270454E+01  0.62423871222E+03  0.63833559026E+03  0.12509287956E+03 0.  0.
         23    2    1    2    0    0  0.45990431391E+02 -0.59167270454E+01  0.29183211124E+03  0.30956089638E+03  0.92259633497E+02 0.  0.
          5    1    3    3  502    0 -0.19979461211E+02 -0.40562118327E+02  0.51221896269E+03  0.51422777293E+03  0.41800000000E+01 0. -1.
         -5    1    3    3    0  502 -0.26010970180E+02  0.46478845372E+02  0.11201974953E+03  0.12410781732E+03  0.41800000000E+01 0. -1.
        -11    1    4    4    0    0  0.58919998756E+02 -0.22621349882E+02  0.27610193871E+03  0.28322353765E+03  0.00000000000E+00 0.  1.
         11    1    4    4    0    0 -0.12929567365E+02  0.16704622836E+02  0.15730172538E+02  0.26337358721E+02  0.00000000000E+00 0. -1.
</event>
<event>
 7    1  0.6615242E-009  0.1511711E+03  0.7561462E-02  0.1199041E+00
          1   -1    0    0  501    0  0.00000000000E+00  0.00000000000E+00  0.32531564987E+03  0.32531564987E+03  0.00000000000E+00 0. -1.
         -1   -1    0    0    0  501 -0.00000000000E+00 -0.00000000000E+00 -0.11763357472E+03  0.11763357472E+03  0.00000000000E+00 0.  1.
         23    2    1    2    0    0  0.10408585720E+03 -0.90389734475E+02  0.19471736842E+03  0.25624934575E+03  0.93513121370E+02 0.  0.
          5    1    1    2  502    0 -0.95074661917E+01 -0.16846348655E+02  0.36702140315E+02  0.41697852224E+02  0.41800000000E+01 0. -1.
         -5    1    1    2    0  502 -0.94578391006E+02  0.10723608313E+03 -0.23737433574E+02  0.14500202662E+03  0.41800000000E+01 0. -1.
        -11    1    3    3    0    0  0.58331563906E+02 -0.36489924283E+02  0.26417116303E+02  0.73701763586E+02  0.00000000000E+00 0.  1.
         11    1    3    3    0    0  0.45754293292E+02 -0.53899810192E+02  0.16830025211E+03  0.18254758217E+03  0.00000000000E+00 0. -1.
</event>
<event>
 7    1  0.8218585E-009  0.7829223E+02  0.7561462E-02  0.1333969E+00
         -2   -1    0    0    0  501 -0.00000000000E+00  0.00000000000E+00  0.14686399497E+03  0.14686399497E+03  0.00000000000E+00 0.  1.
          2   -1    0    0  501    0  0.00000000000E+00 -0.00000000000E+00 -0.59346077355E+02  0.59346077355E+02  0.00000000000E+00 0. -1.
         25    2    1    2    0    0  0.30491143186E+02  0.68726965412E+01  0.39168628830E+02  0.13474410386E+03  0.12507936788E+03 0.  0.
          5    1    3    3  502    0 -0.37093924846E+02 -0.26750992684E+02  0.37225073250E+02  0.59116438902E+02  0.41800000000E+01 0. -1.
         -5    1    3    3    0  502  0.67585068032E+02  0.33623689225E+02  0.19435555797E+01  0.75627664953E+02  0.41800000000E+01 0. -1.
        -11    1    1    2    0    0 -0.11608322091E+02 -0.10703621663E+02 -0.34820510221E+01  0.16169271406E+02  0.00000000000E+00 0. -1.
         11    1    1    2    0    0 -0.18882821095E+02  0.38309251218E+01  0.51831339807E+02  0.55296697062E+02  0.00000000000E+00 0.  1.
</event>
<event>
 8    1  0.6615242E-009  0.8900743E+02  0.7561462E-02  0.1305273E+00
          2   -1    0    0  501    0  0.00000000000E+00  0.00000000000E+00  0.12499424380E+03  0.12499424380E+03  0.00000000000E+00 0.  1.
         -2   -1    0    0    0  501 -0.00000000000E+00 -0.00000000000E+00 -0.96865757267E+02  0.96865757267E+02  0.00000000000E+00 0. -1.
         25    2    1    2    0    0  0.13782822945E+02 -0.33912741313E+01  0.32537954435E+02  0.13002352505E+03  0.12508369853E+03 0.  0.
         23    2    1    2    0    0 -0.13782822945E+02  0.33912741313E+01 -0.44094679050E+01  0.91836476016E+02  0.90625757770E+02 0.  0.
          5    1    3    3  502    0 -0.47994328337E+02  0.26501489860E+02  0.26390210481E+01  0.55047446348E+02  0.41800000000E+01 0.  1.
         -5    1    3    3    0  502  0.61777151282E+02 -0.29892763991E+02  0.29898933386E+02  0.74976078700E+02  0.41800000000E+01 0.  1.
        -11    1    4    4    0    0  0.19723483333E+02 -0.35918926878E+01 -0.38576644075E+02  0.43474992306E+02  0.00000000000E+00 0. -1.
         11    1    4    4    0    0 -0.33506306278E+02  0.69831668191E+01  0.34167176170E+02  0.48361483710E+02  0.00000000000E+00 0.  1.
</event>
<event>
 8    1  0.6615242E-009  0.1076377E+03  0.7561462E-02  0.1265008E+00
          1   -1    0    0  501    0  0.00000000000E+00  0.00000000000E+00  0.26397116647E+03  0.26397116647E+03  0.00000000000E+00 0. -1.
         -1   -1    0    0    0  501 -0.00000000000E+00 -0.00000000000E+00 -0.54109803247E+02  0.54109803247E+02  0.00000000000E+00 0.  1.
         25    2    1    2    0    0 -0.10890435676E+02 -0.31158325600E+02  0.17442535479E+03  0.21716620200E+03  0.12509001580E+03 0.  0.
         23    2    1    2    0    0  0.10890435676E+02  0.31158325600E+02  0.35436008431E+02  0.10091476772E+03  0.88536076300E+02 0.  0.
          5    1    3    3  502    0 -0.51602575026E+01 -0.76941223422E+02  0.13836260486E+03  0.15845587065E+03  0.41800000000E+01 0. -1.
         -5    1    3    3    0  502 -0.57301781735E+01  0.45782897822E+02  0.36062749937E+02  0.58710331356E+02  0.41800000000E+01 0. -1.
        -11    1    4    4    0    0  0.47595848549E+02  0.27151164486E+02  0.32878885613E+02  0.63902829759E+02  0.00000000000E+00 0.  1.
         11    1    4    4    0    0 -0.36705412873E+02  0.40071611136E+01  0.25571228176E+01  0.37011937959E+02  0.00000000000E+00 0. -1.
</event>
<event>
 8    1  0.6615242E-009  0.1266164E+03  0.7561462E-02  0.1232565E+00
         -2   -1    0    0    0  501 -0.00000000000E+00  0.00000000000E+00  0.82118160388E+02  0.82118160388E+02  0.00000000000E+00 0.  1.
          2   -1    0    0  501    0  0.00000000000E+00 -0.00000000000E+00 -0.29621239727E+03  0.29621239727E+03  0.00000000000E+00 0. -1.
         25    2    1    2    0    0 -0.81224088123E+02 -0.40577332629E+02 -0.36922195175E+02  0.15891645347E+03  0.12508924124E+03 0.  0.
         23    2    1    2    0    0  0.81224088123E+02  0.40577332629E+02 -0.17717204171E+03  0.21941410418E+03  0.92242855209E+02 0.  0.
          5    1    3    3  502    0 -0.68643011817E+02 -0.79386439453E+02 -0.19983470498E+01  0.10505015769E+03  0.41800000000E+01 0. -1.
         -5    1    3    3    0  502 -0.12581076305E+02  0.38809106824E+02 -0.34923848125E+02  0.53866295782E+02  0.41800000000E+01 0. -1.
        -11    1    4    4    0    0  0.41966610587E+02 -0.10023336164E+02 -0.16058668404E+02  0.46038511085E+02  0.00000000000E+00 0.  1.
         11    1    4    4    0    0  0.39257477536E+02  0.50600668794E+02 -0.16111337330E+03  0.17337559310E+03  0.00000000000E+00 0. -1.
</event>
<event>
 8    1  0.6615242E-009  0.9835174E+02  0.7561462E-02  0.1283801E+00
         -1   -1    0    0    0  501 -0.00000000000E+00  0.00000000000E+00  0.52595538162E+02  0.52595538162E+02  0.00000000000E+00 0.  1.
          1   -1    0    0  501    0  0.00000000000E+00 -0.00000000000E+00 -0.74390559844E+03  0.74390559844E+03  0.00000000000E+00 0. -1.
         25    2    1    2    0    0  0.37546961652E+02  0.54968431455E+02 -0.67677164943E+03  0.69144612432E+03  0.12508626854E+03 0.  0.
         23    2    1    2    0    0 -0.37546961652E+02 -0.54968431455E+02 -0.14538410853E+02  0.10505501229E+03  0.79961787316E+02 0.  0.
          5    1    3    3  502    0  0.57466652050E+02  0.51503628221E+02 -0.20281776837E+03  0.21704275935E+03  0.41800000000E+01 0. -1.
         -5    1    3    3    0  502 -0.19919690397E+02  0.34648032345E+01 -0.47395388106E+03  0.47440336497E+03  0.41800000000E+01 0. -1.
        -11    1    4    4    0    0 -0.52165088806E+02 -0.63240320198E+02  0.12710814451E+01  0.81988720181E+02  0.00000000000E+00 0.  1.
         11    1    4    4    0    0  0.14618127154E+02  0.82718887425E+01 -0.15809492298E+02  0.23066292107E+02  0.00000000000E+00 0. -1.
</event>
<event>
 8    1  0.6615242E-009  0.1519045E+03  0.7561462E-02  0.1198152E+00
         -2   -1    0    0    0  501 -0.00000000000E+00  0.00000000000E+00  0.30098172622E+02  0.30098172622E+02  0.00000000000E+00 0.  1.
          2   -1    0    0  501    0  0.00000000000E+00 -0.00000000000E+00 -0.85125211461E+03  0.85125211461E+03  0.00000000000E+00 0. -1.
         25    2    1    2    0    0  0.10458569123E+03  0.44564154923E+02 -0.35392931940E+03  0.39221834545E+03  0.12508052073E+03 0.  0.
         23    2    1    2    0    0 -0.10458569123E+03 -0.44564154923E+02 -0.46722462260E+03  0.48913194178E+03  0.89593960738E+02 0.  0.
          5    1    3    3  502    0 -0.12143745452E+02  0.46821327896E+02 -0.69956093268E+02  0.85153007492E+02  0.41800000000E+01 0.  1.
         -5    1    3    3    0  502  0.11672943668E+03 -0.22571729738E+01 -0.28397322613E+03  0.30706533796E+03  0.41800000000E+01 0.  1.
        -11    1    4    4    0    0 -0.90089507144E+02  0.15401421758E+01 -0.22969128351E+03  0.24673179174E+03  0.00000000000E+00 0.  1.
         11    1    4    4    0    0 -0.14496184085E+02 -0.46104297098E+02 -0.23753333908E+03  0.24240015004E+03  0.00000000000E+00 0. -1.
</event>
<event>
 7    1  0.6615242E-009  0.1095290E+03  0.7561462E-02  0.1261445E+00
          1   -1    0    0  501    0  0.00000000000E+00  0.00000000000E+00  0.60661054583E+02  0.60661054583E+02  0.00000000000E+00 0. -1.
         -1   -1    0    0    0  501 -0.00000000000E+00 -0.00000000000E+00 -0.20270928372E+03  0.20270928372E+03  0.00000000000E+00 0.  1.
         23    2    1    2    0    0 -0.53025499387E+00  0.71427864134E+01 -0.68276618247E+02  0.11779413408E+03  0.95720744133E+02 0.  0.
          5    1    1    2  502    0 -0.61927737170E+02  0.15185892223E+01 -0.40853342199E+02  0.74322397116E+02  0.41800000000E+01 0. -1.
         -5    1    1    2    0  502  0.62457992164E+02 -0.86613756357E+01 -0.32918268692E+02  0.71253807104E+02  0.41800000000E+01 0. -1.
        -11    1    3    3    0    0 -0.46241943567E+02 -0.49124577624E+01 -0.46439544382E+02  0.65719714459E+02  0.00000000000E+00 0.  1.
         11    1    3    3    0    0  0.45711688573E+02  0.12055244176E+02 -0.21837073865E+02  0.52074419626E+02  0.00000000000E+00 0. -1.
</event>
<event>
 8    1  0.6615242E-009  0.1084916E+03  0.7561462E-02  0.1263389E+00
          2   -1    0    0  501    0  0.00000000000E+00  0.00000000000E+00  0.12202570942E+03  0.12202570942E+03  0.00000000000E+00 0. -1.
         -2   -1    0    0    0  501 -0.00000000000E+00 -0.00000000000E+00 -0.16725591952E+03  0.16725591952E+03  0.00000000000E+00 0.  1.
         25    2    1    2    0    0 -0.21647141977E+02 -0.89089234341E+02 -0.32620400709E+02  0.15848224852E+03  0.12508813742E+03 0.  0.
         23    2    1    2    0    0  0.21647141977E+02  0.89089234341E+02 -0.12609809397E+02  0.13079938042E+03  0.92433652927E+02 0.  0.
          5    1    3    3  502    0  0.43754052800E+01 -0.21051464069E+02 -0.72217288930E+02  0.75466002486E+02  0.41800000000E+01 0. -1.
         -5    1    3    3    0  502 -0.26022547257E+02 -0.68037770272E+02  0.39596888221E+02  0.83016246037E+02  0.41800000000E+01 0. -1.
        -11    1    4    4    0    0  0.40555350846E+02  0.11356079439E+02 -0.26277092464E+02  0.49640533950E+02  0.00000000000E+00 0.  1.
         11    1    4    4    0    0 -0.18908208869E+02  0.77733154902E+02  0.13667283066E+02  0.81158846468E+02  0.00000000000E+00 0. -1.
</event>
<event>
 8    1  0.6615242E-009  0.8185557E+02  0.7561462E-02  0.1323867E+00
          3   -1    0    0  501    0  0.00000000000E+00  0.00000000000E+00  0.13224209053E+03  0.13224209053E+03  0.00000000000E+00 0. -1.
         -3   -1    0    0    0  501 -0.00000000000E+00 -0.00000000000E+00 -0.12970417554E+03  0.12970417554E+03  0.00000000000E+00 0.  1.
         25    2    1    2    0    0 -0.49036874801E+02  0.18485219933E+02  0.50951975148E+02  0.14487805540E+03  0.12508888328E+03 0.  0.
         23    2    1    2    0    0  0.49036874801E+02 -0.18485219933E+02 -0.48414060155E+02  0.11706821067E+03  0.92815549788E+02 0.  0.
          5    1    3    3  502    0 -0.72607288863E+02  0.33174890684E+02  0.73706401855E+02  0.10873131031E+03  0.41800000000E+01 0.  1.
         -5    1    3    3    0  502  0.23570414062E+02 -0.14689670751E+02 -0.22754426707E+02  0.36146745089E+02  0.41800000000E+01 0.  1.
        -11    1    4    4    0    0  0.30813343859E+02 -0.21004842144E+02 -0.75568316862E+02  0.84268832118E+02  0.00000000000E+00 0.  1.
         11    1    4    4    0    0  0.18223530942E+02  0.25196222111E+01  0.27154256706E+02  0.32799378551E+02  0.00000000000E+00 0. -1.
</event>
<event>
 8    1  0.6615242E-009  0.6606421E+02  0.7561462E-02  0.1374013E+00
          1   -1    0    0  501    0  0.00000000000E+00  0.00000000000E+00  0.26042523435E+03  0.26042523435E+03  0.00000000000E+00 0. -1.
         -1   -1    0    0    0  501 -0.00000000000E+00 -0.00000000000E+00 -0.57798550409E+02  0.57798550409E+02  0.00000000000E+00 0.  1.
         25    2    1    2    0    0 -0.36454856154E+02  0.18896688107E+02  0.60319129808E+02  0.14480832211E+03  0.12508001987E+03 0.  0.
         23    2    1    2    0    0  0.36454856154E+02 -0.18896688107E+02  0.14230755413E+03  0.17341546265E+03  0.90196681563E+02 0.  0.
          5    1    3    3  502    0 -0.13886168488E+02 -0.14072005531E+02  0.91657739289E+02  0.93858726747E+02  0.41800000000E+01 0.  1.
         -5    1    3    3    0  502 -0.22568687666E+02  0.32968693638E+02 -0.31338609481E+02  0.50949595360E+02  0.41800000000E+01 0.  1.
        -11    1    4    4    0    0  0.33662456817E+02 -0.38962847852E+02  0.30623609444E+02  0.59908847152E+02  0.00000000000E+00 0.  1.
         11    1    4    4    0    0  0.27923993375E+01  0.20066159745E+02  0.11168394469E+03  0.11350661550E+03  0.00000000000E+00 0. -1.
</event>
<event>
 8    1  0.6615242E-009  0.1181823E+03  0.7561462E-02  0.1246126E+00
          1   -1    0    0  501    0  0.00000000000E+00  0.00000000000E+00  0.58231726449E+03  0.58231726449E+03  0.00000000000E+00 0. -1.
         -1   -1    0    0    0  501 -0.00000000000E+00 -0.00000000000E+00 -0.28774434041E+02  0.28774434041E+02  0.00000000000E+00 0.  1.
         25    2    1    2    0    0  0.47828113860E+02  0.46530310679E+02  0.25812287811E+03  0.29449604023E+03  0.12509156333E+03 0.  0.
         23    2    1    2    0    0 -0.47828113860E+02 -0.46530310679E+02  0.29541995234E+03  0.31659565831E+03  0.92234832528E+02 0.  0.
          5    1    3    3  502    0  0.71381790453E+02  0.65531076446E+02  0.12666018223E+03  0.15953042391E+03  0.41800000000E+01 0.  1.
         -5    1    3    3    0  502 -0.23553676593E+02 -0.19000765767E+02  0.13146269588E+03  0.13496561632E+03  0.41800000000E+01 0.  1.
        -11    1    4    4    0    0 -0.67250248772E+02 -0.10737867385E+02  0.22678021915E+03  0.23678506193E+03  0.00000000000E+00 0.  1.
         11    1    4    4    0    0  0.19422134912E+02 -0.35792443295E+02  0.68639733184E+02  0.79810596371E+02  0.00000000000E+00 0. -1.
</event>
<event>
 8    1  0.6615242E-009  0.1258022E+03  0.7561462E-02  0.1233821E+00
          2   -1    0    0  501    0  0.00000000000E+00  0.00000000000E+00  0.19545582523E+03  0.19545582523E+03  0.00000000000E+00 0. -1.
         -2   -1    0    0    0  501 -0.00000000000E+00 -0.00000000000E+00 -0.12549293315E+03  0.12549293315E+03  0.00000000000E+00 0.  1.
         25    2    1    2    0    0 -0.62659742537E+02 -0.48571276847E+02 -0.46383365862E+02  0.15519283941E+03  0.12509192023E+03 0.  0.
         23    2    1    2    0    0  0.62659742537E+02  0.48571276847E+02  0.11634625795E+03  0.16575591897E+03  0.87482344871E+02 0.  0.
          5    1    3    3  502    0  0.35657252098E+02 -0.24281286091E+02  0.89182482347E+00  0.43350758159E+02  0.41800000000E+01 0.  1.
         -5    1    3    3    0  502 -0.98316994635E+02 -0.24289990756E+02 -0.47275190685E+02  0.11184208125E+03  0.41800000000E+01 0.  1.
        -11    1    4    4    0    0 -0.48171299066E+01 -0.14045843524E+02  0.50335217572E+02  0.52479754085E+02  0.00000000000E+00 0. -1.
         11    1    4    4    0    0  0.67476872444E+02  0.62617120371E+02  0.66011040379E+02  0.11327616488E+03  0.00000000000E+00 0.  1.
</event>
<event>
 8    1  0.6615242E-009  0.7144132E+02  0.7561462E-02  0.1355259E+00
          2   -1    0    0  501    0  0.00000000000E+00  0.00000000000E+00  0.10293631070E+03  0.10293631070E+03  0.00000000000E+00 0. -1.
         -2   -1    0    0    0  501 -0.00000000000E+00 -0.00000000000E+00 -0.20048487575E+03  0.20048487575E+03  0.00000000000E+00 0.  1.
         25    2    1    2    0    0  0.23742112490E+02 -0.34251370422E+02 -0.13836303940E+03  0.19112732265E+03  0.12509387880E+03 0.  0.
         23    2    1    2    0    0 -0.23742112490E+02  0.34251370422E+02  0.40814474343E+02  0.11229386380E+03  0.95954396718E+02 0.  0.
          5    1    3    3  502    0 -0.14547556564E+01  0.13922088072E+02  0.19355434556E+02  0.24249661795E+02  0.41800000000E+01 0.  1.
         -5    1    3    3    0  502  0.25196868146E+02 -0.48173458494E+02 -0.15771847395E+03  0.16687766086E+03  0.41800000000E+01 0.  1.
        -11    1    4    4    0    0 -0.30212482029E+02  0.49043751620E+02  0.62670136099E+02  0.85121264101E+02  0.00000000000E+00 0. -1.
         11    1    4    4    0    0  0.64703695393E+01 -0.14792381199E+02 -0.21855661756E+02  0.27172599697E+02  0.00000000000E+00 0.  1.
</event>
<event>
 8    1  0.6615242E-009  0.1145923E+03  0.7561462E-02  0.1252294E+00
          4   -1    0    0  501    0  0.00000000000E+00  0.00000000000E+00  0.18410884335E+02  0.18410884335E+02  0.00000000000E+00 0.  1.
         -4   -1    0    0    0  501 -0.00000000000E+00 -0.00000000000E+00 -0.10522779399E+04  0.10522779399E+04  0.00000000000E+00 0. -1.
         25    2    1    2    0    0 -0.39342069928E+02 -0.66768196875E+02 -0.73296342997E+03  0.74758875861E+03  0.12509105382E+03 0.  0.
         23    2    1    2    0    0  0.39342069928E+02  0.66768196875E+02 -0.30090362556E+03  0.32310006559E+03  0.88571270338E+02 0.  0.
          5    1    3    3  502    0 -0.71083599606E+02 -0.42430241621E+01 -0.47098594820E+03  0.47635713198E+03  0.41800000000E+01 0. -1.
         -5    1    3    3    0  502  0.31741529678E+02 -0.62525172713E+02 -0.26197748178E+03  0.27123162664E+03  0.41800000000E+01 0. -1.
        -11    1    4    4    0    0 -0.14414510732E+01  0.37210668188E+02 -0.30757062106E+02  0.48298120850E+02  0.00000000000E+00 0.  1.
         11    1    4    4    0    0  0.40783521001E+02  0.29557528687E+02 -0.27014656345E+03  0.27480194474E+03  0.00000000000E+00 0. -1.
</event>
<event>
 8    1  0.6615242E-009  0.7323039E+02  0.7561462E-02  0.1349440E+00
          1   -1    0    0  501    0  0.00000000000E+00  0.00000000000E+00  0.35483955079E+03  0.35483955079E+03  0.00000000000E+00 0. -1.
         -1   -1    0    0    0  501 -0.00000000000E+00 -0.00000000000E+00 -0.50593920823E+02  0.50593920823E+02  0.00000000000E+00 0.  1.
         25    2    1    2    0    0 -0.65856448858E+02 -0.17067098200E+02  0.22226300570E+03  0.26396266768E+03  0.12508832292E+03 0.  0.
         23    2    1    2    0    0  0.65856448858E+02  0.17067098200E+02  0.81982624267E+02  0.14147080393E+03  0.93083188524E+02 0.  0.
          5    1    3    3  502    0 -0.13952679867E+02 -0.18203424219E+02  0.20889283975E+03  0.21018975434E+03  0.41800000000E+01 0. -1.
         -5    1    3    3    0  502 -0.51903768992E+02  0.11363260189E+01  0.13370165951E+02  0.53772913348E+02  0.41800000000E+01 0. -1.
        -11    1    4    4    0    0  0.53326169806E+02  0.48229208165E+01 -0.40270048918E+01  0.53695043717E+02  0.00000000000E+00 0.  1.
         11    1    4    4    0    0  0.12530279052E+02  0.12244177383E+02  0.86009629159E+02  0.87775760213E+02  0.00000000000E+00 0. -1.
</event>
<event>
 8    1  0.6615242E-009  0.1092181E+03  0.7561462E-02  0.1262025E+00
         -2   -1    0    0    0  501 -0.00000000000E+00  0.00000000000E+00  0.23879641896E+02  0.23879641896E+02  0.00000000000E+00 0.  1.
          2   -1    0    0  501    0  0.00000000000E+00 -0.00000000000E+00 -0.68529830536E+03  0.68529830536E+03  0.00000000000E+00 0. -1.
         25    2    1    2    0    0 -0.16238001416E+02 -0.18113582879E+02 -0.19444443379E+03  0.23247732453E+03  0.12508114972E+03 0.  0.
         23    2    1    2    0    0  0.16238001416E+02  0.18113582879E+02 -0.46697422968E+03  0.47670062272E+03  0.92664869006E+02 0.  0.
          5    1    3    3  502    0  0.90083259931E+01 -0.66855718972E+02 -0.13782819363E+03  0.15350869831E+03  0.41800000000E+01 0. -1.
         -5    1    3    3    0  502 -0.25246327409E+02  0.48742136093E+02 -0.56616240156E+02  0.78968626225E+02  0.41800000000E+01 0. -1.
        -11    1    4    4    0    0 -0.11970123323E+01 -0.37496986797E+02 -0.18608617017E+03  0.18983023886E+03  0.00000000000E+00 0.  1.
         11    1    4    4    0    0  0.17435013748E+02  0.55610569676E+02 -0.28088805951E+03  0.28687038387E+03  0.00000000000E+00 0. -1.
</event>
<event>
 8    1  0.6615242E-009  0.1276307E+03  0.7561462E-02  0.1231014E+00
         -1   -1    0    0    0  501 -0.00000000000E+00  0.00000000000E+00  0.33752539981E+02  0.33752539981E+02  0.00000000000E+00 0. -1.
          1   -1    0    0  501    0  0.00000000000E+00 -0.00000000000E+00 -0.66002944241E+03  0.66002944241E+03  0.00000000000E+00 0.  1.
         25    2    1    2    0    0 -0.75092595499E+02  0.60714996770E+02 -0.41547610738E+03  0.44450571851E+03  0.12505890316E+03 0.  0.
         23    2    1    2    0    0  0.75092595499E+02 -0.60714996770E+02 -0.21080079505E+03  0.24927626388E+03  0.91523067071E+02 0.  0.
          5    1    3    3  502    0  0.32097846222E+02  0.25484768256E+02 -0.15949042196E+03  0.16472526291E+03  0.41800000000E+01 0.  1.
         -5    1    3    3    0  502 -0.10719044172E+03  0.35230228514E+02 -0.25598568542E+03  0.27978045560E+03  0.41800000000E+01 0.  1.
        -11    1    4    4    0    0  0.30570232637E+02 -0.44044951368E+02 -0.18993660193E+03  0.19735858131E+03  0.00000000000E+00 0.  1.
         11    1    4    4    0    0  0.44522362861E+02 -0.16670045403E+02 -0.20864193125E+02  0.51917682568E+02  0.00000000000E+00 0. -1.
</event>
<event>
 8    1  0.6615242E-009  0.9156294E+02  0.7561462E-02  0.1299110E+00
         -2   -1    0    0    0  501 -0.00000000000E+00  0.00000000000E+00  0.56014053673E+02  0.56014053673E+02  0.00000000000E+00 0.  1.
          2   -1    0    0  501    0  0.00000000000E+00 -0.00000000000E+00 -0.36255923982E+03  0.36255923982E+03  0.00000000000E+00 0. -1.
         25    2    1    2    0    0 -0.45695211932E+00  0.53038893363E+02 -0.52757679013E+02  0.14575424191E+03  0.12509034066E+03 0.  0.
         23    2    1    2    0    0  0.45695211932E+00 -0.53038893363E+02 -0.25378750713E+03  0.27281905158E+03  0.84904670752E+02 0.  0.
          5    1    3    3  502    0 -0.42723847041E+02  0.34324172245E+02  0.20808639008E+02  0.58770296610E+02  0.41800000000E+01 0.  1.
         -5    1    3    3    0  502  0.42266894921E+02  0.18714721118E+02 -0.73566318020E+02  0.86983945300E+02  0.41800000000E+01 0.  1.
        -11    1    4    4    0    0 -0.30678558819E+02 -0.30918081183E+02 -0.53818830815E+02  0.69235599698E+02  0.00000000000E+00 0.  1.
         11    1    4    4    0    0  0.31135510939E+02 -0.22120812180E+02 -0.19996867632E+03  0.20358345188E+03  0.00000000000E+00 0. -1.
</event>
<event>
 8    1  0.6615242E-009  0.1020730E+03  0.7561462E-02  0.1275996E+00
         -1   -1    0    0    0  501 -0.00000000000E+00  0.00000000000E+00  0.23366456108E+02  0.23366456108E+02  0.00000000000E+00 0.  1.
          1   -1    0    0  501    0  0.00000000000E+00 -0.00000000000E+00 -0.58245606794E+03  0.58245606794E+03  0.00000000000E+00 0. -1.
         25    2    1    2    0    0 -0.14306015299E+02 -0.12459404546E+02 -0.41500964299E+03  0.43386352966E+03  0.12507861432E+03 0.  0.
         23    2    1    2    0    0  0.14306015299E+02  0.12459404546E+02 -0.14407996883E+03  0.17195899438E+03  0.91929100362E+02 0.  0.
          5    1    3    3  502    0 -0.65548170648E+02  0.52214629178E+01 -0.15839031563E+03  0.17154821723E+03  0.41800000000E+01 0.  1.
         -5    1    3    3    0  502  0.51242155349E+02 -0.17680867464E+02 -0.25661932737E+03  0.26231531243E+03  0.41800000000E+01 0.  1.
        -11    1    4    4    0    0  0.34478951156E+02  0.38021372281E+02 -0.47115419666E+02  0.69672703358E+02  0.00000000000E+00 0. -1.
         11    1    4    4    0    0 -0.20172935856E+02 -0.25561967735E+02 -0.96964549168E+02  0.10228629102E+03  0.00000000000E+00 0.  1.
</event>
<event>
 8    1  0.6615242E-009  0.1105428E+03  0.7561462E-02  0.1259568E+00
          2   -1    0    0  501    0  0.00000000000E+00  0.00000000000E+00  0.55310180351E+02  0.55310180351E+02  0.00000000000E+00 0. -1.
         -2   -1    0    0    0  501 -0.00000000000E+00 -0.00000000000E+00 -0.22418915858E+03  0.22418915858E+03  0.00000000000E+00 0.  1.
         25    2    1    2    0    0  0.11474887522E+01 -0.25881405847E+02 -0.85082952900E+02  0.15348720420E+03  0.12509216235E+03 0.  0.
         23    2    1    2    0    0 -0.11474887522E+01  0.25881405847E+02 -0.83796025327E+02  0.12601213473E+03  0.90477181317E+02 0.  0.
          5    1    3    3  502    0 -0.61311260726E+02 -0.16905097527E+02 -0.34284495379E+02  0.72372315408E+02  0.41800000000E+01 0.  1.
         -5    1    3    3    0  502  0.62458749478E+02 -0.89763083201E+01 -0.50798457521E+02  0.81114888793E+02  0.41800000000E+01 0.  1.
        -11    1    4    4    0    0  0.67207610697E+01 -0.33521541076E+02 -0.29979875153E+02  0.45471477430E+02  0.00000000000E+00 0.  1.
         11    1    4    4    0    0 -0.78682498219E+01  0.59402946923E+02 -0.53816150174E+02  0.80540657298E+02  0.00000000000E+00 0. -1.
</event>
<event>
 8    1  0.6615242E-009  0.1085160E+03  0.7561462E-02  0.1263343E+00
          2   -1    0    0  501    0  0.00000000000E+00  0.00000000000E+00  0.38309550514E+03  0.38309550514E+03  0.00000000000E+00 0. -1.
         -2   -1    0    0    0  501 -0.00000000000E+00 -0.00000000000E+00 -0.51089538712E+02  0.51089538712E+02  0.00000000000E+00 0.  1.
         25    2    1    2    0    0  0.50557950330E+02  0.59583431198E+02  0.24265138843E+03  0.28396062768E+03  0.12509056779E+03 0.  0.
         23    2    1    2    0    0 -0.50557950330E+02 -0.59583431198E+02  0.89354578001E+02  0.15022441618E+03  0.92069772408E+02 0.  0.
          5    1    3    3  502    0  0.32404987530E+02 -0.65225251514E+01  0.16444946142E+01  0.33358706715E+02  0.41800000000E+01 0. -1.
         -5    1    3    3    0  502  0.18152962800E+02  0.66105956349E+02  0.24100689382E+03  0.25060192096E+03  0.41800000000E+01 0. -1.
        -11    1    4    4    0    0 -0.52761207499E+02  0.25863833300E+01  0.18581934807E+02  0.55997524022E+02  0.00000000000E+00 0.  1.
         11    1    4    4    0    0  0.22032571688E+01 -0.62169814528E+02  0.70772643194E+02  0.94226892155E+02  0.00000000000E+00 0. -1.
</event>
<event>
 8    1  0.6615242E-009  0.1589902E+03  0.7561462E-02  0.1189842E+00
         -2   -1    0    0    0  501 -0.00000000000E+00  0.00000000000E+00  0.35668696548E+02  0.35668696548E+02  0.00000000000E+00 0.  1.
          2   -1    0    0  501    0  0.00000000000E+00 -0.00000000000E+00 -0.83160745441E+03  0.83160745441E+03  0.00000000000E+00 0. -1.
         25    2    1    2    0    0  0.66640496437E+01 -0.12718315259E+03 -0.31967829437E+03  0.36614377514E+03  0.12508832208E+03 0.  0.
         23    2    1    2    0    0 -0.66640496437E+01  0.12718315259E+03 -0.47626046350E+03  0.50113237582E+03  0.89942565840E+02 0.  0.
          5    1    3    3  502    0  0.40487913198E+02 -0.13578428837E+03 -0.23475320816E+03  0.27423199162E+03  0.41800000000E+01 0. -1.
         -5    1    3    3    0  502 -0.33823863555E+02  0.86011357823E+01 -0.84925086207E+02  0.91911783520E+02  0.41800000000E+01 0. -1.
        -11    1    4    4    0    0 -0.23360800020E+02  0.15233109977E+02 -0.30947492134E+02  0.41659595371E+02  0.00000000000E+00 0.  1.
         11    1    4    4    0    0  0.16696750376E+02  0.11195004261E+03 -0.44531297136E+03  0.45947278045E+03  0.00000000000E+00 0. -1.
</event>
<event>
 8    1  0.6615242E-009  0.1477809E+03  0.7561462E-02  0.1203227E+00
          1   -1    0    0  501    0  0.00000000000E+00  0.00000000000E+00  0.69023715804E+03  0.69023715804E+03  0.00000000000E+00 0. -1.
         -1   -1    0    0    0  501 -0.00000000000E+00 -0.00000000000E+00 -0.57911118171E+02  0.57911118171E+02  0.00000000000E+00 0.  1.
         25    2    1    2    0    0  0.32795940482E+02 -0.13720007595E+03  0.16158560366E+03  0.24830788139E+03  0.12508981613E+03 0.  0.
         23    2    1    2    0    0 -0.32795940482E+02  0.13720007595E+03  0.47074043621E+03  0.49984039481E+03  0.91347837705E+02 0.  0.
          5    1    3    3  502    0  0.12258282602E+02 -0.13235051746E+03  0.17732700207E+03  0.22165121932E+03  0.41800000000E+01 0. -1.
         -5    1    3    3    0  502  0.20537657881E+02 -0.48495584955E+01 -0.15741398413E+02  0.26656662072E+02  0.41800000000E+01 0. -1.
        -11    1    4    4    0    0 -0.12694133714E+02  0.54343684212E+02  0.33448332922E+03  0.33910687780E+03  0.00000000000E+00 0. -1.
         11    1    4    4    0    0 -0.20101806768E+02  0.82856391739E+02  0.13625710699E+03  0.16073351702E+03  0.00000000000E+00 0.  1.
</event>
<event>
 8    1  0.6615242E-009  0.1019825E+03  0.7561462E-02  0.1276181E+00
          1   -1    0    0  501    0  0.00000000000E+00  0.00000000000E+00  0.35309342102E+03  0.35309342102E+03  0.00000000000E+00 0. -1.
         -1   -1    0    0    0  501 -0.00000000000E+00 -0.00000000000E+00 -0.33396722290E+02  0.33396722290E+02  0.00000000000E+00 0.  1.
         25    2    1    2    0    0  0.24891429988E+02 -0.29576210348E+02  0.18087255898E+03  0.22330220813E+03  0.12511857599E+03 0.  0.
         23    2    1    2    0    0 -0.24891429988E+02  0.29576210348E+02  0.13882413975E+03  0.16318793518E+03  0.76575615615E+02 0.  0.
          5    1    3    3  502    0 -0.48874595726E+02 -0.22420173041E+02  0.99366454609E+02  0.11305996183E+03  0.41800000000E+01 0.  1.
         -5    1    3    3    0  502  0.73766025714E+02 -0.71560373067E+01  0.81506104374E+02  0.11024224630E+03  0.41800000000E+01 0.  1.
        -11    1    4    4    0    0 -0.16346117632E+01 -0.20511952642E+02  0.96968301689E+01  0.22747322307E+02  0.00000000000E+00 0.  1.
         11    1    4    4    0    0 -0.23256818225E+02  0.50088162990E+02  0.12912730958E+03  0.14044061287E+03  0.00000000000E+00 0. -1.
</event>
<event>
 8    1  0.6615242E-009  0.2765263E+03  0.7561462E-02  0.1097601E+00
          2   -1    0    0  501    0  0.00000000000E+00  0.00000000000E+00  0.80641529856E+02  0.80641529856E+02  0.00000000000E+00 0. -1.
         -2   -1    0    0    0  501 -0.00000000000E+00 -0.00000000000E+00 -0.10536943515E+04  0.10536943515E+04  0.00000000000E+00 0.  1.
         25    2    1    2    0    0  0.25579366392E+03  0.80159109919E+02 -0.57055035986E+03  0.64268227259E+03  0.12512757072E+03 0.  0.
         23    2    1    2    0    0 -0.25579366392E+03 -0.80159109919E+02 -0.40250246180E+03  0.49165360878E+03  0.88651891530E+02 0.  0.
          5    1    3    3  502    0  0.19783269714E+03  0.84649081092E+02 -0.52899329411E+03  0.57109948397E+03  0.41800000000E+01 0. -1.
         -5    1    3    3    0  502  0.57960966780E+02 -0.44899711734E+01 -0.41557065757E+02  0.71582788613E+02  0.41800000000E+01 0. -1.
        -11    1    4    4    0    0 -0.60920111161E+02  0.14910876014E+02 -0.63588224023E+02  0.89314368394E+02  0.00000000000E+00 0. -1.
         11    1    4    4    0    0 -0.19487355276E+03 -0.95069985932E+02 -0.33891423778E+03  0.40233924039E+03  0.00000000000E+00 0.  1.
</event>
<event>
 8    1  0.6615242E-009  0.9141270E+02  0.7561462E-02  0.1299466E+00
         -1   -1    0    0    0  501 -0.00000000000E+00  0.00000000000E+00  0.34122442963E+02  0.34122442963E+02  0.00000000000E+00 0.  1.
          1   -1    0    0  501    0  0.00000000000E+00 -0.00000000000E+00 -0.63590344175E+03  0.63590344175E+03  0.00000000000E+00 0. -1.
         25    2    1    2    0    0  0.66425407262E+01  0.20702255417E+02 -0.54887903740E+03  0.56337264103E+03  0.12509127965E+03 0.  0.
         23    2    1    2    0    0 -0.66425407262E+01 -0.20702255417E+02 -0.52901961389E+02  0.10665324368E+03  0.90019943024E+02 0.  0.
          5    1    3    3  502    0 -0.31509869411E+02 -0.20798288098E+02 -0.43068183475E+03  0.43235373925E+03  0.41800000000E+01 0.  1.
         -5    1    3    3    0  502  0.38152410137E+02  0.41500543515E+02 -0.11819720265E+03  0.13101890178E+03  0.41800000000E+01 0.  1.
        -11    1    4    4    0    0  0.39159251293E+02 -0.32352332429E+01 -0.39766853357E+02  0.55904528635E+02  0.00000000000E+00 0. -1.
         11    1    4    4    0    0 -0.45801792019E+02 -0.17467022174E+02 -0.13135108032E+02  0.50748715046E+02  0.00000000000E+00 0.  1.
</event>
<event>
 8    1  0.6615242E-009  0.3220344E+03  0.7561462E-02  0.1074717E+00
          2   -1    0    0  501    0  0.00000000000E+00  0.00000000000E+00  0.18772752260E+04  0.18772752260E+04  0.00000000000E+00 0.  1.
         -2   -1    0    0    0  501 -0.00000000000E+00 -0.00000000000E+00 -0.60806519944E+02  0.60806519944E+02  0.00000000000E+00 0. -1.
         25    2    1    2    0    0  0.13114348644E+03  0.27732240101E+03  0.11728309159E+04  0.12187231512E+04  0.12508970281E+03 0.  0.
         23    2    1    2    0    0 -0.13114348644E+03 -0.27732240101E+03  0.64363779014E+03  0.71935859477E+03  0.95398400563E+02 0.  0.
          5    1    3    3  502    0 -0.89934793788E+01  0.82399158746E+02  0.43374754651E+03  0.44161624805E+03  0.41800000000E+01 0. -1.
         -5    1    3    3    0  502  0.14013696582E+03  0.19492324227E+03  0.73908336941E+03  0.77710690314E+03  0.41800000000E+01 0. -1.
        -11    1    4    4    0    0 -0.10880953131E+03 -0.11966738036E+03  0.33960353657E+03  0.37615204117E+03  0.00000000000E+00 0.  1.
         11    1    4    4    0    0 -0.22333955138E+02 -0.15765502065E+03  0.30403425358E+03  0.34320655361E+03  0.00000000000E+00 0. -1.
</event>
<event>
 8    1  0.6615242E-009  0.1123194E+03  0.7561462E-02  0.1256334E+00
          2   -1    0    0  501    0  0.00000000000E+00  0.00000000000E+00  0.28193417689E+03  0.28193417689E+03  0.00000000000E+00 0. -1.
         -2   -1    0    0    0  501 -0.00000000000E+00 -0.00000000000E+00 -0.83582500170E+02  0.83582500170E+02  0.00000000000E+00 0.  1.
         25    2    1    2    0    0  0.28202637839E+02  0.99958866248E+02  0.76632673619E+02  0.17977237886E+03  0.12513344002E+03 0.  0.
         23    2    1    2    0    0 -0.28202637839E+02 -0.99958866248E+02  0.12171900310E+03  0.18574429820E+03  0.94330614730E+02 0.  0.
          5    1    3    3  502    0  0.37520391155E+02  0.74518084727E+02 -0.14341283538E+02  0.84757710666E+02  0.41800000000E+01 0. -1.
         -5    1    3    3    0  502 -0.93177533157E+01  0.25440781521E+02  0.90973957157E+02  0.95014668195E+02  0.41800000000E+01 0. -1.
        -11    1    4    4    0    0  0.11895780391E+02 -0.38585889448E+02  0.10218790962E+03  0.10987606349E+03  0.00000000000E+00 0. -1.
         11    1    4    4    0    0 -0.40098418230E+02 -0.61372976801E+02  0.19531093485E+02  0.75868234714E+02  0.00000000000E+00 0.  1.
</event>
<event>
 8    1  0.6615242E-009  0.1238439E+03  0.7561462E-02  0.1236887E+00
          1   -1    0    0  501    0  0.00000000000E+00  0.00000000000E+00  0.95403919924E+03  0.95403919924E+03  0.00000000000E+00 0. -1.
         -1   -1    0    0    0  501 -0.00000000000E+00 -0.00000000000E+00 -0.19424490380E+02  0.19424490380E+02  0.00000000000E+00 0.  1.
         25    2    1    2    0    0  0.71302390044E+02 -0.13546685105E+01  0.51584218378E+03  0.53556156094E+03  0.12508861273E+03 0.  0.
         23    2    1    2    0    0 -0.71302390044E+02  0.13546685105E+01  0.41877252508E+03  0.43790212868E+03  0.10631077363E+03 0.  0.
          5    1    3    3  502    0  0.73792022988E+01 -0.45112812178E+02  0.34362633181E+03  0.34667873711E+03  0.41800000000E+01 0.  1.
         -5    1    3    3    0  502  0.63923187745E+02  0.43758143668E+02  0.17221585197E+03  0.18888282383E+03  0.41800000000E+01 0.  1.
        -11    1    4    4    0    0 -0.88524875779E+02  0.27676808188E+02  0.35319858530E+03  0.36517379425E+03  0.00000000000E+00 0. -1.
         11    1    4    4    0    0  0.17222485735E+02 -0.26322139677E+02  0.65573939770E+02  0.72728334431E+02  0.00000000000E+00 0.  1.
</event>
<event>
 8    1  0.6615242E-009  0.1118985E+03  0.7561462E-02  0.1257094E+00
          2   -1    0    0  501    0  0.00000000000E+00  0.00000000000E+00  0.53705935313E+03  0.53705935313E+03  0.00000000000E+00 0. -1.
         -2   -1    0    0    0  501 -0.00000000000E+00 -0.00000000000E+00 -0.28935758955E+02  0.28935758955E+02  0.00000000000E+00 0.  1.
         25    2    1    2    0    0 -0.49461298508E+02  0.30570340914E+02  0.24594902620E+03  0.28198828313E+03  0.12508198328E+03 0.  0.
         23    2    1    2    0    0  0.49461298508E+02 -0.30570340914E+02  0.26217456798E+03  0.28400682895E+03  0.92430563156E+02 0.  0.
          5    1    3    3  502    0  0.40144235053E+02  0.26035811679E+02  0.80923167985E+02  0.94103425094E+02  0.41800000000E+01 0.  1.
         -5    1    3    3    0  502 -0.89605533561E+02  0.45345292355E+01  0.16502585822E+03  0.18788485804E+03  0.41800000000E+01 0.  1.
        -11    1    4    4    0    0  0.29352704876E+02 -0.50005369111E+02  0.24366860988E+03  0.25047257268E+03  0.00000000000E+00 0. -1.
         11    1    4    4    0    0  0.20108593632E+02  0.19435028197E+02  0.18505958096E+02  0.33534256275E+02  0.00000000000E+00 0.  1.
</event>
<event>
 8    1  0.6615242E-009  0.2688398E+03  0.7561462E-02  0.1101945E+00
          2   -1    0    0  501    0  0.00000000000E+00  0.00000000000E+00  0.16940903710E+04  0.16940903710E+04  0.00000000000E+00 0. -1.
         -2   -1    0    0    0  501 -0.00000000000E+00 -0.00000000000E+00 -0.46152471688E+02  0.46152471688E+02  0.00000000000E+00 0.  1.
         25    2    1    2    0    0  0.22573990958E+03 -0.12526493375E+03  0.87475728775E+03  0.92059763004E+03  0.12509945462E+03 0.  0.
         23    2    1    2    0    0 -0.22573990958E+03  0.12526493375E+03  0.77318061158E+03  0.81964521267E+03  0.85791643703E+02 0.  0.
          5    1    3    3  502    0  0.20866628207E+02 -0.53503706050E+02  0.31476409760E+03  0.31998745643E+03  0.41800000000E+01 0. -1.
         -5    1    3    3    0  502  0.20487328138E+03 -0.71761227696E+02  0.55999319015E+03  0.60061017361E+03  0.41800000000E+01 0. -1.
        -11    1    4    4    0    0 -0.19264262902E+03  0.84203405584E+02  0.51739701443E+03  0.55848103510E+03  0.00000000000E+00 0.  1.
         11    1    4    4    0    0 -0.33097280568E+02  0.41061528162E+02  0.25578359715E+03  0.26116417757E+03  0.00000000000E+00 0. -1.
</event>
<event>
 8    1  0.6615242E-009  0.8218036E+02  0.7561462E-02  0.1322975E+00
          2   -1    0    0  501    0  0.00000000000E+00  0.00000000000E+00  0.28579331720E+03  0.28579331720E+03  0.00000000000E+00 0. -1.
         -2   -1    0    0    0  501 -0.00000000000E+00 -0.00000000000E+00 -0.45528897812E+02  0.45528897812E+02  0.00000000000E+00 0.  1.
         25    2    1    2    0    0  0.31352903628E+02 -0.12622049924E+02  0.11549267463E+03  0.17357299829E+03  0.12508679839E+03 0.  0.
         23    2    1    2    0    0 -0.31352903628E+02  0.12622049924E+02  0.12477174476E+03  0.15774921672E+03  0.90412976815E+02 0.  0.
          5    1    3    3  502    0 -0.22085064004E+01 -0.44146936017E+02 -0.48412580934E+01  0.44662508216E+02  0.41800000000E+01 0.  1.
         -5    1    3    3    0  502  0.33561410029E+02  0.31524886094E+02  0.12033393272E+03  0.12891049007E+03  0.41800000000E+01 0.  1.
        -11    1    4    4    0    0 -0.79768630422E+01  0.38230214427E+02  0.11540415496E+03  0.12183307688E+03  0.00000000000E+00 0. -1.
         11    1    4    4    0    0 -0.23376040586E+02 -0.25608164504E+02  0.93675897956E+01  0.35916139844E+02  0.00000000000E+00 0.  1.
</event>
<event>
 8    1  0.6615242E-009  0.1764534E+03  0.7561462E-02  0.1171280E+00
          2   -1    0    0  501    0  0.00000000000E+00  0.00000000000E+00  0.65892186130E+03  0.65892186130E+03  0.00000000000E+00 0. -1.
         -2   -1    0    0    0  501 -0.00000000000E+00 -0.00000000000E+00 -0.54541516583E+02  0.54541516583E+02  0.00000000000E+00 0.  1.
         25    2    1    2    0    0  0.41048205453E+02  0.13811414400E+03  0.20852985337E+03  0.28265352447E+03  0.12509133944E+03 0.  0.
         23    2    1    2    0    0 -0.41048205453E+02 -0.13811414400E+03  0.39585049135E+03  0.43080985342E+03  0.90216663397E+02 0.  0.
          5    1    3    3  502    0  0.64218097056E+02  0.14656150106E+03  0.15156880891E+03  0.22044231403E+03  0.41800000000E+01 0.  1.
         -5    1    3    3    0  502 -0.23169891603E+02 -0.84473570508E+01  0.56961044457E+02  0.62211210434E+02  0.41800000000E+01 0.  1.
        -11    1    4    4    0    0  0.26677534597E+02 -0.29021241925E+02  0.12489725127E+03  0.13097040394E+03  0.00000000000E+00 0.  1.
         11    1    4    4    0    0 -0.67725740050E+02 -0.10909290208E+03  0.27095324008E+03  0.29983944948E+03  0.00000000000E+00 0. -1.
</event>
<event>
 8    1  0.6615242E-009  0.1543902E+03  0.7561462E-02  0.1195180E+00
          1   -1    0    0  501    0  0.00000000000E+00  0.00000000000E+00  0.93491238220E+02  0.93491238220E+02  0.00000000000E+00 0. -1.
         -1   -1    0    0    0  501 -0.00000000000E+00 -0.00000000000E+00 -0.25901800229E+03  0.25901800229E+03  0.00000000000E+00 0.  1.
         25    2    1    2    0    0  0.68007378904E+02  0.87664925140E+02 -0.10503411811E+03  0.19745861498E+03  0.12509035126E+03 0.  0.
         23    2    1    2    0    0 -0.68007378904E+02 -0.87664925140E+02 -0.60492645968E+02  0.15505062553E+03  0.89839821775E+02 0.  0.
          5    1    3    3  502    0  0.70157883992E+02  0.11753993530E+03 -0.86989842801E+02  0.16224201129E+03  0.41800000000E+01 0. -1.
         -5    1    3    3    0  502 -0.21505050882E+01 -0.29875010162E+02 -0.18044275307E+02  0.35216603693E+02  0.41800000000E+01 0. -1.
        -11    1    4    4    0    0  0.20843575164E+02 -0.26520352280E+02 -0.23154411508E+02  0.40913451125E+02  0.00000000000E+00 0.  1.
         11    1    4    4    0    0 -0.88850954068E+02 -0.61144572860E+02 -0.37338234459E+02  0.11413717441E+03  0.00000000000E+00 0. -1.
</event>
<event>
 8    1  0.6615242E-009  0.2717697E+03  0.7561462E-02  0.1100271E+00
         -1   -1    0    0    0  501 -0.00000000000E+00  0.00000000000E+00  0.13543891227E+03  0.13543891227E+03  0.00000000000E+00 0.  1.
          1   -1    0    0  501    0  0.00000000000E+00 -0.00000000000E+00 -0.71025753749E+03  0.71025753749E+03  0.00000000000E+00 0. -1.
         25    2    1    2    0    0  0.20915851701E+03 -0.15456128908E+03 -0.11712191752E+03  0.31145151264E+03  0.12509206146E+03 0.  0.
         23    2    1    2    0    0 -0.20915851701E+03  0.15456128908E+03 -0.45769670770E+03  0.53424493713E+03  0.91076337690E+02 0.  0.
          5    1    3    3  502    0  0.21076997372E+03 -0.10833115296E+03 -0.74599622679E+02  0.24847977107E+03  0.41800000000E+01 0. -1.
         -5    1    3    3    0  502 -0.16114567096E+01 -0.46230136114E+02 -0.42522294839E+02  0.62971741569E+02  0.41800000000E+01 0. -1.
        -11    1    4    4    0    0 -0.69683414768E+02  0.50499783711E+02 -0.76247078222E+02  0.11497662104E+03  0.00000000000E+00 0.  1.
         11    1    4    4    0    0 -0.13947510225E+03  0.10406150536E+03 -0.38144962948E+03  0.41926831609E+03  0.00000000000E+00 0. -1.
</event>
<event>
 8    1  0.6615242E-009  0.1191330E+03  0.7561462E-02  0.1244534E+00
         -1   -1    0    0    0  501 -0.00000000000E+00  0.00000000000E+00  0.16933994694E+02  0.16933994694E+02  0.00000000000E+00 0.  1.
          1   -1    0    0  501    0  0.00000000000E+00 -0.00000000000E+00 -0.15414795052E+04  0.15414795052E+04  0.00000000000E+00 0. -1.
         25    2    1    2    0    0 -0.12205863261E+02  0.10628505954E+03 -0.10699872646E+04  0.10825734239E+04  0.12508786763E+03 0.  0.
         23    2    1    2    0    0  0.12205863261E+02 -0.10628505954E+03 -0.45455824586E+03  0.47584007600E+03  0.91406138040E+02 0.  0.
          5    1    3    3  502    0 -0.32331667089E+02  0.51521896280E+02 -0.16851699298E+03  0.17920739888E+03  0.41800000000E+01 0.  1.
         -5    1    3    3    0  502  0.20125803829E+02  0.54763163263E+02 -0.90147027167E+03  0.90336602500E+03  0.41800000000E+01 0.  1.
        -11    1    4    4    0    0 -0.19960062559E+02 -0.52053641255E+02 -0.89989052073E+02  0.10585846758E+03  0.00000000000E+00 0.  1.
         11    1    4    4    0    0  0.32165925820E+02 -0.54231418288E+02 -0.36456919378E+03  0.36998160842E+03  0.00000000000E+00 0. -1.
</event>
<event>
 8    1  0.6615242E-009  0.9445431E+02  0.7561462E-02  0.1292410E+00
         -1   -1    0    0    0  501 -0.00000000000E+00  0.00000000000E+00  0.61020314459E+02  0.61020314459E+02  0.00000000000E+00 0.  1.
          1   -1    0    0  501    0  0.00000000000E+00 -0.00000000000E+00 -0.26660179283E+03  0.26660179283E+03  0.00000000000E+00 0. -1.
         25    2    1    2    0    0 -0.28326482779E+02 -0.22592336798E+02 -0.41395210150E+02  0.13663338982E+03  0.12506924675E+03 0.  0.
         23    2    1    2    0    0  0.28326482779E+02  0.22592336798E+02 -0.16418626822E+03  0.19098871747E+03  0.90591148677E+02 0.  0.
          5    1    3    3  502    0 -0.70552264749E+02  0.88697419729E+01 -0.29334315850E+01  0.71290755395E+02  0.41800000000E+01 0. -1.
         -5    1    3    3    0  502  0.42225781970E+02 -0.31462078770E+02 -0.38461778565E+02  0.65342634428E+02  0.41800000000E+01 0. -1.
        -11    1    4    4    0    0 -0.71520138602E+01 -0.12849755925E+02  0.41995850048E+01  0.15293921793E+02  0.00000000000E+00 0.  1.
         11    1    4    4    0    0  0.35478496639E+02  0.35442092723E+02 -0.16838585323E+03  0.17569479567E+03  0.00000000000E+00 0. -1.
</event>
<event>
 8    1  0.6615242E-009  0.9704831E+02  0.7561462E-02  0.1286628E+00
          2   -1    0    0  501    0  0.00000000000E+00  0.00000000000E+00  0.17402243027E+04  0.17402243027E+04  0.00000000000E+00 0. -1.
         -2   -1    0    0    0  501 -0.00000000000E+00 -0.00000000000E+00 -0.96912370666E+01  0.96912370666E+01  0.00000000000E+00 0.  1.
         25    2    1    2    0    0  0.50315751933E+01  0.12737133738E+02  0.14203285081E+04  0.14258923997E+04  0.12509401744E+03 0.  0.
         23    2    1    2    0    0 -0.50315751933E+01 -0.12737133738E+02  0.31020455750E+03  0.32402314006E+03  0.92609807664E+02 0.  0.
          5    1    3    3  502    0  0.46456362118E+02 -0.27578519928E+02  0.10145492632E+04  0.10159952993E+04  0.41800000000E+01 0.  1.
         -5    1    3    3    0  502 -0.41424786924E+02  0.40315653666E+02  0.40577924496E+03  0.40989710043E+03  0.41800000000E+01 0.  1.
        -11    1    4    4    0    0 -0.31807979201E+02 -0.34881853712E+02  0.25078752615E+03  0.25519183869E+03  0.00000000000E+00 0. -1.
         11    1    4    4    0    0  0.26776404008E+02  0.22144719974E+02  0.59417031345E+02  0.68831301370E+02  0.00000000000E+00 0.  1.
</event>
<event>
 8    1  0.6615242E-009  0.8990037E+02  0.7561462E-02  0.1303093E+00
         -1   -1    0    0    0  501 -0.00000000000E+00  0.00000000000E+00  0.24164543306E+02  0.24164543306E+02  0.00000000000E+00 0.  1.
          1   -1    0    0  501    0  0.00000000000E+00 -0.00000000000E+00 -0.63200358763E+03  0.63200358763E+03  0.00000000000E+00 0. -1.
         25    2    1    2    0    0 -0.44468684948E+02 -0.18684564538E+02 -0.25253167720E+03  0.28591233769E+03  0.12508812877E+03 0.  0.
         23    2    1    2    0    0  0.44468684948E+02  0.18684564538E+02 -0.35530736712E+03  0.37025579325E+03  0.92300868952E+02 0.  0.
          5    1    3    3  502    0 -0.58136640013E+02 -0.31230617566E+02 -0.51060679751E+02  0.83545710854E+02  0.41800000000E+01 0.  1.
         -5    1    3    3    0  502  0.13667955064E+02  0.12546053028E+02 -0.20147099745E+03  0.20236662683E+03  0.41800000000E+01 0.  1.
        -11    1    4    4    0    0  0.24390765323E+02 -0.31944410678E+02 -0.79049730466E+02  0.88680407607E+02  0.00000000000E+00 0.  1.
         11    1    4    4    0    0  0.20077919625E+02  0.50628975216E+02 -0.27625763666E+03  0.28157538564E+03  0.00000000000E+00 0. -1.
</event>
<event>
 8    1  0.6615242E-009  0.5820687E+02  0.7561462E-02  0.1405515E+00
         -1   -1    0    0    0  501 -0.00000000000E+00  0.00000000000E+00  0.26106246313E+02  0.26106246313E+02  0.00000000000E+00 0.  1.
          1   -1    0    0  501    0  0.00000000000E+00 -0.00000000000E+00 -0.58836654781E+03  0.58836654781E+03  0.00000000000E+00 0. -1.
         25    2    1    2    0    0  0.72885358479E+01  0.24093496495E+02 -0.46365777664E+03  0.48089308025E+03  0.12508397764E+03 0.  0.
         23    2    1    2    0    0 -0.72885358479E+01 -0.24093496495E+02 -0.98602524857E+02  0.13357971388E+03  0.86530126102E+02 0.  0.
          5    1    3    3  502    0  0.87876992473E+01  0.31331667071E+02 -0.22797817441E+02  0.39951344152E+02  0.41800000000E+01 0. -1.
         -5    1    3    3    0  502 -0.14991633994E+01 -0.72381705760E+01 -0.44085995920E+03  0.44094173609E+03  0.41800000000E+01 0. -1.
        -11    1    4    4    0    0 -0.22115112085E+02 -0.44615774840E+02 -0.95977183333E+02  0.10812615441E+03  0.00000000000E+00 0.  1.
         11    1    4    4    0    0  0.14826576238E+02  0.20522278345E+02 -0.26253415241E+01  0.25453559466E+02  0.00000000000E+00 0. -1.
</event>
<event>
 8    1  0.6615242E-009  0.8172113E+02  0.7561462E-02  0.1324237E+00
          1   -1    0    0  501    0  0.00000000000E+00  0.00000000000E+00  0.81504347018E+02  0.81504347018E+02  0.00000000000E+00 0. -1.
         -1   -1    0    0    0  501 -0.00000000000E+00 -0.00000000000E+00 -0.16799209106E+03  0.16799209106E+03  0.00000000000E+00 0.  1.
         25    2    1    2    0    0  0.82283239622E+01  0.41776540877E+02 -0.62247332861E+02  0.14606607569E+03  0.12509030073E+03 0.  0.
         23    2    1    2    0    0 -0.82283239622E+01 -0.41776540877E+02 -0.24240411184E+02  0.10343036239E+03  0.91089283928E+02 0.  0.
          5    1    3    3  502    0 -0.18660418478E+02  0.23280657269E+02 -0.94986703181E+02  0.99650119929E+02  0.41800000000E+01 0.  1.
         -5    1    3    3    0  502  0.26888742441E+02  0.18495883608E+02  0.32739370321E+02  0.46415955764E+02  0.41800000000E+01 0.  1.
        -11    1    4    4    0    0  0.39937228146E+02 -0.32205820321E+02 -0.96814040186E+01  0.52210407375E+02  0.00000000000E+00 0. -1.
         11    1    4    4    0    0 -0.48165552108E+02 -0.95707205567E+01 -0.14559007166E+02  0.51219955013E+02  0.00000000000E+00 0.  1.
</event>
<event>
 8    1  0.6615242E-009  0.1839116E+03  0.7561462E-02  0.1164070E+00
         -2   -1    0    0    0  501 -0.00000000000E+00  0.00000000000E+00  0.27161411785E+02  0.27161411785E+02  0.00000000000E+00 0.  1.
          2   -1    0    0  501    0  0.00000000000E+00 -0.00000000000E+00 -0.24837236319E+04  0.24837236319E+04  0.00000000000E+00 0. -1.
         25    2    1    2    0    0 -0.14908398095E+03 -0.85324954942E+02 -0.20410119116E+04  0.20520436467E+04  0.12508846309E+03 0.  0.
         23    2    1    2    0    0  0.14908398095E+03  0.85324954942E+02 -0.41555030850E+03  0.45884139692E+03  0.91361848233E+02 0.  0.
          5    1    3    3  502    0 -0.94396316394E+02 -0.98214336562E+02 -0.96722044540E+03  0.97677509328E+03  0.41800000000E+01 0. -1.
         -5    1    3    3    0  502 -0.54687664559E+02  0.12889381620E+02 -0.10737914662E+04  0.10752685535E+04  0.41800000000E+01 0. -1.
        -11    1    4    4    0    0  0.81541146927E+02  0.26825684417E+02 -0.30415938468E+03  0.31604035703E+03  0.00000000000E+00 0. -1.
         11    1    4    4    0    0  0.67542834026E+02  0.58499270525E+02 -0.11139092383E+03  0.14280103988E+03  0.00000000000E+00 0.  1.
</event>
<event>
 8    1  0.6615242E-009  0.9766130E+02  0.7561462E-02  0.1285292E+00
         -2   -1    0    0    0  501 -0.00000000000E+00  0.00000000000E+00  0.16853146045E+03  0.16853146045E+03  0.00000000000E+00 0. -1.
          2   -1    0    0  501    0  0.00000000000E+00 -0.00000000000E+00 -0.10758953376E+03  0.10758953376E+03  0.00000000000E+00 0.  1.
         25    2    1    2    0    0 -0.14622478863E+02  0.76526828150E+02  0.48775196515E+02  0.15523004763E+03  0.12508867086E+03 0.  0.
         23    2    1    2    0    0  0.14622478863E+02 -0.76526828150E+02  0.12166730173E+02  0.12089094658E+03  0.91631977645E+02 0.  0.
          5    1    3    3  502    0 -0.43105937209E+01  0.27979982155E+02 -0.42508123578E+02  0.51243278483E+02  0.41800000000E+01 0. -1.
         -5    1    3    3    0  502 -0.10311885142E+02  0.48546845996E+02  0.91283320092E+02  0.10398676915E+03  0.41800000000E+01 0. -1.
        -11    1    4    4    0    0  0.46293015390E+02 -0.16710463399E+02  0.19230127052E+02  0.52840142386E+02  0.00000000000E+00 0.  1.
         11    1    4    4    0    0 -0.31670536527E+02 -0.59816364752E+02 -0.70633968792E+01  0.68050804194E+02  0.00000000000E+00 0. -1.
</event>
<event>
 8    1  0.6615242E-009  0.9800369E+02  0.7561462E-02  0.1284551E+00
         -1   -1    0    0    0  501 -0.00000000000E+00  0.00000000000E+00  0.30783580576E+02  0.30783580576E+02  0.00000000000E+00 0.  1.
          1   -1    0    0  501    0  0.00000000000E+00 -0.00000000000E+00 -0.44853404883E+03  0.44853404883E+03  0.00000000000E+00 0. -1.
         25    2    1    2    0    0 -0.30888762022E+02  0.75114320901E+01 -0.17383499356E+03  0.21651239778E+03  0.12509386946E+03 0.  0.
         23    2    1    2    0    0  0.30888762022E+02 -0.75114320901E+01 -0.24391547470E+03  0.26280523163E+03  0.92527259461E+02 0.  0.
          5    1    3    3  502    0  0.37500535886E+02 -0.20147701780E+02 -0.23034558207E+02  0.48582747458E+02  0.41800000000E+01 0.  1.
         -5    1    3    3    0  502 -0.68389297909E+02  0.27659133871E+02 -0.15080043535E+03  0.16792965032E+03  0.41800000000E+01 0.  1.
        -11    1    4    4    0    0  0.29763837520E+01  0.31353133153E+02 -0.18122096356E+03  0.18393725956E+03  0.00000000000E+00 0. -1.
         11    1    4    4    0    0  0.27912378270E+02 -0.38864565243E+02 -0.62694511133E+02  0.78867972070E+02  0.00000000000E+00 0.  1.
</event>
<event>
 8    1  0.6615242E-009  0.9989492E+02  0.7561462E-02  0.1280517E+00
         -1   -1    0    0    0  501 -0.00000000000E+00  0.00000000000E+00  0.45953219305E+02  0.45953219305E+02  0.00000000000E+00 0.  1.
          1   -1    0    0  501    0  0.00000000000E+00 -0.00000000000E+00 -0.34596901359E+03  0.34596901359E+03  0.00000000000E+00 0. -1.
         25    2    1    2    0    0 -0.55066821489E+02 -0.12945071762E+02 -0.21048309857E+03  0.25129579593E+03  0.12508602061E+03 0.  0.
         23    2    1    2    0    0  0.55066821489E+02  0.12945071762E+02 -0.89532695707E+02  0.14062643696E+03  0.92518978924E+02 0.  0.
          5    1    3    3  502    0  0.14326398294E+02 -0.18418756225E+02  0.54988865603E+01  0.24335291705E+02  0.41800000000E+01 0.  1.
         -5    1    3    3    0  502 -0.69393219783E+02  0.54736844636E+01 -0.21598198513E+03  0.22696050422E+03  0.41800000000E+01 0.  1.
        -11    1    4    4    0    0  0.72432179403E+01  0.47054307935E+02 -0.53932157193E+02  0.71939208231E+02  0.00000000000E+00 0. -1.
         11    1    4    4    0    0  0.47823603549E+02 -0.34109236173E+02 -0.35600538514E+02  0.68687228734E+02  0.00000000000E+00 0.  1.
</event>
<event>
 8    1  0.6615242E-009  0.1008491E+03  0.7561462E-02  0.1278520E+00
         -3   -1    0    0    0  501 -0.00000000000E+00  0.00000000000E+00  0.14051865064E+03  0.14051865064E+03  0.00000000000E+00 0.  1.
          3   -1    0    0  501    0  0.00000000000E+00 -0.00000000000E+00 -0.10855587310E+03  0.10855587310E+03  0.00000000000E+00 0. -1.
         25    2    1    2    0    0  0.42997279714E+02 -0.28741170511E+02  0.12544578196E+02  0.13595256047E+03  0.12510360231E+03 0.  0.
         23    2    1    2    0    0 -0.42997279714E+02  0.28741170511E+02  0.19418199344E+02  0.11312196327E+03  0.98715202295E+02 0.  0.
          5    1    3    3  502    0 -0.29566266438E+02  0.84269767699E+01 -0.30633600039E+02  0.43601237367E+02  0.41800000000E+01 0.  1.
         -5    1    3    3    0  502  0.72563546152E+02 -0.37168147281E+02  0.43178178235E+02  0.92351323099E+02  0.41800000000E+01 0.  1.
        -11    1    4    4    0    0 -0.40983143778E+02  0.51708566978E+02 -0.18695198395E+02  0.68577725362E+02  0.00000000000E+00 0. -1.
         11    1    4    4    0    0 -0.20141359353E+01 -0.22967396466E+02  0.38113397738E+02  0.44544237912E+02  0.00000000000E+00 0.  1.
</event>
<event>
 8    1  0.6615242E-009  0.1041129E+03  0.7561462E-02  0.1271877E+00
         -1   -1    0    0    0  501 -0.00000000000E+00  0.00000000000E+00  0.42075597521E+02  0.42075597521E+02  0.00000000000E+00 0.  1.
          1   -1    0    0  501    0  0.00000000000E+00 -0.00000000000E+00 -0.56605547223E+03  0.56605547223E+03  0.00000000000E+00 0. -1.
         25    2    1    2    0    0  0.61292880737E+02 -0.32973249615E+02 -0.44936878662E+03  0.47161839205E+03  0.12509016315E+03 0.  0.
         23    2    1    2    0    0 -0.61292880737E+02  0.32973249615E+02 -0.74611088085E+02  0.13651267769E+03  0.90690927255E+02 0.  0.
          5    1    3    3  502    0  0.63518138793E+02 -0.67788588948E+02 -0.20977664895E+03  0.22946363893E+03  0.41800000000E+01 0. -1.
         -5    1    3    3    0  502 -0.22252580564E+01  0.34815339333E+02 -0.23959213767E+03  0.24215475312E+03  0.41800000000E+01 0. -1.
        -11    1    4    4    0    0 -0.44618875739E+02  0.16917453261E+01 -0.87952329784E+02  0.98637307288E+02  0.00000000000E+00 0. -1.
         11    1    4    4    0    0 -0.16674004997E+02  0.31281504289E+02  0.13341241699E+02  0.37875370405E+02  0.00000000000E+00 0.  1.
</event>
<event>
 8    1  0.6615242E-009  0.6805190E+02  0.7561462E-02  0.1366846E+00
          2   -1    0    0  501    0  0.00000000000E+00  0.00000000000E+00  0.84646449616E+03  0.84646449616E+03  0.00000000000E+00 0. -1.
         -2   -1    0    0    0  501 -0.00000000000E+00 -0.00000000000E+00 -0.22960592817E+02  0.22960592817E+02  0.00000000000E+00 0.  1.
         25    2    1    2    0    0  0.76124093957E+01  0.30463508269E+02  0.71772331316E+03  0.72921924026E+03  0.12509185422E+03 0.  0.
         23    2    1    2    0    0 -0.76124093957E+01 -0.30463508269E+02  0.10578059018E+03  0.14020584872E+03  0.86499552850E+02 0.  0.
          5    1    3    3  502    0  0.15575700446E+02  0.37987408591E+02  0.69069091797E+02  0.80459042360E+02  0.41800000000E+01 0. -1.
         -5    1    3    3    0  502 -0.79632910506E+01 -0.75239003216E+01  0.64865422137E+03  0.64876019790E+03  0.41800000000E+01 0. -1.
        -11    1    4    4    0    0 -0.81437422925E+01  0.25691628788E+02  0.91873873586E+01  0.28474346609E+02  0.00000000000E+00 0.  1.
         11    1    4    4    0    0  0.53133289677E+00 -0.56155137057E+02  0.96593202818E+02  0.11173150211E+03  0.00000000000E+00 0. -1.
</event>
<event>
 8    1  0.6615242E-009  0.1926465E+03  0.7561462E-02  0.1156096E+00
          2   -1    0    0  501    0  0.00000000000E+00  0.00000000000E+00  0.49383859589E+03  0.49383859589E+03  0.00000000000E+00 0. -1.
         -2   -1    0    0    0  501 -0.00000000000E+00 -0.00000000000E+00 -0.11750870720E+03  0.11750870720E+03  0.00000000000E+00 0.  1.
         25    2    1    2    0    0  0.28263792906E+02 -0.16835984569E+03  0.35403770096E+03  0.41247369755E+03  0.12509187759E+03 0.  0.
         23    2    1    2    0    0 -0.28263792906E+02  0.16835984569E+03  0.22292187740E+02  0.19887360554E+03  0.99548429002E+02 0.  0.
          5    1    3    3  502    0  0.44904770666E+02 -0.16292307631E+02  0.14964494642E+03  0.15713993797E+03  0.41800000000E+01 0.  1.
         -5    1    3    3    0  502 -0.16640977760E+02 -0.15206753806E+03  0.20439275453E+03  0.25533375957E+03  0.41800000000E+01 0.  1.
        -11    1    4    4    0    0 -0.51579648575E+02  0.12032752484E+03 -0.17777237978E+02  0.13211814247E+03  0.00000000000E+00 0.  1.
         11    1    4    4    0    0  0.23315855669E+02  0.48032320852E+02  0.40069425718E+02  0.66755463068E+02  0.00000000000E+00 0. -1.
</event>
<event>
 8    1  0.6615242E-009  0.1206988E+03  0.7561462E-02  0.1241949E+00
          2   -1    0    0  501    0  0.00000000000E+00  0.00000000000E+00  0.17241732245E+04  0.17241732245E+04  0.00000000000E+00 0. -1.
         -2   -1    0    0    0  501 -0.00000000000E+00 -0.00000000000E+00 -0.11772448551E+02  0.11772448551E+02  0.00000000000E+00 0.  1.
         25    2    1    2    0    0 -0.37501975392E+02  0.52583385614E+02  0.12922726239E+04  0.12999184823E+04  0.12509242860E+03 0.  0.
         23    2    1    2    0    0  0.37501975392E+02 -0.52583385614E+02  0.42012815211E+03  0.43602719075E+03  0.97162936761E+02 0.  0.
          5    1    3    3  502    0  0.33682876733E+02 -0.41779705494E+01  0.68414190127E+03  0.68499606210E+03  0.41800000000E+01 0.  1.
         -5    1    3    3    0  502 -0.71184852125E+02  0.56761356163E+02  0.60813072261E+03  0.61492242023E+03  0.41800000000E+01 0.  1.
        -11    1    4    4    0    0 -0.13617216985E+02 -0.62518200383E+02  0.20922586427E+03  0.21879080479E+03  0.00000000000E+00 0. -1.
         11    1    4    4    0    0  0.51119192378E+02  0.99348147692E+01  0.21090228784E+03  0.21723638597E+03  0.00000000000E+00 0.  1.
</event>
<event>
 8    1  0.6615242E-009  0.1780180E+03  0.7561462E-02  0.1169735E+00
          2   -1    0    0  501    0  0.00000000000E+00  0.00000000000E+00  0.18652990732E+04  0.18652990732E+04  0.00000000000E+00 0. -1.
         -2   -1    0    0    0  501 -0.00000000000E+00 -0.00000000000E+00 -0.25413339606E+02  0.25413339606E+02  0.00000000000E+00 0.  1.
         25    2    1    2    0    0  0.14069194390E+03  0.77440314326E+02  0.13848172517E+04  0.13996990867E+04  0.12508991785E+03 0.  0.
         23    2    1    2    0    0 -0.14069194390E+03 -0.77440314326E+02  0.45506848195E+03  0.49101332609E+03  0.90639603774E+02 0.  0.
          5    1    3    3  502    0  0.14479254104E+02 -0.99477978810E+01  0.22959034182E+02  0.29209538385E+02  0.41800000000E+01 0. -1.
         -5    1    3    3    0  502  0.12621268979E+03  0.87388112207E+02  0.13618582175E+04  0.13704895484E+04  0.41800000000E+01 0. -1.
        -11    1    4    4    0    0 -0.94000030061E+02 -0.22635463733E-01  0.23113605705E+03  0.24951930393E+03  0.00000000000E+00 0. -1.
         11    1    4    4    0    0 -0.46691913834E+02 -0.77417678862E+02  0.22393242490E+03  0.24149402216E+03  0.00000000000E+00 0.  1.
</event>
<event>
 8    1  0.6615242E-009  0.1422016E+03  0.7561462E-02  0.1210397E+00
          1   -1    0    0  501    0  0.00000000000E+00  0.00000000000E+00  0.33352031136E+03  0.33352031136E+03  0.00000000000E+00 0. -1.
         -1   -1    0    0    0  501 -0.00000000000E+00 -0.00000000000E+00 -0.87583511697E+02  0.87583511697E+02  0.00000000000E+00 0.  1.
         25    2    1    2    0    0  0.10857939919E+03  0.42731600245E+02  0.55464890563E+02  0.17983112784E+03  0.12508958737E+03 0.  0.
         23    2    1    2    0    0 -0.10857939919E+03 -0.42731600245E+02  0.19047190910E+03  0.24127269521E+03  0.91200272543E+02 0.  0.
          5    1    3    3  502    0  0.11912210027E+03  0.19730567202E+02  0.23397631906E+01  0.12084004695E+03  0.41800000000E+01 0. -1.
         -5    1    3    3    0  502 -0.10542701078E+02  0.23001033043E+02  0.53125127372E+02  0.58991080897E+02  0.41800000000E+01 0. -1.
        -11    1    4    4    0    0 -0.53756843253E+02 -0.59907701281E+02  0.65664637568E+02  0.10387769489E+03  0.00000000000E+00 0.  1.
         11    1    4    4    0    0 -0.54822555935E+02  0.17176101036E+02  0.12480727153E+03  0.13739500032E+03  0.00000000000E+00 0. -1.
</event>
<event>
 8    1  0.6615242E-009  0.1358752E+03  0.7561462E-02  0.1218989E+00
          4   -1    0    0  501    0  0.00000000000E+00  0.00000000000E+00  0.43353267013E+03  0.43353267013E+03  0.00000000000E+00 0. -1.
         -4   -1    0    0    0  501 -0.00000000000E+00 -0.00000000000E+00 -0.54061912613E+02  0.54061912613E+02  0.00000000000E+00 0.  1.
         25    2    1    2    0    0 -0.36956295086E+02 -0.99420477668E+02  0.18092417184E+03  0.24419323927E+03  0.12508630230E+03 0.  0.
         23    2    1    2    0    0  0.36956295086E+02  0.99420477668E+02  0.19854658568E+03  0.24340134347E+03  0.92591944548E+02 0.  0.
          5    1    3    3  502    0 -0.78277194086E+02 -0.32381552085E+02  0.86032596886E+02  0.12080961947E+03  0.41800000000E+01 0. -1.
         -5    1    3    3    0  502  0.41320899001E+02 -0.67038925583E+02  0.94891574958E+02  0.12338361980E+03  0.41800000000E+01 0. -1.
        -11    1    4    4    0    0  0.14355732603E+02  0.67215525742E+02  0.38895646778E+02  0.78973953286E+02  0.00000000000E+00 0.  1.
         11    1    4    4    0    0  0.22600562483E+02  0.32204951926E+02  0.15965093890E+03  0.16442739019E+03  0.00000000000E+00 0. -1.
</event>
<event>
 8    1  0.6615242E-009  0.1283629E+03  0.7561462E-02  0.1229905E+00
         -1   -1    0    0    0  501 -0.00000000000E+00  0.00000000000E+00  0.23488970284E+03  0.23488970284E+03  0.00000000000E+00 0.  1.
          1   -1    0    0  501    0  0.00000000000E+00 -0.00000000000E+00 -0.99446530777E+02  0.99446530777E+02  0.00000000000E+00 0. -1.
         25    2    1    2    0    0  0.97926562050E+00 -0.10473074125E+03  0.40086001839E+02  0.16799934773E+03  0.12508959257E+03 0.  0.
         23    2    1    2    0    0 -0.97926562050E+00  0.10473074125E+03  0.95357170225E+02  0.16633688589E+03  0.87209417900E+02 0.  0.
          5    1    3    3  502    0 -0.25184513003E+02 -0.93091402987E+02 -0.22438669537E+02  0.99102145769E+02  0.41800000000E+01 0.  1.
         -5    1    3    3    0  502  0.26163778623E+02 -0.11639338263E+02  0.62524671376E+02  0.68897201958E+02  0.41800000000E+01 0.  1.
        -11    1    4    4    0    0  0.38790386902E+02  0.43922268978E+02  0.65213074959E+02  0.87673285406E+02  0.00000000000E+00 0.  1.
         11    1    4    4    0    0 -0.39769652522E+02  0.60808472272E+02  0.30144095265E+02  0.78663600485E+02  0.00000000000E+00 0. -1.
</event>
<event>
 8    1  0.6615242E-009  0.6353004E+02  0.7561462E-02  0.1383588E+00
         -2   -1    0    0    0  501 -0.00000000000E+00  0.00000000000E+00  0.21557074753E+03  0.21557074753E+03  0.00000000000E+00 0.  1.
          2   -1    0    0  501    0  0.00000000000E+00 -0.00000000000E+00 -0.75646439913E+02  0.75646439913E+02  0.00000000000E+00 0. -1.
         25    2    1    2    0    0 -0.28381030663E+02 -0.32808708322E+02  0.81507947202E+02  0.15547200071E+03  0.12508438474E+03 0.  0.
         23    2    1    2    0    0  0.28381030663E+02  0.32808708322E+02  0.58416360413E+02  0.13574518673E+03  0.11459664180E+03 0.  0.
          5    1    3    3  502    0 -0.13568956685E+02 -0.17399994746E+02 -0.32443572141E+02  0.39458005220E+02  0.41800000000E+01 0.  1.
         -5    1    3    3    0  502 -0.14812073978E+02 -0.15408713576E+02  0.11395151934E+03  0.11601399549E+03  0.41800000000E+01 0.  1.
        -11    1    4    4    0    0 -0.15997851723E+02  0.34904075866E+02 -0.21722749150E+02  0.44114664256E+02  0.00000000000E+00 0. -1.
         11    1    4    4    0    0  0.44378882386E+02 -0.20953675438E+01  0.80139109563E+02  0.91630522473E+02  0.00000000000E+00 0.  1.
</event>
<event>
 8    1  0.6615242E-009  0.1386504E+03  0.7561462E-02  0.1215157E+00
          2   -1    0    0  501    0  0.00000000000E+00  0.00000000000E+00  0.71782991948E+03  0.71782991948E+03  0.00000000000E+00 0.  1.
         -2   -1    0    0    0  501 -0.00000000000E+00 -0.00000000000E+00 -0.34614401045E+02  0.34614401045E+02  0.00000000000E+00 0. -1.
         25    2    1    2    0    0  0.10580008010E+02 -0.10701796761E+03  0.28510415891E+03  0.32939016789E+03  0.12509484128E+03 0.  0.
         23    2    1    2    0    0 -0.10580008010E+02  0.10701796761E+03  0.39811135953E+03  0.42305415264E+03  0.94431877650E+02 0.  0.
          5    1    3    3  502    0 -0.84205807984E+01  0.19695855136E+02  0.11130698443E+03  0.11342640819E+03  0.41800000000E+01 0. -1.
         -5    1    3    3    0  502  0.19000588808E+02 -0.12671382275E+03  0.17379717448E+03  0.21596375970E+03  0.41800000000E+01 0. -1.
        -11    1    4    4    0    0  0.20990257348E+02  0.87897099164E+02  0.17546109785E+03  0.19736536627E+03  0.00000000000E+00 0. -1.
         11    1    4    4    0    0 -0.31570265358E+02  0.19120868445E+02  0.22265026168E+03  0.22568878637E+03  0.00000000000E+00 0.  1.
</event>
<event>
 8    1  0.6615242E-009  0.9259846E+02  0.7561462E-02  0.1296678E+00
         -2   -1    0    0    0  501 -0.00000000000E+00  0.00000000000E+00  0.98746773906E+02  0.98746773906E+02  0.00000000000E+00 0.  1.
          2   -1    0    0  501    0  0.00000000000E+00 -0.00000000000E+00 -0.12473108664E+03  0.12473108664E+03  0.00000000000E+00 0. -1.
         25    2    1    2    0    0  0.17487358516E+01 -0.12166089372E+02 -0.13996785245E+02  0.12647040125E+03  0.12509108916E+03 0.  0.
         23    2    1    2    0    0 -0.17487358516E+01  0.12166089372E+02 -0.11987527485E+02  0.97007459290E+02  0.95476041681E+02 0.  0.
          5    1    3    3  502    0  0.56712945717E+02  0.18097684952E+02 -0.20848256951E+02  0.63213974961E+02  0.41800000000E+01 0.  1.
         -5    1    3    3    0  502 -0.54964209865E+02 -0.30263774324E+02  0.68514717059E+01  0.63256426290E+02  0.41800000000E+01 0.  1.
        -11    1    4    4    0    0  0.27651398312E+02 -0.56996907459E+01 -0.42500107136E+02  0.51022989032E+02  0.00000000000E+00 0.  1.
         11    1    4    4    0    0 -0.29400134163E+02  0.17865780118E+02  0.30512579651E+02  0.45984470259E+02  0.00000000000E+00 0. -1.
</event>
<event>
 8    1  0.6615242E-009  0.1223004E+03  0.7561462E-02  0.1239350E+00
         -4   -1    0    0    0  501 -0.00000000000E+00  0.00000000000E+00  0.46540578498E+03  0.46540578498E+03  0.00000000000E+00 0.  1.
          4   -1    0    0  501    0  0.00000000000E+00 -0.00000000000E+00 -0.72572346747E+02  0.72572346747E+02  0.00000000000E+00 0. -1.
         25    2    1    2    0    0 -0.28378576406E+02  0.65357056288E+02  0.17431577654E+02  0.14501482778E+03  0.12509417241E+03 0.  0.
         23    2    1    2    0    0  0.28378576406E+02 -0.65357056288E+02  0.37540186058E+03  0.39296330395E+03  0.91742645030E+02 0.  0.
          5    1    3    3  502    0 -0.58758217311E+02 -0.76931987694E+01 -0.11801379644E+02  0.60567799782E+02  0.41800000000E+01 0. -1.
         -5    1    3    3    0  502  0.30379640905E+02  0.73050255057E+02  0.29232957298E+02  0.84447027999E+02  0.41800000000E+01 0. -1.
        -11    1    4    4    0    0  0.54784634242E+02 -0.32077025920E+02  0.29781983589E+03  0.30451099552E+03  0.00000000000E+00 0.  1.
         11    1    4    4    0    0 -0.26406057836E+02 -0.33280030368E+02  0.77582024686E+02  0.88452308428E+02  0.00000000000E+00 0. -1.
</event>
<event>
 8    1  0.6615242E-009  0.1192877E+03  0.7561462E-02  0.1244277E+00
          2   -1    0    0  501    0  0.00000000000E+00  0.00000000000E+00  0.16613734604E+04  0.16613734604E+04  0.00000000000E+00 0. -1.
         -2   -1    0    0    0  501 -0.00000000000E+00 -0.00000000000E+00 -0.10679770877E+02  0.10679770877E+02  0.00000000000E+00 0.  1.
         25    2    1    2    0    0  0.51183240508E+02 -0.13940539210E+02  0.12689051217E+04  0.12761564996E+04  0.12506454573E+03 0.  0.
         23    2    1    2    0    0 -0.51183240508E+02  0.13940539210E+02  0.38178856779E+03  0.39589673174E+03  0.90319704207E+02 0.  0.
          5    1    3    3  502    0 -0.26761279791E+01  0.50554730289E+02  0.55176767862E+03  0.55410106116E+03  0.41800000000E+01 0. -1.
         -5    1    3    3    0  502  0.53859368487E+02 -0.64495269499E+02  0.71713744313E+03  0.72205543839E+03  0.41800000000E+01 0. -1.
        -11    1    4    4    0    0 -0.22327790025E+02 -0.38089469310E+02  0.19151057975E+03  0.19653406838E+03  0.00000000000E+00 0.  1.
         11    1    4    4    0    0 -0.28855450483E+02  0.52030008520E+02  0.19027798804E+03  0.19936266336E+03  0.00000000000E+00 0. -1.
</event>
<event>
 8    1  0.6615242E-009  0.1123094E+03  0.7561462E-02  0.1256352E+00
         -1   -1    0    0    0  501 -0.00000000000E+00  0.00000000000E+00  0.26619430331E+02  0.26619430331E+02  0.00000000000E+00 0.  1.
          1   -1    0    0  501    0  0.00000000000E+00 -0.00000000000E+00 -0.90501323575E+03  0.90501323575E+03  0.00000000000E+00 0. -1.
         25    2    1    2    0    0  0.71190732272E+02 -0.40409828790E+01 -0.73161855544E+03  0.74565245143E+03  0.12508963888E+03 0.  0.
         23    2    1    2    0    0 -0.71190732272E+02  0.40409828790E+01 -0.14677524998E+03  0.18598021466E+03  0.89225648395E+02 0.  0.
          5    1    3    3  502    0  0.41196517090E+02 -0.62651951748E+02 -0.31405088817E+03  0.32290533107E+03  0.41800000000E+01 0.  1.
         -5    1    3    3    0  502  0.29994215183E+02  0.58610968869E+02 -0.41756766727E+03  0.42274712035E+03  0.41800000000E+01 0.  1.
        -11    1    4    4    0    0 -0.34189437894E+02  0.23745211581E+02 -0.13665621150E+03  0.14285542649E+03  0.00000000000E+00 0. -1.
         11    1    4    4    0    0 -0.37001294379E+02 -0.19704228702E+02 -0.10119038485E+02  0.43124788165E+02  0.00000000000E+00 0.  1.
</event>
<event>
 8    1  0.6615242E-009  0.1600888E+03  0.7561462E-02  0.1188597E+00
          1   -1    0    0  501    0  0.00000000000E+00  0.00000000000E+00  0.30665749069E+03  0.30665749069E+03  0.00000000000E+00 0. -1.
         -1   -1    0    0    0  501 -0.00000000000E+00 -0.00000000000E+00 -0.10111326852E+03  0.10111326852E+03  0.00000000000E+00 0.  1.
         25    2    1    2    0    0  0.13675038278E+03 -0.56375019330E+01  0.13485606630E+03  0.22927322518E+03  0.12509038552E+03 0.  0.
         23    2    1    2    0    0 -0.13675038278E+03  0.56375019330E+01  0.70688155876E+02  0.17849753403E+03  0.90178188360E+02 0.  0.
          5    1    3    3  502    0  0.71550794385E+02 -0.61353058888E+02  0.97377011129E+02  0.13558565082E+03  0.41800000000E+01 0. -1.
         -5    1    3    3    0  502  0.65199588391E+02  0.55715556955E+02  0.37479055167E+02  0.93687574359E+02  0.41800000000E+01 0. -1.
        -11    1    4    4    0    0 -0.11805414854E+03  0.15094343235E+02  0.16190900340E+02  0.12011147505E+03  0.00000000000E+00 0.  1.
         11    1    4    4    0    0 -0.18696234237E+02 -0.94568413022E+01  0.54497255536E+02  0.58386058979E+02  0.00000000000E+00 0. -1.
</event>
<event>
 8    1  0.6615242E-009  0.8344492E+02  0.7561462E-02  0.1319550E+00
         -1   -1    0    0    0  501 -0.00000000000E+00  0.00000000000E+00  0.26541348652E+03  0.26541348652E+03  0.00000000000E+00 0.  1.
          1   -1    0    0  501    0  0.00000000000E+00 -0.00000000000E+00 -0.53589624234E+02  0.53589624234E+02  0.00000000000E+00 0. -1.
         25    2    1    2    0    0 -0.47913950012E+02  0.27159000729E+01  0.11127960116E+03  0.17416473240E+03  0.12508829545E+03 0.  0.
         23    2    1    2    0    0  0.47913950012E+02 -0.27159000729E+01  0.10054426113E+03  0.14483837835E+03  0.92552064698E+02 0.  0.
          5    1    3    3  502    0  0.76564944960E+01  0.33534435651E+02  0.10453370361E+03  0.11012696252E+03  0.41800000000E+01 0. -1.
         -5    1    3    3    0  502 -0.55570444508E+02 -0.30818535578E+02  0.67458975494E+01  0.64037769884E+02  0.41800000000E+01 0. -1.
        -11    1    4    4    0    0  0.75738316890E+01  0.20611276636E+02 -0.10553748568E+02  0.24363276871E+02  0.00000000000E+00 0. -1.
         11    1    4    4    0    0  0.40340118323E+02 -0.23327176709E+02  0.11109800969E+03  0.12047510148E+03  0.00000000000E+00 0.  1.
</event>
<event>
 8    1  0.6615242E-009  0.9044570E+02  0.7561462E-02  0.1301776E+00
         -2   -1    0    0    0  501 -0.00000000000E+00  0.00000000000E+00  0.78033738909E+03  0.78033738909E+03  0.00000000000E+00 0.  1.
          2   -1    0    0  501    0  0.00000000000E+00 -0.00000000000E+00 -0.17805088390E+02  0.17805088390E+02  0.00000000000E+00 0. -1.
         25    2    1    2    0    0 -0.19774488735E+02 -0.10852002400E+02  0.55955200403E+03  0.57380798051E+03  0.12509339281E+03 0.  0.
         23    2    1    2    0    0  0.19774488735E+02  0.10852002400E+02  0.20298029667E+03  0.22433449697E+03  0.92823323216E+02 0.  0.
          5    1    3    3  502    0 -0.51703756336E+02 -0.45668247865E+02  0.43642741266E+03  0.44186562008E+03  0.41800000000E+01 0.  1.
         -5    1    3    3    0  502  0.31929267601E+02  0.34816245465E+02  0.12312459136E+03  0.13194236043E+03  0.41800000000E+01 0.  1.
        -11    1    4    4    0    0  0.38821425842E+02 -0.55543272972E+01  0.19355343735E+03  0.19748642173E+03  0.00000000000E+00 0.  1.
         11    1    4    4    0    0 -0.19046937107E+02  0.16406329698E+02  0.94268593121E+01  0.26848075235E+02  0.00000000000E+00 0. -1.
</event>
<event>
 8    1  0.6615242E-009  0.9146818E+02  0.7561462E-02  0.1299335E+00
         -2   -1    0    0    0  501 -0.00000000000E+00  0.00000000000E+00  0.39093915302E+02  0.39093915302E+02  0.00000000000E+00 0.  1.
          2   -1    0    0  501    0  0.00000000000E+00 -0.00000000000E+00 -0.34325162072E+03  0.34325162072E+03  0.00000000000E+00 0. -1.
         25    2    1    2    0    0  0.17499963874E+02 -0.20439234826E+02 -0.22042969394E+03  0.25487065207E+03  0.12508312540E+03 0.  0.
         23    2    1    2    0    0 -0.17499963874E+02  0.20439234826E+02 -0.83728011478E+02  0.12747488395E+03  0.92279223432E+02 0.  0.
          5    1    3    3  502    0 -0.13533365782E+02 -0.55421798987E+02 -0.19118029414E+03  0.19955476706E+03  0.41800000000E+01 0.  1.
         -5    1    3    3    0  502  0.31033329656E+02  0.34982564161E+02 -0.29249399806E+02  0.55315885004E+02  0.41800000000E+01 0.  1.
        -11    1    4    4    0    0 -0.42408194038E+02 -0.55677813374E+01 -0.78517502501E+01  0.43486838153E+02  0.00000000000E+00 0.  1.
         11    1    4    4    0    0  0.24908230163E+02  0.26007016163E+02 -0.75876261228E+02  0.83988045801E+02  0.00000000000E+00 0. -1.
</event>
<event>
 8    1  0.6615242E-009  0.1066088E+03  0.7561462E-02  0.1266982E+00
          1   -1    0    0  501    0  0.00000000000E+00  0.00000000000E+00  0.16197939974E+04  0.16197939974E+04  0.00000000000E+00 0. -1.
         -1   -1    0    0    0  501 -0.00000000000E+00 -0.00000000000E+00 -0.12928156966E+02  0.12928156966E+02  0.00000000000E+00 0.  1.
         25    2    1    2    0    0 -0.16760961548E+02  0.35099615275E+02  0.14066476772E+04  0.14127345478E+04  0.12509317333E+03 0.  0.
         23    2    1    2    0    0  0.16760961548E+02 -0.35099615275E+02  0.20021816321E+03  0.21998760652E+03  0.82427673255E+02 0.  0.
          5    1    3    3  502    0 -0.46277592420E+02 -0.29751086056E+02  0.43812196182E+03  0.44158245947E+03  0.41800000000E+01 0. -1.
         -5    1    3    3    0  502  0.29516630872E+02  0.64850701331E+02  0.96852571536E+03  0.97115208833E+03  0.41800000000E+01 0. -1.
        -11    1    4    4    0    0  0.41983413477E+02  0.17430195016E+01  0.63333638230E+02  0.76005229134E+02  0.00000000000E+00 0.  1.
         11    1    4    4    0    0 -0.25222451929E+02 -0.36842634777E+02  0.13688452498E+03  0.14398237738E+03  0.00000000000E+00 0. -1.
</event>
<event>
 8    1  0.6615242E-009  0.9394263E+02  0.7561462E-02  0.1293575E+00
         -4   -1    0    0    0  501 -0.00000000000E+00  0.00000000000E+00  0.13268589099E+03  0.13268589099E+03  0.00000000000E+00 0.  1.
          4   -1    0    0  501    0  0.00000000000E+00 -0.00000000000E+00 -0.11996920208E+03  0.11996920208E+03  0.00000000000E+00 0. -1.
         25    2    1    2    0    0  0.29362823103E+02  0.24403390505E+02  0.56912249574E+02  0.14263485788E+03  0.12509195691E+03 0.  0.
         23    2    1    2    0    0 -0.29362823103E+02 -0.24403390505E+02 -0.44195560663E+02  0.11002023519E+03  0.93238960316E+02 0.  0.
          5    1    3    3  502    0  0.83828455938E+00  0.65861646446E+02 -0.72849977949E+00  0.66003502221E+02  0.41800000000E+01 0. -1.
         -5    1    3    3    0  502  0.28524538543E+02 -0.41458255941E+02  0.57640749354E+02  0.76631355663E+02  0.41800000000E+01 0. -1.
        -11    1    4    4    0    0 -0.34325305027E+01 -0.40646684594E+02  0.14937118229E+02  0.43440220247E+02  0.00000000000E+00 0.  1.
         11    1    4    4    0    0 -0.25930292600E+02  0.16243294089E+02 -0.59132678892E+02  0.66580014945E+02  0.00000000000E+00 0. -1.
</event>
<event>
 8    1  0.6615242E-009  0.1936942E+03  0.7561462E-02  0.1155171E+00
          2   -1    0    0  501    0  0.00000000000E+00  0.00000000000E+00  0.30750235722E+04  0.30750235722E+04  0.00000000000E+00 0. -1.
         -2   -1    0    0    0  501 -0.00000000000E+00 -0.00000000000E+00 -0.19042018273E+02  0.19042018273E+02  0.00000000000E+00 0.  1.
         25    2    1    2    0    0 -0.16578588300E+03  0.71916230836E+02  0.22971266057E+04  0.23076166933E+04  0.12508899725E+03 0.  0.
         23    2    1    2    0    0  0.16578588300E+03 -0.71916230836E+02  0.75885494820E+03  0.78644889717E+03  0.99920629430E+02 0.  0.
          5    1    3    3  502    0 -0.84338465785E+02  0.36596087261E+02  0.18172956347E+04  0.18196244521E+04  0.41800000000E+01 0.  1.
         -5    1    3    3    0  502 -0.81447417216E+02  0.35320143575E+02  0.47983097102E+03  0.48799224119E+03  0.41800000000E+01 0.  1.
        -11    1    4    4    0    0  0.50728984858E+02 -0.75974957475E+02  0.33116472006E+03  0.34353412623E+03  0.00000000000E+00 0.  1.
         11    1    4    4    0    0  0.11505689814E+03  0.40587266386E+01  0.42769022814E+03  0.44291477094E+03  0.00000000000E+00 0. -1.
</event>
<event>
 7    1  0.6615242E-009  0.1598098E+03  0.7561462E-02  0.1188912E+00
          1   -1    0    0  501    0  0.00000000000E+00  0.00000000000E+00  0.12210037827E+04  0.12210037827E+04  0.00000000000E+00 0. -1.
         -1   -1    0    0    0  501 -0.00000000000E+00 -0.00000000000E+00 -0.31488228523E+02  0.31488228523E+02  0.00000000000E+00 0.  1.
         25    2    1    2    0    0 -0.57822751250E+02 -0.10291920395E+03  0.77542080830E+03  0.79426764382E+03  0.12509127456E+03 0.  0.
          5    1    3    3  502    0 -0.29275705558E+02 -0.90999052981E+01  0.51554952775E+03  0.51647716617E+03  0.41800000000E+01 0. -1.
         -5    1    3    3    0  502 -0.28547045692E+02 -0.93819298654E+02  0.25987128055E+03  0.27779047764E+03  0.41800000000E+01 0. -1.
        -11    1    1    2    0    0 -0.12447842183E+02  0.11799819762E+03  0.30813116066E+03  0.33018681922E+03  0.00000000000E+00 0. -1.
         11    1    1    2    0    0  0.70270593433E+02 -0.15078993671E+02  0.10596358519E+03  0.12803754816E+03  0.00000000000E+00 0.  1.
</event>
<event>
 8    1  0.6615242E-009  0.8019076E+02  0.7561462E-02  0.1328511E+00
         -1   -1    0    0    0  501 -0.00000000000E+00  0.00000000000E+00  0.20620815334E+03  0.20620815334E+03  0.00000000000E+00 0.  1.
          1   -1    0    0  501    0  0.00000000000E+00 -0.00000000000E+00 -0.79421669979E+02  0.79421669979E+02  0.00000000000E+00 0. -1.
         25    2    1    2    0    0 -0.51644698553E+02  0.24165282923E+02  0.31884387668E+02  0.14112135981E+03  0.12508992057E+03 0.  0.
         23    2    1    2    0    0  0.51644698553E+02 -0.24165282923E+02  0.94902095689E+02  0.14450846351E+03  0.92871698986E+02 0.  0.
          5    1    3    3  502    0 -0.18668134407E+02  0.29384705420E+02  0.77135796246E+02  0.84731125435E+02  0.41800000000E+01 0. -1.
         -5    1    3    3    0  502 -0.32976564146E+02 -0.52194224965E+01 -0.45251408578E+02  0.56390234370E+02  0.41800000000E+01 0. -1.
        -11    1    4    4    0    0  0.32675297978E+01 -0.40483634209E+02  0.82519303360E+02  0.91973022223E+02  0.00000000000E+00 0.  1.
         11    1    4    4    0    0  0.48377168755E+02  0.16318351285E+02  0.12382792329E+02  0.52535441288E+02  0.00000000000E+00 0. -1.
</event>
<event>
 8    1  0.6615242E-009  0.1115260E+03  0.7561462E-02  0.1257770E+00
         -2   -1    0    0    0  501 -0.00000000000E+00  0.00000000000E+00  0.89116458766E+01  0.89116458766E+01  0.00000000000E+00 0.  1.
          2   -1    0    0  501    0  0.00000000000E+00 -0.00000000000E+00 -0.18212074648E+04  0.18212074648E+04  0.00000000000E+00 0. -1.
         25    2    1    2    0    0 -0.28101979800E+02  0.19326312892E+02 -0.14021726496E+04  0.14081541885E+04  0.12508737597E+03 0.  0.
         23    2    1    2    0    0  0.28101979800E+02 -0.19326312892E+02 -0.41012316931E+03  0.42196492217E+03  0.93220994973E+02 0.  0.
          5    1    3    3  502    0 -0.66823437819E+02 -0.18649273274E+02 -0.57312902789E+03  0.57732791570E+03  0.41800000000E+01 0.  1.
         -5    1    3    3    0  502  0.38721458020E+02  0.37975586166E+02 -0.82904362175E+03  0.83082627283E+03  0.41800000000E+01 0.  1.
        -11    1    4    4    0    0 -0.32162837148E+01 -0.53039843060E+02 -0.22972092064E+03  0.23578649413E+03  0.00000000000E+00 0. -1.
         11    1    4    4    0    0  0.31318263514E+02  0.33713530168E+02 -0.18040224866E+03  0.18617842804E+03  0.00000000000E+00 0.  1.
</event>
<event>
 8    1  0.6615242E-009  0.1080458E+03  0.7561462E-02  0.1264232E+00
          1   -1    0    0  501    0  0.00000000000E+00  0.00000000000E+00  0.14042531632E+03  0.14042531632E+03  0.00000000000E+00 0. -1.
         -1   -1    0    0    0  501 -0.00000000000E+00 -0.00000000000E+00 -0.12356889234E+03  0.12356889234E+03  0.00000000000E+00 0.  1.
         25    2    1    2    0    0 -0.77123377462E+02 -0.12906255817E+01  0.18234908229E+02  0.14808593452E+03  0.12508897257E+03 0.  0.
         23    2    1    2    0    0  0.77123377462E+02  0.12906255817E+01 -0.13784842429E+01  0.11590827414E+03  0.86505183257E+02 0.  0.
          5    1    3    3  502    0  0.52476260466E+01  0.28295035290E+02  0.47509158484E+02  0.55702236409E+02  0.41800000000E+01 0.  1.
         -5    1    3    3    0  502 -0.82371003509E+02 -0.29585660871E+02 -0.29274250254E+02  0.92383698108E+02  0.41800000000E+01 0.  1.
        -11    1    4    4    0    0  0.14103447319E+02  0.27680934206E+02 -0.28729439080E+02  0.42314560315E+02  0.00000000000E+00 0.  1.
         11    1    4    4    0    0  0.63019930143E+02 -0.26390308624E+02  0.27350954837E+02  0.73593713828E+02  0.00000000000E+00 0. -1.
</event>
<event>
 8    1  0.6615242E-009  0.1522640E+03  0.7561462E-02  0.1197718E+00
         -2   -1    0    0    0  501 -0.00000000000E+00  0.00000000000E+00  0.29917615025E+03  0.29917615025E+03  0.00000000000E+00 0.  1.
          2   -1    0    0  501    0  0.00000000000E+00 -0.00000000000E+00 -0.93278303607E+02  0.93278303607E+02  0.00000000000E+00 0. -1.
         25    2    1    2    0    0  0.23211526878E+02  0.11645194324E+03  0.16318921602E+03  0.23744000610E+03  0.12508879329E+03 0.  0.
         23    2    1    2    0    0 -0.23211526878E+02 -0.11645194324E+03  0.42708630617E+02  0.15501444775E+03  0.90031226908E+02 0.  0.
          5    1    3    3  502    0  0.62463377474E+02  0.29255267019E+02  0.10412358528E+03  0.12496694597E+03  0.41800000000E+01 0.  1.
         -5    1    3    3    0  502 -0.39251850595E+02  0.87196676223E+02  0.59065630742E+02  0.11247306013E+03  0.41800000000E+01 0.  1.
        -11    1    4    4    0    0 -0.44480398584E+02 -0.38238787616E+02 -0.83065266372E+01  0.59242798054E+02  0.00000000000E+00 0.  1.
         11    1    4    4    0    0  0.21268871705E+02 -0.78213155626E+02  0.51015157254E+02  0.95771649700E+02  0.00000000000E+00 0. -1.
</event>
<event>
 8    1  0.6615242E-009  0.1433567E+03  0.7561462E-02  0.1208882E+00
          2   -1    0    0  501    0  0.00000000000E+00  0.00000000000E+00  0.12738938603E+03  0.12738938603E+03  0.00000000000E+00 0. -1.
         -2   -1    0    0    0  501 -0.00000000000E+00 -0.00000000000E+00 -0.21231621529E+03  0.21231621529E+03  0.00000000000E+00 0.  1.
         25    2    1    2    0    0  0.10742722931E+03 -0.60766201224E+02 -0.34490576699E+02  0.17907881393E+03  0.12508589412E+03 0.  0.
         23    2    1    2    0    0 -0.10742722931E+03  0.60766201224E+02 -0.50436252567E+02  0.16062678739E+03  0.89576829855E+02 0.  0.
          5    1    3    3  502    0  0.12166299301E+03 -0.59742242522E+02  0.62099134947E+01  0.13574628848E+03  0.41800000000E+01 0. -1.
         -5    1    3    3    0  502 -0.14235763700E+02 -0.10239587017E+01 -0.40700490194E+02  0.43332525447E+02  0.41800000000E+01 0. -1.
        -11    1    4    4    0    0  0.14034768211E+01  0.19957624620E+02  0.16996486562E+02  0.26251801522E+02  0.00000000000E+00 0. -1.
         11    1    4    4    0    0 -0.10883070613E+03  0.40808576603E+02 -0.67432739129E+02  0.13437498587E+03  0.00000000000E+00 0.  1.
</event>
<event>
 8    1  0.6615242E-009  0.8963577E+02  0.7561462E-02  0.1303736E+00
          4   -1    0    0  501    0  0.00000000000E+00  0.00000000000E+00  0.24872194984E+02  0.24872194984E+02  0.00000000000E+00 0. -1.
         -4   -1    0    0    0  501 -0.00000000000E+00 -0.00000000000E+00 -0.76941469412E+03  0.76941469412E+03  0.00000000000E+00 0.  1.
         25    2    1    2    0    0  0.44286379948E+02  0.22186702050E+02 -0.59939999472E+03  0.61431515708E+03  0.12509686388E+03 0.  0.
         23    2    1    2    0    0 -0.44286379948E+02 -0.22186702050E+02 -0.14514250442E+03  0.17997173203E+03  0.94180383003E+02 0.  0.
          5    1    3    3  502    0  0.60223358847E+02  0.67990610363E+01 -0.58367634249E+03  0.58682929832E+03  0.41800000000E+01 0.  1.
         -5    1    3    3    0  502 -0.15936978899E+02  0.15387641014E+02 -0.15723652226E+02  0.27485858759E+02  0.41800000000E+01 0.  1.
        -11    1    4    4    0    0 -0.68825734464E+02 -0.17052285329E+02 -0.65694612112E+02  0.96662010221E+02  0.00000000000E+00 0. -1.
         11    1    4    4    0    0  0.24539354516E+02 -0.51344167216E+01 -0.79447892309E+02  0.83309721807E+02  0.00000000000E+00 0.  1.
</event>
<event>
 8    1  0.6615242E-009  0.2527345E+03  0.7561462E-02  0.1111589E+00
         -1   -1    0    0    0  501 -0.00000000000E+00  0.00000000000E+00  0.61871774478E+02  0.61871774478E+02  0.00000000000E+00 0.  1.
          1   -1    0    0  501    0  0.00000000000E+00 -0.00000000000E+00 -0.10911560595E+04  0.10911560595E+04  0.00000000000E+00 0. -1.
         25    2    1    2    0    0  0.49619230310E+02  0.22921598555E+03 -0.48431358743E+03  0.55245782161E+03  0.12509179684E+03 0.  0.
         23    2    1    2    0    0 -0.49619230310E+02 -0.22921598555E+03 -0.54497069762E+03  0.60057001240E+03  0.93216106310E+02 0.  0.
          5    1    3    3  502    0 -0.34516705177E+02  0.51548578978E+02 -0.68582347338E+02  0.92572510484E+02  0.41800000000E+01 0. -1.
         -5    1    3    3    0  502  0.84135935488E+02  0.17766740658E+03 -0.41573124009E+03  0.45988531112E+03  0.41800000000E+01 0. -1.
        -11    1    4    4    0    0 -0.50915676813E+02 -0.65589286620E+02 -0.12725588478E+03  0.15194874424E+03  0.00000000000E+00 0.  1.
         11    1    4    4    0    0  0.12964465024E+01 -0.16362669893E+03 -0.41771481284E+03  0.44862126816E+03  0.00000000000E+00 0. -1.
</event>
<event>
 8    1  0.6615242E-009  0.9263580E+02  0.7561462E-02  0.1296591E+00
         -2   -1    0    0    0  501 -0.00000000000E+00  0.00000000000E+00  0.91685768300E+02  0.91685768300E+02  0.00000000000E+00 0.  1.
          2   -1    0    0  501    0  0.00000000000E+00 -0.00000000000E+00 -0.27390138079E+03  0.27390138079E+03  0.00000000000E+00 0. -1.
         25    2    1    2    0    0  0.60978324181E+02  0.25718633539E+02  0.97096237816E+01  0.14185037218E+03  0.12508975643E+03 0.  0.
         23    2    1    2    0    0 -0.60978324181E+02 -0.25718633539E+02 -0.19192523627E+03  0.22373677691E+03  0.94037465368E+02 0.  0.
          5    1    3    3  502    0  0.39335242159E+02  0.30327863912E+02 -0.54470134356E+02  0.73834331729E+02  0.41800000000E+01 0. -1.
         -5    1    3    3    0  502  0.21643082021E+02 -0.46092303726E+01  0.64179758137E+02  0.68016040451E+02  0.41800000000E+01 0. -1.
        -11    1    4    4    0    0 -0.41263717210E+02  0.31805173281E+02 -0.10996483092E+03  0.12168207528E+03  0.00000000000E+00 0. -1.
         11    1    4    4    0    0 -0.19714606971E+02 -0.57523806820E+02 -0.81960405350E+02  0.10205470163E+03  0.00000000000E+00 0.  1.
</event>
<event>
 8    1  0.6615242E-009  0.9412122E+02  0.7561462E-02  0.1293168E+00
          2   -1    0    0  501    0  0.00000000000E+00  0.00000000000E+00  0.36185700452E+02  0.36185700452E+02  0.00000000000E+00 0. -1.
         -2   -1    0    0    0  501 -0.00000000000E+00 -0.00000000000E+00 -0.33616216241E+03  0.33616216241E+03  0.00000000000E+00 0.  1.
         25    2    1    2    0    0  0.10918929719E+02 -0.15290152286E+02 -0.18616190991E+03  0.22506870808E+03  0.12508658949E+03 0.  0.
         23    2    1    2    0    0 -0.10918929719E+02  0.15290152286E+02 -0.11381455204E+03  0.14727915478E+03  0.91566289609E+02 0.  0.
          5    1    3    3  502    0 -0.36288506784E+02 -0.30011609142E+02 -0.16407388890E+03  0.17074913127E+03  0.41800000000E+01 0. -1.
         -5    1    3    3    0  502  0.47207436503E+02  0.14721456856E+02 -0.22088021009E+02  0.54319576814E+02  0.41800000000E+01 0. -1.
        -11    1    4    4    0    0 -0.60810111552E-01 -0.37472280629E+02 -0.31751938874E+02  0.49115793139E+02  0.00000000000E+00 0. -1.
         11    1    4    4    0    0 -0.10858119607E+02  0.52762432915E+02 -0.82062613168E+02  0.98163361640E+02  0.00000000000E+00 0.  1.
</event>
<event>
 8    1  0.6615242E-009  0.1534472E+03  0.7561462E-02  0.1196300E+00
          2   -1    0    0  501    0  0.00000000000E+00  0.00000000000E+00  0.35107455057E+03  0.35107455057E+03  0.00000000000E+00 0. -1.
         -2   -1    0    0    0  501 -0.00000000000E+00 -0.00000000000E+00 -0.87770907872E+02  0.87770907872E+02  0.00000000000E+00 0.  1.
         25    2    1    2    0    0 -0.13099680293E+03 -0.24863035483E+02  0.17892505745E+03  0.25580238658E+03  0.12506938827E+03 0.  0.
         23    2    1    2    0    0  0.13099680293E+03  0.24863035483E+02  0.84378585248E+02  0.18304307187E+03  0.92772235067E+02 0.  0.
          5    1    3    3  502    0 -0.74648841332E+02  0.14172963047E+02  0.14303033626E+02  0.77429784738E+02  0.41800000000E+01 0. -1.
         -5    1    3    3    0  502 -0.56347961598E+02 -0.39035998531E+02  0.16462202383E+03  0.17837260184E+03  0.41800000000E+01 0. -1.
        -11    1    4    4    0    0  0.75974493019E+02  0.60023412611E+02  0.55936144485E+02  0.11182032870E+03  0.00000000000E+00 0. -1.
         11    1    4    4    0    0  0.55022309911E+02 -0.35160377128E+02  0.28442440763E+02  0.71222743167E+02  0.00000000000E+00 0.  1.
</event>
<event>
 8    1  0.6615242E-009  0.1099628E+03  0.7561462E-02  0.1260639E+00
         -1   -1    0    0    0  501 -0.00000000000E+00  0.00000000000E+00  0.19524046912E+03  0.19524046912E+03  0.00000000000E+00 0.  1.
          1   -1    0    0  501    0  0.00000000000E+00 -0.00000000000E+00 -0.10329094928E+03  0.10329094928E+03  0.00000000000E+00 0. -1.
         25    2    1    2    0    0 -0.17433422674E+02 -0.84149019672E+02  0.60936435097E+02  0.16354285222E+03  0.12509210068E+03 0.  0.
         23    2    1    2    0    0  0.17433422674E+02  0.84149019672E+02  0.31013084741E+02  0.13498856617E+03  0.99373637518E+02 0.  0.
          5    1    3    3  502    0 -0.46655734066E+02 -0.78953845889E+02  0.84994936462E+02  0.12510826882E+03  0.41800000000E+01 0. -1.
         -5    1    3    3    0  502  0.29222311392E+02 -0.51951737827E+01 -0.24058501365E+02  0.38434583406E+02  0.41800000000E+01 0. -1.
        -11    1    4    4    0    0  0.33610739606E+02  0.64184404068E+02 -0.22299667045E+02  0.75806297184E+02  0.00000000000E+00 0. -1.
         11    1    4    4    0    0 -0.16177316932E+02  0.19964615604E+02  0.53312751786E+02  0.59182268985E+02  0.00000000000E+00 0.  1.
</event>
<event>
 8    1  0.6615242E-009  0.1247127E+03  0.7561462E-02  0.1235519E+00
          1   -1    0    0  501    0  0.00000000000E+00  0.00000000000E+00  0.10974003314E+03  0.10974003314E+03  0.00000000000E+00 0. -1.
         -1   -1    0    0    0  501 -0.00000000000E+00 -0.00000000000E+00 -0.15643255585E+03  0.15643255585E+03  0.00000000000E+00 0.  1.
         25    2    1    2    0    0 -0.61722235540E+02 -0.35666254836E+02 -0.50103985021E+02  0.15244444698E+03  0.12508870455E+03 0.  0.
         23    2    1    2    0    0  0.61722235540E+02  0.35666254836E+02  0.34114623180E+01  0.11372814201E+03  0.88547931178E+02 0.  0.
          5    1    3    3  502    0 -0.37283494404E+02  0.44036834701E+02 -0.63420889932E+01  0.58197905961E+02  0.41800000000E+01 0. -1.
         -5    1    3    3    0  502 -0.24438741136E+02 -0.79703089537E+02 -0.43761896028E+02  0.94246541019E+02  0.41800000000E+01 0. -1.
        -11    1    4    4    0    0  0.25771230765E+02 -0.26072934150E+02  0.17952494394E+02  0.40819680122E+02  0.00000000000E+00 0. -1.
         11    1    4    4    0    0  0.35951004775E+02  0.61739188986E+02 -0.14541032076E+02  0.72908461888E+02  0.00000000000E+00 0.  1.
</event>
<event>
 8    1  0.6615242E-009  0.1077042E+03  0.7561462E-02  0.1264881E+00
         -2   -1    0    0    0  501 -0.00000000000E+00  0.00000000000E+00  0.91449554154E+02  0.91449554154E+02  0.00000000000E+00 0.  1.
          2   -1    0    0  501    0  0.00000000000E+00 -0.00000000000E+00 -0.15933807734E+03  0.15933807734E+03  0.00000000000E+00 0. -1.
         25    2    1    2    0    0 -0.38585045743E+02 -0.25828429253E+02 -0.63684493634E+02  0.14784494478E+03  0.12508596826E+03 0.  0.
         23    2    1    2    0    0  0.38585045743E+02  0.25828429253E+02 -0.42040295534E+01  0.10294268672E+03  0.91780223205E+02 0.  0.
          5    1    3    3  502    0 -0.73880642156E+02  0.33064512944E+01 -0.69436076544E+02  0.10152892707E+03  0.41800000000E+01 0. -1.
         -5    1    3    3    0  502  0.35295596413E+02 -0.29134880548E+02  0.57515829097E+01  0.46316017712E+02  0.41800000000E+01 0. -1.
        -11    1    4    4    0    0 -0.24896466598E+02  0.19418760763E+02  0.16806041814E+02  0.35768217178E+02  0.00000000000E+00 0.  1.
         11    1    4    4    0    0  0.63481512340E+02  0.64096684904E+01 -0.21010071367E+02  0.67174469540E+02  0.00000000000E+00 0. -1.
</event>
<event>
 8    1  0.6615242E-009  0.1574588E+03  0.7561462E-02  0.1191596E+00
          1   -1    0    0  501    0  0.00000000000E+00  0.00000000000E+00  0.48480089374E+03  0.48480089374E+03  0.00000000000E+00 0. -1.
         -1   -1    0    0    0  501 -0.00000000000E+00 -0.00000000000E+00 -0.77893344034E+02  0.77893344034E+02  0.00000000000E+00 0.  1.
         25    2    1    2    0    0  0.99789577163E+02 -0.10880481358E+03  0.11995557760E+03  0.22766972299E+03  0.12509082701E+03 0.  0.
         23    2    1    2    0    0 -0.99789577163E+02  0.10880481358E+03  0.28695197211E+03  0.33502451479E+03  0.90019686948E+02 0.  0.
          5    1    3    3  502    0  0.51698205723E+02 -0.22711047671E+02 -0.16757769569E+02  0.59049059283E+02  0.41800000000E+01 0.  1.
         -5    1    3    3    0  502  0.48091371440E+02 -0.86093765913E+02  0.13671334717E+03  0.16862066371E+03  0.41800000000E+01 0.  1.
        -11    1    4    4    0    0  0.51885134921E+01  0.24244727747E+02  0.94842957636E+01  0.26545797443E+02  0.00000000000E+00 0.  1.
         11    1    4    4    0    0 -0.10497809066E+03  0.84560085838E+02  0.27746767635E+03  0.30847871734E+03  0.00000000000E+00 0. -1.
</event>
<event>
 8    1  0.6615242E-009  0.9978007E+02  0.7561462E-02  0.1280759E+00
          2   -1    0    0  501    0  0.00000000000E+00  0.00000000000E+00  0.20112510457E+03  0.20112510457E+03  0.00000000000E+00 0. -1.
         -2   -1    0    0    0  501 -0.00000000000E+00 -0.00000000000E+00 -0.59867817677E+02  0.59867817677E+02  0.00000000000E+00 0.  1.
         25    2    1    2    0    0  0.33118438394E+02  0.20029884120E+02  0.11358036433E+03  0.17334057180E+03  0.12509367470E+03 0.  0.
         23    2    1    2    0    0 -0.33118438394E+02 -0.20029884120E+02  0.27676922561E+02  0.87652350449E+02  0.73613146090E+02 0.  0.
          5    1    3    3  502    0 -0.45706729097E+01 -0.44680695934E+02  0.11290215643E+02  0.46499430204E+02  0.41800000000E+01 0.  1.
         -5    1    3    3    0  502  0.37689111303E+02  0.64710580054E+02  0.10229014869E+03  0.12684114159E+03  0.41800000000E+01 0.  1.
        -11    1    4    4    0    0  0.82840683484E+00 -0.40036972722E+02  0.98256159935E+00  0.40057594410E+02  0.00000000000E+00 0.  1.
         11    1    4    4    0    0 -0.33946845229E+02  0.20007088602E+02  0.26694360961E+02  0.47594756039E+02  0.00000000000E+00 0. -1.
</event>
<event>
 8    1  0.6615242E-009  0.1606225E+03  0.7561462E-02  0.1187996E+00
          1   -1    0    0  501    0  0.00000000000E+00  0.00000000000E+00  0.54273465896E+02  0.54273465896E+02  0.00000000000E+00 0. -1.
         -1   -1    0    0    0  501 -0.00000000000E+00 -0.00000000000E+00 -0.54215902860E+03  0.54215902860E+03  0.00000000000E+00 0.  1.
         25    2    1    2    0    0 -0.89926121704E+01  0.11896883399E+03 -0.16051875471E+03  0.23589937807E+03  0.12509114848E+03 0.  0.
         23    2    1    2    0    0  0.89926121704E+01 -0.11896883399E+03 -0.32736680799E+03  0.36053311642E+03  0.92631800852E+02 0.  0.
          5    1    3    3  502    0 -0.24407353688E+02 -0.20680872827E+02 -0.32015455429E+02  0.45451943867E+02  0.41800000000E+01 0. -1.
         -5    1    3    3    0  502  0.15414741517E+02  0.13964970681E+03 -0.12850329928E+03  0.19044743420E+03  0.41800000000E+01 0. -1.
        -11    1    4    4    0    0 -0.31120254019E+02 -0.10613529444E+02 -0.10366622170E+03  0.10875570210E+03  0.00000000000E+00 0.  1.
         11    1    4    4    0    0  0.40112866189E+02 -0.10835530454E+03 -0.22370058629E+03  0.25177741432E+03  0.00000000000E+00 0. -1.
</event>
<event>
 8    1  0.6615242E-009  0.1587508E+03  0.7561462E-02  0.1190114E+00
         -2   -1    0    0    0  501 -0.00000000000E+00  0.00000000000E+00  0.99777724006E+02  0.99777724006E+02  0.00000000000E+00 0.  1.
          2   -1    0    0  501    0  0.00000000000E+00 -0.00000000000E+00 -0.32171356069E+03  0.32171356069E+03  0.00000000000E+00 0. -1.
         25    2    1    2    0    0  0.24333893480E+02  0.13781162574E+03 -0.14601400844E+03  0.23779713640E+03  0.12507279824E+03 0.  0.
         23    2    1    2    0    0 -0.24333893480E+02 -0.13781162574E+03 -0.75921828246E+02  0.18369414830E+03  0.91625507116E+02 0.  0.
          5    1    3    3  502    0 -0.17576674971E+02  0.28601492116E+02  0.16403176911E+02  0.37596827885E+02  0.41800000000E+01 0.  1.
         -5    1    3    3    0  502  0.41910568451E+02  0.10921013362E+03 -0.16241718535E+03  0.20020030852E+03  0.41800000000E+01 0.  1.
        -11    1    4    4    0    0 -0.50381914723E+02 -0.37026313153E+02 -0.36393711822E+02  0.72344920050E+02  0.00000000000E+00 0.  1.
         11    1    4    4    0    0  0.26048021243E+02 -0.10078531258E+03 -0.39528116424E+02  0.11134922825E+03  0.00000000000E+00 0. -1.
</event>
<event>
 8    1  0.6615242E-009  0.2283674E+03  0.7561462E-02  0.1127794E+00
         -1   -1    0    0    0  501 -0.00000000000E+00  0.00000000000E+00  0.28347796056E+02  0.28347796056E+02  0.00000000000E+00 0.  1.
          1   -1    0    0  501    0  0.00000000000E+00 -0.00000000000E+00 -0.20260241398E+04  0.20260241398E+04  0.00000000000E+00 0. -1.
         25    2    1    2    0    0  0.56164971579E+02  0.19676159111E+03 -0.13032979494E+04  0.13251806923E+04  0.12509474306E+03 0.  0.
         23    2    1    2    0    0 -0.56164971579E+02 -0.19676159111E+03 -0.69437839435E+03  0.72919124349E+03  0.87686300441E+02 0.  0.
          5    1    3    3  502    0  0.58200723447E+02  0.21224915973E+03 -0.12572849284E+04  0.12764089836E+04  0.41800000000E+01 0. -1.
         -5    1    3    3    0  502 -0.20357518676E+01 -0.15487568623E+02 -0.46013021031E+02  0.48771708725E+02  0.41800000000E+01 0. -1.
        -11    1    4    4    0    0 -0.83248813437E+01 -0.15971887695E+03 -0.54625048198E+03  0.56918275832E+03  0.00000000000E+00 0. -1.
         11    1    4    4    0    0 -0.47840090236E+02 -0.37042714152E+02 -0.14812791236E+03  0.16000848517E+03  0.00000000000E+00 0.  1.
</event>
<event>
 8    1  0.6615242E-009  0.1218298E+03  0.7561462E-02  0.1240109E+00
         -2   -1    0    0    0  501 -0.00000000000E+00  0.00000000000E+00  0.27353966521E+02  0.27353966521E+02  0.00000000000E+00 0. -1.
          2   -1    0    0  501    0  0.00000000000E+00 -0.00000000000E+00 -0.81368444415E+03  0.81368444415E+03  0.00000000000E+00 0.  1.
         25    2    1    2    0    0  0.84869239153E+02 -0.14563849644E+02 -0.26029925070E+03  0.30136086298E+03  0.12509107224E+03 0.  0.
         23    2    1    2    0    0 -0.84869239153E+02  0.14563849644E+02 -0.52603122693E+03  0.53967754769E+03  0.84428136905E+02 0.  0.
          5    1    3    3  502    0  0.12538007494E+02 -0.43202409386E+02 -0.19360245178E+03  0.19880400283E+03  0.41800000000E+01 0. -1.
         -5    1    3    3    0  502  0.72331231659E+02  0.28638559742E+02 -0.66696798922E+02  0.10255686015E+03  0.41800000000E+01 0. -1.
        -11    1    4    4    0    0 -0.59000599956E+02  0.49560987074E+02 -0.34087903847E+03  0.34947944303E+03  0.00000000000E+00 0.  1.
         11    1    4    4    0    0 -0.25868639197E+02 -0.34997137430E+02 -0.18515218847E+03  0.19019810466E+03  0.00000000000E+00 0. -1.
</event>
<event>
 8    1  0.6615242E-009  0.8736363E+02  0.7561462E-02  0.1309365E+00
          1   -1    0    0  501    0  0.00000000000E+00  0.00000000000E+00  0.35286617568E+03  0.35286617568E+03  0.00000000000E+00 0. -1.
         -1   -1    0    0    0  501 -0.00000000000E+00 -0.00000000000E+00 -0.45344363889E+02  0.45344363889E+02  0.00000000000E+00 0.  1.
         25    2    1    2    0    0  0.28659163308E+02  0.26839302000E+02  0.25401889373E+03  0.28585826163E+03  0.12509057359E+03 0.  0.
         23    2    1    2    0    0 -0.28659163308E+02 -0.26839302000E+02  0.53502918066E+02  0.11235227794E+03  0.90657467109E+02 0.  0.
          5    1    3    3  502    0 -0.17698884583E+02 -0.34848040396E+02  0.31719304451E+02  0.50509633831E+02  0.41800000000E+01 0. -1.
         -5    1    3    3    0  502  0.46358047891E+02  0.61687342396E+02  0.22229958927E+03  0.23534862780E+03  0.41800000000E+01 0. -1.
        -11    1    4    4    0    0 -0.37816943040E+02 -0.10232165671E+02 -0.14485036848E+02  0.41768824351E+02  0.00000000000E+00 0.  1.
         11    1    4    4    0    0  0.91577797317E+01 -0.16607136329E+02  0.67987954914E+02  0.70583453586E+02  0.00000000000E+00 0. -1.
</event>
<event>
 8    1  0.6615242E-009  0.1563576E+03  0.7561462E-02  0.1192871E+00
         -3   -1    0    0    0  501 -0.00000000000E+00  0.00000000000E+00  0.89805167374E+02  0.89805167374E+02  0.00000000000E+00 0.  1.
          3   -1    0    0  501    0  0.00000000000E+00 -0.00000000000E+00 -0.33208750986E+03  0.33208750986E+03  0.00000000000E+00 0. -1.
         25    2    1    2    0    0 -0.90656692702E+02 -0.89314521205E+02 -0.17654395563E+03  0.25101998227E+03  0.12509014191E+03 0.  0.
         23    2    1    2    0    0  0.90656692702E+02  0.89314521205E+02 -0.65738386862E+02  0.17087269496E+03  0.93167713008E+02 0.  0.
          5    1    3    3  502    0 -0.62331482790E+01  0.18299080751E+02 -0.82846216704E+02  0.85174388850E+02  0.41800000000E+01 0.  1.
         -5    1    3    3    0  502 -0.84423544423E+02 -0.10761360196E+03 -0.93697738924E+02  0.16584559342E+03  0.41800000000E+01 0.  1.
        -11    1    4    4    0    0 -0.26744956131E+01  0.57394853836E+02 -0.12565899033E+02  0.58815168044E+02  0.00000000000E+00 0.  1.
         11    1    4    4    0    0  0.93331188315E+02  0.31919667370E+02 -0.53172487828E+02  0.11205752692E+03  0.00000000000E+00 0. -1.
</event>
<event>
 8    1  0.6615242E-009  0.8475438E+02  0.7561462E-02  0.1316076E+00
         -2   -1    0    0    0  501 -0.00000000000E+00  0.00000000000E+00  0.91843123537E+02  0.91843123537E+02  0.00000000000E+00 0.  1.
          2   -1    0    0  501    0  0.00000000000E+00 -0.00000000000E+00 -0.35851438708E+03  0.35851438708E+03  0.00000000000E+00 0. -1.
         25    2    1    2    0    0 -0.62759643570E+01  0.38102587009E+02 -0.31498901212E+03  0.34111140719E+03  0.12509084495E+03 0.  0.
         23    2    1    2    0    0  0.62759643570E+01 -0.38102587009E+02  0.48317748573E+02  0.10924610344E+03  0.90049494297E+02 0.  0.
          5    1    3    3  502    0 -0.61286376262E+02 -0.37654451615E+01 -0.14110459129E+03  0.15394212086E+03  0.41800000000E+01 0.  1.
         -5    1    3    3    0  502  0.55010411905E+02  0.41868032171E+02 -0.17388442083E+03  0.18716928632E+03  0.41800000000E+01 0.  1.
        -11    1    4    4    0    0  0.13039080268E+01 -0.15981657596E+02  0.73576841780E+02  0.75303819306E+02  0.00000000000E+00 0.  1.
         11    1    4    4    0    0  0.49720563302E+01 -0.22120929413E+02 -0.25259093207E+02  0.33942284129E+02  0.00000000000E+00 0. -1.
</event>
<event>
 8    1  0.6615242E-009  0.1173761E+03  0.7561462E-02  0.1247490E+00
         -1   -1    0    0    0  501 -0.00000000000E+00  0.00000000000E+00  0.76865758188E+03  0.76865758188E+03  0.00000000000E+00 0.  1.
          1   -1    0    0  501    0  0.00000000000E+00 -0.00000000000E+00 -0.22573792574E+02  0.22573792574E+02  0.00000000000E+00 0. -1.
         25    2    1    2    0    0  0.30669048061E+02 -0.65281450105E+02  0.43151011355E+03  0.45502943344E+03  0.12509416041E+03 0.  0.
         23    2    1    2    0    0 -0.30669048061E+02  0.65281450105E+02  0.31457367576E+03  0.33620194101E+03  0.94196015962E+02 0.  0.
          5    1    3    3  502    0  0.79960809853E+01  0.37157597078E+02  0.14231117705E+03  0.14735863682E+03  0.41800000000E+01 0. -1.
         -5    1    3    3    0  502  0.22672967076E+02 -0.10243904718E+03  0.28919893649E+03  0.30767079662E+03  0.41800000000E+01 0. -1.
        -11    1    4    4    0    0 -0.68621685474E+01  0.67274126694E+02  0.30145554000E+03  0.30894714771E+03  0.00000000000E+00 0.  1.
         11    1    4    4    0    0 -0.23806879514E+02 -0.19926765890E+01  0.13118135754E+02  0.27254793300E+02  0.00000000000E+00 0. -1.
</event>
<event>
 8    1  0.6615242E-009  0.6076295E+02  0.7561462E-02  0.1394658E+00
         -2   -1    0    0    0  501 -0.00000000000E+00  0.00000000000E+00  0.16212436551E+03  0.16212436551E+03  0.00000000000E+00 0. -1.
          2   -1    0    0  501    0  0.00000000000E+00 -0.00000000000E+00 -0.73330359487E+02  0.73330359487E+02  0.00000000000E+00 0.  1.
         25    2    1    2    0    0  0.21255926200E+02 -0.34438029140E+01  0.68263109846E+02  0.14411997958E+03  0.12508813761E+03 0.  0.
         23    2    1    2    0    0 -0.21255926200E+02  0.34438029140E+01  0.20530896173E+02  0.91334745412E+02  0.86353018735E+02 0.  0.
          5    1    3    3  502    0  0.31947991005E+01  0.36941018749E+02 -0.22138757136E+02  0.43387124531E+02  0.41800000000E+01 0. -1.
         -5    1    3    3    0  502  0.18061127100E+02 -0.40384821663E+02  0.90401866982E+02  0.10073285505E+03  0.41800000000E+01 0. -1.
        -11    1    4    4    0    0 -0.83765465338E+01 -0.15058749109E+02  0.50771388013E+02  0.53615914590E+02  0.00000000000E+00 0. -1.
         11    1    4    4    0    0 -0.12879379666E+02  0.18502552023E+02 -0.30240491840E+02  0.37718830823E+02  0.00000000000E+00 0.  1.
</event>
<event>
 8    1  0.6615242E-009  0.1352658E+03  0.7561462E-02  0.1219845E+00
         -1   -1    0    0    0  501 -0.00000000000E+00  0.00000000000E+00  0.50369446071E+02  0.50369446071E+02  0.00000000000E+00 0.  1.
          1   -1    0    0  501    0  0.00000000000E+00 -0.00000000000E+00 -0.49168690027E+03  0.49168690027E+03  0.00000000000E+00 0. -1.
         25    2    1    2    0    0 -0.10726329768E+03  0.28430806634E+02 -0.19914163494E+03  0.26003501180E+03  0.12508833198E+03 0.  0.
         23    2    1    2    0    0  0.10726329768E+03 -0.28430806634E+02 -0.24217581926E+03  0.28202133454E+03  0.92591467800E+02 0.  0.
          5    1    3    3  502    0 -0.70295695452E+02  0.60373088293E+02 -0.18816715240E+03  0.20978737862E+03  0.41800000000E+01 0. -1.
         -5    1    3    3    0  502 -0.36967602231E+02 -0.31942281659E+02 -0.10974482545E+02  0.50247633172E+02  0.41800000000E+01 0. -1.
        -11    1    4    4    0    0  0.80233931007E+02 -0.49670072813E+02 -0.22415620213E+03  0.24320896935E+03  0.00000000000E+00 0. -1.
         11    1    4    4    0    0  0.27029366676E+02  0.21239266179E+02 -0.18019617128E+02  0.38812365197E+02  0.00000000000E+00 0.  1.
</event>
<event>
 8    1  0.6615242E-009  0.1227189E+03  0.7561462E-02  0.1238678E+00
         -2   -1    0    0    0  501 -0.00000000000E+00  0.00000000000E+00  0.22370023764E+02  0.22370023764E+02  0.00000000000E+00 0. -1.
          2   -1    0    0  501    0  0.00000000000E+00 -0.00000000000E+00 -0.85166198517E+03  0.85166198517E+03  0.00000000000E+00 0.  1.
         25    2    1    2    0    0  0.12009614019E+02  0.78758440868E+02 -0.55792934949E+03  0.57730461655E+03  0.12509331890E+03 0.  0.
         23    2    1    2    0    0 -0.12009614019E+02 -0.78758440868E+02 -0.27136261192E+03  0.29672739238E+03  0.89790619813E+02 0.  0.
          5    1    3    3  502    0 -0.47665589519E+01 -0.28884893145E+02 -0.22606601466E+03  0.22799204486E+03  0.41800000000E+01 0.  1.
         -5    1    3    3    0  502  0.16776172971E+02  0.10764333401E+03 -0.33186333483E+03  0.34931257169E+03  0.41800000000E+01 0.  1.
        -11    1    4    4    0    0  0.28838877810E+02 -0.46824916159E+02 -0.71237203866E+02  0.89994404611E+02  0.00000000000E+00 0.  1.
         11    1    4    4    0    0 -0.40848491829E+02 -0.31933524709E+02 -0.20012540805E+03  0.20673298777E+03  0.00000000000E+00 0. -1.
</event>
<event>
 8    1  0.6615242E-009  0.1383958E+03  0.7561462E-02  0.1215504E+00
         -1   -1    0    0    0  501 -0.00000000000E+00  0.00000000000E+00  0.75488818604E+02  0.75488818604E+02  0.00000000000E+00 0.  1.
          1   -1    0    0  501    0  0.00000000000E+00 -0.00000000000E+00 -0.26877457406E+03  0.26877457406E+03  0.00000000000E+00 0. -1.
         25    2    1    2    0    0 -0.87369179934E+02  0.19006848216E+02 -0.12603878692E+03  0.19881536461E+03  0.12508852672E+03 0.  0.
         23    2    1    2    0    0  0.87369179934E+02 -0.19006848216E+02 -0.67246968537E+02  0.14544802805E+03  0.92942671599E+02 0.  0.
          5    1    3    3  502    0 -0.66878346946E+00 -0.45184842721E+02 -0.30752808073E+02  0.54820843549E+02  0.41800000000E+01 0. -1.
         -5    1    3    3    0  502 -0.86700396465E+02  0.64191690937E+02 -0.95285978843E+02  0.14399452106E+03  0.41800000000E+01 0. -1.
        -11    1    4    4    0    0  0.92656153866E+02  0.10704532854E+02 -0.31013990523E+02  0.98293527157E+02  0.00000000000E+00 0.  1.
         11    1    4    4    0    0 -0.52869739320E+01 -0.29711381070E+02 -0.36232978014E+02  0.47154500890E+02  0.00000000000E+00 0. -1.
</event>
<event>
 8    1  0.6615242E-009  0.4010744E+03  0.7561462E-02  0.1043408E+00
          2   -1    0    0  501    0  0.00000000000E+00  0.00000000000E+00  0.11267949869E+04  0.11267949869E+04  0.00000000000E+00 0. -1.
         -2   -1    0    0    0  501 -0.00000000000E+00 -0.00000000000E+00 -0.15937409335E+03  0.15937409335E+03  0.00000000000E+00 0.  1.
         25    2    1    2    0    0 -0.37543787638E+02 -0.39764176306E+03  0.62876852005E+03  0.75533177744E+03  0.12509090493E+03 0.  0.
         23    2    1    2    0    0  0.37543787638E+02  0.39764176306E+03  0.33865237351E+03  0.53083730282E+03  0.87030478934E+02 0.  0.
          5    1    3    3  502    0 -0.49492836873E+02 -0.28308550160E+03  0.34487816693E+03  0.44893804087E+03  0.41800000000E+01 0. -1.
         -5    1    3    3    0  502  0.11949049235E+02 -0.11455626146E+03  0.28389035312E+03  0.30639373658E+03  0.41800000000E+01 0. -1.
        -11    1    4    4    0    0  0.63015846351E+01  0.10278111659E+03  0.41406162968E+02  0.11098710839E+03  0.00000000000E+00 0. -1.
         11    1    4    4    0    0  0.31242203003E+02  0.29486064647E+03  0.29724621054E+03  0.41985019443E+03  0.00000000000E+00 0.  1.
</event>
<event>
 8    1  0.6615242E-009  0.1139027E+03  0.7561462E-02  0.1253509E+00
          2   -1    0    0  501    0  0.00000000000E+00  0.00000000000E+00  0.19882096541E+03  0.19882096541E+03  0.00000000000E+00 0. -1.
         -2   -1    0    0    0  501 -0.00000000000E+00 -0.00000000000E+00 -0.85974548928E+02  0.85974548928E+02  0.00000000000E+00 0.  1.
         25    2    1    2    0    0 -0.37269050116E+02 -0.64257354839E+02  0.32038417535E+02  0.14897303544E+03  0.12509402601E+03 0.  0.
         23    2    1    2    0    0  0.37269050116E+02  0.64257354839E+02  0.80807998952E+02  0.13582247890E+03  0.79998895820E+02 0.  0.
          5    1    3    3  502    0  0.44648473185E+02 -0.37242827481E+02  0.51196216901E+01  0.58516641076E+02  0.41800000000E+01 0.  1.
         -5    1    3    3    0  502 -0.81917523301E+02 -0.27014527358E+02  0.26918795844E+02  0.90456394367E+02  0.41800000000E+01 0.  1.
        -11    1    4    4    0    0  0.25095252013E+02  0.91378172522E+01 -0.10316870517E+02  0.28630564001E+02  0.00000000000E+00 0.  1.
         11    1    4    4    0    0  0.12173798103E+02  0.55119537587E+02  0.91124869468E+02  0.10719191490E+03  0.00000000000E+00 0. -1.
</event>
<event>
 8    1  0.6615242E-009  0.1181590E+03  0.7561462E-02  0.1246165E+00
          2   -1    0    0  501    0  0.00000000000E+00  0.00000000000E+00  0.44144100076E+03  0.44144100076E+03  0.00000000000E+00 0. -1.
         -2   -1    0    0    0  501 -0.00000000000E+00 -0.00000000000E+00 -0.47748824526E+02  0.47748824526E+02  0.00000000000E+00 0.  1.
         25    2    1    2    0    0 -0.62035290088E+02 -0.54720972086E+02  0.34649621473E+03  0.37755746519E+03  0.12508897113E+03 0.  0.
         23    2    1    2    0    0  0.62035290088E+02  0.54720972086E+02  0.47195961507E+02  0.11163236009E+03  0.58237127637E+02 0.  0.
          5    1    3    3  502    0 -0.40086257852E+02  0.28448278628E+02  0.56314699520E+02  0.74866751014E+02  0.41800000000E+01 0. -1.
         -5    1    3    3    0  502 -0.21949032237E+02 -0.83169250714E+02  0.29018151521E+03  0.30269071418E+03  0.41800000000E+01 0. -1.
        -11    1    4    4    0    0  0.52832383830E+02  0.82242904133E+01  0.29279320177E+02  0.60960465254E+02  0.00000000000E+00 0. -1.
         11    1    4    4    0    0  0.92029062580E+01  0.46496681673E+02  0.17916641330E+02  0.50671894841E+02  0.00000000000E+00 0.  1.
</event>
<event>
 8    1  0.6615242E-009  0.1129781E+03  0.7561462E-02  0.1255152E+00
         -3   -1    0    0    0  501 -0.00000000000E+00  0.00000000000E+00  0.44036169267E+03  0.44036169267E+03  0.00000000000E+00 0.  1.
          3   -1    0    0  501    0  0.00000000000E+00 -0.00000000000E+00 -0.50988466699E+02  0.50988466699E+02  0.00000000000E+00 0. -1.
         25    2    1    2    0    0 -0.39757214481E+02  0.72175501030E+02  0.10902214617E+03  0.18526989454E+03  0.12509662831E+03 0.  0.
         23    2    1    2    0    0  0.39757214481E+02 -0.72175501030E+02  0.28035107980E+03  0.30608026483E+03  0.91095891894E+02 0.  0.
          5    1    3    3  502    0 -0.32370604467E+02 -0.27789423734E+02  0.94004075380E+01  0.43885625971E+02  0.41800000000E+01 0.  1.
         -5    1    3    3    0  502 -0.73866100136E+01  0.99964924764E+02  0.99621738632E+02  0.14138426857E+03  0.41800000000E+01 0.  1.
        -11    1    4    4    0    0  0.28551251299E+02 -0.44103076150E+02  0.26853528544E+03  0.27362648776E+03  0.00000000000E+00 0.  1.
         11    1    4    4    0    0  0.11205963182E+02 -0.28072424880E+02  0.11815794354E+02  0.32453777064E+02  0.00000000000E+00 0. -1.
</event>
<event>
 8    1  0.6615242E-009  0.1837614E+03  0.7561462E-02  0.1164212E+00
          1   -1    0    0  501    0  0.00000000000E+00  0.00000000000E+00  0.54235735298E+03  0.54235735298E+03  0.00000000000E+00 0. -1.
         -1   -1    0    0    0  501 -0.00000000000E+00 -0.00000000000E+00 -0.71107347263E+02  0.71107347263E+02  0.00000000000E+00 0.  1.
         25    2    1    2    0    0  0.28228524204E+02 -0.16023086699E+03  0.22024501497E+03  0.30104113899E+03  0.12508845043E+03 0.  0.
         23    2    1    2    0    0 -0.28228524204E+02  0.16023086699E+03  0.25100499074E+03  0.31242356125E+03  0.90189777292E+02 0.  0.
          5    1    3    3  502    0 -0.49123829340E+02 -0.53766556637E+02  0.89855951088E+02  0.11573917905E+03  0.41800000000E+01 0. -1.
         -5    1    3    3    0  502  0.77352353544E+02 -0.10646431036E+03  0.13038906388E+03  0.18530195994E+03  0.41800000000E+01 0. -1.
        -11    1    4    4    0    0 -0.18931092709E+02  0.12699109169E+03  0.11586201460E+03  0.17294256292E+03  0.00000000000E+00 0.  1.
         11    1    4    4    0    0 -0.92974314951E+01  0.33239775298E+02  0.13514297614E+03  0.13948099833E+03  0.00000000000E+00 0. -1.
</event>
<event>
 8    1  0.6615242E-009  0.1376983E+03  0.7561462E-02  0.1216460E+00
          1   -1    0    0  501    0  0.00000000000E+00  0.00000000000E+00  0.48169832946E+02  0.48169832946E+02  0.00000000000E+00 0. -1.
         -1   -1    0    0    0  501 -0.00000000000E+00 -0.00000000000E+00 -0.46807091730E+03  0.46807091730E+03  0.00000000000E+00 0.  1.
         25    2    1    2    0    0 -0.83049331401E+02  0.32396203532E+02 -0.13854394997E+03  0.20685233293E+03  0.12508699420E+03 0.  0.
         23    2    1    2    0    0  0.83049331401E+02 -0.32396203532E+02 -0.28135713439E+03  0.30938841731E+03  0.92804365463E+02 0.  0.
          5    1    3    3  502    0 -0.96361241669E+02  0.66155238815E+02 -0.10213054746E+03  0.15527435604E+03  0.41800000000E+01 0.  1.
         -5    1    3    3    0  502  0.13311910268E+02 -0.33759035283E+02 -0.36413402512E+02  0.51577976896E+02  0.41800000000E+01 0.  1.
        -11    1    4    4    0    0  0.48312604246E+02  0.25319879422E+02 -0.17668863568E+03  0.18491640815E+03  0.00000000000E+00 0.  1.
         11    1    4    4    0    0  0.34736727155E+02 -0.57716082954E+02 -0.10466849870E+03  0.12447200916E+03  0.00000000000E+00 0. -1.
</event>
<event>
 8    1  0.6615242E-009  0.1782548E+03  0.7561462E-02  0.1169503E+00
         -1   -1    0    0    0  501 -0.00000000000E+00  0.00000000000E+00  0.19171414710E+03  0.19171414710E+03  0.00000000000E+00 0. -1.
          1   -1    0    0  501    0  0.00000000000E+00 -0.00000000000E+00 -0.24324997681E+03  0.24324997681E+03  0.00000000000E+00 0.  1.
         25    2    1    2    0    0  0.14813909009E+03 -0.19648440475E+02  0.92423234926E+02  0.21568914878E+03  0.12509397796E+03 0.  0.
         23    2    1    2    0    0 -0.14813909009E+03  0.19648440475E+02 -0.14395906464E+03  0.21927497513E+03  0.70894648605E+02 0.  0.
          5    1    3    3  502    0  0.16809585923E+03 -0.27835180905E+02  0.92069271124E+02  0.19371432128E+03  0.41800000000E+01 0. -1.
         -5    1    3    3    0  502 -0.19956769135E+02  0.81867404298E+01  0.35396380142E+00  0.21974827497E+02  0.41800000000E+01 0. -1.
        -11    1    4    4    0    0 -0.82144085079E+02 -0.23272201467E+02 -0.61149282230E+02  0.10501657389E+03  0.00000000000E+00 0.  1.
         11    1    4    4    0    0 -0.65995005013E+02  0.42920641943E+02 -0.82809782406E+02  0.11425840124E+03  0.00000000000E+00 0. -1.
</event>
<event>
 8    1  0.6615242E-009  0.9066500E+02  0.7561462E-02  0.1301249E+00
          2   -1    0    0  501    0  0.00000000000E+00  0.00000000000E+00  0.13177736858E+03  0.13177736858E+03  0.00000000000E+00 0. -1.
         -2   -1    0    0    0  501 -0.00000000000E+00 -0.00000000000E+00 -0.11154377660E+03  0.11154377660E+03  0.00000000000E+00 0.  1.
         25    2    1    2    0    0 -0.34052703221E+02  0.26727659258E+02  0.43648206294E+02  0.13937767731E+03  0.12508803561E+03 0.  0.
         23    2    1    2    0    0  0.34052703221E+02 -0.26727659258E+02 -0.23414614309E+02  0.10394346787E+03  0.91553514316E+02 0.  0.
          5    1    3    3  502    0 -0.58606134989E+02  0.13744213903E+02 -0.24916344970E+02  0.65283069175E+02  0.41800000000E+01 0.  1.
         -5    1    3    3    0  502  0.24553431768E+02  0.12983445355E+02  0.68564551263E+02  0.74094608136E+02  0.41800000000E+01 0.  1.
        -11    1    4    4    0    0 -0.27373886511E+02 -0.10933579355E+02  0.11385354608E+02  0.31599036691E+02  0.00000000000E+00 0.  1.
         11    1    4    4    0    0  0.61426589732E+02 -0.15794079903E+02 -0.34799968917E+02  0.72344431180E+02  0.00000000000E+00 0. -1.
</event>
<event>
 8    1  0.6615242E-009  0.1564320E+03  0.7561462E-02  0.1192785E+00
          2   -1    0    0  501    0  0.00000000000E+00  0.00000000000E+00  0.80804561029E+03  0.80804561029E+03  0.00000000000E+00 0. -1.
         -2   -1    0    0    0  501 -0.00000000000E+00 -0.00000000000E+00 -0.42375939821E+02  0.42375939821E+02  0.00000000000E+00 0.  1.
         25    2    1    2    0    0  0.89372256084E+02 -0.93584285052E+02  0.57745719530E+03  0.60485394043E+03  0.12508420474E+03 0.  0.
         23    2    1    2    0    0 -0.89372256084E+02  0.93584285052E+02  0.18821247517E+03  0.24556760969E+03  0.90189226364E+02 0.  0.
          5    1    3    3  502    0 -0.24697961245E+02 -0.69206258847E+01  0.18944950558E+03  0.19122361757E+03  0.41800000000E+01 0. -1.
         -5    1    3    3    0  502  0.11407021733E+03 -0.86663659167E+02  0.38800768973E+03  0.41363032286E+03  0.41800000000E+01 0. -1.
        -11    1    4    4    0    0  0.54626721417E+01  0.27333666722E+02  0.41666101705E+01  0.28183874179E+02  0.00000000000E+00 0.  1.
         11    1    4    4    0    0 -0.94834928226E+02  0.66250618330E+02  0.18404586500E+03  0.21738373551E+03  0.00000000000E+00 0. -1.
</event>
<event>
 8    1  0.6615242E-009  0.1331246E+03  0.7561462E-02  0.1222892E+00
          1   -1    0    0  501    0  0.00000000000E+00  0.00000000000E+00  0.91997751355E+03  0.91997751355E+03  0.00000000000E+00 0. -1.
         -1   -1    0    0    0  501 -0.00000000000E+00 -0.00000000000E+00 -0.28488528330E+02  0.28488528330E+02  0.00000000000E+00 0.  1.
         25    2    1    2    0    0  0.11174562123E+03  0.46334328203E+02  0.58767244337E+03  0.61289455188E+03  0.12508747814E+03 0.  0.
         23    2    1    2    0    0 -0.11174562123E+03 -0.46334328203E+02  0.30381654184E+03  0.33557149000E+03  0.75297941329E+02 0.  0.
          5    1    3    3  502    0  0.10508772976E+03  0.50706809174E+02  0.25901647596E+03  0.28411550232E+03  0.41800000000E+01 0. -1.
         -5    1    3    3    0  502  0.66578914736E+01 -0.43724809709E+01  0.32865596742E+03  0.32877904956E+03  0.41800000000E+01 0. -1.
        -11    1    4    4    0    0 -0.17346559141E+01 -0.29091357621E+02  0.42643818620E+02  0.51650860456E+02  0.00000000000E+00 0. -1.
         11    1    4    4    0    0 -0.11001096532E+03 -0.17242970583E+02  0.26117272322E+03  0.28392062954E+03  0.00000000000E+00 0.  1.
</event>
<event>
 8    1  0.6615242E-009  0.1422086E+03  0.7561462E-02  0.1210388E+00
          2   -1    0    0  501    0  0.00000000000E+00  0.00000000000E+00  0.34683841882E+02  0.34683841882E+02  0.00000000000E+00 0.  1.
         -2   -1    0    0    0  501 -0.00000000000E+00 -0.00000000000E+00 -0.61287943174E+03  0.61287943174E+03  0.00000000000E+00 0. -1.
         25    2    1    2    0    0 -0.58486605923E+02 -0.72522784968E+02 -0.29613331697E+03  0.33469758758E+03  0.12508915342E+03 0.  0.
         23    2    1    2    0    0  0.58486605923E+02  0.72522784968E+02 -0.28206227290E+03  0.31286568604E+03  0.98211884721E+02 0.  0.
          5    1    3    3  502    0  0.35143176568E+02  0.17411751326E+01 -0.84288911527E+02  0.91433951881E+02  0.41800000000E+01 0. -1.
         -5    1    3    3    0  502 -0.93629782490E+02 -0.74263960100E+02 -0.21184440544E+03  0.24326363570E+03  0.41800000000E+01 0. -1.
        -11    1    4    4    0    0 -0.19916382192E+02  0.39685467697E+02 -0.14442217079E+03  0.15109388486E+03  0.00000000000E+00 0. -1.
         11    1    4    4    0    0  0.78402988115E+02  0.32837317271E+02 -0.13764010210E+03  0.16177180118E+03  0.00000000000E+00 0.  1.
</event>
<event>
 8    1  0.6615242E-009  0.1081482E+03  0.7561462E-02  0.1264038E+00
          2   -1    0    0  501    0  0.00000000000E+00  0.00000000000E+00  0.15889476355E+04  0.15889476355E+04  0.00000000000E+00 0. -1.
         -2   -1    0    0    0  501 -0.00000000000E+00 -0.00000000000E+00 -0.14673567080E+02  0.14673567080E+02  0.00000000000E+00 0.  1.
         25    2    1    2    0    0 -0.50934659572E+02 -0.17386256822E+02  0.13407399624E+04  0.13476378136E+04  0.12508960235E+03 0.  0.
         23    2    1    2    0    0  0.50934659572E+02  0.17386256822E+02  0.23353410605E+03  0.25598338893E+03  0.89959408880E+02 0.  0.
          5    1    3    3  502    0 -0.70796206226E+02  0.18244968672E+02  0.44707782434E+03  0.45303535746E+03  0.41800000000E+01 0.  1.
         -5    1    3    3    0  502  0.19861546654E+02 -0.35631225494E+02  0.89366213802E+03  0.89460245618E+03  0.41800000000E+01 0.  1.
        -11    1    4    4    0    0 -0.11114341976E+01 -0.30986716185E+02  0.46331320909E+02  0.55749467828E+02  0.00000000000E+00 0. -1.
         11    1    4    4    0    0  0.52046093770E+02  0.48372973007E+02  0.18720278514E+03  0.20023392110E+03  0.00000000000E+00 0.  1.
</event>
<event>
 8    1  0.6615242E-009  0.1084090E+03  0.7561462E-02  0.1263545E+00
         -2   -1    0    0    0  501 -0.00000000000E+00  0.00000000000E+00  0.89131235811E+03  0.89131235811E+03  0.00000000000E+00 0.  1.
          2   -1    0    0  501    0  0.00000000000E+00 -0.00000000000E+00 -0.24623524322E+02  0.24623524322E+02  0.00000000000E+00 0. -1.
         25    2    1    2    0    0 -0.53733815186E+02 -0.54627774901E+02  0.67217771828E+03  0.68799861330E+03  0.12509072816E+03 0.  0.
         23    2    1    2    0    0  0.53733815186E+02  0.54627774901E+02  0.19451111551E+03  0.22793726913E+03  0.90825700745E+02 0.  0.
          5    1    3    3  502    0 -0.24083742818E+02 -0.76147501611E+02  0.21595022261E+03  0.23028339001E+03  0.41800000000E+01 0.  1.
         -5    1    3    3    0  502 -0.29650072367E+02  0.21519726710E+02  0.45622749567E+03  0.45771522330E+03  0.41800000000E+01 0.  1.
        -11    1    4    4    0    0  0.33927693680E+02 -0.75119492155E+01  0.16722891710E+02  0.38563880596E+02  0.00000000000E+00 0. -1.
         11    1    4    4    0    0  0.19806121506E+02  0.62139724117E+02  0.17778822380E+03  0.18937338853E+03  0.00000000000E+00 0.  1.
</event>
<event>
 8    1  0.6615242E-009  0.9810828E+02  0.7561462E-02  0.1284325E+00
         -2   -1    0    0    0  501 -0.00000000000E+00  0.00000000000E+00  0.15685519937E+02  0.15685519937E+02  0.00000000000E+00 0. -1.
          2   -1    0    0  501    0  0.00000000000E+00 -0.00000000000E+00 -0.91568042358E+03  0.91568042358E+03  0.00000000000E+00 0.  1.
         25    2    1    2    0    0  0.42999996227E+02  0.29243960045E+01 -0.60152765440E+03  0.61590685494E+03  0.12509269836E+03 0.  0.
         23    2    1    2    0    0 -0.42999996227E+02 -0.29243960045E+01 -0.29846724925E+03  0.31545908858E+03  0.92596900215E+02 0.  0.
          5    1    3    3  502    0 -0.15546206670E+02 -0.35338271254E+02 -0.41229073915E+03  0.41411544761E+03  0.41800000000E+01 0.  1.
         -5    1    3    3    0  502  0.58546202896E+02  0.38262667259E+02 -0.18923691525E+03  0.20179140733E+03  0.41800000000E+01 0.  1.
        -11    1    4    4    0    0 -0.52240945075E+02  0.24993019048E+02 -0.26341106443E+03  0.26970197665E+03  0.00000000000E+00 0.  1.
         11    1    4    4    0    0  0.92409488482E+01 -0.27917415052E+02 -0.35056184818E+02  0.45757111937E+02  0.00000000000E+00 0. -1.
</event>
<event>
 8    1  0.6615242E-009  0.1064085E+03  0.7561462E-02  0.1267369E+00
         -4   -1    0    0    0  501 -0.00000000000E+00  0.00000000000E+00  0.19292621174E+03  0.19292621174E+03  0.00000000000E+00 0.  1.
          4   -1    0    0  501    0  0.00000000000E+00 -0.00000000000E+00 -0.84942459985E+02  0.84942459985E+02  0.00000000000E+00 0. -1.
         25    2    1    2    0    0  0.61782571782E+02  0.93372551305E+00  0.97374732991E+02  0.17014099126E+03  0.12509260674E+03 0.  0.
         23    2    1    2    0    0 -0.61782571782E+02 -0.93372551305E+00  0.10609018760E+02  0.10772768046E+03  0.87605615344E+02 0.  0.
          5    1    3    3  502    0  0.54734259480E+02 -0.49971065963E+02  0.19510854867E+02  0.76753452378E+02  0.41800000000E+01 0.  1.
         -5    1    3    3    0  502  0.70483123011E+01  0.50904791476E+02  0.77863878124E+02  0.93387538880E+02  0.41800000000E+01 0.  1.
        -11    1    4    4    0    0 -0.24046145502E+02 -0.30675292432E+02  0.36282836564E+02  0.53250679887E+02  0.00000000000E+00 0.  1.
         11    1    4    4    0    0 -0.37736426279E+02  0.29741566919E+02 -0.25673817804E+02  0.54477000577E+02  0.00000000000E+00 0. -1.
</event>
<event>
 8    1  0.6615242E-009  0.1084078E+03  0.7561462E-02  0.1263547E+00
          2   -1    0    0  501    0  0.00000000000E+00  0.00000000000E+00  0.20012084970E+03  0.20012084970E+03  0.00000000000E+00 0. -1.
         -2   -1    0    0    0  501 -0.00000000000E+00 -0.00000000000E+00 -0.10319898271E+03  0.10319898271E+03  0.00000000000E+00 0.  1.
         25    2    1    2    0    0  0.67417661396E+02  0.24268070492E+02  0.10825686780E+03  0.18028180535E+03  0.12509156487E+03 0.  0.
         23    2    1    2    0    0 -0.67417661396E+02 -0.24268070492E+02 -0.11335000812E+02  0.12303802706E+03  0.99377027261E+02 0.  0.
          5    1    3    3  502    0  0.87471373615E+02  0.13929644310E+01  0.11899538213E+03  0.14775166639E+03  0.41800000000E+01 0. -1.
         -5    1    3    3    0  502 -0.20053712220E+02  0.22875106061E+02 -0.10738514330E+02  0.32530138965E+02  0.41800000000E+01 0. -1.
        -11    1    4    4    0    0  0.13003203980E+02  0.34671923711E+01  0.26664180324E+02  0.29867762705E+02  0.00000000000E+00 0. -1.
         11    1    4    4    0    0 -0.80420865376E+02 -0.27735262863E+02 -0.37999181136E+02  0.93170264360E+02  0.00000000000E+00 0.  1.
</event>
<event>
 8    1  0.6615242E-009  0.2130744E+03  0.7561462E-02  0.1139154E+00
          2   -1    0    0  501    0  0.00000000000E+00  0.00000000000E+00  0.56310298274E+03  0.56310298274E+03  0.00000000000E+00 0. -1.
         -2   -1    0    0    0  501 -0.00000000000E+00 -0.00000000000E+00 -0.88235444340E+02  0.88235444340E+02  0.00000000000E+00 0.  1.
         25    2    1    2    0    0  0.10312216599E+03 -0.16382083503E+03  0.27441034250E+03  0.35835675744E+03  0.12508829851E+03 0.  0.
         23    2    1    2    0    0 -0.10312216599E+03  0.16382083503E+03  0.20045719590E+03  0.29298166964E+03  0.90463938949E+02 0.  0.
          5    1    3    3  502    0  0.12233417831E+02 -0.10511605195E+03  0.20204969934E+03  0.22812407653E+03  0.41800000000E+01 0. -1.
         -5    1    3    3    0  502  0.90888748162E+02 -0.58704783079E+02  0.72360643165E+02  0.13023268091E+03  0.41800000000E+01 0. -1.
        -11    1    4    4    0    0 -0.11806057603E+03  0.13387442206E+03  0.15413359269E+03  0.23583431661E+03  0.00000000000E+00 0.  1.
         11    1    4    4    0    0  0.14938410042E+02  0.29946412966E+02  0.46323603210E+02  0.57147353031E+02  0.00000000000E+00 0. -1.
</event>
<event>
 8    1  0.6615242E-009  0.1119949E+03  0.7561462E-02  0.1256920E+00
          3   -1    0    0  501    0  0.00000000000E+00  0.00000000000E+00  0.12044731052E+04  0.12044731052E+04  0.00000000000E+00 0. -1.
         -3   -1    0    0    0  501 -0.00000000000E+00 -0.00000000000E+00 -0.36269264956E+02  0.36269264956E+02  0.00000000000E+00 0.  1.
         25    2    1    2    0    0  0.39500210265E+02 -0.63709720552E+02  0.10662303512E+04  0.10761565993E+04  0.12508664789E+03 0.  0.
         23    2    1    2    0    0 -0.39500210265E+02  0.63709720552E+02  0.10197348906E+03  0.16458577078E+03  0.10521733873E+03 0.  0.
          5    1    3    3  502    0 -0.11789618838E+02 -0.32592136523E+02  0.71072827020E+02  0.79183720651E+02  0.41800000000E+01 0. -1.
         -5    1    3    3    0  502  0.51289829104E+02 -0.31117584030E+02  0.99515752413E+03  0.99697287869E+03  0.41800000000E+01 0. -1.
        -11    1    4    4    0    0  0.35648540361E+02  0.11575366500E+02  0.25107158072E+02  0.45112935239E+02  0.00000000000E+00 0.  1.
         11    1    4    4    0    0 -0.75148750626E+02  0.52134354052E+02  0.76866330986E+02  0.11947283554E+03  0.00000000000E+00 0. -1.
</event>
<event>
 8    1  0.6615242E-009  0.7550478E+02  0.7561462E-02  0.1342315E+00
         -1   -1    0    0    0  501 -0.00000000000E+00  0.00000000000E+00  0.98190301890E+02  0.98190301890E+02  0.00000000000E+00 0.  1.
          1   -1    0    0  501    0  0.00000000000E+00 -0.00000000000E+00 -0.15947167254E+03  0.15947167254E+03  0.00000000000E+00 0. -1.
         25    2    1    2    0    0 -0.49450787605E+02 -0.27427598421E+02 -0.58914984819E+02  0.14938597609E+03  0.12509013097E+03 0.  0.
         23    2    1    2    0    0  0.49450787605E+02  0.27427598421E+02 -0.23663858351E+01  0.10827599834E+03  0.92306221273E+02 0.  0.
          5    1    3    3  502    0 -0.16815480274E+02 -0.23491488121E+02  0.37450240156E+02  0.47482662928E+02  0.41800000000E+01 0. -1.
         -5    1    3    3    0  502 -0.32635307331E+02 -0.39361103001E+01 -0.96365224974E+02  0.10190331316E+03  0.41800000000E+01 0. -1.
        -11    1    4    4    0    0  0.22174214787E+02  0.49080053031E+02  0.29208524869E+02  0.61267326790E+02  0.00000000000E+00 0.  1.
         11    1    4    4    0    0  0.27276572818E+02 -0.21652454610E+02 -0.31574910704E+02  0.47008671554E+02  0.00000000000E+00 0. -1.
</event>
<event>
 8    1  0.6615242E-009  0.8209812E+02  0.7561462E-02  0.1323201E+00
          1   -1    0    0  501    0  0.00000000000E+00  0.00000000000E+00  0.37585967984E+03  0.37585967984E+03  0.00000000000E+00 0. -1.
         -1   -1    0    0    0  501 -0.00000000000E+00 -0.00000000000E+00 -0.41343834526E+02  0.41343834526E+02  0.00000000000E+00 0.  1.
         25    2    1    2    0    0 -0.42493691876E+01 -0.60765715403E+01  0.88706423752E+02  0.15353080305E+03  0.12509155051E+03 0.  0.
         23    2    1    2    0    0  0.42493691876E+01  0.60765715403E+01  0.24580942157E+03  0.26367271132E+03  0.95110699222E+02 0.  0.
          5    1    3    3  502    0 -0.89145053645E+01 -0.38339956603E+02  0.10827263432E+03  0.11528163956E+03  0.41800000000E+01 0.  1.
         -5    1    3    3    0  502  0.46651361769E+01  0.32263385063E+02 -0.19566210566E+02  0.38249163483E+02  0.41800000000E+01 0.  1.
        -11    1    4    4    0    0  0.30275453327E+01 -0.42773777990E+02  0.15155089418E+03  0.15750058933E+03  0.00000000000E+00 0.  1.
         11    1    4    4    0    0  0.12218238549E+01  0.48850349530E+02  0.94258527388E+02  0.10617212199E+03  0.00000000000E+00 0. -1.
</event>
<event>
 8    1  0.6615242E-009  0.1631246E+03  0.7561462E-02  0.1185214E+00
          2   -1    0    0  501    0  0.00000000000E+00  0.00000000000E+00  0.48613815393E+03  0.48613815393E+03  0.00000000000E+00 0. -1.
         -2   -1    0    0    0  501 -0.00000000000E+00 -0.00000000000E+00 -0.60567356449E+02  0.60567356449E+02  0.00000000000E+00 0.  1.
         25    2    1    2    0    0 -0.12943734852E+03 -0.27185455467E+02  0.18684164701E+03  0.26086506566E+03  0.12509078799E+03 0.  0.
         23    2    1    2    0    0  0.12943734852E+03  0.27185455467E+02  0.23872915046E+03  0.28584044472E+03  0.84971032579E+02 0.  0.
          5    1    3    3  502    0 -0.25577961295E+02  0.45653250906E+02  0.75919472000E+02  0.92302167099E+02  0.41800000000E+01 0.  1.
         -5    1    3    3    0  502 -0.10385938722E+03 -0.72838706373E+02  0.11092217501E+03  0.16856289856E+03  0.41800000000E+01 0.  1.
        -11    1    4    4    0    0  0.60719939065E+02  0.45308266255E+02  0.17373366379E+03  0.18953399675E+03  0.00000000000E+00 0. -1.
         11    1    4    4    0    0  0.68717409451E+02 -0.18122810789E+02  0.64995486678E+02  0.96306447972E+02  0.00000000000E+00 0.  1.
</event>
<event>
 8    1  0.6615242E-009  0.7246054E+02  0.7561462E-02  0.1351920E+00
         -2   -1    0    0    0  501 -0.00000000000E+00  0.00000000000E+00  0.14230335863E+03  0.14230335863E+03  0.00000000000E+00 0.  1.
          2   -1    0    0  501    0  0.00000000000E+00 -0.00000000000E+00 -0.98878847734E+02  0.98878847734E+02  0.00000000000E+00 0. -1.
         25    2    1    2    0    0  0.10566612378E+02  0.47872064138E+02  0.28971139118E+02  0.13743629427E+03  0.12508405277E+03 0.  0.
         23    2    1    2    0    0 -0.10566612378E+02 -0.47872064138E+02  0.14453371775E+02  0.10374591210E+03  0.90282481684E+02 0.  0.
          5    1    3    3  502    0 -0.19257861911E+02  0.35081490657E+02 -0.42686737575E+02  0.58661795037E+02  0.41800000000E+01 0.  1.
         -5    1    3    3    0  502  0.29824474289E+02  0.12790573481E+02  0.71657876694E+02  0.78774499229E+02  0.41800000000E+01 0.  1.
        -11    1    4    4    0    0 -0.27408958141E+02 -0.47824152180E+02  0.43466946253E+02  0.70198119168E+02  0.00000000000E+00 0.  1.
         11    1    4    4    0    0  0.16842345763E+02 -0.47911957601E-01 -0.29013574478E+02  0.33547792928E+02  0.00000000000E+00 0. -1.
</event>
<event>
 8    1  0.6615242E-009  0.5897243E+02  0.7561462E-02  0.1402195E+00
         -2   -1    0    0    0  501 -0.00000000000E+00  0.00000000000E+00  0.11269037757E+02  0.11269037757E+02  0.00000000000E+00 0.  1.
          2   -1    0    0  501    0  0.00000000000E+00 -0.00000000000E+00 -0.10625608519E+04  0.10625608519E+04  0.00000000000E+00 0. -1.
         25    2    1    2    0    0  0.17252919528E+02  0.59744892498E+01 -0.60276492040E+03  0.61587924549E+03  0.12509331722E+03 0.  0.
         23    2    1    2    0    0 -0.17252919528E+02 -0.59744892498E+01 -0.44852689371E+03  0.45795064413E+03  0.90603864839E+02 0.  0.
          5    1    3    3  502    0  0.17841513932E+02  0.93936284868E+01 -0.60799196968E+03  0.60834058509E+03  0.41800000000E+01 0.  1.
         -5    1    3    3    0  502 -0.58859440433E+00 -0.34191392370E+01  0.52270492795E+01  0.75386604025E+01  0.41800000000E+01 0.  1.
        -11    1    4    4    0    0 -0.69480351468E+00  0.41569719915E+02 -0.22688804860E+03  0.23066579929E+03  0.00000000000E+00 0.  1.
         11    1    4    4    0    0 -0.16558116013E+02 -0.47544209165E+02 -0.22163884512E+03  0.22728484484E+03  0.00000000000E+00 0. -1.
</event>
<event>
 8    1  0.6615242E-009  0.1054360E+03  0.7561462E-02  0.1269263E+00
         -2   -1    0    0    0  501 -0.00000000000E+00  0.00000000000E+00  0.11384971707E+02  0.11384971707E+02  0.00000000000E+00 0.  1.
          2   -1    0    0  501    0  0.00000000000E+00 -0.00000000000E+00 -0.11738056960E+04  0.11738056960E+04  0.00000000000E+00 0. -1.
         25    2    1    2    0    0  0.29284249685E+02 -0.16623063281E+02 -0.71973753352E+03  0.73130070015E+03  0.12507878868E+03 0.  0.
         23    2    1    2    0    0 -0.29284249685E+02  0.16623063281E+02 -0.44268319082E+03  0.45388996760E+03  0.94412932064E+02 0.  0.
          5    1    3    3  502    0  0.67062893242E+02  0.11679770280E+02 -0.57434368592E+03  0.57837876054E+03  0.41800000000E+01 0. -1.
         -5    1    3    3    0  502 -0.37778643556E+02 -0.28302833562E+02 -0.14539384759E+03  0.15292193961E+03  0.41800000000E+01 0. -1.
        -11    1    4    4    0    0  0.28765196800E+02 -0.11250981592E+02 -0.84586278618E+02  0.90049206905E+02  0.00000000000E+00 0.  1.
         11    1    4    4    0    0 -0.58049446485E+02  0.27874044874E+02 -0.35809691221E+03  0.36384076070E+03  0.00000000000E+00 0. -1.
</event>
<event>
 8    1  0.6615242E-009  0.9307436E+02  0.7561462E-02  0.1295573E+00
          1   -1    0    0  501    0  0.00000000000E+00  0.00000000000E+00  0.32579539531E+02  0.32579539531E+02  0.00000000000E+00 0. -1.
         -1   -1    0    0    0  501 -0.00000000000E+00 -0.00000000000E+00 -0.48605796804E+03  0.48605796804E+03  0.00000000000E+00 0.  1.
         25    2    1    2    0    0  0.51437683555E+02  0.37231027279E+02 -0.32548524088E+03  0.35441315535E+03  0.12504422406E+03 0.  0.
         23    2    1    2    0    0 -0.51437683555E+02 -0.37231027279E+02 -0.12799318763E+03  0.16422435222E+03  0.80965406820E+02 0.  0.
          5    1    3    3  502    0  0.21482589872E+02  0.61616649141E+02 -0.30203749373E+03  0.30903435592E+03  0.41800000000E+01 0. -1.
         -5    1    3    3    0  502  0.29955093683E+02 -0.24385621862E+02 -0.23447747145E+02  0.45378799426E+02  0.41800000000E+01 0. -1.
        -11    1    4    4    0    0 -0.23321628625E+02  0.11228506557E+02 -0.96590349703E+02  0.99998366872E+02  0.00000000000E+00 0.  1.
         11    1    4    4    0    0 -0.28116054930E+02 -0.48459533836E+02 -0.31402837927E+02  0.64225985351E+02  0.00000000000E+00 0. -1.
</event>
<event>
 8    1  0.6615242E-009  0.1727293E+03  0.7561462E-02  0.1175031E+00
         -1   -1    0    0    0  501 -0.00000000000E+00  0.00000000000E+00  0.39874295731E+03  0.39874295731E+03  0.00000000000E+00 0.  1.
          1   -1    0    0  501    0  0.00000000000E+00 -0.00000000000E+00 -0.16226280315E+03  0.16226280315E+03  0.00000000000E+00 0. -1.
         25    2    1    2    0    0  0.14713215430E+03  0.56038779700E+02  0.30752167106E+03  0.36743068796E+03  0.12509003408E+03 0.  0.
         23    2    1    2    0    0 -0.14713215430E+03 -0.56038779700E+02 -0.71041516896E+02  0.19357507250E+03  0.87385330071E+02 0.  0.
          5    1    3    3  502    0  0.43255838880E+02 -0.26724575781E+02  0.16439379923E+03  0.17212804586E+03  0.41800000000E+01 0. -1.
         -5    1    3    3    0  502  0.10387631542E+03  0.82763355481E+02  0.14312787183E+03  0.19530264209E+03  0.41800000000E+01 0. -1.
        -11    1    4    4    0    0 -0.93667743154E+02 -0.16610374213E+02  0.15940979978E+01  0.95142481508E+02  0.00000000000E+00 0.  1.
         11    1    4    4    0    0 -0.53464411141E+02 -0.39428405487E+02 -0.72635614894E+02  0.98432590989E+02  0.00000000000E+00 0. -1.
</event>
<event>
 8    1  0.6615242E-009  0.1741273E+03  0.7561462E-02  0.1173611E+00
         -1   -1    0    0    0  501 -0.00000000000E+00  0.00000000000E+00  0.23604991372E+03  0.23604991372E+03  0.00000000000E+00 0.  1.
          1   -1    0    0  501    0  0.00000000000E+00 -0.00000000000E+00 -0.13770665698E+03  0.13770665698E+03  0.00000000000E+00 0. -1.
         25    2    1    2    0    0  0.84409837992E+02  0.11165492467E+03  0.86274520060E+02  0.20659718585E+03  0.12508901405E+03 0.  0.
         23    2    1    2    0    0 -0.84409837992E+02 -0.11165492467E+03  0.12068736672E+02  0.16715938485E+03  0.90580144535E+02 0.  0.
          5    1    3    3  502    0  0.95207973695E+02  0.25928282270E+02  0.29312110587E+02  0.10302187294E+03  0.41800000000E+01 0. -1.
         -5    1    3    3    0  502 -0.10798135703E+02  0.85726642405E+02  0.56962409472E+02  0.10357531292E+03  0.41800000000E+01 0. -1.
        -11    1    4    4    0    0 -0.58165765117E+02 -0.12169932691E+03  0.23327292305E+02  0.13688734408E+03  0.00000000000E+00 0. -1.
         11    1    4    4    0    0 -0.26244072875E+02  0.10044402239E+02 -0.11258555632E+02  0.30272040769E+02  0.00000000000E+00 0.  1.
</event>
<event>
 8    1  0.6615242E-009  0.1102138E+03  0.7561462E-02  0.1260174E+00
          2   -1    0    0  501    0  0.00000000000E+00  0.00000000000E+00  0.12376085694E+04  0.12376085694E+04  0.00000000000E+00 0.  1.
         -2   -1    0    0    0  501 -0.00000000000E+00 -0.00000000000E+00 -0.19987114883E+02  0.19987114883E+02  0.00000000000E+00 0. -1.
         25    2    1    2    0    0 -0.14657114777E+01  0.57674945239E+02  0.10471456919E+04  0.10561674970E+04  0.12508850482E+03 0.  0.
         23    2    1    2    0    0  0.14657114777E+01 -0.57674945239E+02  0.17047576260E+03  0.20142818727E+03  0.90458727454E+02 0.  0.
          5    1    3    3  502    0  0.69274594300E+01  0.94299005573E+02  0.86346412463E+03  0.86863574590E+03  0.41800000000E+01 0. -1.
         -5    1    3    3    0  502 -0.83931709077E+01 -0.36624060333E+02  0.18368156729E+03  0.18753175111E+03  0.41800000000E+01 0. -1.
        -11    1    4    4    0    0 -0.32437545137E+02 -0.25868483897E+02  0.24397274419E+02  0.48131068892E+02  0.00000000000E+00 0. -1.
         11    1    4    4    0    0  0.33903256615E+02 -0.31806461343E+02  0.14607848818E+03  0.15329711837E+03  0.00000000000E+00 0.  1.
</event>
<event>
 8    1  0.6615242E-009  0.1152423E+03  0.7561462E-02  0.1251159E+00
         -2   -1    0    0    0  501 -0.00000000000E+00  0.00000000000E+00  0.15901093712E+02  0.15901093712E+02  0.00000000000E+00 0.  1.
          2   -1    0    0  501    0  0.00000000000E+00 -0.00000000000E+00 -0.11213220130E+04  0.11213220130E+04  0.00000000000E+00 0. -1.
         25    2    1    2    0    0 -0.39967425337E+02 -0.41243955023E+02 -0.83297916611E+03  0.84427464252E+03  0.12508765695E+03 0.  0.
         23    2    1    2    0    0  0.39967425337E+02  0.41243955023E+02 -0.27244175318E+03  0.29294846419E+03  0.91081473868E+02 0.  0.
          5    1    3    3  502    0  0.34932488523E+02  0.90745550162E+01 -0.41810626763E+03  0.41968196261E+03  0.41800000000E+01 0.  1.
         -5    1    3    3    0  502 -0.74899913860E+02 -0.50318510039E+02 -0.41487289848E+03  0.42459267992E+03  0.41800000000E+01 0.  1.
        -11    1    4    4    0    0  0.25075040868E+02 -0.25306560872E+02 -0.59469093079E+02  0.69323536619E+02  0.00000000000E+00 0.  1.
         11    1    4    4    0    0  0.14892384469E+02  0.66550515895E+02 -0.21297266010E+03  0.22362492757E+03  0.00000000000E+00 0. -1.
</event>
<event>
 8    1  0.6615242E-009  0.1894195E+03  0.7561462E-02  0.1158986E+00
          2   -1    0    0  501    0  0.00000000000E+00  0.00000000000E+00  0.27863941004E+03  0.27863941004E+03  0.00000000000E+00 0. -1.
         -2   -1    0    0    0  501 -0.00000000000E+00 -0.00000000000E+00 -0.15721471863E+03  0.15721471863E+03  0.00000000000E+00 0.  1.
         25    2    1    2    0    0  0.49055826919E+02 -0.16589914582E+03  0.10931376002E+03  0.23982928563E+03  0.12505833590E+03 0.  0.
         23    2    1    2    0    0 -0.49055826919E+02  0.16589914582E+03  0.12110931385E+02  0.19602484304E+03  0.91378682917E+02 0.  0.
          5    1    3    3  502    0  0.89748642232E+01 -0.12929745614E+03  0.12806223253E+03  0.18225199081E+03  0.41800000000E+01 0.  1.
         -5    1    3    3    0  502  0.40080962696E+02 -0.36601689681E+02 -0.18748472509E+02  0.57577294827E+02  0.41800000000E+01 0.  1.
        -11    1    4    4    0    0 -0.35789373359E+02  0.85239574730E+01  0.98051751507E+01  0.38074644531E+02  0.00000000000E+00 0.  1.
         11    1    4    4    0    0 -0.13266453559E+02  0.15737518835E+03  0.23057562344E+01  0.15795019851E+03  0.00000000000E+00 0. -1.
</event>
<event>
 8    1  0.6615242E-009  0.2690043E+03  0.7561462E-02  0.1101851E+00
         -1   -1    0    0    0  501 -0.00000000000E+00  0.00000000000E+00  0.50663100043E+02  0.50663100043E+02  0.00000000000E+00 0.  1.
          1   -1    0    0  501    0  0.00000000000E+00 -0.00000000000E+00 -0.14639188776E+04  0.14639188776E+04  0.00000000000E+00 0. -1.
         25    2    1    2    0    0  0.24496747187E+03  0.46215459700E+02 -0.75765150553E+03  0.80736022701E+03  0.12509916605E+03 0.  0.
         23    2    1    2    0    0 -0.24496747187E+03 -0.46215459700E+02 -0.65560427199E+03  0.70722175059E+03  0.90557783023E+02 0.  0.
          5    1    3    3  502    0 -0.10804141903E+02  0.18207306480E+02 -0.57750552565E+02  0.61650906020E+02  0.41800000000E+01 0.  1.
         -5    1    3    3    0  502  0.25577161377E+03  0.28008153220E+02 -0.69990095296E+03  0.74570932099E+03  0.41800000000E+01 0.  1.
        -11    1    4    4    0    0 -0.17895280522E+03 -0.65108208720E+02 -0.40764453076E+03  0.44993027104E+03  0.00000000000E+00 0.  1.
         11    1    4    4    0    0 -0.66014666648E+02  0.18892749020E+02 -0.24795974122E+03  0.25729147954E+03  0.00000000000E+00 0. -1.
</event>
<event>
 8    1  0.6615242E-009  0.1236075E+03  0.7561462E-02  0.1237262E+00
         -2   -1    0    0    0  501 -0.00000000000E+00  0.00000000000E+00  0.24719505388E+02  0.24719505388E+02  0.00000000000E+00 0. -1.
          2   -1    0    0  501    0  0.00000000000E+00 -0.00000000000E+00 -0.10615028169E+04  0.10615028169E+04  0.00000000000E+00 0.  1.
         25    2    1    2    0    0  0.53240188210E+02 -0.74524920283E+02 -0.82101894993E+03  0.83552726644E+03  0.12508083562E+03 0.  0.
         23    2    1    2    0    0 -0.53240188210E+02  0.74524920283E+02 -0.21576436162E+03  0.25069505588E+03  0.88911584821E+02 0.  0.
          5    1    3    3  502    0  0.79164104002E+02 -0.71258871664E+02 -0.40908652359E+03  0.42274583184E+03  0.41800000000E+01 0.  1.
         -5    1    3    3    0  502 -0.25923915791E+02 -0.32660486187E+01 -0.41193242634E+03  0.41278143460E+03  0.41800000000E+01 0.  1.
        -11    1    4    4    0    0 -0.12378722800E+02  0.72177343703E+02 -0.78045011915E+02  0.10702254719E+03  0.00000000000E+00 0. -1.
         11    1    4    4    0    0 -0.40861465410E+02  0.23475765796E+01 -0.13771934970E+03  0.14367250869E+03  0.00000000000E+00 0.  1.
</event>
<event>
 7    1  0.6615242E-009  0.3678003E+03  0.7561462E-02  0.1055537E+00
          2   -1    0    0  501    0  0.00000000000E+00  0.00000000000E+00  0.99876321030E+03  0.99876321030E+03  0.00000000000E+00 0. -1.
         -2   -1    0    0    0  501 -0.00000000000E+00 -0.00000000000E+00 -0.15776497426E+03  0.15776497426E+03  0.00000000000E+00 0.  1.
         25    2    1    2    0    0  0.31363461547E+03  0.17810796343E+03  0.54942864537E+03  0.66903490203E+03  0.12508695023E+03 0.  0.
          5    1    3    3  502    0  0.14670174373E+03  0.14140395877E+03  0.23444969511E+03  0.31064547817E+03  0.41800000000E+01 0.  1.
         -5    1    3    3    0  502  0.16693287174E+03  0.36704004654E+02  0.31497895026E+03  0.35838942386E+03  0.41800000000E+01 0.  1.
        -11    1    1    2    0    0 -0.85542876990E+02 -0.43264622659E+02  0.32579499919E+01  0.95916763998E+02  0.00000000000E+00 0.  1.
         11    1    1    2    0    0 -0.22809173848E+03 -0.13484334077E+03  0.28831164067E+03  0.39157651853E+03  0.00000000000E+00 0. -1.
</event>
<event>
 8    1  0.6615242E-009  0.1178663E+03  0.7561462E-02  0.1246659E+00
          2   -1    0    0  501    0  0.00000000000E+00  0.00000000000E+00  0.13888790177E+03  0.13888790177E+03  0.00000000000E+00 0. -1.
         -2   -1    0    0    0  501 -0.00000000000E+00 -0.00000000000E+00 -0.11327775256E+03  0.11327775256E+03  0.00000000000E+00 0.  1.
         25    2    1    2    0    0  0.52307823928E+02 -0.16348936863E+02 -0.18540829115E+02  0.13781598823E+03  0.12508432390E+03 0.  0.
         23    2    1    2    0    0 -0.52307823928E+02  0.16348936863E+02  0.44150978320E+02  0.11434966610E+03  0.90128469809E+02 0.  0.
          5    1    3    3  502    0 -0.12569026262E+02  0.43127144891E+02 -0.20788131449E+02  0.49674438666E+02  0.41800000000E+01 0. -1.
         -5    1    3    3    0  502  0.64876850190E+02 -0.59476081754E+02  0.22473023337E+01  0.88141549562E+02  0.41800000000E+01 0. -1.
        -11    1    4    4    0    0  0.22053314468E+02 -0.91734786300E+01 -0.58764725847E+00  0.23892398760E+02  0.00000000000E+00 0.  1.
         11    1    4    4    0    0 -0.74361138396E+02  0.25522415492E+02  0.44738625579E+02  0.90457267341E+02  0.00000000000E+00 0. -1.
</event>
<event>
 8    1  0.6615242E-009  0.1097193E+03  0.7561462E-02  0.1261091E+00
         -2   -1    0    0    0  501 -0.00000000000E+00  0.00000000000E+00  0.96761085721E+02  0.96761085721E+02  0.00000000000E+00 0.  1.
          2   -1    0    0  501    0  0.00000000000E+00 -0.00000000000E+00 -0.26277795290E+03  0.26277795290E+03  0.00000000000E+00 0. -1.
         25    2    1    2    0    0 -0.20586745164E+02 -0.57671404323E+02  0.23516943468E+02  0.14124496877E+03  0.12508912670E+03 0.  0.
         23    2    1    2    0    0  0.20586745164E+02  0.57671404323E+02 -0.18953381064E+03  0.21829406985E+03  0.89327658659E+02 0.  0.
          5    1    3    3  502    0  0.18075807994E+01 -0.92732043580E+02  0.32704695308E+02  0.98435607125E+02  0.41800000000E+01 0. -1.
         -5    1    3    3    0  502 -0.22394325963E+02  0.35060639257E+02 -0.91877518400E+01  0.42809361643E+02  0.41800000000E+01 0. -1.
        -11    1    4    4    0    0  0.88950379382E+01 -0.11551646030E+02  0.16077428853E+01  0.14667892251E+02  0.00000000000E+00 0.  1.
         11    1    4    4    0    0  0.11691707226E+02  0.69223050353E+02 -0.19114155353E+03  0.20362617760E+03  0.00000000000E+00 0. -1.
</event>
<event>
 8    1  0.6615242E-009  0.1660090E+03  0.7561462E-02  0.1182075E+00
         -2   -1    0    0    0  501 -0.00000000000E+00  0.00000000000E+00  0.20655156354E+03  0.20655156354E+03  0.00000000000E+00 0.  1.
          2   -1    0    0  501    0  0.00000000000E+00 -0.00000000000E+00 -0.22404023079E+03  0.22404023079E+03  0.00000000000E+00 0. -1.
         25    2    1    2    0    0 -0.10031001452E+03 -0.99404262520E+02 -0.12964634099E+03  0.22890863270E+03  0.12509069500E+03 0.  0.
         23    2    1    2    0    0  0.10031001452E+03  0.99404262520E+02  0.11215767373E+03  0.20168316162E+03  0.90296442267E+02 0.  0.
          5    1    3    3  502    0 -0.12931260048E+03 -0.90025467249E+02 -0.11287850237E+03  0.19386944600E+03  0.41800000000E+01 0.  1.
         -5    1    3    3    0  502  0.29002585958E+02 -0.93787952716E+01 -0.16767838616E+02  0.35039186703E+02  0.41800000000E+01 0.  1.
        -11    1    4    4    0    0  0.65184928765E+02  0.81019289243E+02  0.12252598887E+03  0.16070413223E+03  0.00000000000E+00 0.  1.
         11    1    4    4    0    0  0.35125085753E+02  0.18384973277E+02 -0.10368315134E+02  0.40979029397E+02  0.00000000000E+00 0. -1.
</event>
<event>
 8    1  0.6615242E-009  0.9043168E+02  0.7561462E-02  0.1301810E+00
          1   -1    0    0  501    0  0.00000000000E+00  0.00000000000E+00  0.22447914076E+03  0.22447914076E+03  0.00000000000E+00 0. -1.
         -1   -1    0    0    0  501 -0.00000000000E+00 -0.00000000000E+00 -0.16230816358E+03  0.16230816358E+03  0.00000000000E+00 0.  1.
         25    2    1    2    0    0 -0.58125532618E+02  0.51959010701E+02  0.17157211226E+03  0.22619238272E+03  0.12509071892E+03 0.  0.
         23    2    1    2    0    0  0.58125532618E+02 -0.51959010701E+02 -0.10940113508E+03  0.16059492161E+03  0.87998887247E+02 0.  0.
          5    1    3    3  502    0 -0.60622363220E+02  0.47540983807E+02  0.27406248946E+02  0.81876681326E+02  0.41800000000E+01 0.  1.
         -5    1    3    3    0  502  0.24968306020E+01  0.44180268937E+01  0.14416586331E+03  0.14431570139E+03  0.41800000000E+01 0.  1.
        -11    1    4    4    0    0  0.43215063169E+02 -0.14181181128E+00 -0.95634691428E+02  0.10494549061E+03  0.00000000000E+00 0.  1.
         11    1    4    4    0    0  0.14910469449E+02 -0.51817198889E+02 -0.13766443647E+02  0.55649431000E+02  0.00000000000E+00 0. -1.
</event>
<event>
 8    1  0.6615242E-009  0.1053659E+03  0.7561462E-02  0.1269400E+00
         -1   -1    0    0    0  501 -0.00000000000E+00  0.00000000000E+00  0.30455256986E+03  0.30455256986E+03  0.00000000000E+00 0.  1.
          1   -1    0    0  501    0  0.00000000000E+00 -0.00000000000E+00 -0.41148348099E+02  0.41148348099E+02  0.00000000000E+00 0. -1.
         25    2    1    2    0    0 -0.86064857362E+01 -0.32091841864E+02  0.19640920247E+03  0.23521871135E+03  0.12508920594E+03 0.  0.
         23    2    1    2    0    0  0.86064857362E+01  0.32091841864E+02  0.66995019288E+02  0.11048220661E+03  0.81326671248E+02 0.  0.
          5    1    3    3  502    0  0.10135314410E+02 -0.75287904060E+02  0.84329270698E+02  0.11357768880E+03  0.41800000000E+01 0.  1.
         -5    1    3    3    0  502 -0.18741800146E+02  0.43196062195E+02  0.11207993177E+03  0.12164102255E+03  0.41800000000E+01 0.  1.
        -11    1    4    4    0    0 -0.52489167676E+01  0.57872522078E+02  0.39022477507E+02  0.69996669133E+02  0.00000000000E+00 0.  1.
         11    1    4    4    0    0  0.13855402504E+02 -0.25780680214E+02  0.27972541781E+02  0.40485537473E+02  0.00000000000E+00 0. -1.
</event>
<event>
 8    1  0.6615242E-009  0.1084621E+03  0.7561462E-02  0.1263445E+00
          1   -1    0    0  501    0  0.00000000000E+00  0.00000000000E+00  0.51060810541E+02  0.51060810541E+02  0.00000000000E+00 0. -1.
         -1   -1    0    0    0  501 -0.00000000000E+00 -0.00000000000E+00 -0.26323412612E+03  0.26323412612E+03  0.00000000000E+00 0.  1.
         25    2    1    2    0    0  0.75056420172E+01 -0.40897573560E+02 -0.12911514659E+03  0.18452196600E+03  0.12509471881E+03 0.  0.
         23    2    1    2    0    0 -0.75056420172E+01  0.40897573560E+02 -0.83058168996E+02  0.12977297066E+03  0.90627911220E+02 0.  0.
          5    1    3    3  502    0 -0.26034003551E+02 -0.76637751646E+02 -0.93818541387E+02  0.12397784248E+03  0.41800000000E+01 0.  1.
         -5    1    3    3    0  502  0.33539645568E+02  0.35740178087E+02 -0.35296605200E+02  0.60544123523E+02  0.41800000000E+01 0.  1.
        -11    1    4    4    0    0 -0.41963998179E+02  0.21748491654E+02 -0.12404519534E+02  0.48865592571E+02  0.00000000000E+00 0.  1.
         11    1    4    4    0    0  0.34458356162E+02  0.19149081906E+02 -0.70653649461E+02  0.80907378090E+02  0.00000000000E+00 0. -1.
</event>
<event>
 8    1  0.6615242E-009  0.1323543E+03  0.7561462E-02  0.1224004E+00
         -3   -1    0    0    0  501 -0.00000000000E+00  0.00000000000E+00  0.53516094491E+02  0.53516094491E+02  0.00000000000E+00 0.  1.
          3   -1    0    0  501    0  0.00000000000E+00 -0.00000000000E+00 -0.66544128292E+03  0.66544128292E+03  0.00000000000E+00 0. -1.
         25    2    1    2    0    0  0.12219851982E+03  0.38052405409E+02 -0.48403282806E+03  0.51605744999E+03  0.12508816591E+03 0.  0.
         23    2    1    2    0    0 -0.12219851982E+03 -0.38052405409E+02 -0.12789236037E+03  0.20289992742E+03  0.91822986784E+02 0.  0.
          5    1    3    3  502    0  0.81612252253E+02  0.72631976274E+01 -0.44293794695E+03  0.45047176494E+03  0.41800000000E+01 0.  1.
         -5    1    3    3    0  502  0.40586267565E+02  0.30789207782E+02 -0.41094881104E+02  0.65585685051E+02  0.41800000000E+01 0.  1.
        -11    1    4    4    0    0 -0.10679630648E+03 -0.21492756793E+02 -0.46539747294E+02  0.11846238960E+03  0.00000000000E+00 0.  1.
         11    1    4    4    0    0 -0.15402213339E+02 -0.16559648616E+02 -0.81352613075E+02  0.84437537814E+02  0.00000000000E+00 0. -1.
</event>
<event>
 8    1  0.6615242E-009  0.2644489E+03  0.7561462E-02  0.1104499E+00
         -2   -1    0    0    0  501 -0.00000000000E+00  0.00000000000E+00  0.10981298647E+03  0.10981298647E+03  0.00000000000E+00 0.  1.
          2   -1    0    0  501    0  0.00000000000E+00 -0.00000000000E+00 -0.76539517521E+03  0.76539517521E+03  0.00000000000E+00 0. -1.
         25    2    1    2    0    0 -0.19157662250E+03  0.16972411287E+03 -0.20091514125E+03  0.34860016375E+03  0.12508918181E+03 0.  0.
         23    2    1    2    0    0  0.19157662250E+03 -0.16972411287E+03 -0.45466704749E+03  0.52660799793E+03  0.71316075553E+02 0.  0.
          5    1    3    3  502    0  0.55096283117E+01  0.17220146553E+02  0.10895924055E+02  0.21519363662E+02  0.41800000000E+01 0. -1.
         -5    1    3    3    0  502 -0.19708625081E+03  0.15250396632E+03 -0.21181106530E+03  0.32708080009E+03  0.41800000000E+01 0. -1.
        -11    1    4    4    0    0  0.14405386361E+03 -0.95028229197E+02 -0.34422316366E+03  0.38506034120E+03  0.00000000000E+00 0. -1.
         11    1    4    4    0    0  0.47522758889E+02 -0.74695883673E+02 -0.11044388383E+03  0.14154765673E+03  0.00000000000E+00 0.  1.
</event>
<event>
 8    1  0.6615242E-009  0.1338266E+03  0.7561462E-02  0.1221886E+00
          2   -1    0    0  501    0  0.00000000000E+00  0.00000000000E+00  0.12716249533E+04  0.12716249533E+04  0.00000000000E+00 0. -1.
         -2   -1    0    0    0  501 -0.00000000000E+00 -0.00000000000E+00 -0.15090711822E+02  0.15090711822E+02  0.00000000000E+00 0.  1.
         25    2    1    2    0    0 -0.23801143331E+02  0.80225114198E+02  0.86242282140E+03  0.87545586462E+03  0.12508910688E+03 0.  0.
         23    2    1    2    0    0  0.23801143331E+02 -0.80225114198E+02  0.39411142007E+03  0.41125980049E+03  0.82512112432E+02 0.  0.
          5    1    3    3  502    0  0.32187282143E+02  0.87692860919E+02  0.50754455405E+03  0.51608623866E+03  0.41800000000E+01 0.  1.
         -5    1    3    3    0  502 -0.55988425474E+02 -0.74677467209E+01  0.35487826735E+03  0.35936962596E+03  0.41800000000E+01 0.  1.
        -11    1    4    4    0    0 -0.31029459817E+02 -0.29105734729E+02  0.13990349224E+03  0.14622912949E+03  0.00000000000E+00 0.  1.
         11    1    4    4    0    0  0.54830603149E+02 -0.51119379469E+02  0.25420792783E+03  0.26503067100E+03  0.00000000000E+00 0. -1.
</event>
<event>
 8    1  0.6615242E-009  0.1759006E+03  0.7561462E-02  0.1171830E+00
          1   -1    0    0  501    0  0.00000000000E+00  0.00000000000E+00  0.15819717802E+03  0.15819717802E+03  0.00000000000E+00 0. -1.
         -1   -1    0    0    0  501 -0.00000000000E+00 -0.00000000000E+00 -0.23302621971E+03  0.23302621971E+03  0.00000000000E+00 0.  1.
         25    2    1    2    0    0 -0.11378873047E+03 -0.10520029077E+03 -0.82717072934E+01  0.19932709138E+03  0.12509153391E+03 0.  0.
         23    2    1    2    0    0  0.11378873047E+03  0.10520029077E+03 -0.66557334397E+02  0.19189630635E+03  0.91538720065E+02 0.  0.
          5    1    3    3  502    0  0.15512971219E+01 -0.77010052335E+02 -0.20705746395E+02  0.79869612602E+02  0.41800000000E+01 0. -1.
         -5    1    3    3    0  502 -0.11534002759E+03 -0.28190238432E+02  0.12434039102E+02  0.11945747877E+03  0.41800000000E+01 0. -1.
        -11    1    4    4    0    0  0.89806696188E+02  0.91615805327E+02 -0.89176751532E+02  0.15624081247E+03  0.00000000000E+00 0.  1.
         11    1    4    4    0    0  0.23982034278E+02  0.13584485439E+02  0.22619417136E+02  0.35655493887E+02  0.00000000000E+00 0. -1.
</event>
<event>
 8    1  0.6615242E-009  0.1144294E+03  0.7561462E-02  0.1252580E+00
         -2   -1    0    0    0  501 -0.00000000000E+00  0.00000000000E+00  0.65639113003E+02  0.65639113003E+02  0.00000000000E+00 0.  1.
          2   -1    0    0  501    0  0.00000000000E+00 -0.00000000000E+00 -0.22875912214E+03  0.22875912214E+03  0.00000000000E+00 0. -1.
         25    2    1    2    0    0 -0.45827076284E+02 -0.34340483135E+02 -0.94169601071E+02  0.16671349619E+03  0.12508431694E+03 0.  0.
         23    2    1    2    0    0  0.45827076284E+02  0.34340483135E+02 -0.68950408068E+02  0.12768473895E+03  0.90938683110E+02 0.  0.
          5    1    3    3  502    0  0.41520174237E+02  0.40226496005E+01 -0.32406144300E+02  0.52988085141E+02  0.41800000000E+01 0.  1.
         -5    1    3    3    0  502 -0.87347250521E+02 -0.38363132736E+02 -0.61763456771E+02  0.11372541105E+03  0.41800000000E+01 0.  1.
        -11    1    4    4    0    0 -0.17034239400E+02  0.21247502451E+02  0.71094416606E+01  0.28145440715E+02  0.00000000000E+00 0.  1.
         11    1    4    4    0    0  0.62861315684E+02  0.13092980685E+02 -0.76059849729E+02  0.99539298237E+02  0.00000000000E+00 0. -1.
</event>
<event>
 8    1  0.6615242E-009  0.1031370E+03  0.7561462E-02  0.1273834E+00
         -4   -1    0    0    0  501 -0.00000000000E+00  0.00000000000E+00  0.32501351471E+03  0.32501351471E+03  0.00000000000E+00 0. -1.
          4   -1    0    0  501    0  0.00000000000E+00 -0.00000000000E+00 -0.63468774304E+02  0.63468774304E+02  0.00000000000E+00 0.  1.
         25    2    1    2    0    0 -0.15982373703E+02  0.61164879930E+02  0.51623258459E+02  0.14935897041E+03  0.12508621996E+03 0.  0.
         23    2    1    2    0    0  0.15982373703E+02 -0.61164879930E+02  0.20992148194E+03  0.23912331860E+03  0.95479600494E+02 0.  0.
          5    1    3    3  502    0  0.41898776257E+02  0.25035820455E+02  0.63266449399E+02  0.80015097183E+02  0.41800000000E+01 0.  1.
         -5    1    3    3    0  502 -0.57881149960E+02  0.36129059475E+02 -0.11643190939E+02  0.69343873230E+02  0.41800000000E+01 0.  1.
        -11    1    4    4    0    0  0.24054115977E+02  0.30144675212E+01  0.14664561694E+03  0.14863587884E+03  0.00000000000E+00 0. -1.
         11    1    4    4    0    0 -0.80717422738E+01 -0.64179347451E+02  0.63275865000E+02  0.90487439759E+02  0.00000000000E+00 0.  1.
</event>
<event>
 8    1  0.6615242E-009  0.1224392E+03  0.7561462E-02  0.1239127E+00
         -3   -1    0    0    0  501 -0.00000000000E+00  0.00000000000E+00  0.51035169600E+02  0.51035169600E+02  0.00000000000E+00 0.  1.
          3   -1    0    0  501    0  0.00000000000E+00 -0.00000000000E+00 -0.44259227658E+03  0.44259227658E+03  0.00000000000E+00 0. -1.
         25    2    1    2    0    0 -0.50643174835E+01  0.94043355961E+02 -0.14289786663E+03  0.21198283422E+03  0.12508845511E+03 0.  0.
         23    2    1    2    0    0  0.50643174835E+01 -0.94043355961E+02 -0.24865924035E+03  0.28164461197E+03  0.92857253499E+02 0.  0.
          5    1    3    3  502    0  0.36386965406E+01  0.11837002714E+03 -0.14311863629E+03  0.18580936438E+03  0.41800000000E+01 0. -1.
         -5    1    3    3    0  502 -0.87030140241E+01 -0.24326671181E+02  0.22076965984E+00  0.26173469833E+02  0.41800000000E+01 0. -1.
        -11    1    4    4    0    0  0.19817772350E+02 -0.55898345352E+02 -0.22845476496E+03  0.23602743220E+03  0.00000000000E+00 0. -1.
         11    1    4    4    0    0 -0.14753454866E+02 -0.38145010609E+02 -0.20204475387E+02  0.45617179774E+02  0.00000000000E+00 0.  1.
</event>
<event>
 8    1  0.6615242E-009  0.1332164E+03  0.7561462E-02  0.1222760E+00
          4   -1    0    0  501    0  0.00000000000E+00  0.00000000000E+00  0.41182005644E+03  0.41182005644E+03  0.00000000000E+00 0. -1.
         -4   -1    0    0    0  501 -0.00000000000E+00 -0.00000000000E+00 -0.12900548339E+03  0.12900548339E+03  0.00000000000E+00 0.  1.
         25    2    1    2    0    0  0.72309123097E+02  0.27125723778E+02 -0.73870512393E+02  0.16452514584E+03  0.12508899567E+03 0.  0.
         23    2    1    2    0    0 -0.72309123097E+02 -0.27125723778E+02  0.35668508545E+03  0.37630039399E+03  0.91724163459E+02 0.  0.
          5    1    3    3  502    0  0.49184036049E+02  0.77088500116E+02 -0.41326778933E+02  0.10043446276E+03  0.41800000000E+01 0.  1.
         -5    1    3    3    0  502  0.23125087049E+02 -0.49962776337E+02 -0.32543733460E+02  0.64090683081E+02  0.41800000000E+01 0.  1.
        -11    1    4    4    0    0 -0.49714708389E+02  0.30127613388E+02  0.16173265428E+03  0.17186237744E+03  0.00000000000E+00 0. -1.
         11    1    4    4    0    0 -0.22594414708E+02 -0.57253337166E+02  0.19495243117E+03  0.20443801655E+03  0.00000000000E+00 0.  1.
</event>
<event>
 8    1  0.6615242E-009  0.1750329E+03  0.7561462E-02  0.1172699E+00
         -4   -1    0    0    0  501 -0.00000000000E+00  0.00000000000E+00  0.66640985752E+03  0.66640985752E+03  0.00000000000E+00 0.  1.
          4   -1    0    0  501    0  0.00000000000E+00 -0.00000000000E+00 -0.55714764021E+02  0.55714764021E+02  0.00000000000E+00 0. -1.
         25    2    1    2    0    0  0.55478572351E+01 -0.15376572451E+03  0.39531966939E+03  0.44226715576E+03  0.12509164363E+03 0.  0.
         23    2    1    2    0    0 -0.55478572351E+01  0.15376572451E+03  0.21537542411E+03  0.27985746577E+03  0.90878771375E+02 0.  0.
          5    1    3    3  502    0  0.28782838630E+02 -0.14996851641E+03  0.23575965535E+03  0.28092542641E+03  0.41800000000E+01 0. -1.
         -5    1    3    3    0  502 -0.23234981395E+02 -0.37972080975E+01  0.15956001404E+03  0.16134172935E+03  0.41800000000E+01 0. -1.
        -11    1    4    4    0    0  0.35236398249E+02  0.99171988570E+02  0.16249558338E+03  0.19360139901E+03  0.00000000000E+00 0.  1.
         11    1    4    4    0    0 -0.40784255484E+02  0.54593735939E+02  0.52879840724E+02  0.86256066767E+02  0.00000000000E+00 0. -1.
</event>
<event>
 8    1  0.6615242E-009  0.7626376E+02  0.7561462E-02  0.1340002E+00
         -2   -1    0    0    0  501 -0.00000000000E+00  0.00000000000E+00  0.25272529114E+02  0.25272529114E+02  0.00000000000E+00 0.  1.
          2   -1    0    0  501    0  0.00000000000E+00 -0.00000000000E+00 -0.45949165324E+03  0.45949165324E+03  0.00000000000E+00 0. -1.
         25    2    1    2    0    0 -0.76921604676E+01 -0.44436413678E+01 -0.29915810919E+03  0.32437760359E+03  0.12508533143E+03 0.  0.
         23    2    1    2    0    0  0.76921604676E+01  0.44436413678E+01 -0.13506101493E+03  0.16038657875E+03  0.86043370510E+02 0.  0.
          5    1    3    3  502    0 -0.34659537597E+02  0.38104212020E+02 -0.56745863614E+02  0.76751416647E+02  0.41800000000E+01 0. -1.
         -5    1    3    3    0  502  0.26967377129E+02 -0.42547853388E+02 -0.24241224558E+03  0.24762618695E+03  0.41800000000E+01 0. -1.
        -11    1    4    4    0    0 -0.20522910208E+02 -0.38753627688E+01  0.12641973129E+01  0.20923825531E+02  0.00000000000E+00 0. -1.
         11    1    4    4    0    0  0.28215070676E+02  0.83190041366E+01 -0.13632521224E+03  0.13946275322E+03  0.00000000000E+00 0.  1.
</event>
<event>
 8    1  0.6615242E-009  0.1453206E+03  0.7561462E-02  0.1206344E+00
          1   -1    0    0  501    0  0.00000000000E+00  0.00000000000E+00  0.74865618114E+03  0.74865618114E+03  0.00000000000E+00 0. -1.
         -1   -1    0    0    0  501 -0.00000000000E+00 -0.00000000000E+00 -0.35372682587E+02  0.35372682587E+02  0.00000000000E+00 0.  1.
         25    2    1    2    0    0 -0.99554522399E+02 -0.58174293274E+02  0.47519700153E+03  0.50473247095E+03  0.12508927069E+03 0.  0.
         23    2    1    2    0    0  0.99554522399E+02  0.58174293274E+02  0.23808649702E+03  0.27929639278E+03  0.89587630982E+02 0.  0.
          5    1    3    3  502    0  0.61048847161E+01  0.15655488395E+02  0.63047386053E+01  0.18427861057E+02  0.41800000000E+01 0. -1.
         -5    1    3    3    0  502 -0.10565940712E+03 -0.73829781668E+02  0.46889226292E+03  0.48630460989E+03  0.41800000000E+01 0. -1.
        -11    1    4    4    0    0  0.16240542809E+02  0.58842807693E+02  0.12183339604E+03  0.13627034762E+03  0.00000000000E+00 0. -1.
         11    1    4    4    0    0  0.83313979590E+02 -0.66851441957E+00  0.11625310098E+03  0.14302604516E+03  0.00000000000E+00 0.  1.
</event>
<event>
 8    1  0.6615242E-009  0.9123905E+02  0.7561462E-02  0.1299879E+00
          3   -1    0    0  501    0  0.00000000000E+00  0.00000000000E+00  0.20847808054E+02  0.20847808054E+02  0.00000000000E+00 0. -1.
         -3   -1    0    0    0  501 -0.00000000000E+00 -0.00000000000E+00 -0.63040560793E+03  0.63040560793E+03  0.00000000000E+00 0.  1.
         25    2    1    2    0    0 -0.25150734108E+02 -0.10307170407E+02 -0.27274815421E+03  0.30129422674E+03  0.12509139961E+03 0.  0.
         23    2    1    2    0    0  0.25150734108E+02  0.10307170407E+02 -0.33680964566E+03  0.34995918924E+03  0.91059867839E+02 0.  0.
          5    1    3    3  502    0 -0.56772159996E+02 -0.73007775449E+00 -0.25913689230E+03  0.26531681536E+03  0.41800000000E+01 0. -1.
         -5    1    3    3    0  502  0.31621425888E+02 -0.95770926530E+01 -0.13611261909E+02  0.35977411380E+02  0.41800000000E+01 0. -1.
        -11    1    4    4    0    0  0.56596775915E+02 -0.58356609171E+01 -0.16451289647E+03  0.17407395867E+03  0.00000000000E+00 0. -1.
         11    1    4    4    0    0 -0.31446041807E+02  0.16142831325E+02 -0.17229674919E+03  0.17588523056E+03  0.00000000000E+00 0.  1.
</event>
<event>
 8    1  0.6615242E-009  0.1372925E+03  0.7561462E-02  0.1217019E+00
          1   -1    0    0  501    0  0.00000000000E+00  0.00000000000E+00  0.14916239609E+03  0.14916239609E+03  0.00000000000E+00 0. -1.
         -1   -1    0    0    0  501 -0.00000000000E+00 -0.00000000000E+00 -0.20856583746E+03  0.20856583746E+03  0.00000000000E+00 0.  1.
         25    2    1    2    0    0 -0.10382361622E+03  0.34505084790E+02  0.66234838255E+02  0.17889419240E+03  0.12508450789E+03 0.  0.
         23    2    1    2    0    0  0.10382361622E+03 -0.34505084790E+02 -0.12563827963E+03  0.17883404115E+03  0.65013020277E+02 0.  0.
          5    1    3    3  502    0 -0.52292079302E+02  0.71591688635E+02  0.24317743418E+01  0.88787484286E+02  0.41800000000E+01 0. -1.
         -5    1    3    3    0  502 -0.51531536918E+02 -0.37086603845E+02  0.63803063913E+02  0.90106708111E+02  0.41800000000E+01 0. -1.
        -11    1    4    4    0    0  0.95325306490E+01  0.13397377674E+02 -0.38270452706E+02  0.41653168180E+02  0.00000000000E+00 0. -1.
         11    1    4    4    0    0  0.94291085571E+02 -0.47902462465E+02 -0.87367826925E+02  0.13718087297E+03  0.00000000000E+00 0.  1.
</event>
<event>
 8    1  0.6615242E-009  0.9381248E+02  0.7561462E-02  0.1293873E+00
         -1   -1    0    0    0  501 -0.00000000000E+00  0.00000000000E+00  0.19583136222E+03  0.19583136222E+03  0.00000000000E+00 0.  1.
          1   -1    0    0  501    0  0.00000000000E+00 -0.00000000000E+00 -0.83716111879E+02  0.83716111879E+02  0.00000000000E+00 0. -1.
         25    2    1    2    0    0 -0.21656092588E+02  0.41228515991E+02  0.11651222014E+03  0.17717500136E+03  0.12508839590E+03 0.  0.
         23    2    1    2    0    0  0.21656092588E+02 -0.41228515991E+02 -0.43969697992E+01  0.10237247274E+03  0.91060490633E+02 0.  0.
          5    1    3    3  502    0  0.33880566123E+01  0.55823080507E+02  0.13244933400E+03  0.14383321495E+03  0.41800000000E+01 0.  1.
         -5    1    3    3    0  502 -0.25044149201E+02 -0.14594564516E+02 -0.15937113865E+02  0.33341786409E+02  0.41800000000E+01 0.  1.
        -11    1    4    4    0    0 -0.16561560481E+02  0.22505597560E+02 -0.21276796982E+01  0.28023458530E+02  0.00000000000E+00 0.  1.
         11    1    4    4    0    0  0.38217653069E+02 -0.63734113551E+02 -0.22692901009E+01  0.74349014209E+02  0.00000000000E+00 0. -1.
</event>
<event>
 8    1  0.6615242E-009  0.8017182E+02  0.7561462E-02  0.1328565E+00
         -2   -1    0    0    0  501 -0.00000000000E+00  0.00000000000E+00  0.55664721061E+02  0.55664721061E+02  0.00000000000E+00 0.  1.
          2   -1    0    0  501    0  0.00000000000E+00 -0.00000000000E+00 -0.23129128809E+03  0.23129128809E+03  0.00000000000E+00 0. -1.
         25    2    1    2    0    0  0.31643978547E+02 -0.16729747873E+02 -0.15240429513E+03  0.20038826557E+03  0.12508861643E+03 0.  0.
         23    2    1    2    0    0 -0.31643978547E+02  0.16729747873E+02 -0.23222271897E+02  0.86567743586E+02  0.75322469923E+02 0.  0.
          5    1    3    3  502    0 -0.18330227848E+02  0.10664384102E+02 -0.14032818238E+03  0.14198308882E+03  0.41800000000E+01 0. -1.
         -5    1    3    3    0  502  0.49974206396E+02 -0.27394131976E+02 -0.12076112756E+02  0.58405176747E+02  0.41800000000E+01 0. -1.
        -11    1    4    4    0    0  0.23684008182E+02  0.10503364122E+02  0.81960300257E+00  0.25921509418E+02  0.00000000000E+00 0.  1.
         11    1    4    4    0    0 -0.55327986729E+02  0.62263837516E+01 -0.24041874899E+02  0.60646234168E+02  0.00000000000E+00 0. -1.
</event>
<event>
 8    1  0.6615242E-009  0.1307829E+03  0.7561462E-02  0.1226299E+00
         -2   -1    0    0    0  501 -0.00000000000E+00  0.00000000000E+00  0.39606827797E+02  0.39606827797E+02  0.00000000000E+00 0.  1.
          2   -1    0    0  501    0  0.00000000000E+00 -0.00000000000E+00 -0.54823431376E+03  0.54823431376E+03  0.00000000000E+00 0. -1.
         25    2    1    2    0    0  0.83630013539E+02 -0.35975818661E+02 -0.35551165196E+03  0.38771492516E+03  0.12508433085E+03 0.  0.
         23    2    1    2    0    0 -0.83630013539E+02  0.35975818661E+02 -0.15311583401E+03  0.20012621640E+03  0.91202002020E+02 0.  0.
          5    1    3    3  502    0 -0.16028855970E+02 -0.35840736718E+02 -0.19328291545E+03  0.19727453064E+03  0.41800000000E+01 0.  1.
         -5    1    3    3    0  502  0.99658869508E+02 -0.13508194230E+00 -0.16222873650E+03  0.19044039452E+03  0.41800000000E+01 0.  1.
        -11    1    4    4    0    0 -0.66664915556E+02 -0.15238672596E+02 -0.53449973954E+02  0.86794745373E+02  0.00000000000E+00 0.  1.
         11    1    4    4    0    0 -0.16965097982E+02  0.51214491256E+02 -0.99665860053E+02  0.11333147102E+03  0.00000000000E+00 0. -1.
</event>
<event>
 8    1  0.6615242E-009  0.1006136E+03  0.7561462E-02  0.1279011E+00
          3   -1    0    0  501    0  0.00000000000E+00  0.00000000000E+00  0.62343762209E+02  0.62343762209E+02  0.00000000000E+00 0. -1.
         -3   -1    0    0    0  501 -0.00000000000E+00 -0.00000000000E+00 -0.27201560600E+03  0.27201560600E+03  0.00000000000E+00 0.  1.
         25    2    1    2    0    0 -0.46130420924E+02 -0.27458046731E+02 -0.17924282623E+03  0.22508074875E+03  0.12510552601E+03 0.  0.
         23    2    1    2    0    0  0.46130420924E+02  0.27458046731E+02 -0.30429017562E+02  0.10927861946E+03  0.90188311303E+02 0.  0.
          5    1    3    3  502    0 -0.66263317872E+02 -0.40291287137E+02 -0.47308327979E+02  0.90938250537E+02  0.41800000000E+01 0. -1.
         -5    1    3    3    0  502  0.20132896947E+02  0.12833240406E+02 -0.13193449825E+03  0.13414249821E+03  0.41800000000E+01 0. -1.
        -11    1    4    4    0    0  0.17940525912E+02 -0.30209987659E+02  0.57387034775E+01  0.35601103101E+02  0.00000000000E+00 0.  1.
         11    1    4    4    0    0  0.28189895012E+02  0.57668034391E+02 -0.36167721039E+02  0.73677516357E+02  0.00000000000E+00 0. -1.
</event>
<event>
 8    1  0.6615242E-009  0.1191954E+03  0.7561462E-02  0.1244430E+00
          2   -1    0    0  501    0  0.00000000000E+00  0.00000000000E+00  0.28987143224E+03  0.28987143224E+03  0.00000000000E+00 0. -1.
         -2   -1    0    0    0  501 -0.00000000000E+00 -0.00000000000E+00 -0.11029788472E+03  0.11029788472E+03  0.00000000000E+00 0.  1.
         25    2    1    2    0    0 -0.82326433833E+02 -0.87339424109E+01  0.22406776125E+03  0.26964388410E+03  0.12509012409E+03 0.  0.
         23    2    1    2    0    0  0.82326433833E+02  0.87339424109E+01 -0.44494213729E+02  0.13052543286E+03  0.90571684926E+02 0.  0.
          5    1    3    3  502    0 -0.74855933517E+02 -0.55131450799E+02  0.98518299173E+02  0.13552201047E+03  0.41800000000E+01 0.  1.
         -5    1    3    3    0  502 -0.74705003159E+01  0.46397508388E+02  0.12554946207E+03  0.13412187363E+03  0.41800000000E+01 0.  1.
        -11    1    4    4    0    0  0.44677178471E+02  0.31027582644E+02  0.15232026449E+02  0.56486952393E+02  0.00000000000E+00 0.  1.
         11    1    4    4    0    0  0.37649255362E+02 -0.22293640233E+02 -0.59726240178E+02  0.74038480468E+02  0.00000000000E+00 0. -1.
</event>
<event>
 8    1  0.6615242E-009  0.1047298E+03  0.7561462E-02  0.1270653E+00
          3   -1    0    0  501    0  0.00000000000E+00  0.00000000000E+00  0.11550865915E+03  0.11550865915E+03  0.00000000000E+00 0. -1.
         -3   -1    0    0    0  501 -0.00000000000E+00 -0.00000000000E+00 -0.14896286576E+03  0.14896286576E+03  0.00000000000E+00 0.  1.
         25    2    1    2    0    0  0.36031042441E+02  0.54539221598E+02 -0.52383072149E+02  0.15055476180E+03  0.12509990944E+03 0.  0.
         23    2    1    2    0    0 -0.36031042441E+02 -0.54539221598E+02  0.18928865542E+02  0.11391676310E+03  0.91356249121E+02 0.  0.
          5    1    3    3  502    0  0.65101645003E+02  0.51563229735E+02 -0.76075530618E+02  0.11270292632E+03  0.41800000000E+01 0.  1.
         -5    1    3    3    0  502 -0.29070602562E+02  0.29759918632E+01  0.23692458469E+02  0.37851835480E+02  0.41800000000E+01 0.  1.
        -11    1    4    4    0    0  0.48609338259E-01 -0.60256578790E+02 -0.17072090564E+02  0.62628379562E+02  0.00000000000E+00 0.  1.
         11    1    4    4    0    0 -0.36079651779E+02  0.57173571921E+01  0.36000956106E+02  0.51288383542E+02  0.00000000000E+00 0. -1.
</event>
<event>
 8    1  0.6615242E-009  0.8587778E+02  0.7561462E-02  0.1313153E+00
         -1   -1    0    0    0  501 -0.00000000000E+00  0.00000000000E+00  0.17000820055E+03  0.17000820055E+03  0.00000000000E+00 0.  1.
          1   -1    0    0  501    0  0.00000000000E+00 -0.00000000000E+00 -0.82511686720E+02  0.82511686720E+02  0.00000000000E+00 0. -1.
         25    2    1    2    0    0 -0.21833973808E+01  0.26116680175E+02  0.90430963852E+02  0.15656320807E+03  0.12508969058E+03 0.  0.
         23    2    1    2    0    0  0.21833973808E+01 -0.26116680175E+02 -0.29344500234E+01  0.95956679203E+02  0.92261720552E+02 0.  0.
          5    1    3    3  502    0  0.22083159471E+02  0.71816150157E+02  0.61144531746E+02  0.96960566819E+02  0.41800000000E+01 0. -1.
         -5    1    3    3    0  502 -0.24266556852E+02 -0.45699469982E+02  0.29286432106E+02  0.59602641246E+02  0.41800000000E+01 0. -1.
        -11    1    4    4    0    0 -0.82935183387E+01 -0.31668447045E+02 -0.43074206899E+02  0.54102313117E+02  0.00000000000E+00 0. -1.
         11    1    4    4    0    0  0.10476915720E+02  0.55517668696E+01  0.40139756876E+02  0.41854366086E+02  0.00000000000E+00 0.  1.
</event>
<event>
 8    1  0.6615242E-009  0.1696577E+03  0.7561462E-02  0.1178205E+00
          2   -1    0    0  501    0  0.00000000000E+00  0.00000000000E+00  0.41010758990E+03  0.41010758990E+03  0.00000000000E+00 0. -1.
         -2   -1    0    0    0  501 -0.00000000000E+00 -0.00000000000E+00 -0.76320046790E+02  0.76320046790E+02  0.00000000000E+00 0.  1.
         25    2    1    2    0    0  0.10481082047E+03 -0.88964184930E+02  0.14273307091E+03  0.23434962359E+03  0.12508829784E+03 0.  0.
         23    2    1    2    0    0 -0.10481082047E+03  0.88964184930E+02  0.19105447220E+03  0.25207801310E+03  0.90230699055E+02 0.  0.
          5    1    3    3  502    0  0.10177483547E+03 -0.17613356375E+02  0.43815886961E+02  0.11227489393E+03  0.41800000000E+01 0.  1.
         -5    1    3    3    0  502  0.30359850033E+01 -0.71350828554E+02  0.98917183945E+02  0.12207472965E+03  0.41800000000E+01 0.  1.
        -11    1    4    4    0    0 -0.66725198404E+02 -0.97767527080E+00  0.80200335048E+02  0.10433264922E+03  0.00000000000E+00 0.  1.
         11    1    4    4    0    0 -0.38085622069E+02  0.89941860200E+02  0.11085413715E+03  0.14774536388E+03  0.00000000000E+00 0. -1.
</event>
<event>
 8    1  0.6615242E-009  0.1223940E+03  0.7561462E-02  0.1239199E+00
          2   -1    0    0  501    0  0.00000000000E+00  0.00000000000E+00  0.63785366282E+03  0.63785366282E+03  0.00000000000E+00 0. -1.
         -2   -1    0    0    0  501 -0.00000000000E+00 -0.00000000000E+00 -0.41666820759E+02  0.41666820759E+02  0.00000000000E+00 0.  1.
         25    2    1    2    0    0 -0.34753079177E+01  0.73101920233E+02  0.52445425839E+03  0.54410977260E+03  0.12508879640E+03 0.  0.
         23    2    1    2    0    0  0.34753079177E+01 -0.73101920233E+02  0.71732583669E+02  0.13541071098E+03  0.88512872408E+02 0.  0.
          5    1    3    3  502    0  0.51893563178E+02  0.33026963150E+02  0.37075244541E+03  0.37584381114E+03  0.41800000000E+01 0. -1.
         -5    1    3    3    0  502 -0.55368871096E+02  0.40074957083E+02  0.15370181298E+03  0.16826596146E+03  0.41800000000E+01 0. -1.
        -11    1    4    4    0    0  0.31463751823E+02  0.48471367764E+01  0.23490021443E+02  0.39563158634E+02  0.00000000000E+00 0. -1.
         11    1    4    4    0    0 -0.27988443905E+02 -0.77949057009E+02  0.48242562226E+02  0.95847552348E+02  0.00000000000E+00 0.  1.
</event>
<event>
 8    1  0.6615242E-009  0.1725569E+03  0.7561462E-02  0.1175207E+00
          1   -1    0    0  501    0  0.00000000000E+00  0.00000000000E+00  0.11420542961E+04  0.11420542961E+04  0.00000000000E+00 0. -1.
         -1   -1    0    0    0  501 -0.00000000000E+00 -0.00000000000E+00 -0.30781292260E+02  0.30781292260E+02  0.00000000000E+00 0.  1.
         25    2    1    2    0    0 -0.32249848798E+02 -0.14676243636E+03  0.59905769903E+03  0.63015683596E+03  0.12509294811E+03 0.  0.
         23    2    1    2    0    0  0.32249848798E+02  0.14676243636E+03  0.51221530477E+03  0.54267875235E+03  0.97757068009E+02 0.  0.
          5    1    3    3  502    0  0.24319637360E+02 -0.34877352045E+02  0.44900667882E+02  0.61979164428E+02  0.41800000000E+01 0.  1.
         -5    1    3    3    0  502 -0.56569486158E+02 -0.11188508432E+03  0.55415703115E+03  0.56817767153E+03  0.41800000000E+01 0.  1.
        -11    1    4    4    0    0  0.17496022760E+02 -0.95548857614E+01  0.90827182336E+02  0.92989159074E+02  0.00000000000E+00 0. -1.
         11    1    4    4    0    0  0.14753826038E+02  0.15631732213E+03  0.42138812243E+03  0.44968959328E+03  0.00000000000E+00 0.  1.
</event>
<event>
 8    1  0.6615242E-009  0.7525506E+02  0.7561462E-02  0.1343083E+00
          2   -1    0    0  501    0  0.00000000000E+00  0.00000000000E+00  0.22745442935E+02  0.22745442935E+02  0.00000000000E+00 0. -1.
         -2   -1    0    0    0  501 -0.00000000000E+00 -0.00000000000E+00 -0.65954851985E+03  0.65954851985E+03  0.00000000000E+00 0.  1.
         25    2    1    2    0    0 -0.34947978927E+02  0.44265787262E+02 -0.37152729210E+03  0.39605545863E+03  0.12508627575E+03 0.  0.
         23    2    1    2    0    0  0.34947978927E+02 -0.44265787262E+02 -0.26527578481E+03  0.28623850416E+03  0.91544623541E+02 0.  0.
          5    1    3    3  502    0 -0.14972816224E+02  0.38795694440E+01  0.50269244723E+01  0.16792220056E+02  0.41800000000E+01 0.  1.
         -5    1    3    3    0  502 -0.19975162703E+02  0.40386217818E+02 -0.37655421658E+03  0.37926323858E+03  0.41800000000E+01 0.  1.
        -11    1    4    4    0    0  0.11732865751E+02 -0.60037104323E+02 -0.24249254298E+03  0.25008947886E+03  0.00000000000E+00 0.  1.
         11    1    4    4    0    0  0.23215113175E+02  0.15771317061E+02 -0.22783241837E+02  0.36149025300E+02  0.00000000000E+00 0. -1.
</event>
<event>
 8    1  0.6615242E-009  0.8758536E+02  0.7561462E-02  0.1308807E+00
         -2   -1    0    0    0  501 -0.00000000000E+00  0.00000000000E+00  0.12980710577E+02  0.12980710577E+02  0.00000000000E+00 0.  1.
          2   -1    0    0  501    0  0.00000000000E+00 -0.00000000000E+00 -0.11321674421E+04  0.11321674421E+04  0.00000000000E+00 0. -1.
         25    2    1    2    0    0  0.16263876148E+02  0.94481620326E+00 -0.87848622558E+03  0.88749672044E+03  0.12508786478E+03 0.  0.
         23    2    1    2    0    0 -0.16263876148E+02 -0.94481620326E+00 -0.24070050593E+03  0.25765143222E+03  0.90455075186E+02 0.  0.
          5    1    3    3  502    0 -0.30961908715E+02  0.18806262948E+02 -0.86249338722E+02  0.93641530035E+02  0.41800000000E+01 0.  1.
         -5    1    3    3    0  502  0.47225784863E+02 -0.17861446745E+02 -0.79223688686E+03  0.79385519041E+03  0.41800000000E+01 0.  1.
        -11    1    4    4    0    0 -0.43185173544E+01 -0.43565014869E+02 -0.82757917061E+02  0.93623890910E+02  0.00000000000E+00 0.  1.
         11    1    4    4    0    0 -0.11945358794E+02  0.42620198666E+02 -0.15794258887E+03  0.16402754131E+03  0.00000000000E+00 0. -1.
</event>
<event>
 8    1  0.6615242E-009  0.9145825E+02  0.7561462E-02  0.1299358E+00
          2   -1    0    0  501    0  0.00000000000E+00  0.00000000000E+00  0.20700394307E+03  0.20700394307E+03  0.00000000000E+00 0. -1.
         -2   -1    0    0    0  501 -0.00000000000E+00 -0.00000000000E+00 -0.61492000338E+02  0.61492000338E+02  0.00000000000E+00 0.  1.
         25    2    1    2    0    0  0.29269492576E+02  0.83885705530E+01  0.72272492363E+02  0.14764055458E+03  0.12508936363E+03 0.  0.
         23    2    1    2    0    0 -0.29269492576E+02 -0.83885705530E+01  0.73239450369E+02  0.12085538883E+03  0.91186274225E+02 0.  0.
          5    1    3    3  502    0  0.63089093083E+02  0.37743409441E+02  0.71527878746E+02  0.10265723774E+03  0.41800000000E+01 0. -1.
         -5    1    3    3    0  502 -0.33819600507E+02 -0.29354838888E+02  0.74461361708E+00  0.44983316841E+02  0.41800000000E+01 0. -1.
        -11    1    4    4    0    0 -0.37497875952E+02 -0.25479054326E+02  0.14028747173E+00  0.45335334904E+02  0.00000000000E+00 0. -1.
         11    1    4    4    0    0  0.82283833758E+01  0.17090483773E+02  0.73099162897E+02  0.75520053925E+02  0.00000000000E+00 0.  1.
</event>
<event>
 8    1  0.6615242E-009  0.8052922E+02  0.7561462E-02  0.1327556E+00
         -1   -1    0    0    0  501 -0.00000000000E+00  0.00000000000E+00  0.94712148391E+02  0.94712148391E+02  0.00000000000E+00 0.  1.
          1   -1    0    0  501    0  0.00000000000E+00 -0.00000000000E+00 -0.13413939250E+03  0.13413939250E+03  0.00000000000E+00 0. -1.
         25    2    1    2    0    0  0.29267369467E+02 -0.43808727735E+01 -0.13568514195E+02  0.12925766275E+03  0.12509063850E+03 0.  0.
         23    2    1    2    0    0 -0.29267369467E+02  0.43808727735E+01 -0.25858729914E+02  0.99593878137E+02  0.91512270696E+02 0.  0.
          5    1    3    3  502    0  0.14333707513E+02  0.56650431295E+02  0.14441040061E+02  0.60338566233E+02  0.41800000000E+01 0. -1.
         -5    1    3    3    0  502  0.14933661953E+02 -0.61031304069E+02 -0.28009554256E+02  0.68919096521E+02  0.41800000000E+01 0. -1.
        -11    1    4    4    0    0 -0.34320808543E+00  0.10026863168E+02  0.32609820069E+02  0.34118266980E+02  0.00000000000E+00 0.  1.
         11    1    4    4    0    0 -0.28924161381E+02 -0.56459903948E+01 -0.58468549984E+02  0.65475611157E+02  0.00000000000E+00 0. -1.
</event>
<event>
 8    1  0.6615242E-009  0.1777814E+03  0.7561462E-02  0.1169968E+00
          2   -1    0    0  501    0  0.00000000000E+00  0.00000000000E+00  0.26336942216E+03  0.26336942216E+03  0.00000000000E+00 0. -1.
         -2   -1    0    0    0  501 -0.00000000000E+00 -0.00000000000E+00 -0.15446221810E+03  0.15446221810E+03  0.00000000000E+00 0.  1.
         25    2    1    2    0    0 -0.10717048101E+02 -0.16182539950E+03  0.62515645451E+01  0.20491213616E+03  0.12509031314E+03 0.  0.
         23    2    1    2    0    0  0.10717048101E+02  0.16182539950E+03  0.10265563952E+03  0.21291950410E+03  0.92164092017E+02 0.  0.
          5    1    3    3  502    0  0.21277485258E+02 -0.77749756910E+02 -0.53500279848E+02  0.96837536225E+02  0.41800000000E+01 0. -1.
         -5    1    3    3    0  502 -0.31994533359E+02 -0.84075642595E+02  0.59751844393E+02  0.10807459993E+03  0.41800000000E+01 0. -1.
        -11    1    4    4    0    0  0.43524532999E+02  0.13671760584E+03  0.91338890901E+02  0.17008492500E+03  0.00000000000E+00 0. -1.
         11    1    4    4    0    0 -0.32807484898E+02  0.25107793664E+02  0.11316748615E+02  0.42834579106E+02  0.00000000000E+00 0.  1.
</event>
<event>
 8    1  0.6615242E-009  0.1488062E+03  0.7561462E-02  0.1201948E+00
          3   -1    0    0  501    0  0.00000000000E+00  0.00000000000E+00  0.68183044881E+02  0.68183044881E+02  0.00000000000E+00 0. -1.
         -3   -1    0    0    0  501 -0.00000000000E+00 -0.00000000000E+00 -0.76486732216E+03  0.76486732216E+03  0.00000000000E+00 0.  1.
         25    2    1    2    0    0  0.84029734149E+02  0.11449064977E+03 -0.62058017274E+03  0.64879656510E+03  0.12509247376E+03 0.  0.
         23    2    1    2    0    0 -0.84029734149E+02 -0.11449064977E+03 -0.76104104541E+02  0.18425380194E+03  0.89378541573E+02 0.  0.
          5    1    3    3  502    0  0.15415533917E+02 -0.56824108102E+01 -0.47634018003E+01  0.17609397357E+02  0.41800000000E+01 0.  1.
         -5    1    3    3    0  502  0.68614200232E+02  0.12017306058E+03 -0.61581677094E+03  0.63118716775E+03  0.41800000000E+01 0.  1.
        -11    1    4    4    0    0 -0.44557773299E+02 -0.66974863088E+02 -0.90235265532E+02  0.12088602315E+03  0.00000000000E+00 0.  1.
         11    1    4    4    0    0 -0.39471960850E+02 -0.47515786683E+02  0.14131160991E+02  0.63367778787E+02  0.00000000000E+00 0. -1.
</event>
<event>
 8    1  0.6615242E-009  0.1349109E+03  0.7561462E-02  0.1220346E+00
          1   -1    0    0  501    0  0.00000000000E+00  0.00000000000E+00  0.72047150892E+03  0.72047150892E+03  0.00000000000E+00 0. -1.
         -1   -1    0    0    0  501 -0.00000000000E+00 -0.00000000000E+00 -0.32314657029E+02  0.32314657029E+02  0.00000000000E+00 0.  1.
         25    2    1    2    0    0 -0.43908775546E+02 -0.73754329343E+02  0.21152608340E+03  0.26030450035E+03  0.12508983683E+03 0.  0.
         23    2    1    2    0    0  0.43908775546E+02  0.73754329343E+02  0.47663076849E+03  0.49248166560E+03  0.89407045632E+02 0.  0.
          5    1    3    3  502    0  0.93923384945E+01  0.31488201034E+02  0.37686527138E+02  0.50174391421E+02  0.41800000000E+01 0.  1.
         -5    1    3    3    0  502 -0.53301114041E+02 -0.10524253038E+03  0.17383955626E+03  0.21013010893E+03  0.41800000000E+01 0.  1.
        -11    1    4    4    0    0  0.43401298324E+02 -0.14711594569E+01  0.24854895279E+03  0.25231412750E+03  0.00000000000E+00 0.  1.
         11    1    4    4    0    0  0.50747722270E+00  0.75225488800E+02  0.22808181570E+03  0.24016753809E+03  0.00000000000E+00 0. -1.
</event>
<event>
 8    1  0.6615242E-009  0.6838937E+02  0.7561462E-02  0.1365657E+00
         -1   -1    0    0    0  501 -0.00000000000E+00  0.00000000000E+00  0.36059833120E+02  0.36059833120E+02  0.00000000000E+00 0.  1.
          1   -1    0    0  501    0  0.00000000000E+00 -0.00000000000E+00 -0.42406620898E+03  0.42406620898E+03  0.00000000000E+00 0. -1.
         25    2    1    2    0    0  0.43188783790E+02 -0.28857210870E+02 -0.26934259464E+03  0.30149170196E+03  0.12511516055E+03 0.  0.
         23    2    1    2    0    0 -0.43188783790E+02  0.28857210870E+02 -0.11866378122E+03  0.15863434014E+03  0.91573747512E+02 0.  0.
          5    1    3    3  502    0  0.59038186717E+01 -0.17308168553E+02  0.87094473047E+01  0.20682230197E+02  0.41800000000E+01 0.  1.
         -5    1    3    3    0  502  0.37284965118E+02 -0.11549042317E+02 -0.27805204194E+03  0.28080947176E+03  0.41800000000E+01 0.  1.
        -11    1    4    4    0    0 -0.16753889488E+02 -0.18232773932E+02 -0.97562347622E+02  0.10065554397E+03  0.00000000000E+00 0. -1.
         11    1    4    4    0    0 -0.26434894302E+02  0.47089984801E+02 -0.21101433596E+02  0.57978796168E+02  0.00000000000E+00 0.  1.
</event>
<event>
 8    1  0.6615242E-009  0.1044205E+03  0.7561462E-02  0.1271266E+00
         -2   -1    0    0    0  501 -0.00000000000E+00  0.00000000000E+00  0.54632621808E+02  0.54632621808E+02  0.00000000000E+00 0.  1.
          2   -1    0    0  501    0  0.00000000000E+00 -0.00000000000E+00 -0.29395760059E+03  0.29395760059E+03  0.00000000000E+00 0. -1.
         25    2    1    2    0    0  0.62552356320E+02 -0.16577383397E+02 -0.12192477220E+03  0.18629656020E+03  0.12511255470E+03 0.  0.
         23    2    1    2    0    0 -0.62552356320E+02  0.16577383397E+02 -0.11740020658E+03  0.16229366220E+03  0.91481240507E+02 0.  0.
          5    1    3    3  502    0  0.19868911162E+02 -0.43924427069E+02  0.58761149263E+01  0.48745564421E+02  0.41800000000E+01 0. -1.
         -5    1    3    3    0  502  0.42683445158E+02  0.27347043672E+02 -0.12780088713E+03  0.13755099578E+03  0.41800000000E+01 0. -1.
        -11    1    4    4    0    0 -0.32692075615E+02 -0.36305398074E+02 -0.35770393319E+02  0.60550596822E+02  0.00000000000E+00 0.  1.
         11    1    4    4    0    0 -0.29860280705E+02  0.52882781471E+02 -0.81629813264E+02  0.10174306538E+03  0.00000000000E+00 0. -1.
</event>
<event>
 8    1  0.6615242E-009  0.7330173E+02  0.7561462E-02  0.1349212E+00
         -2   -1    0    0    0  501 -0.00000000000E+00  0.00000000000E+00  0.19018277049E+02  0.19018277049E+02  0.00000000000E+00 0.  1.
          2   -1    0    0  501    0  0.00000000000E+00 -0.00000000000E+00 -0.69238967759E+03  0.69238967759E+03  0.00000000000E+00 0. -1.
         25    2    1    2    0    0  0.35322632849E+02 -0.98822603182E+00 -0.42956553762E+03  0.44880084242E+03  0.12508788937E+03 0.  0.
         23    2    1    2    0    0 -0.35322632849E+02  0.98822603182E+00 -0.24380586292E+03  0.26260711222E+03  0.90953458478E+02 0.  0.
          5    1    3    3  502    0  0.30370284759E+02  0.14159094143E+02 -0.20709526343E+02  0.39613015849E+02  0.41800000000E+01 0. -1.
         -5    1    3    3    0  502  0.49523480900E+01 -0.15147320175E+02 -0.40885601128E+03  0.40918782657E+03  0.41800000000E+01 0. -1.
        -11    1    4    4    0    0 -0.61750532141E+00  0.42356868187E+02 -0.87020651371E+02  0.96783673006E+02  0.00000000000E+00 0.  1.
         11    1    4    4    0    0 -0.34705127528E+02 -0.41368642155E+02 -0.15678521155E+03  0.16582343921E+03  0.00000000000E+00 0. -1.
</event>
<event>
 8    1  0.6615242E-009  0.1296223E+03  0.7561462E-02  0.1228017E+00
         -2   -1    0    0    0  501 -0.00000000000E+00  0.00000000000E+00  0.16222715740E+03  0.16222715740E+03  0.00000000000E+00 0. -1.
          2   -1    0    0  501    0  0.00000000000E+00 -0.00000000000E+00 -0.13324304238E+03  0.13324304238E+03  0.00000000000E+00 0.  1.
         25    2    1    2    0    0  0.74782301227E+02  0.64632393074E+02  0.11789395835E+02  0.15986432900E+03  0.12509146662E+03 0.  0.
         23    2    1    2    0    0 -0.74782301227E+02 -0.64632393074E+02  0.17194719180E+02  0.13560587078E+03  0.91233519116E+02 0.  0.
          5    1    3    3  502    0  0.92852746732E+02  0.68714850873E+02  0.43001248868E+02  0.12332859810E+03  0.41800000000E+01 0. -1.
         -5    1    3    3    0  502 -0.18070445505E+02 -0.40824577992E+01 -0.31211853033E+02  0.36535730897E+02  0.41800000000E+01 0. -1.
        -11    1    4    4    0    0 -0.81770838838E+01 -0.57044865485E+02  0.33442850753E+02  0.66628864958E+02  0.00000000000E+00 0. -1.
         11    1    4    4    0    0 -0.66605217344E+02 -0.75875275893E+01 -0.16248131573E+02  0.68977005820E+02  0.00000000000E+00 0.  1.
</event>
<event>
 8    1  0.6615242E-009  0.2015874E+03  0.7561462E-02  0.1148407E+00
          2   -1    0    0  501    0  0.00000000000E+00  0.00000000000E+00  0.17823433891E+03  0.17823433891E+03  0.00000000000E+00 0. -1.
         -2   -1    0    0    0  501 -0.00000000000E+00 -0.00000000000E+00 -0.30896139262E+03  0.30896139262E+03  0.00000000000E+00 0.  1.
         25    2    1    2    0    0 -0.19523437537E+03 -0.20011453919E+02 -0.14842231447E+03  0.27603395861E+03  0.12509453730E+03 0.  0.
         23    2    1    2    0    0  0.19523437537E+03  0.20011453919E+02  0.17695260755E+02  0.21116177292E+03  0.75889738946E+02 0.  0.
          5    1    3    3  502    0 -0.37771417045E+02 -0.17494901690E+02  0.19172821056E+02  0.46019789200E+02  0.41800000000E+01 0.  1.
         -5    1    3    3    0  502 -0.15746295832E+03 -0.25165522286E+01 -0.16759513552E+03  0.23001416941E+03  0.41800000000E+01 0.  1.
        -11    1    4    4    0    0  0.13590877048E+03 -0.11914505304E+02  0.36476869371E+02  0.14122220551E+03  0.00000000000E+00 0. -1.
         11    1    4    4    0    0  0.59325604885E+02  0.31925959223E+02 -0.18781608616E+02  0.69939567410E+02  0.00000000000E+00 0.  1.
</event>
<event>
 8    1  0.6615242E-009  0.8261289E+02  0.7561462E-02  0.1321796E+00
          1   -1    0    0  501    0  0.00000000000E+00  0.00000000000E+00  0.69678905443E+03  0.69678905443E+03  0.00000000000E+00 0. -1.
         -1   -1    0    0    0  501 -0.00000000000E+00 -0.00000000000E+00 -0.22253534759E+02  0.22253534759E+02  0.00000000000E+00 0.  1.
         25    2    1    2    0    0  0.18013630542E+02 -0.54546356731E+02  0.43600760922E+03  0.45722447103E+03  0.12510709691E+03 0.  0.
         23    2    1    2    0    0 -0.18013630542E+02  0.54546356731E+02  0.23852791045E+03  0.26181811815E+03  0.91396756018E+02 0.  0.
          5    1    3    3  502    0  0.10325262902E+02 -0.14980398190E+02  0.40690857610E+03  0.40733657470E+03  0.41800000000E+01 0.  1.
         -5    1    3    3    0  502  0.76883676398E+01 -0.39565958542E+02  0.29099033118E+02  0.49887896335E+02  0.41800000000E+01 0.  1.
        -11    1    4    4    0    0 -0.51795372753E+02  0.49924713351E+02  0.18331780840E+03  0.19692804909E+03  0.00000000000E+00 0. -1.
         11    1    4    4    0    0  0.33781742211E+02  0.46216433803E+01  0.55210102049E+02  0.64890069060E+02  0.00000000000E+00 0.  1.
</event>
<event>
 8    1  0.6615242E-009  0.1548302E+03  0.7561462E-02  0.1194660E+00
         -2   -1    0    0    0  501 -0.00000000000E+00  0.00000000000E+00  0.26844203210E+02  0.26844203210E+02  0.00000000000E+00 0.  1.
          2   -1    0    0  501    0  0.00000000000E+00 -0.00000000000E+00 -0.94163120284E+03  0.94163120284E+03  0.00000000000E+00 0. -1.
         25    2    1    2    0    0 -0.73204335213E+02  0.73532706903E+02 -0.57424170123E+03  0.59679749668E+03  0.12509111451E+03 0.  0.
         23    2    1    2    0    0  0.73204335213E+02 -0.73532706903E+02 -0.34054529839E+03  0.37167790937E+03  0.10680559150E+03 0.  0.
          5    1    3    3  502    0 -0.50738095431E+02 -0.27091494743E+02 -0.16660979958E+03  0.17630825599E+03  0.41800000000E+01 0. -1.
         -5    1    3    3    0  502 -0.22466239782E+02  0.10062420165E+03 -0.40763190165E+03  0.42048924069E+03  0.41800000000E+01 0. -1.
        -11    1    4    4    0    0 -0.27696087360E+02 -0.22768559564E+02 -0.88081030390E+02  0.95098624986E+02  0.00000000000E+00 0.  1.
         11    1    4    4    0    0  0.10090042257E+03 -0.50764147338E+02 -0.25246426801E+03  0.27657928438E+03  0.00000000000E+00 0. -1.
</event>
<event>
 8    1  0.6615242E-009  0.1009150E+03  0.7561462E-02  0.1278384E+00
          2   -1    0    0  501    0  0.00000000000E+00  0.00000000000E+00  0.61506883454E+03  0.61506883454E+03  0.00000000000E+00 0. -1.
         -2   -1    0    0    0  501 -0.00000000000E+00 -0.00000000000E+00 -0.26066066167E+02  0.26066066167E+02  0.00000000000E+00 0.  1.
         25    2    1    2    0    0 -0.53595309623E+02 -0.18342440914E+02  0.38964008597E+03  0.41312753849E+03  0.12508422810E+03 0.  0.
         23    2    1    2    0    0  0.53595309623E+02  0.18342440914E+02  0.19936268241E+03  0.22800736221E+03  0.95041968278E+02 0.  0.
          5    1    3    3  502    0  0.12415430706E+02  0.21040014972E+02  0.26821131534E+03  0.26935405553E+03  0.41800000000E+01 0.  1.
         -5    1    3    3    0  502 -0.66010740329E+02 -0.39382455886E+02  0.12142877062E+03  0.14377348297E+03  0.41800000000E+01 0.  1.
        -11    1    4    4    0    0  0.70666264138E+02 -0.53442787185E+01  0.17869702996E+03  0.19223660089E+03  0.00000000000E+00 0.  1.
         11    1    4    4    0    0 -0.17070954515E+02  0.23686719633E+02  0.20665652445E+02  0.35770761328E+02  0.00000000000E+00 0. -1.
</event>
<event>
 8    1  0.6615242E-009  0.1057671E+03  0.7561462E-02  0.1268616E+00
         -1   -1    0    0    0  501 -0.00000000000E+00  0.00000000000E+00  0.60704333584E+02  0.60704333584E+02  0.00000000000E+00 0.  1.
          1   -1    0    0  501    0  0.00000000000E+00 -0.00000000000E+00 -0.61928146683E+03  0.61928146683E+03  0.00000000000E+00 0. -1.
         25    2    1    2    0    0 -0.47461856525E+02  0.19739485493E+01 -0.56265091859E+03  0.57834306220E+03  0.12509243423E+03 0.  0.
         23    2    1    2    0    0  0.47461856525E+02 -0.19739485493E+01  0.40737853502E+01  0.10164273821E+03  0.89767066381E+02 0.  0.
          5    1    3    3  502    0  0.15208828910E+02  0.37225510490E+02 -0.37777534275E+03  0.37993253229E+03  0.41800000000E+01 0. -1.
         -5    1    3    3    0  502 -0.62670685434E+02 -0.35251561941E+02 -0.18487557585E+03  0.19841052990E+03  0.41800000000E+01 0. -1.
        -11    1    4    4    0    0 -0.18606620820E+02 -0.23149094285E+02  0.11540306477E+02  0.31863232387E+02  0.00000000000E+00 0.  1.
         11    1    4    4    0    0  0.66068477344E+02  0.21175145736E+02 -0.74665211267E+01  0.69779505826E+02  0.00000000000E+00 0. -1.
</event>
<event>
 8    1  0.6615242E-009  0.8865634E+02  0.7561462E-02  0.1306139E+00
          1   -1    0    0  501    0  0.00000000000E+00  0.00000000000E+00  0.91143734340E+03  0.91143734340E+03  0.00000000000E+00 0. -1.
         -1   -1    0    0    0  501 -0.00000000000E+00 -0.00000000000E+00 -0.17421931785E+02  0.17421931785E+02  0.00000000000E+00 0.  1.
         25    2    1    2    0    0 -0.30692446434E+02  0.15110639706E+02  0.69746685221E+03  0.70942218004E+03  0.12509780932E+03 0.  0.
         23    2    1    2    0    0  0.30692446434E+02 -0.15110639706E+02  0.19654855940E+03  0.21943709515E+03  0.91383504103E+02 0.  0.
          5    1    3    3  502    0 -0.58954238338E+02 -0.26477514757E+02  0.22106668315E+03  0.23035757380E+03  0.41800000000E+01 0.  1.
         -5    1    3    3    0  502  0.28261791904E+02  0.41588154463E+02  0.47640016906E+03  0.47906460624E+03  0.41800000000E+01 0.  1.
        -11    1    4    4    0    0  0.53689705677E+01 -0.31484438982E+02  0.14795745234E+02  0.35199571304E+02  0.00000000000E+00 0.  1.
         11    1    4    4    0    0  0.25323475866E+02  0.16373799277E+02  0.18175281417E+03  0.18423752384E+03  0.00000000000E+00 0. -1.
</event>
<event>
 8    1  0.6615242E-009  0.9713602E+02  0.7561462E-02  0.1286436E+00
         -1   -1    0    0    0  501 -0.00000000000E+00  0.00000000000E+00  0.50399172421E+02  0.50399172421E+02  0.00000000000E+00 0.  1.
          1   -1    0    0  501    0  0.00000000000E+00 -0.00000000000E+00 -0.24589400878E+03  0.24589400878E+03  0.00000000000E+00 0. -1.
         25    2    1    2    0    0  0.24780897214E+02 -0.11289606038E+02 -0.12401088590E+03  0.17823550607E+03  0.12509055812E+03 0.  0.
         23    2    1    2    0    0 -0.24780897214E+02  0.11289606038E+02 -0.71483950452E+02  0.11805767513E+03  0.89922808078E+02 0.  0.
          5    1    3    3  502    0  0.57125336902E+02 -0.49368437461E+02 -0.90489851469E+02  0.11792553732E+03  0.41800000000E+01 0. -1.
         -5    1    3    3    0  502 -0.32344439688E+02  0.38078831424E+02 -0.33521034435E+02  0.60309968753E+02  0.41800000000E+01 0. -1.
        -11    1    4    4    0    0 -0.45925777281E+02  0.37862311188E+01 -0.32119264071E+01  0.46193387364E+02  0.00000000000E+00 0.  1.
         11    1    4    4    0    0  0.21144880067E+02  0.75033749190E+01 -0.68272024045E+02  0.71864287761E+02  0.00000000000E+00 0. -1.
</event>
<event>
 8    1  0.6615242E-009  0.1622440E+03  0.7561462E-02  0.1186186E+00
         -1   -1    0    0    0  501 -0.00000000000E+00  0.00000000000E+00  0.55470082394E+02  0.55470082394E+02  0.00000000000E+00 0.  1.
          1   -1    0    0  501    0  0.00000000000E+00 -0.00000000000E+00 -0.76452163929E+03  0.76452163929E+03  0.00000000000E+00 0. -1.
         25    2    1    2    0    0  0.13840723658E+03 -0.13412501528E+02 -0.16036823500E+03  0.24637399777E+03  0.12508284311E+03 0.  0.
         23    2    1    2    0    0 -0.13840723658E+03  0.13412501528E+02 -0.54868332190E+03  0.57361772392E+03  0.92991650889E+02 0.  0.
          5    1    3    3  502    0  0.61660932410E+02 -0.66329242619E+02 -0.10125807244E+03  0.13591287152E+03  0.41800000000E+01 0.  1.
         -5    1    3    3    0  502  0.76746304173E+02  0.52916741091E+02 -0.59110162567E+02  0.11046112624E+03  0.41800000000E+01 0.  1.
        -11    1    4    4    0    0 -0.97583848936E+02  0.12943979040E+00 -0.49671943858E+03  0.50621420861E+03  0.00000000000E+00 0. -1.
         11    1    4    4    0    0 -0.40823387647E+02  0.13283061737E+02 -0.51963883313E+02  0.67403515317E+02  0.00000000000E+00 0.  1.
</event>
<event>
 8    1  0.6615242E-009  0.1272858E+03  0.7561462E-02  0.1231540E+00
         -4   -1    0    0    0  501 -0.00000000000E+00  0.00000000000E+00  0.95611884410E+02  0.95611884410E+02  0.00000000000E+00 0.  1.
          4   -1    0    0  501    0  0.00000000000E+00 -0.00000000000E+00 -0.22537678624E+03  0.22537678624E+03  0.00000000000E+00 0. -1.
         25    2    1    2    0    0 -0.92448993588E+02  0.34441390363E+02 -0.64923209348E+02  0.17203357850E+03  0.12508998055E+03 0.  0.
         23    2    1    2    0    0  0.92448993588E+02 -0.34441390363E+02 -0.64841692486E+02  0.14895509215E+03  0.90830328678E+02 0.  0.
          5    1    3    3  502    0  0.25895760725E+02 -0.11831106832E+02  0.10555222893E+01  0.28795000255E+02  0.41800000000E+01 0. -1.
         -5    1    3    3    0  502 -0.11834475431E+03  0.46272497194E+02 -0.65978731638E+02  0.14323857825E+03  0.41800000000E+01 0. -1.
        -11    1    4    4    0    0  0.43787467570E+02 -0.16618837636E+02 -0.81943404389E+02  0.94383524004E+02  0.00000000000E+00 0. -1.
         11    1    4    4    0    0  0.48661526018E+02 -0.17822552727E+02  0.17101711902E+02  0.54571568148E+02  0.00000000000E+00 0.  1.
</event>
<event>
 8    1  0.6615242E-009  0.8708338E+02  0.7561462E-02  0.1310072E+00
         -2   -1    0    0    0  501 -0.00000000000E+00  0.00000000000E+00  0.23483945503E+03  0.23483945503E+03  0.00000000000E+00 0.  1.
          2   -1    0    0  501    0  0.00000000000E+00 -0.00000000000E+00 -0.66718261483E+02  0.66718261483E+02  0.00000000000E+00 0. -1.
         25    2    1    2    0    0 -0.16786362219E+02 -0.56705727806E+02  0.11931220934E+03  0.18270130568E+03  0.12508813804E+03 0.  0.
         23    2    1    2    0    0  0.16786362219E+02  0.56705727806E+02  0.48808984206E+02  0.11885641083E+03  0.90814139501E+02 0.  0.
          5    1    3    3  502    0 -0.22365538836E+02 -0.80001675987E+02  0.27314997653E+02  0.87544657089E+02  0.41800000000E+01 0.  1.
         -5    1    3    3    0  502  0.55791766172E+01  0.23295948181E+02  0.91997211687E+02  0.95156648594E+02  0.41800000000E+01 0.  1.
        -11    1    4    4    0    0 -0.49217937753E+01  0.37098897772E+02 -0.21179115637E+02  0.43001246599E+02  0.00000000000E+00 0. -1.
         11    1    4    4    0    0  0.21708155994E+02  0.19606830033E+02  0.69988099843E+02  0.75855164229E+02  0.00000000000E+00 0.  1.
</event>
<event>
 8    1  0.6615242E-009  0.1231795E+03  0.7561462E-02  0.1237942E+00
         -2   -1    0    0    0  501 -0.00000000000E+00  0.00000000000E+00  0.34466014203E+02  0.34466014203E+02  0.00000000000E+00 0. -1.
          2   -1    0    0  501    0  0.00000000000E+00 -0.00000000000E+00 -0.55249355428E+03  0.55249355428E+03  0.00000000000E+00 0.  1.
         25    2    1    2    0    0 -0.63029296226E+02 -0.56343721500E+02 -0.29468439900E+03  0.33110929614E+03  0.12508862395E+03 0.  0.
         23    2    1    2    0    0  0.63029296226E+02  0.56343721500E+02 -0.22334314107E+03  0.25585027234E+03  0.91814465392E+02 0.  0.
          5    1    3    3  502    0 -0.86535723593E+02 -0.35132562035E+02 -0.28139404143E+03  0.29651780271E+03  0.41800000000E+01 0.  1.
         -5    1    3    3    0  502  0.23506427367E+02 -0.21211159465E+02 -0.13290357572E+02  0.34591493431E+02  0.41800000000E+01 0.  1.
        -11    1    4    4    0    0  0.42428732444E+02 -0.16279740676E+02 -0.11632423159E+03  0.12488616476E+03  0.00000000000E+00 0.  1.
         11    1    4    4    0    0  0.20600563782E+02  0.72623462176E+02 -0.10701890948E+03  0.13096410758E+03  0.00000000000E+00 0. -1.
</event>
<event>
 8    1  0.6615242E-009  0.8679633E+02  0.7561462E-02  0.1310801E+00
          2   -1    0    0  501    0  0.00000000000E+00  0.00000000000E+00  0.20332611285E+03  0.20332611285E+03  0.00000000000E+00 0. -1.
         -2   -1    0    0    0  501 -0.00000000000E+00 -0.00000000000E+00 -0.14649274545E+03  0.14649274545E+03  0.00000000000E+00 0.  1.
         25    2    1    2    0    0 -0.14471891430E+02  0.14036517440E+02  0.16521074417E+03  0.20819991028E+03  0.12508458413E+03 0.  0.
         23    2    1    2    0    0  0.14471891430E+02 -0.14036517440E+02 -0.10837737678E+03  0.14161894801E+03  0.88903381127E+02 0.  0.
          5    1    3    3  502    0 -0.48830427911E+02 -0.21948191956E+02  0.24748647405E+02  0.59127842583E+02  0.41800000000E+01 0.  1.
         -5    1    3    3    0  502  0.34358536481E+02  0.35984709396E+02  0.14046209677E+03  0.14907206770E+03  0.41800000000E+01 0.  1.
        -11    1    4    4    0    0 -0.24629934529E+02 -0.18224401250E+02 -0.50390140013E+01  0.31050831518E+02  0.00000000000E+00 0. -1.
         11    1    4    4    0    0  0.39101825959E+02  0.41878838094E+01 -0.10333836278E+03  0.11056811649E+03  0.00000000000E+00 0.  1.
</event>
<event>
 8    1  0.6615242E-009  0.9332886E+02  0.7561462E-02  0.1294985E+00
         -2   -1    0    0    0  501 -0.00000000000E+00  0.00000000000E+00  0.30533682310E+03  0.30533682310E+03  0.00000000000E+00 0.  1.
          2   -1    0    0  501    0  0.00000000000E+00 -0.00000000000E+00 -0.41602107463E+02  0.41602107463E+02  0.00000000000E+00 0. -1.
         25    2    1    2    0    0  0.84899272605E+00 -0.20001707754E+01  0.19755680596E+03  0.23383916600E+03  0.12508933808E+03 0.  0.
         23    2    1    2    0    0 -0.84899272605E+00  0.20001707754E+01  0.66177909677E+02  0.11309976456E+03  0.91691436588E+02 0.  0.
          5    1    3    3  502    0 -0.55186137435E+02 -0.14550162757E+02  0.14499863653E+03  0.15588230815E+03  0.41800000000E+01 0.  1.
         -5    1    3    3    0  502  0.56035130161E+02  0.12549991981E+02  0.52558169439E+02  0.77956857849E+02  0.41800000000E+01 0.  1.
        -11    1    4    4    0    0 -0.28979413740E+02  0.22799286996E+02  0.68757089706E+02  0.78020197982E+02  0.00000000000E+00 0.  1.
         11    1    4    4    0    0  0.28130421014E+02 -0.20799116220E+02 -0.25791800292E+01  0.35079566583E+02  0.00000000000E+00 0. -1.
</event>
<event>
 8    1  0.6615242E-009  0.1321896E+03  0.7561462E-02  0.1224243E+00
          2   -1    0    0  501    0  0.00000000000E+00  0.00000000000E+00  0.41872300489E+03  0.41872300489E+03  0.00000000000E+00 0. -1.
         -2   -1    0    0    0  501 -0.00000000000E+00 -0.00000000000E+00 -0.80799151354E+02  0.80799151354E+02  0.00000000000E+00 0.  1.
         25    2    1    2    0    0  0.34572193809E+02  0.74446843084E+02  0.10663576471E+02  0.14999422495E+03  0.12508791559E+03 0.  0.
         23    2    1    2    0    0 -0.34572193809E+02 -0.74446843084E+02  0.32726027706E+03  0.34952793129E+03  0.91284811331E+02 0.  0.
          5    1    3    3  502    0  0.69071951831E+02  0.80876813982E+02  0.28804176798E+02  0.11026852031E+03  0.41800000000E+01 0.  1.
         -5    1    3    3    0  502 -0.34499758022E+02 -0.64299708985E+01 -0.18140600327E+02  0.39725704645E+02  0.41800000000E+01 0.  1.
        -11    1    4    4    0    0  0.12624099805E+02  0.16117464595E+02  0.61698681760E+02  0.65006675748E+02  0.00000000000E+00 0.  1.
         11    1    4    4    0    0 -0.47196293614E+02 -0.90564307679E+02  0.26556159530E+03  0.28452125554E+03  0.00000000000E+00 0. -1.
</event>
<event>
 8    1  0.6615242E-009  0.1145470E+03  0.7561462E-02  0.1252374E+00
         -1   -1    0    0    0  501 -0.00000000000E+00  0.00000000000E+00  0.96788641912E+02  0.96788641912E+02  0.00000000000E+00 0.  1.
          1   -1    0    0  501    0  0.00000000000E+00 -0.00000000000E+00 -0.16000435999E+03  0.16000435999E+03  0.00000000000E+00 0. -1.
         25    2    1    2    0    0 -0.40942284432E+02 -0.35146494431E+02 -0.69799967972E+02  0.15307139729E+03  0.12508904993E+03 0.  0.
         23    2    1    2    0    0  0.40942284432E+02  0.35146494431E+02  0.65842498898E+01  0.10372160462E+03  0.88336131864E+02 0.  0.
          5    1    3    3  502    0 -0.67446151250E+02 -0.59456939412E+02 -0.21208125950E+02  0.92473606877E+02  0.41800000000E+01 0. -1.
         -5    1    3    3    0  502  0.26503866818E+02  0.24310444981E+02 -0.48591842022E+02  0.60597790410E+02  0.41800000000E+01 0. -1.
        -11    1    4    4    0    0 -0.35628341182E+01 -0.26559462151E+02  0.67739749000E+01  0.27640288578E+02  0.00000000000E+00 0.  1.
         11    1    4    4    0    0  0.44505118550E+02  0.61705956582E+02 -0.18972501026E+00  0.76081316041E+02  0.00000000000E+00 0. -1.
</event>
<event>
 8    1  0.6615242E-009  0.1302176E+03  0.7561462E-02  0.1227133E+00
          2   -1    0    0  501    0  0.00000000000E+00  0.00000000000E+00  0.33983492893E+03  0.33983492893E+03  0.00000000000E+00 0. -1.
         -2   -1    0    0    0  501 -0.00000000000E+00 -0.00000000000E+00 -0.60572872322E+02  0.60572872322E+02  0.00000000000E+00 0.  1.
         25    2    1    2    0    0 -0.90251502560E+02  0.10451838899E+02  0.18259359644E+03  0.23925362512E+03  0.12508917228E+03 0.  0.
         23    2    1    2    0    0  0.90251502560E+02 -0.10451838899E+02  0.96668460175E+02  0.16115417614E+03  0.91494823040E+02 0.  0.
          5    1    3    3  502    0 -0.12133816428E+03  0.10590944177E+02  0.13141388432E+03  0.17922667101E+03  0.41800000000E+01 0.  1.
         -5    1    3    3    0  502  0.31086661720E+02 -0.13910527776E+00  0.51179712115E+02  0.60026954107E+02  0.41800000000E+01 0.  1.
        -11    1    4    4    0    0  0.13170077674E+02  0.20308230237E+02 -0.98404498886E+01  0.26128712469E+02  0.00000000000E+00 0.  1.
         11    1    4    4    0    0  0.77081424887E+02 -0.30760069136E+02  0.10650891006E+03  0.13502546367E+03  0.00000000000E+00 0. -1.
</event>
<event>
 8    1  0.6615242E-009  0.1158468E+03  0.7561462E-02  0.1250110E+00
         -1   -1    0    0    0  501 -0.00000000000E+00  0.00000000000E+00  0.27665822566E+02  0.27665822566E+02  0.00000000000E+00 0.  1.
          1   -1    0    0  501    0  0.00000000000E+00 -0.00000000000E+00 -0.10377685340E+04  0.10377685340E+04  0.00000000000E+00 0. -1.
         25    2    1    2    0    0  0.56037581641E+02  0.17813153630E+02 -0.86350231289E+03  0.87449501780E+03  0.12509105802E+03 0.  0.
         23    2    1    2    0    0 -0.56037581641E+02 -0.17813153630E+02 -0.14660039857E+03  0.19093933879E+03  0.10727830739E+03 0.  0.
          5    1    3    3  502    0 -0.57121187713E+01  0.56516956989E+02 -0.23670916606E+03  0.24346559598E+03  0.41800000000E+01 0. -1.
         -5    1    3    3    0  502  0.61749700412E+02 -0.38703803359E+02 -0.62679314683E+03  0.63102942182E+03  0.41800000000E+01 0. -1.
        -11    1    4    4    0    0 -0.20001730932E+02  0.33511342797E+02 -0.94841726716E+01  0.40162530643E+02  0.00000000000E+00 0.  1.
         11    1    4    4    0    0 -0.36035850709E+02 -0.51324496428E+02 -0.13711622590E+03  0.15077680814E+03  0.00000000000E+00 0. -1.
</event>
<event>
 8    1  0.6615242E-009  0.9979091E+02  0.7561462E-02  0.1280736E+00
          2   -1    0    0  501    0  0.00000000000E+00  0.00000000000E+00  0.10442670444E+02  0.10442670444E+02  0.00000000000E+00 0. -1.
         -2   -1    0    0    0  501 -0.00000000000E+00 -0.00000000000E+00 -0.11368979719E+04  0.11368979719E+04  0.00000000000E+00 0.  1.
         25    2    1    2    0    0  0.19510903031E+02 -0.13293970015E+02 -0.64115843715E+03  0.65367349370E+03  0.12508992706E+03 0.  0.
         23    2    1    2    0    0 -0.19510903031E+02  0.13293970015E+02 -0.48529686432E+03  0.49366714867E+03  0.87388798923E+02 0.  0.
          5    1    3    3  502    0  0.50861185470E+02  0.27233148801E+02 -0.50202657840E+03  0.50534806065E+03  0.41800000000E+01 0.  1.
         -5    1    3    3    0  502 -0.31350282439E+02 -0.40527118816E+02 -0.13913185875E+03  0.14832543305E+03  0.41800000000E+01 0.  1.
        -11    1    4    4    0    0  0.20920785631E+02  0.37690653295E+02 -0.24770444283E+03  0.25142743608E+03  0.00000000000E+00 0.  1.
         11    1    4    4    0    0 -0.40431688662E+02 -0.24396683280E+02 -0.23759242149E+03  0.24223971259E+03  0.00000000000E+00 0. -1.
</event>
<event>
 8    1  0.6615242E-009  0.1180286E+03  0.7561462E-02  0.1246385E+00
          2   -1    0    0  501    0  0.00000000000E+00  0.00000000000E+00  0.12998827200E+04  0.12998827200E+04  0.00000000000E+00 0. -1.
         -2   -1    0    0    0  501 -0.00000000000E+00 -0.00000000000E+00 -0.12771371246E+02  0.12771371246E+02  0.00000000000E+00 0.  1.
         25    2    1    2    0    0 -0.98237076487E+01 -0.63906890936E+02  0.86862567849E+03  0.87996525993E+03  0.12509074075E+03 0.  0.
         23    2    1    2    0    0  0.98237076487E+01  0.63906890936E+02  0.41848567025E+03  0.43268883130E+03  0.88931280111E+02 0.  0.
          5    1    3    3  502    0  0.57132720110E+02 -0.29232182948E+02  0.45170300127E+03  0.45625841579E+03  0.41800000000E+01 0. -1.
         -5    1    3    3    0  502 -0.66956427759E+02 -0.34674707988E+02  0.41692267722E+03  0.42370684414E+03  0.41800000000E+01 0. -1.
        -11    1    4    4    0    0 -0.10083055817E+02 -0.13189101687E+02  0.18509358190E+02  0.24863965060E+02  0.00000000000E+00 0.  1.
         11    1    4    4    0    0  0.19906763466E+02  0.77095992623E+02  0.39997631206E+03  0.40782486624E+03  0.00000000000E+00 0. -1.
</event>
<event>
 8    1  0.6615242E-009  0.1270984E+03  0.7561462E-02  0.1231826E+00
         -2   -1    0    0    0  501 -0.00000000000E+00  0.00000000000E+00  0.30774093260E+02  0.30774093260E+02  0.00000000000E+00 0.  1.
          2   -1    0    0  501    0  0.00000000000E+00 -0.00000000000E+00 -0.63023020177E+03  0.63023020177E+03  0.00000000000E+00 0. -1.
         25    2    1    2    0    0  0.65887568765E+02 -0.36051246638E+02 -0.42570038472E+03  0.45001029682E+03  0.12509030974E+03 0.  0.
         23    2    1    2    0    0 -0.65887568765E+02  0.36051246638E+02 -0.17375572379E+03  0.21099399821E+03  0.93201671815E+02 0.  0.
          5    1    3    3  502    0  0.17486582822E+02  0.40764331750E+02 -0.22944412225E+03  0.23372973486E+03  0.41800000000E+01 0.  1.
         -5    1    3    3    0  502  0.48400985943E+02 -0.76815578388E+02 -0.19625626247E+03  0.21628056196E+03  0.41800000000E+01 0.  1.
        -11    1    4    4    0    0 -0.85014705512E+02  0.46561525943E+02 -0.15124857996E+03  0.17964300373E+03  0.00000000000E+00 0. -1.
         11    1    4    4    0    0  0.19127136747E+02 -0.10510279305E+02 -0.22507143833E+02  0.31350994477E+02  0.00000000000E+00 0.  1.
</event>
<event>
 8    1  0.6615242E-009  0.1194201E+03  0.7561462E-02  0.1244057E+00
         -1   -1    0    0    0  501 -0.00000000000E+00  0.00000000000E+00  0.22654645960E+02  0.22654645960E+02  0.00000000000E+00 0.  1.
          1   -1    0    0  501    0  0.00000000000E+00 -0.00000000000E+00 -0.10723861076E+04  0.10723861076E+04  0.00000000000E+00 0. -1.
         25    2    1    2    0    0  0.56776795840E+02  0.78073517502E+02 -0.75989090796E+03  0.77614306553E+03  0.12507912490E+03 0.  0.
         23    2    1    2    0    0 -0.56776795840E+02 -0.78073517502E+02 -0.28984055365E+03  0.31889768800E+03  0.91482840969E+02 0.  0.
          5    1    3    3  502    0  0.46466490867E+02  0.27526419095E+02 -0.95926453875E+02  0.11016440203E+03  0.41800000000E+01 0. -1.
         -5    1    3    3    0  502  0.10310304973E+02  0.50547098406E+02 -0.66396445408E+03  0.66597866349E+03  0.41800000000E+01 0. -1.
        -11    1    4    4    0    0  0.11250410624E+02 -0.62001421717E+02 -0.14304814395E+03  0.15631225007E+03  0.00000000000E+00 0. -1.
         11    1    4    4    0    0 -0.68027206464E+02 -0.16072095784E+02 -0.14679240970E+03  0.16258543793E+03  0.00000000000E+00 0.  1.
</event>
<event>
 8    1  0.6615242E-009  0.9110886E+02  0.7561462E-02  0.1300188E+00
          1   -1    0    0  501    0  0.00000000000E+00  0.00000000000E+00  0.60033148524E+03  0.60033148524E+03  0.00000000000E+00 0. -1.
         -1   -1    0    0    0  501 -0.00000000000E+00 -0.00000000000E+00 -0.41114825053E+02  0.41114825053E+02  0.00000000000E+00 0.  1.
         25    2    1    2    0    0 -0.40329340973E+01 -0.70660359361E+02  0.48177527568E+03  0.50275332093E+03  0.12507731414E+03 0.  0.
         23    2    1    2    0    0  0.40329340973E+01  0.70660359361E+02  0.77441384506E+02  0.13869298936E+03  0.90716185546E+02 0.  0.
          5    1    3    3  502    0 -0.22523047093E+02 -0.74092160545E+01  0.38409419505E+03  0.38484803131E+03  0.41800000000E+01 0. -1.
         -5    1    3    3    0  502  0.18490112995E+02 -0.63251143306E+02  0.97681080626E+02  0.11790528962E+03  0.41800000000E+01 0. -1.
        -11    1    4    4    0    0  0.16270543108E+02 -0.37531666323E+01 -0.12836211783E+02  0.21061461624E+02  0.00000000000E+00 0.  1.
         11    1    4    4    0    0 -0.12237609011E+02  0.74413525993E+02  0.90277596289E+02  0.11763152773E+03  0.00000000000E+00 0. -1.
</event>
<event>
 8    1  0.6615242E-009  0.1808639E+03  0.7561462E-02  0.1166970E+00
         -2   -1    0    0    0  501 -0.00000000000E+00  0.00000000000E+00  0.46405275301E+02  0.46405275301E+02  0.00000000000E+00 0.  1.
          2   -1    0    0  501    0  0.00000000000E+00 -0.00000000000E+00 -0.83538895084E+03  0.83538895084E+03  0.00000000000E+00 0. -1.
         25    2    1    2    0    0  0.11509848956E+03 -0.11271067089E+03 -0.43972388356E+03  0.48472247845E+03  0.12508968669E+03 0.  0.
         23    2    1    2    0    0 -0.11509848956E+03  0.11271067089E+03 -0.34925979198E+03  0.39707174769E+03  0.98651978628E+02 0.  0.
          5    1    3    3  502    0  0.87740215125E+02 -0.12075825671E+03 -0.42853156319E+03  0.45380356430E+03  0.41800000000E+01 0.  1.
         -5    1    3    3    0  502  0.27358274432E+02  0.80475858229E+01 -0.11192320363E+02  0.30918914156E+02  0.41800000000E+01 0.  1.
        -11    1    4    4    0    0 -0.12048640661E+02  0.71640630653E+02 -0.94411685960E+02  0.11912647123E+03  0.00000000000E+00 0.  1.
         11    1    4    4    0    0 -0.10304984890E+03  0.41070040236E+02 -0.25484810602E+03  0.27794527646E+03  0.00000000000E+00 0. -1.
</event>
<event>
 8    1  0.6615242E-009  0.1189712E+03  0.7561462E-02  0.1244804E+00
          1   -1    0    0  501    0  0.00000000000E+00  0.00000000000E+00  0.80213240716E+03  0.80213240716E+03  0.00000000000E+00 0. -1.
         -1   -1    0    0    0  501 -0.00000000000E+00 -0.00000000000E+00 -0.23844494321E+02  0.23844494321E+02  0.00000000000E+00 0.  1.
         25    2    1    2    0    0  0.22196578454E+02  0.47886504767E+02  0.22386175656E+03  0.26181415187E+03  0.12508700427E+03 0.  0.
         23    2    1    2    0    0 -0.22196578454E+02 -0.47886504767E+02  0.55442615628E+03  0.56416274961E+03  0.90030216293E+02 0.  0.
          5    1    3    3  502    0  0.73295106858E+02  0.25218050835E+02  0.15200185979E+03  0.17067560035E+03  0.41800000000E+01 0. -1.
         -5    1    3    3    0  502 -0.51098528404E+02  0.22668453932E+02  0.71859896770E+02  0.91138551516E+02  0.41800000000E+01 0. -1.
        -11    1    4    4    0    0 -0.49626626386E+02 -0.64224974503E+00  0.27630512547E+03  0.28072715738E+03  0.00000000000E+00 0. -1.
         11    1    4    4    0    0  0.27430047933E+02 -0.47244255022E+02  0.27812103081E+03  0.28343559223E+03  0.00000000000E+00 0.  1.
</event>
<event>
 8    1  0.6615242E-009  0.1075316E+03  0.7561462E-02  0.1265211E+00
         -2   -1    0    0    0  501 -0.00000000000E+00  0.00000000000E+00  0.14431857274E+02  0.14431857274E+02  0.00000000000E+00 0.  1.
          2   -1    0    0  501    0  0.00000000000E+00 -0.00000000000E+00 -0.83639128351E+03  0.83639128351E+03  0.00000000000E+00 0. -1.
         25    2    1    2    0    0 -0.12337808983E+02 -0.11876566532E+02 -0.46752727046E+03  0.48428566161E+03  0.12513024834E+03 0.  0.
         23    2    1    2    0    0  0.12337808983E+02  0.11876566532E+02 -0.35443215577E+03  0.36653747917E+03  0.91838424596E+02 0.  0.
          5    1    3    3  502    0 -0.14749193819E+02  0.53722037654E+02 -0.28102724143E+03  0.28652640171E+03  0.41800000000E+01 0. -1.
         -5    1    3    3    0  502  0.24113848359E+01 -0.65598604186E+02 -0.18650002903E+03  0.19775925990E+03  0.41800000000E+01 0. -1.
        -11    1    4    4    0    0 -0.20048883795E+02 -0.32678480283E+02 -0.14617804228E+03  0.15112200653E+03  0.00000000000E+00 0.  1.
         11    1    4    4    0    0  0.32386692778E+02  0.44555046815E+02 -0.20825411349E+03  0.21541547264E+03  0.00000000000E+00 0. -1.
</event>
<event>
 8    1  0.6615242E-009  0.1321884E+03  0.7561462E-02  0.1224244E+00
          1   -1    0    0  501    0  0.00000000000E+00  0.00000000000E+00  0.64139895636E+03  0.64139895636E+03  0.00000000000E+00 0. -1.
         -1   -1    0    0    0  501 -0.00000000000E+00 -0.00000000000E+00 -0.41697664764E+02  0.41697664764E+02  0.00000000000E+00 0.  1.
         25    2    1    2    0    0 -0.75255024553E+02 -0.80069845469E+02  0.43190946235E+03  0.46289229707E+03  0.12509594774E+03 0.  0.
         23    2    1    2    0    0  0.75255024553E+02  0.80069845469E+02  0.16779182924E+03  0.22020432405E+03  0.90891955076E+02 0.  0.
          5    1    3    3  502    0 -0.31871163646E+02  0.21122018832E+02  0.22703829025E+03  0.23027324723E+03  0.41800000000E+01 0.  1.
         -5    1    3    3    0  502 -0.43383860907E+02 -0.10119186430E+03  0.20487117211E+03  0.23261904984E+03  0.41800000000E+01 0.  1.
        -11    1    4    4    0    0  0.32501365865E+02  0.10642491754E+02  0.61610934696E+00  0.34204985083E+02  0.00000000000E+00 0.  1.
         11    1    4    4    0    0  0.42753658688E+02  0.69427353716E+02  0.16717571989E+03  0.18599933897E+03  0.00000000000E+00 0. -1.
</event>
<event>
 8    1  0.6615242E-009  0.9273107E+02  0.7561462E-02  0.1296370E+00
          3   -1    0    0  501    0  0.00000000000E+00  0.00000000000E+00  0.41579912256E+03  0.41579912256E+03  0.00000000000E+00 0. -1.
         -3   -1    0    0    0  501 -0.00000000000E+00 -0.00000000000E+00 -0.29826009601E+02  0.29826009601E+02  0.00000000000E+00 0.  1.
         25    2    1    2    0    0 -0.69032742588E+01  0.15848272065E+02  0.26682767842E+03  0.29520119263E+03  0.12509161139E+03 0.  0.
         23    2    1    2    0    0  0.69032742588E+01 -0.15848272065E+02  0.11914543455E+03  0.15042393953E+03  0.90182615221E+02 0.  0.
          5    1    3    3  502    0  0.41033075460E+02 -0.47967830461E+01  0.22325147945E+03  0.22708020144E+03  0.41800000000E+01 0. -1.
         -5    1    3    3    0  502 -0.47936349719E+02  0.20645055112E+02  0.43576198968E+02  0.68120991195E+02  0.41800000000E+01 0. -1.
        -11    1    4    4    0    0  0.83321893380E+01  0.37397074113E+02  0.44472445251E+02  0.58700638139E+02  0.00000000000E+00 0.  1.
         11    1    4    4    0    0 -0.14289150791E+01 -0.53245346179E+02  0.74672989295E+02  0.91723301392E+02  0.00000000000E+00 0. -1.
</event>
<event>
 8    1  0.6615242E-009  0.1372866E+03  0.7561462E-02  0.1217027E+00
         -1   -1    0    0    0  501 -0.00000000000E+00  0.00000000000E+00  0.39171966829E+03  0.39171966829E+03  0.00000000000E+00 0.  1.
          1   -1    0    0  501    0  0.00000000000E+00 -0.00000000000E+00 -0.58623309085E+02  0.58623309085E+02  0.00000000000E+00 0. -1.
         25    2    1    2    0    0 -0.20077590545E+02 -0.10309521076E+03  0.18025880798E+03  0.24325535669E+03  0.12509275990E+03 0.  0.
         23    2    1    2    0    0  0.20077590545E+02  0.10309521076E+03  0.15283755122E+03  0.20708762068E+03  0.92164165772E+02 0.  0.
          5    1    3    3  502    0 -0.44972349063E+02 -0.99935300043E+02  0.70009923170E+02  0.13010933140E+03  0.41800000000E+01 0.  1.
         -5    1    3    3    0  502  0.24894758518E+02 -0.31599107174E+01  0.11024888481E+03  0.11314602529E+03  0.41800000000E+01 0.  1.
        -11    1    4    4    0    0 -0.96585747123E+01  0.10876511081E+03  0.11418336104E+03  0.15799043432E+03  0.00000000000E+00 0.  1.
         11    1    4    4    0    0  0.29736165257E+02 -0.56699000540E+01  0.38654190176E+02  0.49097186365E+02  0.00000000000E+00 0. -1.
</event>
<event>
 8    1  0.6615242E-009  0.7162928E+02  0.7561462E-02  0.1354639E+00
          2   -1    0    0  501    0  0.00000000000E+00  0.00000000000E+00  0.61269732743E+03  0.61269732743E+03  0.00000000000E+00 0. -1.
         -2   -1    0    0    0  501 -0.00000000000E+00 -0.00000000000E+00 -0.18830466126E+02  0.18830466126E+02  0.00000000000E+00 0.  1.
         25    2    1    2    0    0  0.95202014447E+01 -0.75806771804E+01  0.34391251199E+03  0.36615833501E+03  0.12509200412E+03 0.  0.
         23    2    1    2    0    0 -0.95202014447E+01  0.75806771804E+01  0.24995434931E+03  0.26536945854E+03  0.88293102135E+02 0.  0.
          5    1    3    3  502    0  0.12052772957E+01  0.32346386997E+02  0.17216842184E+02  0.36900318426E+02  0.41800000000E+01 0.  1.
         -5    1    3    3    0  502  0.83149241491E+01 -0.39927064177E+02  0.32669566981E+03  0.32925801659E+03  0.41800000000E+01 0.  1.
        -11    1    4    4    0    0 -0.25671996586E+02 -0.23367333516E+02  0.41925570743E+02  0.54431949869E+02  0.00000000000E+00 0.  1.
         11    1    4    4    0    0  0.16151795142E+02  0.30948010696E+02  0.20802877857E+03  0.21093750867E+03  0.00000000000E+00 0. -1.
</event>
<event>
 8    1  0.6615242E-009  0.1705447E+03  0.7561462E-02  0.1177281E+00
         -4   -1    0    0    0  501 -0.00000000000E+00  0.00000000000E+00  0.13395548436E+03  0.13395548436E+03  0.00000000000E+00 0.  1.
          4   -1    0    0  501    0  0.00000000000E+00 -0.00000000000E+00 -0.27667209923E+03  0.27667209923E+03  0.00000000000E+00 0. -1.
         25    2    1    2    0    0 -0.40287104315E+01 -0.14405442349E+03 -0.36581655793E+01  0.19086453859E+03  0.12509189615E+03 0.  0.
         23    2    1    2    0    0  0.40287104315E+01  0.14405442349E+03 -0.13905844929E+03  0.21976304499E+03  0.90502133623E+02 0.  0.
          5    1    3    3  502    0 -0.14972389388E+02  0.17438985918E+02 -0.16250737666E+02  0.28457855656E+02  0.41800000000E+01 0. -1.
         -5    1    3    3    0  502  0.10943678957E+02 -0.16149340941E+03  0.12592572087E+02  0.16240668294E+03  0.41800000000E+01 0. -1.
        -11    1    4    4    0    0 -0.27186313094E+02  0.53216822174E+02 -0.99117248130E+02  0.11573830247E+03  0.00000000000E+00 0. -1.
         11    1    4    4    0    0  0.31215023525E+02  0.90837601315E+02 -0.39941201160E+02  0.10402474252E+03  0.00000000000E+00 0.  1.
</event>
<event>
 8    1  0.6615242E-009  0.1006773E+03  0.7561462E-02  0.1278878E+00
         -1   -1    0    0    0  501 -0.00000000000E+00  0.00000000000E+00  0.19799456684E+03  0.19799456684E+03  0.00000000000E+00 0.  1.
          1   -1    0    0  501    0  0.00000000000E+00 -0.00000000000E+00 -0.74651455776E+02  0.74651455776E+02  0.00000000000E+00 0. -1.
         25    2    1    2    0    0 -0.31639216784E+02 -0.30103984505E+02  0.31274193891E+02  0.13614128254E+03  0.12509629766E+03 0.  0.
         23    2    1    2    0    0  0.31639216784E+02  0.30103984505E+02  0.92068917172E+02  0.13650474007E+03  0.90827135984E+02 0.  0.
          5    1    3    3  502    0 -0.64021751129E+02 -0.67010594545E+01 -0.23116216390E+02  0.68523869386E+02  0.41800000000E+01 0.  1.
         -5    1    3    3    0  502  0.32382534346E+02 -0.23402925051E+02  0.54390410281E+02  0.67617413157E+02  0.41800000000E+01 0.  1.
        -11    1    4    4    0    0  0.35598655372E+02 -0.23674047767E+02  0.21975419316E+02  0.48069157015E+02  0.00000000000E+00 0. -1.
         11    1    4    4    0    0 -0.39594385884E+01  0.53778032272E+02  0.70093497856E+02  0.88435583057E+02  0.00000000000E+00 0.  1.
</event>
<event>
 8    1  0.6615242E-009  0.9710191E+02  0.7561462E-02  0.1286511E+00
         -1   -1    0    0    0  501 -0.00000000000E+00  0.00000000000E+00  0.15699435946E+03  0.15699435946E+03  0.00000000000E+00 0.  1.
          1   -1    0    0  501    0  0.00000000000E+00 -0.00000000000E+00 -0.81730190039E+02  0.81730190039E+02  0.00000000000E+00 0. -1.
         25    2    1    2    0    0  0.25757608630E+02  0.16992165858E+02  0.48481515671E+02  0.13765824118E+03  0.12508855224E+03 0.  0.
         23    2    1    2    0    0 -0.25757608630E+02 -0.16992165858E+02  0.26782653754E+02  0.10106630832E+03  0.92438628466E+02 0.  0.
          5    1    3    3  502    0  0.25354409382E+02 -0.50112446951E+02  0.41713154664E+02  0.70082544806E+02  0.41800000000E+01 0. -1.
         -5    1    3    3    0  502  0.40319924771E+00  0.67104612809E+02  0.67683610074E+01  0.67575696375E+02  0.41800000000E+01 0. -1.
        -11    1    4    4    0    0 -0.47080846862E+02 -0.14005149297E+02  0.49521758886E+02  0.69750662729E+02  0.00000000000E+00 0.  1.
         11    1    4    4    0    0  0.21323238232E+02 -0.29870165606E+01 -0.22739105132E+02  0.31315645592E+02  0.00000000000E+00 0. -1.
</event>
<event>
 8    1  0.6615242E-009  0.1612753E+03  0.7561462E-02  0.1187264E+00
         -1   -1    0    0    0  501 -0.00000000000E+00  0.00000000000E+00  0.49840559050E+02  0.49840559050E+02  0.00000000000E+00 0.  1.
          1   -1    0    0  501    0  0.00000000000E+00 -0.00000000000E+00 -0.58572364785E+03  0.58572364785E+03  0.00000000000E+00 0. -1.
         25    2    1    2    0    0  0.91828417976E+02 -0.77756949473E+02 -0.37673173930E+03  0.41480466068E+03  0.12512993882E+03 0.  0.
         23    2    1    2    0    0 -0.91828417976E+02  0.77756949473E+02 -0.15915134950E+03  0.22075954622E+03  0.94482927869E+02 0.  0.
          5    1    3    3  502    0 -0.24842517603E+02 -0.45294399985E+02 -0.12909083355E+03  0.13910661040E+03  0.41800000000E+01 0. -1.
         -5    1    3    3    0  502  0.11667093558E+03 -0.32462549488E+02 -0.24764090575E+03  0.27569805029E+03  0.41800000000E+01 0. -1.
        -11    1    4    4    0    0 -0.69634762735E+02  0.99586902909E+00 -0.51127741342E+02  0.86394663441E+02  0.00000000000E+00 0.  1.
         11    1    4    4    0    0 -0.22193655241E+02  0.76761080444E+02 -0.10802360816E+03  0.13436488278E+03  0.00000000000E+00 0. -1.
</event>
<event>
 8    1  0.6615242E-009  0.3183996E+03  0.7561462E-02  0.1076388E+00
          2   -1    0    0  501    0  0.00000000000E+00  0.00000000000E+00  0.93871384544E+03  0.93871384544E+03  0.00000000000E+00 0. -1.
         -2   -1    0    0    0  501 -0.00000000000E+00 -0.00000000000E+00 -0.13132009623E+03  0.13132009623E+03  0.00000000000E+00 0.  1.
         25    2    1    2    0    0  0.20811776589E+03 -0.23106899564E+03  0.22611105861E+03  0.40432679192E+03  0.12509220043E+03 0.  0.
         23    2    1    2    0    0 -0.20811776589E+03  0.23106899564E+03  0.58128269060E+03  0.66570714976E+03  0.92577306222E+02 0.  0.
          5    1    3    3  502    0  0.11990588302E+02  0.31347341811E+01 -0.11404643483E+02  0.17353358730E+02  0.41800000000E+01 0. -1.
         -5    1    3    3    0  502  0.19612717759E+03 -0.23420372982E+03  0.23751570209E+03  0.38697343319E+03  0.41800000000E+01 0. -1.
        -11    1    4    4    0    0 -0.90199520053E+02  0.15028694014E+03  0.25435654964E+03  0.30890026245E+03  0.00000000000E+00 0.  1.
         11    1    4    4    0    0 -0.11791824584E+03  0.80782055496E+02  0.32692614096E+03  0.35680688731E+03  0.00000000000E+00 0. -1.
</event>
<event>
 8    1  0.6615242E-009  0.9869139E+02  0.7561462E-02  0.1283072E+00
         -2   -1    0    0    0  501 -0.00000000000E+00  0.00000000000E+00  0.25303796431E+02  0.25303796431E+02  0.00000000000E+00 0.  1.
          2   -1    0    0  501    0  0.00000000000E+00 -0.00000000000E+00 -0.59859645312E+03  0.59859645312E+03  0.00000000000E+00 0. -1.
         25    2    1    2    0    0  0.24249116469E+02  0.21320928171E+02 -0.43865552466E+03  0.45728374908E+03  0.12508859352E+03 0.  0.
         23    2    1    2    0    0 -0.24249116469E+02 -0.21320928171E+02 -0.13463713203E+03  0.16661650047E+03  0.92689261950E+02 0.  0.
          5    1    3    3  502    0 -0.65030139572E+01 -0.40475799536E+02 -0.29484880382E+03  0.29771440854E+03  0.41800000000E+01 0. -1.
         -5    1    3    3    0  502  0.30752130426E+02  0.61796727706E+02 -0.14380672084E+03  0.15956934054E+03  0.41800000000E+01 0. -1.
        -11    1    4    4    0    0 -0.39550278323E+02  0.19014150560E+02 -0.29241002610E+02  0.52733278587E+02  0.00000000000E+00 0.  1.
         11    1    4    4    0    0  0.15301161854E+02 -0.40335078730E+02 -0.10539612942E+03  0.11388322188E+03  0.00000000000E+00 0. -1.
</event>
<event>
 8    1  0.6615242E-009  0.1051398E+03  0.7561462E-02  0.1269844E+00
          2   -1    0    0  501    0  0.00000000000E+00  0.00000000000E+00  0.37280729298E+03  0.37280729298E+03  0.00000000000E+00 0. -1.
         -2   -1    0    0    0  501 -0.00000000000E+00 -0.00000000000E+00 -0.47828831330E+02  0.47828831330E+02  0.00000000000E+00 0.  1.
         25    2    1    2    0    0  0.76803941286E+02 -0.70160200286E+01  0.19267418233E+03  0.24231882266E+03  0.12508797442E+03 0.  0.
         23    2    1    2    0    0 -0.76803941286E+02  0.70160200286E+01  0.13230427932E+03  0.17831730165E+03  0.91348605943E+02 0.  0.
          5    1    3    3  502    0  0.90566732433E+02 -0.33256712720E+00  0.60044120597E+02  0.10874379266E+03  0.41800000000E+01 0. -1.
         -5    1    3    3    0  502 -0.13762791147E+02 -0.66834529014E+01  0.13263006174E+03  0.13357503000E+03  0.41800000000E+01 0. -1.
        -11    1    4    4    0    0 -0.38654650445E+02  0.38302575380E+02  0.24338164558E+02  0.59612209620E+02  0.00000000000E+00 0.  1.
         11    1    4    4    0    0 -0.38149290841E+02 -0.31286555352E+02  0.10796611476E+03  0.11870509203E+03  0.00000000000E+00 0. -1.
</event>
<event>
 8    1  0.6615242E-009  0.1129902E+03  0.7561462E-02  0.1255131E+00
         -2   -1    0    0    0  501 -0.00000000000E+00  0.00000000000E+00  0.29798617182E+02  0.29798617182E+02  0.00000000000E+00 0.  1.
          2   -1    0    0  501    0  0.00000000000E+00 -0.00000000000E+00 -0.52922507422E+03  0.52922507422E+03  0.00000000000E+00 0. -1.
         25    2    1    2    0    0 -0.10751743498E+02  0.60743347528E+02 -0.31477389408E+03  0.34429019597E+03  0.12509108836E+03 0.  0.
         23    2    1    2    0    0  0.10751743498E+02 -0.60743347528E+02 -0.18465256296E+03  0.21473349544E+03  0.90601052964E+02 0.  0.
          5    1    3    3  502    0  0.45479207513E+02  0.67751385723E+02 -0.16557215746E+03  0.18463537123E+03  0.41800000000E+01 0.  1.
         -5    1    3    3    0  502 -0.56230951011E+02 -0.70080381946E+01 -0.14920173662E+03  0.15965482474E+03  0.41800000000E+01 0.  1.
        -11    1    4    4    0    0  0.11993616744E+02  0.10655667730E+02  0.74313353423E+00  0.16060583577E+02  0.00000000000E+00 0.  1.
         11    1    4    4    0    0 -0.12418732466E+01 -0.71399015258E+02 -0.18539569649E+03  0.19867291186E+03  0.00000000000E+00 0. -1.
</event>
<event>
 8    1  0.6615242E-009  0.1055186E+03  0.7561462E-02  0.1269101E+00
          1   -1    0    0  501    0  0.00000000000E+00  0.00000000000E+00  0.87766175761E+02  0.87766175761E+02  0.00000000000E+00 0. -1.
         -1   -1    0    0    0  501 -0.00000000000E+00 -0.00000000000E+00 -0.18639677409E+03  0.18639677409E+03  0.00000000000E+00 0.  1.
         25    2    1    2    0    0  0.67505189057E+02  0.69171371823E+01 -0.57649733442E+02  0.15354393842E+03  0.12508977545E+03 0.  0.
         23    2    1    2    0    0 -0.67505189057E+02 -0.69171371823E+01 -0.40980864891E+02  0.12061901144E+03  0.90910490577E+02 0.  0.
          5    1    3    3  502    0  0.98142938880E+02  0.11578705020E+02 -0.68642891859E+02  0.12039693462E+03  0.41800000000E+01 0.  1.
         -5    1    3    3    0  502 -0.30637749823E+02 -0.46615678379E+01  0.10993158417E+02  0.33147003800E+02  0.41800000000E+01 0.  1.
        -11    1    4    4    0    0 -0.44749737832E+02 -0.25473265899E+02  0.18151766782E+02  0.54597737580E+02  0.00000000000E+00 0. -1.
         11    1    4    4    0    0 -0.22755451225E+02  0.18556128717E+02 -0.59132631673E+02  0.66021273859E+02  0.00000000000E+00 0.  1.
</event>
<event>
 8    1  0.6615242E-009  0.1695243E+03  0.7561462E-02  0.1178345E+00
         -2   -1    0    0    0  501 -0.00000000000E+00  0.00000000000E+00  0.38182541600E+02  0.38182541600E+02  0.00000000000E+00 0. -1.
          2   -1    0    0  501    0  0.00000000000E+00 -0.00000000000E+00 -0.83562989787E+03  0.83562989787E+03  0.00000000000E+00 0.  1.
         25    2    1    2    0    0 -0.13047042122E+03  0.38463639504E+02 -0.51418687607E+03  0.54638563374E+03  0.12508850810E+03 0.  0.
         23    2    1    2    0    0  0.13047042122E+03 -0.38463639504E+02 -0.28326048020E+03  0.32742680573E+03  0.92031685263E+02 0.  0.
          5    1    3    3  502    0 -0.86018380258E+02  0.83805555490E+02 -0.30838253890E+03  0.33096796759E+03  0.41800000000E+01 0. -1.
         -5    1    3    3    0  502 -0.44452040957E+02 -0.45341915985E+02 -0.20580433717E+03  0.21541766615E+03  0.41800000000E+01 0. -1.
        -11    1    4    4    0    0 -0.99351784447E+01 -0.37047292326E+01 -0.15015106880E+01  0.10709216767E+02  0.00000000000E+00 0. -1.
         11    1    4    4    0    0  0.14040559966E+03 -0.34758910272E+02 -0.28175896951E+03  0.31671758896E+03  0.00000000000E+00 0.  1.
</event>
<event>
 8    1  0.6615242E-009  0.1293013E+03  0.7561462E-02  0.1228496E+00
         -2   -1    0    0    0  501 -0.00000000000E+00  0.00000000000E+00  0.31031450274E+02  0.31031450274E+02  0.00000000000E+00 0. -1.
          2   -1    0    0  501    0  0.00000000000E+00 -0.00000000000E+00 -0.92255010310E+03  0.92255010310E+03  0.00000000000E+00 0.  1.
         25    2    1    2    0    0  0.64389934950E+01 -0.12645726472E+03 -0.54594715650E+03  0.57422815787E+03  0.12508708634E+03 0.  0.
         23    2    1    2    0    0 -0.64389934950E+01  0.12645726472E+03 -0.34557149632E+03  0.37935339550E+03  0.91958899333E+02 0.  0.
          5    1    3    3  502    0 -0.77328452506E+01 -0.45734822450E+02 -0.42808530031E+03  0.43061115594E+03  0.41800000000E+01 0. -1.
         -5    1    3    3    0  502  0.14171838746E+02 -0.80722442270E+02 -0.11786185619E+03  0.14361700193E+03  0.41800000000E+01 0. -1.
        -11    1    4    4    0    0 -0.16587634014E+02  0.10411201425E+03 -0.33739939733E+03  0.35348665382E+03  0.00000000000E+00 0.  1.
         11    1    4    4    0    0  0.10148640519E+02  0.22345250468E+02 -0.81720989953E+01  0.25866741674E+02  0.00000000000E+00 0. -1.
</event>
<event>
 8    1  0.6615242E-009  0.1034282E+03  0.7561462E-02  0.1273248E+00
          2   -1    0    0  501    0  0.00000000000E+00  0.00000000000E+00  0.26380835185E+02  0.26380835185E+02  0.00000000000E+00 0. -1.
         -2   -1    0    0    0  501 -0.00000000000E+00 -0.00000000000E+00 -0.16821563580E+04  0.16821563580E+04  0.00000000000E+00 0.  1.
         25    2    1    2    0    0  0.12941420196E+02  0.19570082507E+02 -0.15823844942E+04  0.15874936717E+04  0.12507998173E+03 0.  0.
         23    2    1    2    0    0 -0.12941420196E+02 -0.19570082507E+02 -0.73391028592E+02  0.12104352143E+03  0.93353213740E+02 0.  0.
          5    1    3    3  502    0  0.68759606177E+02  0.33010548633E+01 -0.85055751927E+03  0.85334890074E+03  0.41800000000E+01 0. -1.
         -5    1    3    3    0  502 -0.55818185981E+02  0.16269027643E+02 -0.73182697492E+03  0.73414477098E+03  0.41800000000E+01 0. -1.
        -11    1    4    4    0    0  0.19143211143E+01 -0.47726485647E+02 -0.75277443275E+02  0.89152540758E+02  0.00000000000E+00 0.  1.
         11    1    4    4    0    0 -0.14855741310E+02  0.28156403140E+02  0.18864146827E+01  0.31890980669E+02  0.00000000000E+00 0. -1.
</event>
<event>
 8    1  0.6615242E-009  0.9297196E+02  0.7561462E-02  0.1295810E+00
          4   -1    0    0  501    0  0.00000000000E+00  0.00000000000E+00  0.33481963199E+02  0.33481963199E+02  0.00000000000E+00 0. -1.
         -4   -1    0    0    0  501 -0.00000000000E+00 -0.00000000000E+00 -0.43038810697E+03  0.43038810697E+03  0.00000000000E+00 0.  1.
         25    2    1    2    0    0 -0.13087597069E+01 -0.25620040549E+02 -0.12356953193E+03  0.17769472044E+03  0.12509150699E+03 0.  0.
         23    2    1    2    0    0  0.13087597069E+01  0.25620040549E+02 -0.27333661184E+03  0.28617534973E+03  0.80779502909E+02 0.  0.
          5    1    3    3  502    0  0.49271382506E+02  0.22794287065E+01 -0.10629804645E+03  0.11725873959E+03  0.41800000000E+01 0.  1.
         -5    1    3    3    0  502 -0.50580142213E+02 -0.27899469255E+02 -0.17271485473E+02  0.60435980851E+02  0.41800000000E+01 0.  1.
        -11    1    4    4    0    0 -0.28079389911E+02 -0.12213812694E+02 -0.16354586949E+03  0.16638774229E+03  0.00000000000E+00 0. -1.
         11    1    4    4    0    0  0.29388149618E+02  0.37833853243E+02 -0.10979074235E+03  0.11978760743E+03  0.00000000000E+00 0.  1.
</event>
<event>
 8    1  0.6615242E-009  0.2660853E+03  0.7561462E-02  0.1103541E+00
         -2   -1    0    0    0  501 -0.00000000000E+00  0.00000000000E+00  0.12263549818E+03  0.12263549818E+03  0.00000000000E+00 0.  1.
          2   -1    0    0  501    0  0.00000000000E+00 -0.00000000000E+00 -0.76154067930E+03  0.76154067930E+03  0.00000000000E+00 0. -1.
         25    2    1    2    0    0  0.64209111091E+02  0.24482811181E+03 -0.51614811352E+03  0.58832013999E+03  0.12509235688E+03 0.  0.
         23    2    1    2    0    0 -0.64209111091E+02 -0.24482811181E+03 -0.12275706759E+03  0.29585603749E+03  0.91639963981E+02 0.  0.
          5    1    3    3  502    0 -0.17439955591E+02  0.49933385760E+02 -0.37155405189E+02  0.64772614577E+02  0.41800000000E+01 0. -1.
         -5    1    3    3    0  502  0.81649066682E+02  0.19489472605E+03 -0.47899270833E+03  0.52354752541E+03  0.41800000000E+01 0. -1.
        -11    1    4    4    0    0 -0.76585526548E+02 -0.12019908553E+03 -0.80443661249E+02  0.16365923644E+03  0.00000000000E+00 0.  1.
         11    1    4    4    0    0  0.12376415456E+02 -0.12462902628E+03 -0.42313406346E+02  0.13219680105E+03  0.00000000000E+00 0. -1.
</event>
<event>
 8    1  0.6615242E-009  0.1278160E+03  0.7561462E-02  0.1230733E+00
         -1   -1    0    0    0  501 -0.00000000000E+00  0.00000000000E+00  0.43088266345E+02  0.43088266345E+02  0.00000000000E+00 0.  1.
          1   -1    0    0  501    0  0.00000000000E+00 -0.00000000000E+00 -0.57725705972E+03  0.57725705972E+03  0.00000000000E+00 0. -1.
         25    2    1    2    0    0  0.12332835066E+02 -0.61751420481E+02 -0.44065458254E+03  0.46237251113E+03  0.12508613505E+03 0.  0.
         23    2    1    2    0    0 -0.12332835066E+02  0.61751420481E+02 -0.93514210826E+02  0.15797281493E+03  0.11065787761E+03 0.  0.
          5    1    3    3  502    0 -0.44393070243E+02  0.58401058089E+01 -0.22271189404E+03  0.22720675973E+03  0.41800000000E+01 0.  1.
         -5    1    3    3    0  502  0.56725905308E+02 -0.67591526290E+02 -0.21794268851E+03  0.23516575140E+03  0.41800000000E+01 0.  1.
        -11    1    4    4    0    0 -0.18707011870E+02 -0.27271604826E+02 -0.72697561131E+01  0.33860627236E+02  0.00000000000E+00 0.  1.
         11    1    4    4    0    0  0.63741768045E+01  0.89023025307E+02 -0.86244454713E+02  0.12411218769E+03  0.00000000000E+00 0. -1.
</event>
<event>
 8    1  0.6615242E-009  0.1082978E+03  0.7561462E-02  0.1263755E+00
          3   -1    0    0  501    0  0.00000000000E+00  0.00000000000E+00  0.15243678803E+02  0.15243678803E+02  0.00000000000E+00 0. -1.
         -3   -1    0    0    0  501 -0.00000000000E+00 -0.00000000000E+00 -0.12553066824E+04  0.12553066824E+04  0.00000000000E+00 0.  1.
         25    2    1    2    0    0 -0.54415328724E+02  0.28350787930E+02 -0.94950048860E+03  0.95966857697E+03  0.12509118514E+03 0.  0.
         23    2    1    2    0    0  0.54415328724E+02 -0.28350787930E+02 -0.29056251499E+03  0.31088178422E+03  0.91957128430E+02 0.  0.
          5    1    3    3  502    0 -0.19684407723E+02  0.66300264428E+02 -0.76357822124E+03  0.76671531439E+03  0.41800000000E+01 0.  1.
         -5    1    3    3    0  502 -0.34730921001E+02 -0.37949476498E+02 -0.18592226737E+03  0.19295326259E+03  0.41800000000E+01 0.  1.
        -11    1    4    4    0    0  0.32338396552E+02 -0.53323914490E+02 -0.25339821703E+03  0.26095951437E+03  0.00000000000E+00 0.  1.
         11    1    4    4    0    0  0.22076932171E+02  0.24973126560E+02 -0.37164297961E+02  0.49922269852E+02  0.00000000000E+00 0. -1.
</event>
<event>
 8    1  0.6615242E-009  0.1383710E+03  0.7561462E-02  0.1215538E+00
         -1   -1    0    0    0  501 -0.00000000000E+00  0.00000000000E+00  0.19460389640E+02  0.19460389640E+02  0.00000000000E+00 0.  1.
          1   -1    0    0  501    0  0.00000000000E+00 -0.00000000000E+00 -0.14086686463E+04  0.14086686463E+04  0.00000000000E+00 0. -1.
         25    2    1    2    0    0  0.97298852927E+02  0.55175397023E+02 -0.98216781703E+03  0.99639902803E+03  0.12508401585E+03 0.  0.
         23    2    1    2    0    0 -0.97298852927E+02 -0.55175397023E+02 -0.40704043966E+03  0.43173000795E+03  0.90539985778E+02 0.  0.
          5    1    3    3  502    0  0.12557146700E+03  0.38714179903E+02 -0.69337171236E+03  0.70572571510E+03  0.41800000000E+01 0.  1.
         -5    1    3    3    0  502 -0.28272614068E+02  0.16461217120E+02 -0.28879610467E+03  0.29067331293E+03  0.41800000000E+01 0.  1.
        -11    1    4    4    0    0 -0.38558021641E+02 -0.27474698667E+02 -0.50109310044E+02  0.68938545479E+02  0.00000000000E+00 0.  1.
         11    1    4    4    0    0 -0.58740831286E+02 -0.27700698356E+02 -0.35693112962E+03  0.36279146247E+03  0.00000000000E+00 0. -1.
</event>
<event>
 8    1  0.6615242E-009  0.1135029E+03  0.7561462E-02  0.1254217E+00
          1   -1    0    0  501    0  0.00000000000E+00  0.00000000000E+00  0.43098261408E+02  0.43098261408E+02  0.00000000000E+00 0. -1.
         -1   -1    0    0    0  501 -0.00000000000E+00 -0.00000000000E+00 -0.33208116391E+03  0.33208116391E+03  0.00000000000E+00 0.  1.
         25    2    1    2    0    0 -0.32535109438E+02  0.24501202728E+02 -0.21231962622E+03  0.24977265693E+03  0.12509162317E+03 0.  0.
         23    2    1    2    0    0  0.32535109438E+02 -0.24501202728E+02 -0.76663276278E+02  0.12540676839E+03  0.90502802976E+02 0.  0.
          5    1    3    3  502    0  0.12499080530E+00  0.72255824892E+02 -0.10111472919E+03  0.12434862569E+03  0.41800000000E+01 0.  1.
         -5    1    3    3    0  502 -0.32660100243E+02 -0.47754622164E+02 -0.11120489703E+03  0.12542403123E+03  0.41800000000E+01 0.  1.
        -11    1    4    4    0    0 -0.26317124174E+02  0.10289160592E+02 -0.36345494877E+02  0.46037515662E+02  0.00000000000E+00 0. -1.
         11    1    4    4    0    0  0.58852233612E+02 -0.34790363321E+02 -0.40317781401E+02  0.79369252726E+02  0.00000000000E+00 0.  1.
</event>
<event>
 8    1  0.6615242E-009  0.1059522E+03  0.7561462E-02  0.1268255E+00
          2   -1    0    0  501    0  0.00000000000E+00  0.00000000000E+00  0.12424325907E+04  0.12424325907E+04  0.00000000000E+00 0. -1.
         -2   -1    0    0    0  501 -0.00000000000E+00 -0.00000000000E+00 -0.12502259979E+02  0.12502259979E+02  0.00000000000E+00 0.  1.
         25    2    1    2    0    0 -0.62999702102E+01  0.49380024793E+02  0.83709066309E+03  0.84784876516E+03  0.12509465970E+03 0.  0.
         23    2    1    2    0    0  0.62999702102E+01 -0.49380024793E+02  0.39283966768E+03  0.40708608556E+03  0.94435163382E+02 0.  0.
          5    1    3    3  502    0  0.34543565324E+02 -0.16176368238E+02  0.52176903616E+03  0.52317810762E+03  0.41800000000E+01 0.  1.
         -5    1    3    3    0  502 -0.40843535534E+02  0.65556393031E+02  0.31532162693E+03  0.32467065755E+03  0.41800000000E+01 0.  1.
        -11    1    4    4    0    0 -0.32494148362E+02  0.11037254783E+01  0.60303941000E+02  0.68510241481E+02  0.00000000000E+00 0.  1.
         11    1    4    4    0    0  0.38794118572E+02 -0.50483750271E+02  0.33253572668E+03  0.33857584408E+03  0.00000000000E+00 0. -1.
</event>
<event>
 8    1  0.6615242E-009  0.1071249E+03  0.7561462E-02  0.1265989E+00
         -2   -1    0    0    0  501 -0.00000000000E+00  0.00000000000E+00  0.76494095853E+02  0.76494095853E+02  0.00000000000E+00 0.  1.
          2   -1    0    0  501    0  0.00000000000E+00 -0.00000000000E+00 -0.19653927535E+03  0.19653927535E+03  0.00000000000E+00 0. -1.
         25    2    1    2    0    0  0.95682136996E+01  0.41077726258E+02 -0.67975847370E+02  0.14848199985E+03  0.12508900089E+03 0.  0.
         23    2    1    2    0    0 -0.95682136996E+01 -0.41077726258E+02 -0.52069332129E+02  0.12455137136E+03  0.10498999215E+03 0.  0.
          5    1    3    3  502    0  0.16277234486E+02  0.76515637973E+02 -0.85001203274E+01  0.78799211053E+02  0.41800000000E+01 0. -1.
         -5    1    3    3    0  502 -0.67090207864E+01 -0.35437911716E+02 -0.59475727043E+02  0.69682788793E+02  0.41800000000E+01 0. -1.
        -11    1    4    4    0    0 -0.40645923957E+02 -0.52584457712E+02 -0.61018694311E+02  0.90224704946E+02  0.00000000000E+00 0. -1.
         11    1    4    4    0    0  0.31077710258E+02  0.11506731455E+02  0.89493621813E+01  0.34326666414E+02  0.00000000000E+00 0.  1.
</event>
<event>
 8    1  0.6615242E-009  0.1611118E+03  0.7561462E-02  0.1187447E+00
         -3   -1    0    0    0  501 -0.00000000000E+00  0.00000000000E+00  0.24473252643E+03  0.24473252643E+03  0.00000000000E+00 0.  1.
          3   -1    0    0  501    0  0.00000000000E+00 -0.00000000000E+00 -0.12756739155E+03  0.12756739155E+03  0.00000000000E+00 0. -1.
         25    2    1    2    0    0  0.11245391072E+03  0.50664215367E+02 -0.58075102900E+01  0.17576204150E+03  0.12508326547E+03 0.  0.
         23    2    1    2    0    0 -0.11245391072E+03 -0.50664215367E+02  0.12297264517E+03  0.19653787648E+03  0.91061082117E+02 0.  0.
          5    1    3    3  502    0  0.10817117623E+03 -0.14748811902E+02  0.41210311206E+01  0.10932971288E+03  0.41800000000E+01 0.  1.
         -5    1    3    3    0  502  0.42827344855E+01  0.65413027269E+02 -0.99285414107E+01  0.66432328619E+02  0.41800000000E+01 0.  1.
        -11    1    4    4    0    0 -0.22899517806E+02 -0.52962992833E+02  0.75889654771E+02  0.95334706308E+02  0.00000000000E+00 0.  1.
         11    1    4    4    0    0 -0.89554392913E+02  0.22987774653E+01  0.47082990396E+02  0.10120317017E+03  0.00000000000E+00 0. -1.
</event>
<event>
 8    1  0.6615242E-009  0.1496143E+03  0.7561462E-02  0.1200948E+00
         -1   -1    0    0    0  501 -0.00000000000E+00  0.00000000000E+00  0.13847252189E+03  0.13847252189E+03  0.00000000000E+00 0.  1.
          1   -1    0    0  501    0  0.00000000000E+00 -0.00000000000E+00 -0.26281727069E+03  0.26281727069E+03  0.00000000000E+00 0. -1.
         25    2    1    2    0    0 -0.77647947091E+02 -0.12257074865E+03 -0.38794996188E+01  0.19161505642E+03  0.12509391358E+03 0.  0.
         23    2    1    2    0    0  0.77647947091E+02  0.12257074865E+03 -0.12046524918E+03  0.20967473616E+03  0.91645112312E+02 0.  0.
          5    1    3    3  502    0 -0.10510000228E+02 -0.40018484807E+02 -0.58625922595E+02  0.71877746426E+02  0.41800000000E+01 0.  1.
         -5    1    3    3    0  502 -0.67137946863E+02 -0.82552263846E+02  0.54746422976E+02  0.11973730999E+03  0.41800000000E+01 0.  1.
        -11    1    4    4    0    0  0.51299400729E+02  0.11118770190E+03 -0.47630740857E+02  0.13138881628E+03  0.00000000000E+00 0.  1.
         11    1    4    4    0    0  0.26348546363E+02  0.11383046754E+02 -0.72834508323E+02  0.78285919880E+02  0.00000000000E+00 0. -1.
</event>
<event>
 8    1  0.6615242E-009  0.1427786E+03  0.7561462E-02  0.1209638E+00
         -1   -1    0    0    0  501 -0.00000000000E+00  0.00000000000E+00  0.85920424044E+02  0.85920424044E+02  0.00000000000E+00 0.  1.
          1   -1    0    0  501    0  0.00000000000E+00 -0.00000000000E+00 -0.28950271591E+03  0.28950271591E+03  0.00000000000E+00 0. -1.
         25    2    1    2    0    0 -0.10650334442E+03  0.12277877355E+01 -0.15629408149E+03  0.22675907902E+03  0.12508944870E+03 0.  0.
         23    2    1    2    0    0  0.10650334442E+03 -0.12277877355E+01 -0.47288210384E+02  0.14866406094E+03  0.92305787125E+02 0.  0.
          5    1    3    3  502    0 -0.70880330942E+02 -0.59144295724E+02 -0.72667411537E+02  0.11755889643E+03  0.41800000000E+01 0. -1.
         -5    1    3    3    0  502 -0.35623013481E+02  0.60372083459E+02 -0.83626669950E+02  0.10920018259E+03  0.41800000000E+01 0. -1.
        -11    1    4    4    0    0  0.21017938884E+02  0.25791456436E+02  0.17933439214E+02  0.37796312281E+02  0.00000000000E+00 0.  1.
         11    1    4    4    0    0  0.85485405539E+02 -0.27019244171E+02 -0.65221649597E+02  0.11086774866E+03  0.00000000000E+00 0. -1.
</event>
<event>
 8    1  0.6615242E-009  0.8582618E+02  0.7561462E-02  0.1313286E+00
          1   -1    0    0  501    0  0.00000000000E+00  0.00000000000E+00  0.33641166661E+03  0.33641166661E+03  0.00000000000E+00 0. -1.
         -1   -1    0    0    0  501 -0.00000000000E+00 -0.00000000000E+00 -0.42492140092E+02  0.42492140092E+02  0.00000000000E+00 0.  1.
         25    2    1    2    0    0  0.27886789029E+02 -0.27575442047E+02  0.21930535494E+03  0.25550074628E+03  0.12509082555E+03 0.  0.
         23    2    1    2    0    0 -0.27886789029E+02  0.27575442047E+02  0.74614171575E+02  0.12340306042E+03  0.90127480351E+02 0.  0.
          5    1    3    3  502    0 -0.20030477770E+02  0.16744609339E+02 -0.21822543049E+00  0.26440915338E+02  0.41800000000E+01 0. -1.
         -5    1    3    3    0  502  0.47917266799E+02 -0.44320051386E+02  0.21952358037E+03  0.22905983094E+03  0.41800000000E+01 0. -1.
        -11    1    4    4    0    0  0.22337001285E+02 -0.35477088426E+00  0.60119103111E+02  0.64135591115E+02  0.00000000000E+00 0. -1.
         11    1    4    4    0    0 -0.50223790315E+02  0.27930212932E+02  0.14495068465E+02  0.59267469305E+02  0.00000000000E+00 0.  1.
</event>
<event>
 8    1  0.6615242E-009  0.1097161E+03  0.7561462E-02  0.1261096E+00
         -2   -1    0    0    0  501 -0.00000000000E+00  0.00000000000E+00  0.11384571953E+03  0.11384571953E+03  0.00000000000E+00 0.  1.
          2   -1    0    0  501    0  0.00000000000E+00 -0.00000000000E+00 -0.15657817033E+03  0.15657817033E+03  0.00000000000E+00 0. -1.
         25    2    1    2    0    0  0.21669718552E+02  0.24764493142E+02  0.47732690751E+02  0.13788238620E+03  0.12510110246E+03 0.  0.
         23    2    1    2    0    0 -0.21669718552E+02 -0.24764493142E+02 -0.90465141552E+02  0.13254150366E+03  0.91106813869E+02 0.  0.
          5    1    3    3  502    0 -0.34171018867E+02  0.51153321567E+02  0.34203934391E+01  0.61753480299E+02  0.41800000000E+01 0. -1.
         -5    1    3    3    0  502  0.55840737418E+02 -0.26388828425E+02  0.44312297312E+02  0.76128905904E+02  0.41800000000E+01 0. -1.
        -11    1    4    4    0    0 -0.49523340557E+02 -0.40414570364E+02 -0.68961656927E+02  0.94029829755E+02  0.00000000000E+00 0. -1.
         11    1    4    4    0    0  0.27853622005E+02  0.15650077222E+02 -0.21503484625E+02  0.38511673904E+02  0.00000000000E+00 0.  1.
</event>
<event>
 8    1  0.6615242E-009  0.1082541E+03  0.7561462E-02  0.1263838E+00
         -2   -1    0    0    0  501 -0.00000000000E+00  0.00000000000E+00  0.20516739961E+03  0.20516739961E+03  0.00000000000E+00 0.  1.
          2   -1    0    0  501    0  0.00000000000E+00 -0.00000000000E+00 -0.77314260774E+02  0.77314260774E+02  0.00000000000E+00 0. -1.
         25    2    1    2    0    0 -0.60661515051E+01  0.20481222331E+02  0.14079793969E+03  0.18954666770E+03  0.12509037035E+03 0.  0.
         23    2    1    2    0    0  0.60661515051E+01 -0.20481222331E+02 -0.12944800855E+02  0.92934992679E+02  0.89515732320E+02 0.  0.
          5    1    3    3  502    0  0.43192438246E+02  0.52171464461E+02  0.68741638748E+02  0.96593652604E+02  0.41800000000E+01 0. -1.
         -5    1    3    3    0  502 -0.49258589751E+02 -0.31690242130E+02  0.72056300942E+02  0.92953015099E+02  0.41800000000E+01 0. -1.
        -11    1    4    4    0    0 -0.13876493516E+02  0.31408714487E+02  0.45943705183E+01  0.34643508173E+02  0.00000000000E+00 0.  1.
         11    1    4    4    0    0  0.19942645021E+02 -0.51889936819E+02 -0.17539171373E+02  0.58291484506E+02  0.00000000000E+00 0. -1.
</event>
<event>
 8    1  0.6615242E-009  0.1478066E+03  0.7561462E-02  0.1203194E+00
          1   -1    0    0  501    0  0.00000000000E+00  0.00000000000E+00  0.33363093486E+03  0.33363093486E+03  0.00000000000E+00 0. -1.
         -1   -1    0    0    0  501 -0.00000000000E+00 -0.00000000000E+00 -0.84783678041E+02  0.84783678041E+02  0.00000000000E+00 0.  1.
         25    2    1    2    0    0 -0.11507097991E+03  0.32775908963E+02  0.18822042142E+03  0.25571401275E+03  0.12508852325E+03 0.  0.
         23    2    1    2    0    0  0.11507097991E+03 -0.32775908963E+02  0.60626835399E+02  0.16270060015E+03  0.92088443869E+02 0.  0.
          5    1    3    3  502    0 -0.10478513816E+03 -0.29432594460E+02  0.10569126292E+03  0.15177061064E+03  0.41800000000E+01 0. -1.
         -5    1    3    3    0  502 -0.10285841749E+02  0.62208503424E+02  0.82529158498E+02  0.10394340210E+03  0.41800000000E+01 0. -1.
        -11    1    4    4    0    0  0.59835001970E+02 -0.11374789102E+01 -0.17093753183E+02  0.62239197592E+02  0.00000000000E+00 0.  1.
         11    1    4    4    0    0  0.55235977941E+02 -0.31638430053E+02  0.77720588582E+02  0.10046140256E+03  0.00000000000E+00 0. -1.
</event>
<event>
 8    1  0.6615242E-009  0.9331070E+02  0.7561462E-02  0.1295027E+00
         -2   -1    0    0    0  501 -0.00000000000E+00  0.00000000000E+00  0.91275611994E+02  0.91275611994E+02  0.00000000000E+00 0.  1.
          2   -1    0    0  501    0  0.00000000000E+00 -0.00000000000E+00 -0.18095146055E+03  0.18095146055E+03  0.00000000000E+00 0. -1.
         25    2    1    2    0    0  0.75551938147E+01  0.63242172336E+02 -0.21529175683E+02  0.14201032559E+03  0.12508706509E+03 0.  0.
         23    2    1    2    0    0 -0.75551938147E+01 -0.63242172336E+02 -0.68146672869E+02  0.13021674695E+03  0.90861316560E+02 0.  0.
          5    1    3    3  502    0 -0.16613398497E+02  0.12007919579E+02 -0.66403317882E+02  0.69620888876E+02  0.41800000000E+01 0.  1.
         -5    1    3    3    0  502  0.24168592312E+02  0.51234252757E+02  0.44874142199E+02  0.72389436716E+02  0.41800000000E+01 0.  1.
        -11    1    4    4    0    0  0.20527112186E+02 -0.75512103694E+02 -0.37131943993E+02  0.86615364709E+02  0.00000000000E+00 0.  1.
         11    1    4    4    0    0 -0.28082306000E+02  0.12269931358E+02 -0.31014728875E+02  0.43601382238E+02  0.00000000000E+00 0. -1.
</event>
<event>
 8    1  0.6615242E-009  0.9546474E+02  0.7561462E-02  0.1290133E+00
          1   -1    0    0  501    0  0.00000000000E+00  0.00000000000E+00  0.65570238790E+03  0.65570238790E+03  0.00000000000E+00 0. -1.
         -1   -1    0    0    0  501 -0.00000000000E+00 -0.00000000000E+00 -0.13201745171E+03  0.13201745171E+03  0.00000000000E+00 0.  1.
         25    2    1    2    0    0  0.72742886977E+01 -0.31311597242E+02  0.62970081885E+03  0.64280902806E+03  0.12508794466E+03 0.  0.
         23    2    1    2    0    0 -0.72742886977E+01  0.31311597242E+02 -0.10601588266E+03  0.14491081155E+03  0.93415440532E+02 0.  0.
          5    1    3    3  502    0  0.63333266488E+02  0.22161568107E+00  0.26829579644E+03  0.27570139381E+03  0.41800000000E+01 0. -1.
         -5    1    3    3    0  502 -0.56058977790E+02 -0.31533212923E+02  0.36140502240E+03  0.36710763425E+03  0.41800000000E+01 0. -1.
        -11    1    4    4    0    0 -0.26516225091E+02  0.34485497609E+02 -0.11535737675E+03  0.12328699894E+03  0.00000000000E+00 0.  1.
         11    1    4    4    0    0  0.19241936393E+02 -0.31739003669E+01  0.93414940904E+01  0.21623812604E+02  0.00000000000E+00 0. -1.
</event>
<event>
 8    1  0.6615242E-009  0.1070381E+03  0.7561462E-02  0.1266155E+00
         -2   -1    0    0    0  501 -0.00000000000E+00  0.00000000000E+00  0.21559635865E+02  0.21559635865E+02  0.00000000000E+00 0.  1.
          2   -1    0    0  501    0  0.00000000000E+00 -0.00000000000E+00 -0.89812970030E+03  0.89812970030E+03  0.00000000000E+00 0. -1.
         25    2    1    2    0    0 -0.40618196346E+02  0.62816191035E+02 -0.64256891565E+03  0.65889167906E+03  0.12509085357E+03 0.  0.
         23    2    1    2    0    0  0.40618196346E+02 -0.62816191035E+02 -0.23400114878E+03  0.26079765710E+03  0.87539525855E+02 0.  0.
          5    1    3    3  502    0 -0.47426106556E+02  0.14141938153E+02 -0.79990927252E+02  0.94155461023E+02  0.41800000000E+01 0.  1.
         -5    1    3    3    0  502  0.68079102098E+01  0.48674252882E+02 -0.56257798840E+03  0.56473621804E+03  0.41800000000E+01 0.  1.
        -11    1    4    4    0    0  0.60446304239E+02 -0.71337809854E+02 -0.18669025643E+03  0.20879676879E+03  0.00000000000E+00 0.  1.
         11    1    4    4    0    0 -0.19828107894E+02  0.85216188185E+01 -0.47310892359E+02  0.52000888317E+02  0.00000000000E+00 0. -1.
</event>
<event>
 8    1  0.6615242E-009  0.8930408E+02  0.7561462E-02  0.1304546E+00
          2   -1    0    0  501    0  0.00000000000E+00  0.00000000000E+00  0.31073828666E+03  0.31073828666E+03  0.00000000000E+00 0.  1.
         -2   -1    0    0    0  501 -0.00000000000E+00 -0.00000000000E+00 -0.36805331092E+02  0.36805331092E+02  0.00000000000E+00 0. -1.
         25    2    1    2    0    0  0.12655393215E+02 -0.12605714887E+01  0.13528965594E+03  0.18469570930E+03  0.12508983177E+03 0.  0.
         23    2    1    2    0    0 -0.12655393215E+02  0.12605714887E+01  0.13864329963E+03  0.16284790845E+03  0.84473242734E+02 0.  0.
          5    1    3    3  502    0  0.20066421988E+02  0.52486759668E+02  0.24861936530E+02  0.61588225497E+02  0.41800000000E+01 0. -1.
         -5    1    3    3    0  502 -0.74110287727E+01 -0.53747331156E+02  0.11042771941E+03  0.12310748381E+03  0.41800000000E+01 0. -1.
        -11    1    4    4    0    0  0.14802091226E+02  0.26625907875E+02  0.11417957605E+03  0.11817367076E+03  0.00000000000E+00 0.  1.
         11    1    4    4    0    0 -0.27457484441E+02 -0.25365336386E+02  0.24463723577E+02  0.44674237689E+02  0.00000000000E+00 0. -1.
</event>
<event>
 8    1  0.6615242E-009  0.1102532E+03  0.7561462E-02  0.1260102E+00
          2   -1    0    0  501    0  0.00000000000E+00  0.00000000000E+00  0.15456158924E+03  0.15456158924E+03  0.00000000000E+00 0. -1.
         -2   -1    0    0    0  501 -0.00000000000E+00 -0.00000000000E+00 -0.95033488476E+02  0.95033488476E+02  0.00000000000E+00 0.  1.
         25    2    1    2    0    0  0.13696672623E+02  0.51340634307E+02  0.44780405547E+02  0.14309096795E+03  0.12508509430E+03 0.  0.
         23    2    1    2    0    0 -0.13696672623E+02 -0.51340634307E+02  0.14747695216E+02  0.10650410976E+03  0.91116251623E+02 0.  0.
          5    1    3    3  502    0  0.59900352267E+02  0.32904983849E-01 -0.11531074340E+01  0.60057100672E+02  0.41800000000E+01 0.  1.
         -5    1    3    3    0  502 -0.46203679644E+02  0.51307729323E+02  0.45933512981E+02  0.83033867281E+02  0.41800000000E+01 0.  1.
        -11    1    4    4    0    0  0.99524455291E+01  0.16597060614E+02 -0.18933157817E+02  0.27073567515E+02  0.00000000000E+00 0.  1.
         11    1    4    4    0    0 -0.23649118152E+02 -0.67937694921E+02  0.33680853033E+02  0.79430542247E+02  0.00000000000E+00 0. -1.
</event>
<event>
 8    1  0.6615242E-009  0.1064095E+03  0.7561462E-02  0.1267367E+00
         -1   -1    0    0    0  501 -0.00000000000E+00  0.00000000000E+00  0.78435107495E+02  0.78435107495E+02  0.00000000000E+00 0.  1.
          1   -1    0    0  501    0  0.00000000000E+00 -0.00000000000E+00 -0.23437371861E+03  0.23437371861E+03  0.00000000000E+00 0. -1.
         25    2    1    2    0    0  0.53469239015E+02  0.14801262361E+02 -0.15002322242E+03  0.20305861212E+03  0.12509114997E+03 0.  0.
         23    2    1    2    0    0 -0.53469239015E+02 -0.14801262361E+02 -0.59153886934E+01  0.10975021398E+03  0.94509686054E+02 0.  0.
          5    1    3    3  502    0 -0.24150974292E+02  0.53554852285E+01  0.83032269766E+01  0.26426629742E+02  0.41800000000E+01 0. -1.
         -5    1    3    3    0  502  0.77620213307E+02  0.94457771325E+01 -0.15832644939E+03  0.17663198237E+03  0.41800000000E+01 0. -1.
        -11    1    4    4    0    0  0.23056318728E+02 -0.22871736437E+02  0.98720893313E+00  0.32491302566E+02  0.00000000000E+00 0. -1.
         11    1    4    4    0    0 -0.76525557743E+02  0.80704740759E+01 -0.69025976265E+01  0.77258911419E+02  0.00000000000E+00 0.  1.
</event>
<event>
 8    1  0.6615242E-009  0.1115933E+03  0.7561462E-02  0.1257648E+00
          1   -1    0    0  501    0  0.00000000000E+00  0.00000000000E+00  0.10720635151E+04  0.10720635151E+04  0.00000000000E+00 0. -1.
         -1   -1    0    0    0  501 -0.00000000000E+00 -0.00000000000E+00 -0.14248585194E+02  0.14248585194E+02  0.00000000000E+00 0.  1.
         25    2    1    2    0    0 -0.15982118195E+02  0.50881317491E+02  0.70619937047E+03  0.71917288014E+03  0.12509094336E+03 0.  0.
         23    2    1    2    0    0  0.15982118195E+02 -0.50881317491E+02  0.35161555949E+03  0.36713922020E+03  0.91177676905E+02 0.  0.
          5    1    3    3  502    0 -0.58748933549E+02  0.45407313418E+02  0.24747669319E+03  0.25840945682E+03  0.41800000000E+01 0. -1.
         -5    1    3    3    0  502  0.42766815354E+02  0.54740040736E+01  0.45872267728E+03  0.46076342332E+03  0.41800000000E+01 0. -1.
        -11    1    4    4    0    0 -0.16851094854E+02  0.20733146619E+02  0.81329202369E+02  0.85605268088E+02  0.00000000000E+00 0. -1.
         11    1    4    4    0    0  0.32833213049E+02 -0.71614464110E+02  0.27028635712E+03  0.28153395212E+03  0.00000000000E+00 0.  1.
</event>
<event>
 8    1  0.6615242E-009  0.1211570E+03  0.7561462E-02  0.1241201E+00
         -1   -1    0    0    0  501 -0.00000000000E+00  0.00000000000E+00  0.24778065738E+03  0.24778065738E+03  0.00000000000E+00 0.  1.
          1   -1    0    0  501    0  0.00000000000E+00 -0.00000000000E+00 -0.66976641569E+02  0.66976641569E+02  0.00000000000E+00 0. -1.
         25    2    1    2    0    0 -0.66070141067E+02  0.15301275482E+02  0.11119699487E+03  0.18058761113E+03  0.12509085119E+03 0.  0.
         23    2    1    2    0    0  0.66070141067E+02 -0.15301275482E+02  0.69607020938E+02  0.13416968782E+03  0.92503919886E+02 0.  0.
          5    1    3    3  502    0  0.47067418310E+00 -0.45685726041E+02  0.14204032429E+02  0.48027430030E+02  0.41800000000E+01 0.  1.
         -5    1    3    3    0  502 -0.66540815250E+02  0.60987001522E+02  0.96992962442E+02  0.13256018110E+03  0.41800000000E+01 0.  1.
        -11    1    4    4    0    0  0.25179313501E+02 -0.47679326229E+02  0.97801479386E+01  0.54799336417E+02  0.00000000000E+00 0.  1.
         11    1    4    4    0    0  0.40890827566E+02  0.32378050747E+02  0.59826872999E+02  0.79370351405E+02  0.00000000000E+00 0. -1.
</event>
<event>
 8    1  0.6615242E-009  0.2423147E+03  0.7561462E-02  0.1118260E+00
         -2   -1    0    0    0  501 -0.00000000000E+00  0.00000000000E+00  0.41250817521E+02  0.41250817521E+02  0.00000000000E+00 0. -1.
          2   -1    0    0  501    0  0.00000000000E+00 -0.00000000000E+00 -0.16988592069E+04  0.16988592069E+04  0.00000000000E+00 0.  1.
         25    2    1    2    0    0 -0.11854023404E+03  0.20918490165E+03 -0.87513047891E+03  0.91613920479E+03  0.12509027649E+03 0.  0.
         23    2    1    2    0    0  0.11854023404E+03 -0.20918490165E+03 -0.78247791048E+03  0.82397081964E+03  0.94053820020E+02 0.  0.
          5    1    3    3  502    0 -0.15140358981E+02  0.38817154866E+02 -0.41304465952E+02  0.58817797387E+02  0.41800000000E+01 0.  1.
         -5    1    3    3    0  502 -0.10339987506E+03  0.17036774679E+03 -0.83382601296E+03  0.85732140741E+03  0.41800000000E+01 0.  1.
        -11    1    4    4    0    0  0.48399624648E+02 -0.12377321857E+03 -0.55999133196E+03  0.57554550226E+03  0.00000000000E+00 0.  1.
         11    1    4    4    0    0  0.70140609395E+02 -0.85411683084E+02 -0.22248657853E+03  0.24842531738E+03  0.00000000000E+00 0. -1.
</event>
<event>
 8    1  0.6615242E-009  0.9667728E+02  0.7561462E-02  0.1287443E+00
          1   -1    0    0  501    0  0.00000000000E+00  0.00000000000E+00  0.49243937580E+03  0.49243937580E+03  0.00000000000E+00 0. -1.
         -1   -1    0    0    0  501 -0.00000000000E+00 -0.00000000000E+00 -0.36357788609E+02  0.36357788609E+02  0.00000000000E+00 0.  1.
         25    2    1    2    0    0 -0.49385471192E+02 -0.44648155059E+02  0.33151471269E+03  0.36053056292E+03  0.12509156466E+03 0.  0.
         23    2    1    2    0    0  0.49385471192E+02  0.44648155059E+02  0.12456687450E+03  0.16826660149E+03  0.91456877491E+02 0.  0.
          5    1    3    3  502    0 -0.54021882813E+02  0.13452760623E+02  0.26989635548E+03  0.27560997024E+03  0.41800000000E+01 0. -1.
         -5    1    3    3    0  502  0.46364116209E+01 -0.58100915683E+02  0.61618357210E+02  0.84920592680E+02  0.41800000000E+01 0. -1.
        -11    1    4    4    0    0  0.27457623399E+02 -0.20158629849E+01 -0.57457907670E+01  0.28124702627E+02  0.00000000000E+00 0.  1.
         11    1    4    4    0    0  0.21927847792E+02  0.46664018044E+02  0.13031266527E+03  0.14014189887E+03  0.00000000000E+00 0. -1.
</event>
<event>
 8    1  0.6615242E-009  0.9298943E+02  0.7561462E-02  0.1295770E+00
         -3   -1    0    0    0  501 -0.00000000000E+00  0.00000000000E+00  0.13161363367E+03  0.13161363367E+03  0.00000000000E+00 0.  1.
          3   -1    0    0  501    0  0.00000000000E+00 -0.00000000000E+00 -0.15885193520E+03  0.15885193520E+03  0.00000000000E+00 0. -1.
         25    2    1    2    0    0 -0.23908686570E+01 -0.70991629081E+02  0.49657292760E+02  0.15218088720E+03  0.12509055940E+03 0.  0.
         23    2    1    2    0    0  0.23908686570E+01  0.70991629081E+02 -0.76895594293E+02  0.13828468167E+03  0.90355924604E+02 0.  0.
          5    1    3    3  502    0 -0.39958517072E+01 -0.21362357023E+02  0.87089097675E+02  0.89857111361E+02  0.41800000000E+01 0. -1.
         -5    1    3    3    0  502  0.16049830502E+01 -0.49629272058E+02 -0.37431804915E+02  0.62323775838E+02  0.41800000000E+01 0. -1.
        -11    1    4    4    0    0  0.45654592224E+02  0.41118370183E+02 -0.50079512980E+02  0.79265501814E+02  0.00000000000E+00 0. -1.
         11    1    4    4    0    0 -0.43263723567E+02  0.29873258898E+02 -0.26816081313E+02  0.59019179857E+02  0.00000000000E+00 0.  1.
</event>
<event>
 8    1  0.6615242E-009  0.2703133E+03  0.7561462E-02  0.1101100E+00
         -1   -1    0    0    0  501 -0.00000000000E+00  0.00000000000E+00  0.16076717346E+03  0.16076717346E+03  0.00000000000E+00 0.  1.
          1   -1    0    0  501    0  0.00000000000E+00 -0.00000000000E+00 -0.45580130866E+03  0.45580130866E+03  0.00000000000E+00 0. -1.
         25    2    1    2    0    0 -0.59620339964E+02 -0.24039366376E+03 -0.14135398788E+03  0.31140632418E+03  0.12509696373E+03 0.  0.
         23    2    1    2    0    0  0.59620339964E+02  0.24039366376E+03 -0.15368014732E+03  0.30516215794E+03  0.90347420782E+02 0.  0.
          5    1    3    3  502    0 -0.85268218962E+02 -0.86975643143E+02 -0.62304826957E+02  0.13687510923E+03  0.41800000000E+01 0. -1.
         -5    1    3    3    0  502  0.25647878998E+02 -0.15341802062E+03 -0.79049160926E+02  0.17453121495E+03  0.41800000000E+01 0. -1.
        -11    1    4    4    0    0 -0.11214815418E+02  0.13907264192E+03 -0.90744003419E+02  0.16643751372E+03  0.00000000000E+00 0.  1.
         11    1    4    4    0    0  0.70835155382E+02  0.10132102184E+03 -0.62936143906E+02  0.13872464422E+03  0.00000000000E+00 0. -1.
</event>
<event>
 8    1  0.6615242E-009  0.1257704E+03  0.7561462E-02  0.1233870E+00
          2   -1    0    0  501    0  0.00000000000E+00  0.00000000000E+00  0.66130436948E+02  0.66130436948E+02  0.00000000000E+00 0. -1.
         -2   -1    0    0    0  501 -0.00000000000E+00 -0.00000000000E+00 -0.58024911494E+03  0.58024911494E+03  0.00000000000E+00 0.  1.
         25    2    1    2    0    0 -0.34073097900E+02 -0.73888225544E+02 -0.37746985065E+02  0.15392866499E+03  0.12509497651E+03 0.  0.
         23    2    1    2    0    0  0.34073097900E+02  0.73888225544E+02 -0.47637169293E+03  0.49245088690E+03  0.94643754755E+02 0.  0.
          5    1    3    3  502    0 -0.72032014488E+02 -0.49516489449E+02  0.10036455468E+02  0.88083464265E+02  0.41800000000E+01 0.  1.
         -5    1    3    3    0  502  0.37958916588E+02 -0.24371736096E+02 -0.47783440533E+02  0.65845200721E+02  0.41800000000E+01 0.  1.
        -11    1    4    4    0    0  0.59404410436E+02  0.26611044690E+02 -0.18337239291E+03  0.19458280027E+03  0.00000000000E+00 0. -1.
         11    1    4    4    0    0 -0.25331312536E+02  0.47277180854E+02 -0.29299930002E+03  0.29786808664E+03  0.00000000000E+00 0.  1.
</event>
<event>
 8    1  0.6615242E-009  0.1503173E+03  0.7561462E-02  0.1200084E+00
          1   -1    0    0  501    0  0.00000000000E+00  0.00000000000E+00  0.99068865179E+03  0.99068865179E+03  0.00000000000E+00 0. -1.
         -1   -1    0    0    0  501 -0.00000000000E+00 -0.00000000000E+00 -0.30890503834E+02  0.30890503834E+02  0.00000000000E+00 0.  1.
         25    2    1    2    0    0  0.13717159587E+03  0.47288549978E+01  0.54943603185E+03  0.57997091261E+03  0.12509155685E+03 0.  0.
         23    2    1    2    0    0 -0.13717159587E+03 -0.47288549978E+01  0.41036211610E+03  0.44160824301E+03  0.88217714673E+02 0.  0.
          5    1    3    3  502    0  0.11947959771E+03  0.36602983753E+02  0.51389626150E+03  0.52888750475E+03  0.41800000000E+01 0. -1.
         -5    1    3    3    0  502  0.17691998154E+02 -0.31874128755E+02  0.35539770345E+02  0.51083407861E+02  0.41800000000E+01 0. -1.
        -11    1    4    4    0    0 -0.83659840136E+02 -0.13319085878E+02  0.35163218298E+03  0.36169263056E+03  0.00000000000E+00 0.  1.
         11    1    4    4    0    0 -0.53511755730E+02  0.85902308803E+01  0.58729933127E+02  0.79915612448E+02  0.00000000000E+00 0. -1.
</event>
<event>
 8    1  0.6615242E-009  0.1330452E+03  0.7561462E-02  0.1223006E+00
          2   -1    0    0  501    0  0.00000000000E+00  0.00000000000E+00  0.34204506409E+03  0.34204506409E+03  0.00000000000E+00 0. -1.
         -2   -1    0    0    0  501 -0.00000000000E+00 -0.00000000000E+00 -0.60646373307E+02  0.60646373307E+02  0.00000000000E+00 0.  1.
         25    2    1    2    0    0  0.78349027100E+02  0.53224618619E+02  0.14109953119E+03  0.21102166089E+03  0.12509849555E+03 0.  0.
         23    2    1    2    0    0 -0.78349027100E+02 -0.53224618619E+02  0.14029915959E+03  0.19166977651E+03  0.89900049886E+02 0.  0.
          5    1    3    3  502    0 -0.11500543277E+02  0.51777227349E+02  0.13482779451E+02  0.54885348768E+02  0.41800000000E+01 0. -1.
         -5    1    3    3    0  502  0.89849570377E+02  0.14473912699E+01  0.12761675174E+03  0.15613631212E+03  0.41800000000E+01 0. -1.
        -11    1    4    4    0    0 -0.94575853729E+02 -0.44980206044E+02  0.89680411150E+02  0.13787816066E+03  0.00000000000E+00 0.  1.
         11    1    4    4    0    0  0.16226826629E+02 -0.82444125755E+01  0.50618748440E+02  0.53791615841E+02  0.00000000000E+00 0. -1.
</event>
<event>
 8    1  0.6615242E-009  0.1096984E+03  0.7561462E-02  0.1261129E+00
         -1   -1    0    0    0  501 -0.00000000000E+00  0.00000000000E+00  0.80240072317E+02  0.80240072317E+02  0.00000000000E+00 0.  1.
          1   -1    0    0  501    0  0.00000000000E+00 -0.00000000000E+00 -0.21672093587E+03  0.21672093587E+03  0.00000000000E+00 0. -1.
         25    2    1    2    0    0 -0.37364493846E+02  0.61801166272E+02 -0.52704754033E+02  0.15375313683E+03  0.12508695549E+03 0.  0.
         23    2    1    2    0    0  0.37364493846E+02 -0.61801166272E+02 -0.83776109519E+02  0.14320787136E+03  0.90964654341E+02 0.  0.
          5    1    3    3  502    0  0.44286439734E+02  0.31243949438E+02 -0.58037642637E+01  0.54668356482E+02  0.41800000000E+01 0. -1.
         -5    1    3    3    0  502 -0.81650933580E+02  0.30557216834E+02 -0.46900989769E+02  0.99084780348E+02  0.41800000000E+01 0. -1.
        -11    1    4    4    0    0  0.14327557232E+02 -0.30487127461E+01 -0.78528031478E+02  0.79882571776E+02  0.00000000000E+00 0. -1.
         11    1    4    4    0    0  0.23036936614E+02 -0.58752453526E+02 -0.52480780406E+01  0.63325299581E+02  0.00000000000E+00 0.  1.
</event>
<event>
 8    1  0.6615242E-009  0.1186270E+03  0.7561462E-02  0.1245379E+00
         -2   -1    0    0    0  501 -0.00000000000E+00  0.00000000000E+00  0.27419898586E+02  0.27419898586E+02  0.00000000000E+00 0.  1.
          2   -1    0    0  501    0  0.00000000000E+00 -0.00000000000E+00 -0.82191000684E+03  0.82191000684E+03  0.00000000000E+00 0. -1.
         25    2    1    2    0    0 -0.56554441063E+01 -0.10342885820E+03 -0.40678852890E+03  0.43801166481E+03  0.12509116079E+03 0.  0.
         23    2    1    2    0    0  0.56554441063E+01  0.10342885820E+03 -0.38770157934E+03  0.41131824061E+03  0.90225648655E+02 0.  0.
          5    1    3    3  502    0 -0.59683957735E+01 -0.87089672944E+02 -0.10883334541E+03  0.13957937654E+03  0.41800000000E+01 0. -1.
         -5    1    3    3    0  502  0.31295166723E+00 -0.16339185255E+02 -0.29795518349E+03  0.29843228827E+03  0.41800000000E+01 0. -1.
        -11    1    4    4    0    0 -0.38776625890E+02  0.54659131920E+02 -0.24677441596E+03  0.25571245529E+03  0.00000000000E+00 0. -1.
         11    1    4    4    0    0  0.44432069996E+02  0.48769726279E+02 -0.14092716338E+03  0.15560578532E+03  0.00000000000E+00 0.  1.
</event>
<event>
 8    1  0.6615242E-009  0.9885598E+02  0.7561462E-02  0.1282720E+00
          1   -1    0    0  501    0  0.00000000000E+00  0.00000000000E+00  0.39498365260E+02  0.39498365260E+02  0.00000000000E+00 0. -1.
         -1   -1    0    0    0  501 -0.00000000000E+00 -0.00000000000E+00 -0.44186644119E+03  0.44186644119E+03  0.00000000000E+00 0.  1.
         25    2    1    2    0    0  0.31063671225E+02  0.67502998788E+02 -0.21966365481E+03  0.26347875812E+03  0.12508928101E+03 0.  0.
         23    2    1    2    0    0 -0.31063671225E+02 -0.67502998788E+02 -0.18270442112E+03  0.21788604832E+03  0.92584113338E+02 0.  0.
          5    1    3    3  502    0 -0.17425020513E+02  0.25236473061E+02  0.35405218269E+01  0.31153147630E+02  0.41800000000E+01 0. -1.
         -5    1    3    3    0  502  0.48488691738E+02  0.42266525727E+02 -0.22320417663E+03  0.23232561049E+03  0.41800000000E+01 0. -1.
        -11    1    4    4    0    0  0.10865928287E+02 -0.58389736031E+02 -0.47543557928E+02  0.76077720601E+02  0.00000000000E+00 0. -1.
         11    1    4    4    0    0 -0.41929599512E+02 -0.91132627570E+01 -0.13516086319E+03  0.14180832772E+03  0.00000000000E+00 0.  1.
</event>
<event>
 8    1  0.6615242E-009  0.2866085E+03  0.7561462E-02  0.1092133E+00
          3   -1    0    0  501    0  0.00000000000E+00  0.00000000000E+00  0.11597854853E+03  0.11597854853E+03  0.00000000000E+00 0. -1.
         -3   -1    0    0    0  501 -0.00000000000E+00 -0.00000000000E+00 -0.86882233154E+03  0.86882233154E+03  0.00000000000E+00 0.  1.
         25    2    1    2    0    0  0.25537343466E+03  0.11223147995E+03 -0.22212563477E+03  0.37788526665E+03  0.12508389545E+03 0.  0.
         23    2    1    2    0    0 -0.25537343466E+03 -0.11223147995E+03 -0.53071814824E+03  0.60691561343E+03  0.94198262831E+02 0.  0.
          5    1    3    3  502    0  0.21587043966E+03  0.12370798725E+03 -0.13896655209E+03  0.28501383796E+03  0.41800000000E+01 0. -1.
         -5    1    3    3    0  502  0.39502995009E+02 -0.11476507298E+02 -0.83159082682E+02  0.92871428690E+02  0.41800000000E+01 0. -1.
        -11    1    4    4    0    0 -0.74503380547E+02 -0.57337622930E+02 -0.10391698377E+03  0.14013242392E+03  0.00000000000E+00 0.  1.
         11    1    4    4    0    0 -0.18087005412E+03 -0.54893857023E+02 -0.42680116447E+03  0.46678318951E+03  0.00000000000E+00 0. -1.
</event>
<event>
 8    1  0.6615242E-009  0.2397739E+03  0.7561462E-02  0.1119944E+00
         -1   -1    0    0    0  501 -0.00000000000E+00  0.00000000000E+00  0.86706390722E+02  0.86706390722E+02  0.00000000000E+00 0.  1.
          1   -1    0    0  501    0  0.00000000000E+00 -0.00000000000E+00 -0.74167319307E+03  0.74167319307E+03  0.00000000000E+00 0. -1.
         25    2    1    2    0    0  0.22668414055E+03  0.31508211147E+02 -0.32352842419E+03  0.41556799740E+03  0.12509057621E+03 0.  0.
         23    2    1    2    0    0 -0.22668414055E+03 -0.31508211147E+02 -0.33143837815E+03  0.41281158639E+03  0.90462922770E+02 0.  0.
          5    1    3    3  502    0  0.16812836082E+03 -0.36250977698E+01 -0.13719550601E+03  0.21707226058E+03  0.41800000000E+01 0.  1.
         -5    1    3    3    0  502  0.58555779731E+02  0.35133308917E+02 -0.18633291819E+03  0.19849573682E+03  0.41800000000E+01 0.  1.
        -11    1    4    4    0    0 -0.96550751281E+02 -0.54340360482E+02 -0.18449224601E+03  0.21520295349E+03  0.00000000000E+00 0. -1.
         11    1    4    4    0    0 -0.13013338927E+03  0.22832149335E+02 -0.14694613214E+03  0.19760863290E+03  0.00000000000E+00 0.  1.
</event>
<event>
 8    1  0.6615242E-009  0.9333088E+02  0.7561462E-02  0.1294980E+00
          1   -1    0    0  501    0  0.00000000000E+00  0.00000000000E+00  0.22902833093E+03  0.22902833093E+03  0.00000000000E+00 0. -1.
         -1   -1    0    0    0  501 -0.00000000000E+00 -0.00000000000E+00 -0.77438443314E+02  0.77438443314E+02  0.00000000000E+00 0.  1.
         25    2    1    2    0    0  0.51180986036E+02  0.42938457259E+01  0.99494887103E+02  0.16788299016E+03  0.12509010905E+03 0.  0.
         23    2    1    2    0    0 -0.51180986036E+02 -0.42938457259E+01  0.52095000517E+02  0.13858378409E+03  0.11770151100E+03 0.  0.
          5    1    3    3  502    0  0.16167192374E+02  0.39491257277E+02  0.10902850465E+03  0.11715641142E+03  0.41800000000E+01 0. -1.
         -5    1    3    3    0  502  0.35013793662E+02 -0.35197411551E+02 -0.95336175520E+01  0.50726578735E+02  0.41800000000E+01 0. -1.
        -11    1    4    4    0    0 -0.53630991477E+02 -0.34426950979E+02  0.76616107138E+02  0.99657042268E+02  0.00000000000E+00 0. -1.
         11    1    4    4    0    0  0.24500054413E+01  0.30133105253E+02 -0.24521106621E+02  0.38926741821E+02  0.00000000000E+00 0.  1.
</event>
<event>
 8    1  0.6615242E-009  0.1424093E+03  0.7561462E-02  0.1210123E+00
          3   -1    0    0  501    0  0.00000000000E+00  0.00000000000E+00  0.40576926125E+02  0.40576926125E+02  0.00000000000E+00 0. -1.
         -3   -1    0    0    0  501 -0.00000000000E+00 -0.00000000000E+00 -0.54068517503E+03  0.54068517503E+03  0.00000000000E+00 0.  1.
         25    2    1    2    0    0 -0.76337191658E+02  0.56260141401E+02 -0.23152997150E+03  0.27970557713E+03  0.12504603885E+03 0.  0.
         23    2    1    2    0    0  0.76337191658E+02 -0.56260141401E+02 -0.26857827740E+03  0.30155652402E+03  0.99042797563E+02 0.  0.
          5    1    3    3  502    0 -0.10167123726E+03  0.99438541196E+01 -0.17141959155E+03  0.19959476318E+03  0.41800000000E+01 0. -1.
         -5    1    3    3    0  502  0.25334045600E+02  0.46316287281E+02 -0.60110379950E+02  0.80110813950E+02  0.41800000000E+01 0. -1.
        -11    1    4    4    0    0  0.57121755359E+02  0.12288407013E+02 -0.73501450014E+02  0.93895489968E+02  0.00000000000E+00 0.  1.
         11    1    4    4    0    0  0.19215436299E+02 -0.68548548414E+02 -0.19507682739E+03  0.20766103406E+03  0.00000000000E+00 0. -1.
</event>
<event>
 8    1  0.6615242E-009  0.1331008E+03  0.7561462E-02  0.1222926E+00
          2   -1    0    0  501    0  0.00000000000E+00  0.00000000000E+00  0.13652432026E+04  0.13652432026E+04  0.00000000000E+00 0. -1.
         -2   -1    0    0    0  501 -0.00000000000E+00 -0.00000000000E+00 -0.13840478057E+02  0.13840478057E+02  0.00000000000E+00 0.  1.
         25    2    1    2    0    0 -0.75403600154E+02 -0.29061162641E+02  0.86282044565E+03  0.87557807274E+03  0.12509031108E+03 0.  0.
         23    2    1    2    0    0  0.75403600154E+02  0.29061162641E+02  0.48858227888E+03  0.50350560791E+03  0.90967026299E+02 0.  0.
          5    1    3    3  502    0 -0.47045046731E+02  0.46340959173E+02  0.31730183404E+03  0.32412751689E+03  0.41800000000E+01 0.  1.
         -5    1    3    3    0  502 -0.28358553423E+02 -0.75402121814E+02  0.54551861162E+03  0.55145055585E+03  0.41800000000E+01 0.  1.
        -11    1    4    4    0    0  0.22219425916E+02  0.55638763710E+02  0.19636516562E+03  0.20530137161E+03  0.00000000000E+00 0. -1.
         11    1    4    4    0    0  0.53184174238E+02 -0.26577601069E+02  0.29221711325E+03  0.29820423630E+03  0.00000000000E+00 0.  1.
</event>
<event>
 8    1  0.6615242E-009  0.1841899E+03  0.7561462E-02  0.1163809E+00
         -4   -1    0    0    0  501 -0.00000000000E+00  0.00000000000E+00  0.17524269320E+03  0.17524269320E+03  0.00000000000E+00 0.  1.
          4   -1    0    0  501    0  0.00000000000E+00 -0.00000000000E+00 -0.28779821425E+03  0.28779821425E+03  0.00000000000E+00 0. -1.
         25    2    1    2    0    0 -0.65147268000E+02 -0.16906336272E+03 -0.13458456626E+03  0.25804434616E+03  0.12508913610E+03 0.  0.
         23    2    1    2    0    0  0.65147268000E+02  0.16906336272E+03  0.22029045212E+02  0.20499656129E+03  0.93336617497E+02 0.  0.
          5    1    3    3  502    0 -0.34908150210E+02 -0.11879181696E+03 -0.15257826158E+03  0.19653924044E+03  0.41800000000E+01 0.  1.
         -5    1    3    3    0  502 -0.30239117790E+02 -0.50271545765E+02  0.17993695322E+02  0.61505105720E+02  0.41800000000E+01 0.  1.
        -11    1    4    4    0    0  0.19934938304E+01  0.57093563365E+02 -0.32081999375E+02  0.65520253962E+02  0.00000000000E+00 0. -1.
         11    1    4    4    0    0  0.63153774170E+02  0.11196979936E+03  0.54111044587E+02  0.13947630733E+03  0.00000000000E+00 0.  1.
</event>
<event>
 8    1  0.6615242E-009  0.1385369E+03  0.7561462E-02  0.1215311E+00
         -1   -1    0    0    0  501 -0.00000000000E+00  0.00000000000E+00  0.12743139822E+03  0.12743139822E+03  0.00000000000E+00 0.  1.
          1   -1    0    0  501    0  0.00000000000E+00 -0.00000000000E+00 -0.24715807627E+03  0.24715807627E+03  0.00000000000E+00 0. -1.
         25    2    1    2    0    0  0.11784340530E+03  0.47515221084E+02 -0.12408675218E+03  0.21723029864E+03  0.12508683452E+03 0.  0.
         23    2    1    2    0    0 -0.11784340530E+03 -0.47515221084E+02  0.43600741287E+01  0.15735917585E+03  0.92726132072E+02 0.  0.
          5    1    3    3  502    0  0.62659150373E+02 -0.14451092450E+02  0.39936954833E+01  0.64563342557E+02  0.41800000000E+01 0.  1.
         -5    1    3    3    0  502  0.55184254929E+02  0.61966313534E+02 -0.12808044766E+03  0.15266695608E+03  0.41800000000E+01 0.  1.
        -11    1    4    4    0    0 -0.10021980108E+03 -0.29782752599E+02 -0.35408770852E+02  0.11038479032E+03  0.00000000000E+00 0. -1.
         11    1    4    4    0    0 -0.17623604220E+02 -0.17732468485E+02  0.39768844981E+02  0.46974385525E+02  0.00000000000E+00 0.  1.
</event>
<event>
 8    1  0.6615242E-009  0.1220735E+03  0.7561462E-02  0.1239715E+00
         -4   -1    0    0    0  501 -0.00000000000E+00  0.00000000000E+00  0.10797675063E+03  0.10797675063E+03  0.00000000000E+00 0.  1.
          4   -1    0    0  501    0  0.00000000000E+00 -0.00000000000E+00 -0.14531762778E+03  0.14531762778E+03  0.00000000000E+00 0. -1.
         25    2    1    2    0    0  0.13817361694E+02  0.25013844608E+02 -0.23135002447E+02  0.13038322747E+03  0.12509174937E+03 0.  0.
         23    2    1    2    0    0 -0.13817361694E+02 -0.25013844608E+02 -0.14205874704E+02  0.12291115093E+03  0.11869596557E+03 0.  0.
          5    1    3    3  502    0  0.62192672811E+02  0.36462694196E+02 -0.33216783378E+02  0.79487632480E+02  0.41800000000E+01 0. -1.
         -5    1    3    3    0  502 -0.48375311117E+02 -0.11448849588E+02  0.10081780932E+02  0.50895594989E+02  0.41800000000E+01 0. -1.
        -11    1    4    4    0    0 -0.37100865573E+02 -0.65536845200E+02 -0.71989060396E+01  0.75653000952E+02  0.00000000000E+00 0. -1.
         11    1    4    4    0    0  0.23283503878E+02  0.40523000591E+02 -0.70069686646E+01  0.47258149981E+02  0.00000000000E+00 0.  1.
</event>
<event>
 8    1  0.6615242E-009  0.1035017E+03  0.7561462E-02  0.1273100E+00
          1   -1    0    0  501    0  0.00000000000E+00  0.00000000000E+00  0.32825596067E+02  0.32825596067E+02  0.00000000000E+00 0. -1.
         -1   -1    0    0    0  501 -0.00000000000E+00 -0.00000000000E+00 -0.50751995070E+03  0.50751995070E+03  0.00000000000E+00 0.  1.
         25    2    1    2    0    0 -0.15622058232E+02 -0.68609081568E+02 -0.27402932671E+03  0.30933984060E+03  0.12509120796E+03 0.  0.
         23    2    1    2    0    0  0.15622058232E+02  0.68609081568E+02 -0.20066502793E+03  0.23100570617E+03  0.90254795294E+02 0.  0.
          5    1    3    3  502    0  0.31674222336E+02 -0.18770056270E+02 -0.12815165471E+02  0.39208063443E+02  0.41800000000E+01 0.  1.
         -5    1    3    3    0  502 -0.47296280567E+02 -0.49839025298E+02 -0.26121416123E+03  0.27013177715E+03  0.41800000000E+01 0.  1.
        -11    1    4    4    0    0  0.39489393361E+02  0.66254208931E+02 -0.18941161143E+03  0.20451354706E+03  0.00000000000E+00 0.  1.
         11    1    4    4    0    0 -0.23867335129E+02  0.23548726373E+01 -0.11253416503E+02  0.26492159110E+02  0.00000000000E+00 0. -1.
</event>
<event>
 8    1  0.6615242E-009  0.1560885E+03  0.7561462E-02  0.1193185E+00
          4   -1    0    0  501    0  0.00000000000E+00  0.00000000000E+00  0.15081208791E+03  0.15081208791E+03  0.00000000000E+00 0. -1.
         -4   -1    0    0    0  501 -0.00000000000E+00 -0.00000000000E+00 -0.23628417704E+03  0.23628417704E+03  0.00000000000E+00 0.  1.
         25    2    1    2    0    0  0.13745128115E+03  0.41037355878E+02  0.11110727974E+02  0.19064345679E+03  0.12507821583E+03 0.  0.
         23    2    1    2    0    0 -0.13745128115E+03 -0.41037355878E+02 -0.96582817106E+02  0.19645280815E+03  0.93212370444E+02 0.  0.
          5    1    3    3  502    0  0.97921946422E+02  0.68088617070E+02 -0.34647442222E+02  0.12426860029E+03  0.41800000000E+01 0. -1.
         -5    1    3    3    0  502  0.39529334726E+02 -0.27051261192E+02  0.45758170196E+02  0.66374856502E+02  0.41800000000E+01 0. -1.
        -11    1    4    4    0    0 -0.46999646511E+02 -0.45436311776E+01 -0.86303750133E+02  0.98376565520E+02  0.00000000000E+00 0.  1.
         11    1    4    4    0    0 -0.90451634637E+02 -0.36493724700E+02 -0.10279066973E+02  0.98076242632E+02  0.00000000000E+00 0. -1.
</event>
<event>
 8    1  0.6615242E-009  0.3442150E+03  0.7561462E-02  0.1065015E+00
          2   -1    0    0  501    0  0.00000000000E+00  0.00000000000E+00  0.12626752334E+04  0.12626752334E+04  0.00000000000E+00 0. -1.
         -2   -1    0    0    0  501 -0.00000000000E+00 -0.00000000000E+00 -0.99480882084E+02  0.99480882084E+02  0.00000000000E+00 0.  1.
         25    2    1    2    0    0  0.28106313922E+03 -0.18585099079E+03  0.56315789429E+03  0.66808018320E+03  0.12508892150E+03 0.  0.
         23    2    1    2    0    0 -0.28106313922E+03  0.18585099079E+03  0.60003645700E+03  0.69407593225E+03  0.90335878804E+02 0.  0.
          5    1    3    3  502    0  0.20292316185E+03 -0.15542064339E+03  0.50477349716E+03  0.56581546624E+03  0.41800000000E+01 0.  1.
         -5    1    3    3    0  502  0.78139977372E+02 -0.30430347395E+02  0.58384397131E+02  0.10226471696E+03  0.41800000000E+01 0.  1.
        -11    1    4    4    0    0 -0.21297679902E+03  0.18281327031E+03  0.48575869810E+03  0.56101811156E+03  0.00000000000E+00 0. -1.
         11    1    4    4    0    0 -0.68086340203E+02  0.30377204782E+01  0.11427775890E+03  0.13305782069E+03  0.00000000000E+00 0.  1.
</event>
<event>
 8    1  0.6615242E-009  0.1603804E+03  0.7561462E-02  0.1188268E+00
          2   -1    0    0  501    0  0.00000000000E+00  0.00000000000E+00  0.15277285152E+03  0.15277285152E+03  0.00000000000E+00 0. -1.
         -2   -1    0    0    0  501 -0.00000000000E+00 -0.00000000000E+00 -0.23164129249E+03  0.23164129249E+03  0.00000000000E+00 0.  1.
         25    2    1    2    0    0 -0.13106394028E+03 -0.11513331439E+02  0.40597707951E+02  0.18602913286E+03  0.12509336969E+03 0.  0.
         23    2    1    2    0    0  0.13106394028E+03  0.11513331439E+02 -0.11946614892E+03  0.19838501115E+03  0.88171076143E+02 0.  0.
          5    1    3    3  502    0 -0.29381116376E+02  0.43087167296E+02 -0.19504070023E+02  0.55835787203E+02  0.41800000000E+01 0.  1.
         -5    1    3    3    0  502 -0.10168282390E+03 -0.54600498735E+02  0.60101777974E+02  0.13019334566E+03  0.41800000000E+01 0.  1.
        -11    1    4    4    0    0  0.77754825109E+02 -0.32055379811E+02 -0.39660398108E+02  0.92985522425E+02  0.00000000000E+00 0. -1.
         11    1    4    4    0    0  0.53309115168E+02  0.43568711250E+02 -0.79805750817E+02  0.10539948872E+03  0.00000000000E+00 0.  1.
</event>
<event>
 8    1  0.6615242E-009  0.1221980E+03  0.7561462E-02  0.1239515E+00
          2   -1    0    0  501    0  0.00000000000E+00  0.00000000000E+00  0.16749875671E+03  0.16749875671E+03  0.00000000000E+00 0. -1.
         -2   -1    0    0    0  501 -0.00000000000E+00 -0.00000000000E+00 -0.12286670976E+03  0.12286670976E+03  0.00000000000E+00 0.  1.
         25    2    1    2    0    0  0.55793805423E+02  0.41718242099E+02  0.88259683952E+02  0.16818315228E+03  0.12506974235E+03 0.  0.
         23    2    1    2    0    0 -0.55793805423E+02 -0.41718242099E+02 -0.43627637006E+02  0.12218231419E+03  0.90397935496E+02 0.  0.
          5    1    3    3  502    0  0.51840788503E+02  0.83142591801E+02  0.44633362242E+02  0.10774863038E+03  0.41800000000E+01 0. -1.
         -5    1    3    3    0  502  0.39530169198E+01 -0.41424349702E+02  0.43626321710E+02  0.60434521897E+02  0.41800000000E+01 0. -1.
        -11    1    4    4    0    0  0.19752567068E+02 -0.13187124691E+02  0.94339825990E+01  0.25555120643E+02  0.00000000000E+00 0. -1.
         11    1    4    4    0    0 -0.75546372491E+02 -0.28531117408E+02 -0.53061619605E+02  0.96627193544E+02  0.00000000000E+00 0.  1.
</event>
<event>
 8    1  0.6615242E-009  0.1358757E+03  0.7561462E-02  0.1218989E+00
          4   -1    0    0  501    0  0.00000000000E+00  0.00000000000E+00  0.58281235000E+02  0.58281235000E+02  0.00000000000E+00 0.  1.
         -4   -1    0    0    0  501 -0.00000000000E+00 -0.00000000000E+00 -0.45273621270E+03  0.45273621270E+03  0.00000000000E+00 0. -1.
         25    2    1    2    0    0  0.44700912876E+02  0.97990261419E+02 -0.12620145775E+03  0.20778604170E+03  0.12509183923E+03 0.  0.
         23    2    1    2    0    0 -0.44700912876E+02 -0.97990261419E+02 -0.26825351995E+03  0.30323140600E+03  0.91591875597E+02 0.  0.
          5    1    3    3  502    0  0.64944622470E+02  0.81918893399E+02 -0.31102296594E+02  0.10914822187E+03  0.41800000000E+01 0. -1.
         -5    1    3    3    0  502 -0.20243709593E+02  0.16071368020E+02 -0.95099161157E+02  0.98637819830E+02  0.41800000000E+01 0. -1.
        -11    1    4    4    0    0  0.59654732703E+01  0.15527193872E+02 -0.24559296067E+02  0.29662091029E+02  0.00000000000E+00 0.  1.
         11    1    4    4    0    0 -0.50666386147E+02 -0.11351745529E+03 -0.24369422388E+03  0.27356931497E+03  0.00000000000E+00 0. -1.
</event>
<event>
 8    1  0.6615242E-009  0.8722505E+02  0.7561462E-02  0.1309714E+00
          2   -1    0    0  501    0  0.00000000000E+00  0.00000000000E+00  0.61361942646E+03  0.61361942646E+03  0.00000000000E+00 0. -1.
         -2   -1    0    0    0  501 -0.00000000000E+00 -0.00000000000E+00 -0.33384751492E+02  0.33384751492E+02  0.00000000000E+00 0.  1.
         25    2    1    2    0    0 -0.24108097205E+02  0.72245501962E+02  0.46832878216E+03  0.49069315718E+03  0.12508922174E+03 0.  0.
         23    2    1    2    0    0  0.24108097205E+02 -0.72245501962E+02  0.11190589280E+03  0.15631102077E+03  0.78163888505E+02 0.  0.
          5    1    3    3  502    0 -0.10540520042E+02  0.44517541951E+02  0.45414909793E+03  0.45646663586E+03  0.41800000000E+01 0.  1.
         -5    1    3    3    0  502 -0.13567577163E+02  0.27727960010E+02  0.14179684231E+02  0.34226521315E+02  0.41800000000E+01 0.  1.
        -11    1    4    4    0    0  0.43303006336E+02 -0.35866892392E+02  0.27885841212E+02  0.62763082045E+02  0.00000000000E+00 0. -1.
         11    1    4    4    0    0 -0.19194909132E+02 -0.36378609569E+02  0.84020051591E+02  0.93547938727E+02  0.00000000000E+00 0.  1.
</event>
<event>
 8    1  0.6615242E-009  0.1076027E+03  0.7561462E-02  0.1265075E+00
          1   -1    0    0  501    0  0.00000000000E+00  0.00000000000E+00  0.22321495676E+02  0.22321495676E+02  0.00000000000E+00 0. -1.
         -1   -1    0    0    0  501 -0.00000000000E+00 -0.00000000000E+00 -0.60186078447E+03  0.60186078447E+03  0.00000000000E+00 0.  1.
         25    2    1    2    0    0 -0.32469020275E+02 -0.87076042320E+01 -0.27277649063E+03  0.30197682260E+03  0.12511166172E+03 0.  0.
         23    2    1    2    0    0  0.32469020275E+02  0.87076042320E+01 -0.30676279816E+03  0.32220545754E+03  0.92643849688E+02 0.  0.
          5    1    3    3  502    0 -0.38979061511E+02 -0.56707276566E+02 -0.21845821806E+03  0.22907760233E+03  0.41800000000E+01 0.  1.
         -5    1    3    3    0  502  0.65100412362E+01  0.47999672334E+02 -0.54318272572E+02  0.72899220272E+02  0.41800000000E+01 0.  1.
        -11    1    4    4    0    0  0.29096435778E+02  0.49121925781E+02 -0.15738722875E+03  0.16742253714E+03  0.00000000000E+00 0. -1.
         11    1    4    4    0    0  0.33725844964E+01 -0.40414321549E+02 -0.14937556941E+03  0.15478292041E+03  0.00000000000E+00 0.  1.
</event>
<event>
 8    1  0.6615242E-009  0.9799754E+02  0.7561462E-02  0.1284564E+00
         -3   -1    0    0    0  501 -0.00000000000E+00  0.00000000000E+00  0.18046452654E+03  0.18046452654E+03  0.00000000000E+00 0.  1.
          3   -1    0    0  501    0  0.00000000000E+00 -0.00000000000E+00 -0.78130411888E+02  0.78130411888E+02  0.00000000000E+00 0. -1.
         25    2    1    2    0    0  0.41505637156E+02  0.18306608371E+02  0.79323539765E+02  0.15491737819E+03  0.12509724329E+03 0.  0.
         23    2    1    2    0    0 -0.41505637156E+02 -0.18306608371E+02  0.23010574884E+02  0.10367756023E+03  0.90342128121E+02 0.  0.
          5    1    3    3  502    0  0.51920703057E+02  0.65099536564E+02  0.38588618137E+02  0.91870903536E+02  0.41800000000E+01 0.  1.
         -5    1    3    3    0  502 -0.10415065900E+02 -0.46792928193E+02  0.40734921628E+02  0.63046474657E+02  0.41800000000E+01 0.  1.
        -11    1    4    4    0    0 -0.51591372926E+02 -0.17060414738E+02  0.50615949208E+02  0.74261038410E+02  0.00000000000E+00 0.  1.
         11    1    4    4    0    0  0.10085735770E+02 -0.12461936329E+01 -0.27605374324E+02  0.29416521823E+02  0.00000000000E+00 0. -1.
</event>
<event>
 8    1  0.6615242E-009  0.9021174E+02  0.7561462E-02  0.1302340E+00
         -3   -1    0    0    0  501 -0.00000000000E+00  0.00000000000E+00  0.82763253395E+03  0.82763253395E+03  0.00000000000E+00 0.  1.
          3   -1    0    0  501    0  0.00000000000E+00 -0.00000000000E+00 -0.17649318074E+02  0.17649318074E+02  0.00000000000E+00 0. -1.
         25    2    1    2    0    0 -0.20434111090E+02 -0.13872752654E+02  0.61772023594E+03  0.63074129048E+03  0.12508508892E+03 0.  0.
         23    2    1    2    0    0  0.20434111090E+02  0.13872752654E+02  0.19226297994E+03  0.21454056154E+03  0.91937984151E+02 0.  0.
          5    1    3    3  502    0  0.35269965340E+02 -0.53545931113E+01  0.58312785360E+02  0.68487191933E+02  0.41800000000E+01 0.  1.
         -5    1    3    3    0  502 -0.55704076431E+02 -0.85181595430E+01  0.55940745058E+03  0.56225409855E+03  0.41800000000E+01 0.  1.
        -11    1    4    4    0    0 -0.19619161522E+02  0.36904802981E+02  0.51140550362E+02  0.66047194287E+02  0.00000000000E+00 0. -1.
         11    1    4    4    0    0  0.40053272613E+02 -0.23032050326E+02  0.14112242957E+03  0.14849336725E+03  0.00000000000E+00 0.  1.
</event>
<event>
 8    1  0.6615242E-009  0.2157827E+03  0.7561462E-02  0.1137067E+00
          3   -1    0    0  501    0  0.00000000000E+00  0.00000000000E+00  0.39112727935E+03  0.39112727935E+03  0.00000000000E+00 0. -1.
         -3   -1    0    0    0  501 -0.00000000000E+00 -0.00000000000E+00 -0.16133589627E+03  0.16133589627E+03  0.00000000000E+00 0.  1.
         25    2    1    2    0    0 -0.10491653438E+02 -0.19109506496E+03  0.25132444963E+03  0.33976208421E+03  0.12508755429E+03 0.  0.
         23    2    1    2    0    0  0.10491653438E+02  0.19109506496E+03 -0.21533066551E+02  0.21270109142E+03  0.90281131436E+02 0.  0.
          5    1    3    3  502    0 -0.15331712110E+02  0.13708975827E+02  0.10201585566E+02  0.23335427198E+02  0.41800000000E+01 0. -1.
         -5    1    3    3    0  502  0.48400586718E+01 -0.20480404079E+03  0.24112286407E+03  0.31642665701E+03  0.41800000000E+01 0. -1.
        -11    1    4    4    0    0 -0.31994021918E+02  0.62010164512E+02 -0.31253850102E+02  0.76457053876E+02  0.00000000000E+00 0. -1.
         11    1    4    4    0    0  0.42485675356E+02  0.12908490045E+03  0.97207835507E+01  0.13624403755E+03  0.00000000000E+00 0.  1.
</event>
<event>
 8    1  0.6615242E-009  0.8380189E+02  0.7561462E-02  0.1318596E+00
          2   -1    0    0  501    0  0.00000000000E+00  0.00000000000E+00  0.18377432622E+03  0.18377432622E+03  0.00000000000E+00 0. -1.
         -2   -1    0    0    0  501 -0.00000000000E+00 -0.00000000000E+00 -0.70598314823E+02  0.70598314823E+02  0.00000000000E+00 0.  1.
         25    2    1    2    0    0 -0.35553740549E+02 -0.90159407968E+01  0.56471947362E+02  0.14206353958E+03  0.12509041843E+03 0.  0.
         23    2    1    2    0    0  0.35553740549E+02  0.90159407968E+01  0.56704064040E+02  0.11230910147E+03  0.89736434847E+02 0.  0.
          5    1    3    3  502    0 -0.17477331765E+02 -0.60898952025E+02  0.59314444443E+02  0.86889672591E+02  0.41800000000E+01 0. -1.
         -5    1    3    3    0  502 -0.18076408784E+02  0.51883011228E+02 -0.28424970802E+01  0.55173866987E+02  0.41800000000E+01 0. -1.
        -11    1    4    4    0    0  0.15541385945E+02  0.20661519224E+02 -0.19680470518E+02  0.32492367928E+02  0.00000000000E+00 0.  1.
         11    1    4    4    0    0  0.20012354604E+02 -0.11645578427E+02  0.76384534558E+02  0.79816733542E+02  0.00000000000E+00 0. -1.
</event>
<event>
 8    1  0.6615242E-009  0.9715497E+02  0.7561462E-02  0.1286395E+00
          1   -1    0    0  501    0  0.00000000000E+00  0.00000000000E+00  0.48665775231E+03  0.48665775231E+03  0.00000000000E+00 0. -1.
         -1   -1    0    0    0  501 -0.00000000000E+00 -0.00000000000E+00 -0.29926553117E+02  0.29926553117E+02  0.00000000000E+00 0.  1.
         25    2    1    2    0    0 -0.13790080098E+02 -0.49407115814E+02  0.28711070249E+03  0.31735046945E+03  0.12509010981E+03 0.  0.
         23    2    1    2    0    0  0.13790080098E+02  0.49407115814E+02  0.16962049670E+03  0.19923383597E+03  0.91059206534E+02 0.  0.
          5    1    3    3  502    0  0.59609115198E+01  0.18531940236E+02  0.21612307164E+03  0.21703829102E+03  0.41800000000E+01 0.  1.
         -5    1    3    3    0  502 -0.19750991618E+02 -0.67939056050E+02  0.70987630854E+02  0.10031217843E+03  0.41800000000E+01 0.  1.
        -11    1    4    4    0    0 -0.37456977948E+02  0.96956919271E+01  0.77036602282E+02  0.86207132710E+02  0.00000000000E+00 0. -1.
         11    1    4    4    0    0  0.51247058046E+02  0.39711423887E+02  0.92583894415E+02  0.11302670326E+03  0.00000000000E+00 0.  1.
</event>
<event>
 8    1  0.6615242E-009  0.1196669E+03  0.7561462E-02  0.1243648E+00
         -1   -1    0    0    0  501 -0.00000000000E+00  0.00000000000E+00  0.32499580188E+03  0.32499580188E+03  0.00000000000E+00 0.  1.
          1   -1    0    0  501    0  0.00000000000E+00 -0.00000000000E+00 -0.61780154796E+02  0.61780154796E+02  0.00000000000E+00 0. -1.
         25    2    1    2    0    0  0.75557971318E+02  0.46941628576E+02  0.16497607957E+03  0.22533808032E+03  0.12509044765E+03 0.  0.
         23    2    1    2    0    0 -0.75557971318E+02 -0.46941628576E+02  0.98239567520E+02  0.16143787635E+03  0.92188132489E+02 0.  0.
          5    1    3    3  502    0  0.21945356770E+02  0.65885493361E+02  0.15156272121E+03  0.16676698648E+03  0.41800000000E+01 0. -1.
         -5    1    3    3    0  502  0.53612614548E+02 -0.18943864785E+02  0.13413358356E+02  0.58571093844E+02  0.41800000000E+01 0. -1.
        -11    1    4    4    0    0 -0.10521266004E+01  0.15501316704E+02  0.51079382446E+02  0.53390084295E+02  0.00000000000E+00 0.  1.
         11    1    4    4    0    0 -0.74505844718E+02 -0.62442945280E+02  0.47160185073E+02  0.10804779206E+03  0.00000000000E+00 0. -1.
</event>
<event>
 8    1  0.6615242E-009  0.1093699E+03  0.7561462E-02  0.1261741E+00
          1   -1    0    0  501    0  0.00000000000E+00  0.00000000000E+00  0.11732424073E+04  0.11732424073E+04  0.00000000000E+00 0. -1.
         -1   -1    0    0    0  501 -0.00000000000E+00 -0.00000000000E+00 -0.13014275178E+02  0.13014275178E+02  0.00000000000E+00 0.  1.
         25    2    1    2    0    0 -0.56500212438E+01 -0.47960823336E+02  0.86333529124E+03  0.87368774857E+03  0.12510113345E+03 0.  0.
         23    2    1    2    0    0  0.56500212438E+01  0.47960823336E+02  0.29689284085E+03  0.31256893388E+03  0.84981269461E+02 0.  0.
          5    1    3    3  502    0  0.55486839814E+02 -0.46338994444E+02  0.50030528146E+03  0.50551848518E+03  0.41800000000E+01 0. -1.
         -5    1    3    3    0  502 -0.61136861058E+02 -0.16218288922E+01  0.36303000978E+03  0.36816926340E+03  0.41800000000E+01 0. -1.
        -11    1    4    4    0    0  0.16669352313E+02 -0.14199141538E+02  0.24080303676E+02  0.32547564457E+02  0.00000000000E+00 0. -1.
         11    1    4    4    0    0 -0.11019331069E+02  0.62159964874E+02  0.27281253718E+03  0.28002136942E+03  0.00000000000E+00 0.  1.
</event>
<event>
 8    1  0.6615242E-009  0.9987053E+02  0.7561462E-02  0.1280568E+00
         -1   -1    0    0    0  501 -0.00000000000E+00  0.00000000000E+00  0.12902943297E+03  0.12902943297E+03  0.00000000000E+00 0.  1.
          1   -1    0    0  501    0  0.00000000000E+00 -0.00000000000E+00 -0.14503597158E+03  0.14503597158E+03  0.00000000000E+00 0. -1.
         25    2    1    2    0    0  0.71991424004E+02 -0.25732899790E+02 -0.44564205661E+02  0.15326341214E+03  0.12513495840E+03 0.  0.
         23    2    1    2    0    0 -0.71991424004E+02  0.25732899790E+02  0.28557667052E+02  0.12080199242E+03  0.89065334235E+02 0.  0.
          5    1    3    3  502    0  0.86703037790E+02 -0.28050407808E+01  0.14531979462E+02  0.88056435557E+02  0.41800000000E+01 0.  1.
         -5    1    3    3    0  502 -0.14711613786E+02 -0.22927859009E+02 -0.59096185123E+02  0.65206976583E+02  0.41800000000E+01 0.  1.
        -11    1    4    4    0    0 -0.21559105471E+02  0.27408123691E+02 -0.28207295997E+02  0.44851441676E+02  0.00000000000E+00 0. -1.
         11    1    4    4    0    0 -0.50432318533E+02 -0.16752239013E+01  0.56764963048E+02  0.75950550739E+02  0.00000000000E+00 0.  1.
</event>
<event>
 8    1  0.6615242E-009  0.1329211E+03  0.7561462E-02  0.1223185E+00
          2   -1    0    0  501    0  0.00000000000E+00  0.00000000000E+00  0.31584634145E+03  0.31584634145E+03  0.00000000000E+00 0.  1.
         -2   -1    0    0    0  501 -0.00000000000E+00 -0.00000000000E+00 -0.57272627959E+02  0.57272627959E+02  0.00000000000E+00 0. -1.
         25    2    1    2    0    0 -0.67954327231E+02  0.36053261813E+02  0.17026867072E+03  0.22485449292E+03  0.12510193636E+03 0.  0.
         23    2    1    2    0    0  0.67954327231E+02 -0.36053261813E+02  0.88305042769E+02  0.14826447649E+03  0.90922748163E+02 0.  0.
          5    1    3    3  502    0 -0.63500147258E+02 -0.36902251144E+02  0.89209786832E+02  0.11562829804E+03  0.41800000000E+01 0.  1.
         -5    1    3    3    0  502 -0.44541799726E+01  0.72955512957E+02  0.81058883890E+02  0.10922619488E+03  0.41800000000E+01 0.  1.
        -11    1    4    4    0    0  0.90140464587E+02 -0.21934769881E+02  0.70184964650E+02  0.11632870131E+03  0.00000000000E+00 0.  1.
         11    1    4    4    0    0 -0.22186137356E+02 -0.14118491932E+02  0.18120078118E+02  0.31935775179E+02  0.00000000000E+00 0. -1.
</event>
<event>
 8    1  0.6615242E-009  0.1057798E+03  0.7561462E-02  0.1268591E+00
         -2   -1    0    0    0  501 -0.00000000000E+00  0.00000000000E+00  0.23547757049E+02  0.23547757049E+02  0.00000000000E+00 0.  1.
          2   -1    0    0  501    0  0.00000000000E+00 -0.00000000000E+00 -0.53833805584E+03  0.53833805584E+03  0.00000000000E+00 0. -1.
         25    2    1    2    0    0  0.28066799378E+02 -0.11694152165E+02 -0.29125306807E+03  0.31843372848E+03  0.12508873391E+03 0.  0.
         23    2    1    2    0    0 -0.28066799378E+02  0.11694152165E+02 -0.22353723071E+03  0.24345208440E+03  0.91517896949E+02 0.  0.
          5    1    3    3  502    0  0.68634609597E+02 -0.38101509270E+02 -0.15536694003E+03  0.17412292525E+03  0.41800000000E+01 0. -1.
         -5    1    3    3    0  502 -0.40567810219E+02  0.26407357105E+02 -0.13588612804E+03  0.14431080323E+03  0.41800000000E+01 0. -1.
        -11    1    4    4    0    0 -0.34449834613E+02 -0.27853970558E+02 -0.17498917462E+03  0.18050996098E+03  0.00000000000E+00 0. -1.
         11    1    4    4    0    0  0.63830352347E+01  0.39548122723E+02 -0.48548056097E+02  0.62942123419E+02  0.00000000000E+00 0.  1.
</event>
<event>
 8    1  0.6615242E-009  0.1477174E+03  0.7561462E-02  0.1203306E+00
          1   -1    0    0  501    0  0.00000000000E+00  0.00000000000E+00  0.24712438190E+03  0.24712438190E+03  0.00000000000E+00 0. -1.
         -1   -1    0    0    0  501 -0.00000000000E+00 -0.00000000000E+00 -0.97112329315E+02  0.97112329315E+02  0.00000000000E+00 0.  1.
         25    2    1    2    0    0 -0.41780020807E+02 -0.99142704550E+02  0.54536707405E+02  0.17378178083E+03  0.12510399231E+03 0.  0.
         23    2    1    2    0    0  0.41780020807E+02  0.99142704550E+02  0.95475345180E+02  0.17045493038E+03  0.91457617234E+02 0.  0.
          5    1    3    3  502    0 -0.52357890833E+02 -0.11971809719E+03  0.67291041607E+02  0.14703512576E+03  0.41800000000E+01 0. -1.
         -5    1    3    3    0  502  0.10577870027E+02  0.20575392640E+02 -0.12754334202E+02  0.26746655072E+02  0.41800000000E+01 0. -1.
        -11    1    4    4    0    0 -0.27770895441E+02  0.13540426949E+02  0.19861800475E+02  0.36729510120E+02  0.00000000000E+00 0. -1.
         11    1    4    4    0    0  0.69550916247E+02  0.85602277601E+02  0.75613544704E+02  0.13372542026E+03  0.00000000000E+00 0.  1.
</event>
<event>
 8    1  0.6615242E-009  0.2003572E+03  0.7561462E-02  0.1149438E+00
          4   -1    0    0  501    0  0.00000000000E+00  0.00000000000E+00  0.17243577473E+04  0.17243577473E+04  0.00000000000E+00 0. -1.
         -4   -1    0    0    0  501 -0.00000000000E+00 -0.00000000000E+00 -0.24127009002E+02  0.24127009002E+02  0.00000000000E+00 0.  1.
         25    2    1    2    0    0 -0.15615917129E+03  0.70462103335E+02  0.81229846937E+03  0.83953790034E+03  0.12507792759E+03 0.  0.
         23    2    1    2    0    0  0.15615917129E+03 -0.70462103335E+02  0.88793226895E+03  0.90894685600E+03  0.91706477356E+02 0.  0.
          5    1    3    3  502    0 -0.73709779776E+02 -0.27081718282E+02  0.22060067581E+03  0.23419795402E+03  0.41800000000E+01 0. -1.
         -5    1    3    3    0  502 -0.82449391518E+02  0.97543821617E+02  0.59169779357E+03  0.60533994632E+03  0.41800000000E+01 0. -1.
        -11    1    4    4    0    0  0.58560540457E+02  0.19327705382E+02  0.27388777543E+03  0.28074438663E+03  0.00000000000E+00 0.  1.
         11    1    4    4    0    0  0.97598630838E+02 -0.89789808717E+02  0.61404449353E+03  0.62820246937E+03  0.00000000000E+00 0. -1.
</event>
<event>
 8    1  0.6615242E-009  0.1049256E+03  0.7561462E-02  0.1270266E+00
         -1   -1    0    0    0  501 -0.00000000000E+00  0.00000000000E+00  0.60718318328E+02  0.60718318328E+02  0.00000000000E+00 0.  1.
          1   -1    0    0  501    0  0.00000000000E+00 -0.00000000000E+00 -0.38949958804E+03  0.38949958804E+03  0.00000000000E+00 0. -1.
         25    2    1    2    0    0  0.69011304617E+02 -0.11550513882E+01 -0.51427462534E+02  0.15184247707E+03  0.12508980626E+03 0.  0.
         23    2    1    2    0    0 -0.69011304617E+02  0.11550513882E+01 -0.27735380718E+03  0.29837542930E+03  0.85667194095E+02 0.  0.
          5    1    3    3  502    0  0.81944362074E+02 -0.15486741347E+02 -0.80965997467E+02  0.11630856709E+03  0.41800000000E+01 0. -1.
         -5    1    3    3    0  502 -0.12933057457E+02  0.14331689959E+02  0.29538534933E+02  0.35533909977E+02  0.41800000000E+01 0. -1.
        -11    1    4    4    0    0 -0.36659585317E+02  0.41180784854E+02 -0.10630695125E+03  0.11975370608E+03  0.00000000000E+00 0.  1.
         11    1    4    4    0    0 -0.32351719300E+02 -0.40025733466E+02 -0.17104685593E+03  0.17862172321E+03  0.00000000000E+00 0. -1.
</event>
<event>
 8    1  0.6615242E-009  0.7588625E+02  0.7561462E-02  0.1341148E+00
          2   -1    0    0  501    0  0.00000000000E+00  0.00000000000E+00  0.92240940130E+03  0.92240940130E+03  0.00000000000E+00 0. -1.
         -2   -1    0    0    0  501 -0.00000000000E+00 -0.00000000000E+00 -0.14480321001E+02  0.14480321001E+02  0.00000000000E+00 0.  1.
         25    2    1    2    0    0  0.26232327778E+02  0.37872859320E+02  0.45989240298E+03  0.47882234525E+03  0.12508927812E+03 0.  0.
         23    2    1    2    0    0 -0.26232327778E+02 -0.37872859320E+02  0.44803667732E+03  0.45806737705E+03  0.83464778196E+02 0.  0.
          5    1    3    3  502    0  0.60373183489E+01  0.38360946516E+02  0.32163257106E+02  0.50596036783E+02  0.41800000000E+01 0. -1.
         -5    1    3    3    0  502  0.20195009429E+02 -0.48808719663E+00  0.42772914587E+03  0.42822630846E+03  0.41800000000E+01 0. -1.
        -11    1    4    4    0    0  0.25214009906E+02  0.42818299954E+01  0.77563483730E+02  0.81671135488E+02  0.00000000000E+00 0.  1.
         11    1    4    4    0    0 -0.51446337684E+02 -0.42154689315E+02  0.37047319359E+03  0.37639624157E+03  0.00000000000E+00 0. -1.
</event>
<event>
 8    1  0.6615242E-009  0.1249814E+03  0.7561462E-02  0.1235098E+00
         -3   -1    0    0    0  501 -0.00000000000E+00  0.00000000000E+00  0.24266859499E+03  0.24266859499E+03  0.00000000000E+00 0.  1.
          3   -1    0    0  501    0  0.00000000000E+00 -0.00000000000E+00 -0.88686431254E+02  0.88686431254E+02  0.00000000000E+00 0. -1.
         25    2    1    2    0    0 -0.56973410999E+02 -0.66744122075E+02  0.12317176828E+03  0.19626490603E+03  0.12509149230E+03 0.  0.
         23    2    1    2    0    0  0.56973410999E+02  0.66744122075E+02  0.30810395461E+02  0.13509012022E+03  0.97976082385E+02 0.  0.
          5    1    3    3  502    0 -0.54492695266E+02 -0.30096746637E+01  0.12043163684E+03  0.13228667178E+03  0.41800000000E+01 0. -1.
         -5    1    3    3    0  502 -0.24807157321E+01 -0.63734447411E+02  0.27401314392E+01  0.63978234249E+02  0.41800000000E+01 0. -1.
        -11    1    4    4    0    0  0.33210588944E+02  0.91290282461E+02  0.19324527360E+02  0.99046939617E+02  0.00000000000E+00 0. -1.
         11    1    4    4    0    0  0.23762822054E+02 -0.24546160387E+02  0.11485868101E+02  0.36043180600E+02  0.00000000000E+00 0.  1.
</event>
<event>
 8    1  0.6615242E-009  0.1787259E+03  0.7561462E-02  0.1169042E+00
          1   -1    0    0  501    0  0.00000000000E+00  0.00000000000E+00  0.45835693829E+03  0.45835693829E+03  0.00000000000E+00 0. -1.
         -1   -1    0    0    0  501 -0.00000000000E+00 -0.00000000000E+00 -0.99940965190E+02  0.99940965190E+02  0.00000000000E+00 0.  1.
         25    2    1    2    0    0  0.93821093308E+01 -0.15123899435E+03  0.50099885869E+02  0.20277783949E+03  0.12509035229E+03 0.  0.
         23    2    1    2    0    0 -0.93821093308E+01  0.15123899435E+03  0.30831608723E+03  0.35552006400E+03  0.91512014889E+02 0.  0.
          5    1    3    3  502    0  0.58747393812E+02 -0.11611330443E+03  0.56065975405E+02  0.14175479443E+03  0.41800000000E+01 0. -1.
         -5    1    3    3    0  502 -0.49365284481E+02 -0.35125689913E+02 -0.59660895363E+01  0.61023045058E+02  0.41800000000E+01 0. -1.
        -11    1    4    4    0    0  0.30124573249E+02  0.61928147937E+02  0.71079511602E+02  0.98969098156E+02  0.00000000000E+00 0. -1.
         11    1    4    4    0    0 -0.39506682580E+02  0.89310846409E+02  0.23723657563E+03  0.25655096584E+03  0.00000000000E+00 0.  1.
</event>
<event>
 8    1  0.6615242E-009  0.8108600E+02  0.7561462E-02  0.1325997E+00
          2   -1    0    0  501    0  0.00000000000E+00  0.00000000000E+00  0.28276406240E+02  0.28276406240E+02  0.00000000000E+00 0. -1.
         -2   -1    0    0    0  501 -0.00000000000E+00 -0.00000000000E+00 -0.49413196674E+03  0.49413196674E+03  0.00000000000E+00 0.  1.
         25    2    1    2    0    0  0.93508529229E+01 -0.37438351465E+02 -0.21493411010E+03  0.25166002988E+03  0.12508809034E+03 0.  0.
         23    2    1    2    0    0 -0.93508529229E+01  0.37438351465E+02 -0.25092145040E+03  0.27074834309E+03  0.94095815048E+02 0.  0.
          5    1    3    3  502    0  0.53523889264E+02 -0.18991527579E+02 -0.18829445350E+03  0.19671745846E+03  0.41800000000E+01 0. -1.
         -5    1    3    3    0  502 -0.44173036341E+02 -0.18446823885E+02 -0.26639656600E+02  0.54942571425E+02  0.41800000000E+01 0. -1.
        -11    1    4    4    0    0 -0.19490389900E+02  0.41810984175E+02 -0.25487779681E+03  0.25901877346E+03  0.00000000000E+00 0.  1.
         11    1    4    4    0    0  0.10139536977E+02 -0.43726327110E+01  0.39563464154E+01  0.11729569638E+02  0.00000000000E+00 0. -1.
</event>
<event>
 8    1  0.6615242E-009  0.9485628E+02  0.7561462E-02  0.1291500E+00
          1   -1    0    0  501    0  0.00000000000E+00  0.00000000000E+00  0.48781515826E+02  0.48781515826E+02  0.00000000000E+00 0. -1.
         -1   -1    0    0    0  501 -0.00000000000E+00 -0.00000000000E+00 -0.35209266686E+03  0.35209266686E+03  0.00000000000E+00 0.  1.
         25    2    1    2    0    0 -0.29952834784E+02 -0.48364279126E+02 -0.23886612682E+03  0.27556957161E+03  0.12508111947E+03 0.  0.
         23    2    1    2    0    0  0.29952834784E+02  0.48364279126E+02 -0.64445024210E+02  0.12530461108E+03  0.91169120894E+02 0.  0.
          5    1    3    3  502    0 -0.50636420460E+02 -0.50123180282E+02 -0.24362700761E+03  0.25386605034E+03  0.41800000000E+01 0. -1.
         -5    1    3    3    0  502  0.20683585676E+02  0.17589011561E+01  0.47608807851E+01  0.21703521270E+02  0.41800000000E+01 0. -1.
        -11    1    4    4    0    0 -0.27109889703E+02  0.13364362211E+02  0.28820003701E+01  0.30362118226E+02  0.00000000000E+00 0. -1.
         11    1    4    4    0    0  0.57062724487E+02  0.34999916915E+02 -0.67327024581E+02  0.94942492851E+02  0.00000000000E+00 0.  1.
</event>
<event>
 8    1  0.6615242E-009  0.1043997E+03  0.7561462E-02  0.1271307E+00
          2   -1    0    0  501    0  0.00000000000E+00  0.00000000000E+00  0.75009587166E+03  0.75009587166E+03  0.00000000000E+00 0.  1.
         -2   -1    0    0    0  501 -0.00000000000E+00 -0.00000000000E+00 -0.24685700354E+02  0.24685700354E+02  0.00000000000E+00 0. -1.
         25    2    1    2    0    0 -0.75142107788E+02 -0.25344506851E+02  0.43945055719E+03  0.46373791228E+03  0.12508948267E+03 0.  0.
         23    2    1    2    0    0  0.75142107788E+02  0.25344506851E+02  0.28595961411E+03  0.31104365973E+03  0.93201807754E+02 0.  0.
          5    1    3    3  502    0 -0.76810244375E-01  0.32879058802E+02  0.34772813158E+02  0.48038103027E+02  0.41800000000E+01 0.  1.
         -5    1    3    3    0  502 -0.75065297543E+02 -0.58223565653E+02  0.40467774404E+03  0.41569980925E+03  0.41800000000E+01 0.  1.
        -11    1    4    4    0    0  0.45305460679E+02  0.78589609025E+01  0.26830206761E+03  0.27221379010E+03  0.00000000000E+00 0.  1.
         11    1    4    4    0    0  0.29836647109E+02  0.17485545948E+02  0.17657546499E+02  0.38829869638E+02  0.00000000000E+00 0. -1.
</event>
<event>
 8    1  0.6615242E-009  0.1691974E+03  0.7561462E-02  0.1178687E+00
         -2   -1    0    0    0  501 -0.00000000000E+00  0.00000000000E+00  0.11409224053E+03  0.11409224053E+03  0.00000000000E+00 0. -1.
          2   -1    0    0  501    0  0.00000000000E+00 -0.00000000000E+00 -0.30440898343E+03  0.30440898343E+03  0.00000000000E+00 0.  1.
         25    2    1    2    0    0 -0.12937305224E+03  0.76914344014E+02 -0.11635832048E+03  0.22768518552E+03  0.12509229393E+03 0.  0.
         23    2    1    2    0    0  0.12937305224E+03 -0.76914344014E+02 -0.73958422412E+02  0.19081603844E+03  0.91036856916E+02 0.  0.
          5    1    3    3  502    0  0.60404136743E+01  0.26228657784E+02  0.16024690919E+02  0.31602091791E+02  0.41800000000E+01 0.  1.
         -5    1    3    3    0  502 -0.13541346592E+03  0.50685686230E+02 -0.13238301140E+03  0.19608309373E+03  0.41800000000E+01 0.  1.
        -11    1    4    4    0    0  0.11298240160E+03 -0.90862141287E+02 -0.39639786006E+02  0.15030723344E+03  0.00000000000E+00 0. -1.
         11    1    4    4    0    0  0.16390650643E+02  0.13947797273E+02 -0.34318636407E+02  0.40508804994E+02  0.00000000000E+00 0.  1.
</event>
<event>
 8    1  0.6615242E-009  0.1866056E+03  0.7561462E-02  0.1161559E+00
          1   -1    0    0  501    0  0.00000000000E+00  0.00000000000E+00  0.26589484826E+03  0.26589484826E+03  0.00000000000E+00 0. -1.
         -1   -1    0    0    0  501 -0.00000000000E+00 -0.00000000000E+00 -0.17944920545E+03  0.17944920545E+03  0.00000000000E+00 0.  1.
         25    2    1    2    0    0 -0.13739849040E+03  0.12490689708E+03  0.70188659690E+02  0.23463423422E+03  0.12508676116E+03 0.  0.
         23    2    1    2    0    0  0.13739849040E+03 -0.12490689708E+03  0.16256983119E+02  0.21070981948E+03  0.98256096097E+02 0.  0.
          5    1    3    3  502    0 -0.49326896006E+02  0.53972381748E+02  0.93830299311E+02  0.11902839212E+03  0.41800000000E+01 0. -1.
         -5    1    3    3    0  502 -0.88071594398E+02  0.70934515334E+02 -0.23641639621E+02  0.11560584211E+03  0.41800000000E+01 0. -1.
        -11    1    4    4    0    0  0.82762944514E+02 -0.88432907601E+02  0.56522749405E+02  0.13365966232E+03  0.00000000000E+00 0. -1.
         11    1    4    4    0    0  0.54635545889E+02 -0.36473989482E+02 -0.40265766286E+02  0.77050157157E+02  0.00000000000E+00 0.  1.
</event>
<event>
 8    1  0.6615242E-009  0.6041286E+02  0.7561462E-02  0.1396107E+00
         -1   -1    0    0    0  501 -0.00000000000E+00  0.00000000000E+00  0.57997623564E+02  0.57997623564E+02  0.00000000000E+00 0.  1.
          1   -1    0    0  501    0  0.00000000000E+00 -0.00000000000E+00 -0.24850705739E+03  0.24850705739E+03  0.00000000000E+00 0. -1.
         25    2    1    2    0    0 -0.55964476022E+01  0.24197538818E+01 -0.17232947978E+03  0.21303008480E+03  0.12508873648E+03 0.  0.
         23    2    1    2    0    0  0.55964476022E+01 -0.24197538818E+01 -0.18179954043E+02  0.93474596149E+02  0.91486687347E+02 0.  0.
          5    1    3    3  502    0 -0.95362710646E+01 -0.45260699626E+02 -0.15526667229E+03  0.16206382484E+03  0.41800000000E+01 0.  1.
         -5    1    3    3    0  502  0.39398234624E+01  0.47680453507E+02 -0.17062807491E+02  0.50966259967E+02  0.41800000000E+01 0.  1.
        -11    1    4    4    0    0  0.55228766861E+01 -0.13858589573E+02  0.35543181606E+02  0.38547119614E+02  0.00000000000E+00 0.  1.
         11    1    4    4    0    0  0.73570916117E-01  0.11438835692E+02 -0.53723135649E+02  0.54927476536E+02  0.00000000000E+00 0. -1.
</event>
<event>
 8    1  0.6615242E-009  0.1938653E+03  0.7561462E-02  0.1155021E+00
         -2   -1    0    0    0  501 -0.00000000000E+00  0.00000000000E+00  0.60939242999E+02  0.60939242999E+02  0.00000000000E+00 0.  1.
          2   -1    0    0  501    0  0.00000000000E+00 -0.00000000000E+00 -0.76728922700E+03  0.76728922700E+03  0.00000000000E+00 0. -1.
         25    2    1    2    0    0 -0.95465005864E+02 -0.16158798977E+03 -0.34911382089E+03  0.41563264852E+03  0.12508314353E+03 0.  0.
         23    2    1    2    0    0  0.95465005864E+02  0.16158798977E+03 -0.35723616311E+03  0.41259582148E+03  0.85984823592E+02 0.  0.
          5    1    3    3  502    0 -0.18759045270E+02 -0.37597471195E+02 -0.20953985670E+03  0.21375194868E+03  0.41800000000E+01 0.  1.
         -5    1    3    3    0  502 -0.76705960595E+02 -0.12399051857E+03 -0.13957396419E+03  0.20188069984E+03  0.41800000000E+01 0.  1.
        -11    1    4    4    0    0 -0.10304142439E+02  0.23870799824E+02 -0.91759885780E+02  0.95372255263E+02  0.00000000000E+00 0. -1.
         11    1    4    4    0    0  0.10576914830E+03  0.13771718994E+03 -0.26547627733E+03  0.31722356622E+03  0.00000000000E+00 0.  1.
</event>
<event>
 8    1  0.6615242E-009  0.2296628E+03  0.7561462E-02  0.1126877E+00
         -2   -1    0    0    0  501 -0.00000000000E+00  0.00000000000E+00  0.11957070775E+03  0.11957070775E+03  0.00000000000E+00 0.  1.
          2   -1    0    0  501    0  0.00000000000E+00 -0.00000000000E+00 -0.56375741305E+03  0.56375741305E+03  0.00000000000E+00 0. -1.
         25    2    1    2    0    0  0.15829569477E+03 -0.14786314743E+03 -0.34900681379E+03  0.42938818262E+03  0.12508963963E+03 0.  0.
         23    2    1    2    0    0 -0.15829569477E+03  0.14786314743E+03 -0.95179891510E+02  0.25393993818E+03  0.92223874894E+02 0.  0.
          5    1    3    3  502    0  0.16106185471E+03 -0.13066868657E+03 -0.23282327662E+03  0.31183229023E+03  0.41800000000E+01 0. -1.
         -5    1    3    3    0  502 -0.27661599375E+01 -0.17194460865E+02 -0.11618353717E+03  0.11755589239E+03  0.41800000000E+01 0. -1.
        -11    1    4    4    0    0 -0.65528709319E+02  0.12064873286E+03 -0.41864002742E+02  0.14353648739E+03  0.00000000000E+00 0.  1.
         11    1    4    4    0    0 -0.92766985456E+02  0.27214414572E+02 -0.53315888767E+02  0.11040345079E+03  0.00000000000E+00 0. -1.
</event>
<event>
 8    1  0.6615242E-009  0.1637506E+03  0.7561462E-02  0.1184526E+00
          1   -1    0    0  501    0  0.00000000000E+00  0.00000000000E+00  0.45920838378E+02  0.45920838378E+02  0.00000000000E+00 0. -1.
         -1   -1    0    0    0  501 -0.00000000000E+00 -0.00000000000E+00 -0.77546372172E+03  0.77546372172E+03  0.00000000000E+00 0.  1.
         25    2    1    2    0    0 -0.13049239042E+03  0.81895388437E+02 -0.38355237318E+03  0.43185096117E+03  0.12509081135E+03 0.  0.
         23    2    1    2    0    0  0.13049239042E+03 -0.81895388437E+02 -0.34599051015E+03  0.38953359892E+03  0.91059721994E+02 0.  0.
          5    1    3    3  502    0 -0.76828013468E+02  0.90625581991E+02 -0.14680130286E+03  0.18890112410E+03  0.41800000000E+01 0.  1.
         -5    1    3    3    0  502 -0.53664376951E+02 -0.87301935535E+01 -0.23675107033E+03  0.24294983707E+03  0.41800000000E+01 0.  1.
        -11    1    4    4    0    0  0.10165598503E+03 -0.65185238084E+02 -0.33219389577E+03  0.35346264151E+03  0.00000000000E+00 0.  1.
         11    1    4    4    0    0  0.28836405386E+02 -0.16710150353E+02 -0.13796614388E+02  0.36070957417E+02  0.00000000000E+00 0. -1.
</event>
<event>
 7    1  0.6615242E-009  0.1673353E+03  0.7561462E-02  0.1180656E+00
         -1   -1    0    0    0  501 -0.00000000000E+00  0.00000000000E+00  0.14240920568E+03  0.14240920568E+03  0.00000000000E+00 0.  1.
          1   -1    0    0  501    0  0.00000000000E+00 -0.00000000000E+00 -0.23708584483E+03  0.23708584483E+03  0.00000000000E+00 0. -1.
         25    2    1    2    0    0  0.40565010364E+02 -0.11090847226E+03 -0.59238011490E+02  0.18194282022E+03  0.12509132080E+03 0.  0.
          5    1    3    3  502    0 -0.14183157499E+02 -0.71343425150E+02  0.22093988327E+02  0.76135819356E+02  0.41800000000E+01 0. -1.
         -5    1    3    3    0  502  0.54748167863E+02 -0.39565047109E+02 -0.81331999818E+02  0.10580700086E+03  0.41800000000E+01 0. -1.
        -11    1    1    2    0    0 -0.99684061939E+02  0.77177987449E+02 -0.18578873817E+02  0.12743048499E+03  0.00000000000E+00 0. -1.
         11    1    1    2    0    0  0.59119051575E+02  0.33730484810E+02 -0.16859753847E+02  0.70121745304E+02  0.00000000000E+00 0.  1.
</event>
<event>
 8    1  0.6615242E-009  0.1051826E+03  0.7561462E-02  0.1269760E+00
          1   -1    0    0  501    0  0.00000000000E+00  0.00000000000E+00  0.31444661819E+03  0.31444661819E+03  0.00000000000E+00 0. -1.
         -1   -1    0    0    0  501 -0.00000000000E+00 -0.00000000000E+00 -0.49485617017E+02  0.49485617017E+02  0.00000000000E+00 0.  1.
         25    2    1    2    0    0 -0.45407027640E+02  0.10889251369E+02  0.20545732305E+03  0.24503327754E+03  0.12509285173E+03 0.  0.
         23    2    1    2    0    0  0.45407027640E+02 -0.10889251369E+02  0.59503678121E+02  0.11889895766E+03  0.91738217054E+02 0.  0.
          5    1    3    3  502    0 -0.17669049277E+02 -0.53390231887E+02  0.13164358814E+03  0.14321389200E+03  0.41800000000E+01 0.  1.
         -5    1    3    3    0  502 -0.27737978363E+02  0.64279483256E+02  0.73813734908E+02  0.10181938554E+03  0.41800000000E+01 0.  1.
        -11    1    4    4    0    0 -0.17540712887E+02  0.62136114477E+01 -0.11976314063E+02  0.22129565616E+02  0.00000000000E+00 0. -1.
         11    1    4    4    0    0  0.62947740527E+02 -0.17102862817E+02  0.71479992184E+02  0.96769392044E+02  0.00000000000E+00 0.  1.
</event>
<event>
 8    1  0.6615242E-009  0.7731911E+02  0.7561462E-02  0.1336836E+00
         -1   -1    0    0    0  501 -0.00000000000E+00  0.00000000000E+00  0.65553652761E+02  0.65553652761E+02  0.00000000000E+00 0.  1.
          1   -1    0    0  501    0  0.00000000000E+00 -0.00000000000E+00 -0.22437225502E+03  0.22437225502E+03  0.00000000000E+00 0. -1.
         25    2    1    2    0    0 -0.19533826971E+02 -0.47628304135E+02 -0.11098054347E+03  0.17496897299E+03  0.12508970672E+03 0.  0.
         23    2    1    2    0    0  0.19533826971E+02  0.47628304135E+02 -0.47838058791E+02  0.11495693480E+03  0.90975772811E+02 0.  0.
          5    1    3    3  502    0 -0.55049967576E+01 -0.36960221706E+02  0.20104563946E+02  0.42638349749E+02  0.41800000000E+01 0.  1.
         -5    1    3    3    0  502 -0.14028830213E+02 -0.10668082429E+02 -0.13108510742E+03  0.13233062324E+03  0.41800000000E+01 0.  1.
        -11    1    4    4    0    0 -0.22487005607E+02 -0.12377154553E+02 -0.30149043264E+02  0.39595759694E+02  0.00000000000E+00 0. -1.
         11    1    4    4    0    0  0.42020832578E+02  0.60005458688E+02 -0.17689015527E+02  0.75361175105E+02  0.00000000000E+00 0.  1.
</event>
<event>
 8    1  0.6615242E-009  0.9458379E+02  0.7561462E-02  0.1292116E+00
          2   -1    0    0  501    0  0.00000000000E+00  0.00000000000E+00  0.36195454830E+03  0.36195454830E+03  0.00000000000E+00 0. -1.
         -2   -1    0    0    0  501 -0.00000000000E+00 -0.00000000000E+00 -0.47161845646E+02  0.47161845646E+02  0.00000000000E+00 0.  1.
         25    2    1    2    0    0 -0.63010804466E+02 -0.32476682452E+02  0.19740086171E+03  0.24421176444E+03  0.12508872573E+03 0.  0.
         23    2    1    2    0    0  0.63010804466E+02  0.32476682452E+02  0.11739184095E+03  0.16490462951E+03  0.91583820240E+02 0.  0.
          5    1    3    3  502    0 -0.45801071946E+02 -0.45945495723E+02  0.20917105735E+03  0.21904047663E+03  0.41800000000E+01 0. -1.
         -5    1    3    3    0  502 -0.17209732520E+02  0.13468813271E+02 -0.11770195646E+02  0.25171287808E+02  0.41800000000E+01 0. -1.
        -11    1    4    4    0    0 -0.15848667890E+02 -0.17436241346E+01 -0.37324852608E+01  0.16375345653E+02  0.00000000000E+00 0.  1.
         11    1    4    4    0    0  0.78859472357E+02  0.34220306587E+02  0.12112432621E+03  0.14852928386E+03  0.00000000000E+00 0. -1.
</event>
<event>
 8    1  0.6615242E-009  0.2424204E+03  0.7561462E-02  0.1118191E+00
          1   -1    0    0  501    0  0.00000000000E+00  0.00000000000E+00  0.13768825802E+04  0.13768825802E+04  0.00000000000E+00 0. -1.
         -1   -1    0    0    0  501 -0.00000000000E+00 -0.00000000000E+00 -0.35618869860E+03  0.35618869860E+03  0.00000000000E+00 0.  1.
         25    2    1    2    0    0  0.87226963740E+02 -0.20503518074E+03  0.13223985488E+04  0.13468604314E+04  0.12508849366E+03 0.  0.
         23    2    1    2    0    0 -0.87226963740E+02  0.20503518074E+03 -0.30170466726E+03  0.38621084736E+03  0.92114840423E+02 0.  0.
          5    1    3    3  502    0  0.10897348762E+03 -0.14333352940E+03  0.78045562599E+03  0.80096702690E+03  0.41800000000E+01 0.  1.
         -5    1    3    3    0  502 -0.21746523877E+02 -0.61701651340E+02  0.54194292286E+03  0.54589340454E+03  0.41800000000E+01 0.  1.
        -11    1    4    4    0    0 -0.89501360659E+02  0.10031754357E+03 -0.14511218645E+03  0.19781721301E+03  0.00000000000E+00 0.  1.
         11    1    4    4    0    0  0.22743969186E+01  0.10471763716E+03 -0.15659248081E+03  0.18839363434E+03  0.00000000000E+00 0. -1.
</event>
<event>
 7    1  0.6615242E-009  0.8333533E+02  0.7561462E-02  0.1319844E+00
          1   -1    0    0  501    0  0.00000000000E+00  0.00000000000E+00  0.11588453348E+03  0.11588453348E+03  0.00000000000E+00 0.  1.
         -1   -1    0    0    0  501 -0.00000000000E+00 -0.00000000000E+00 -0.13318151665E+03  0.13318151665E+03  0.00000000000E+00 0. -1.
         23    2    1    2    0    0 -0.44274702572E+02  0.34634484455E+02 -0.42526930198E+02  0.11002972904E+03  0.84487896647E+02 0.  0.
          5    1    1    2  502    0 -0.99369056594E+01 -0.23957879121E+02 -0.43459608318E+02  0.50783186403E+02  0.41800000000E+01 0. -1.
         -5    1    1    2    0  502  0.54211608232E+02 -0.10676605335E+02  0.68689555350E+02  0.88253134691E+02  0.41800000000E+01 0. -1.
        -11    1    3    3    0    0 -0.22138650873E+02  0.52218800597E+02  0.26015612110E+01  0.56777558234E+02  0.00000000000E+00 0.  1.
         11    1    3    3    0    0 -0.22136051699E+02 -0.17584316142E+02 -0.45128491409E+02  0.53252170809E+02  0.00000000000E+00 0. -1.
</event>
<event>
 8    1  0.6615242E-009  0.1185716E+03  0.7561462E-02  0.1245472E+00
          2   -1    0    0  501    0  0.00000000000E+00  0.00000000000E+00  0.15752203756E+04  0.15752203756E+04  0.00000000000E+00 0. -1.
         -2   -1    0    0    0  501 -0.00000000000E+00 -0.00000000000E+00 -0.12109525213E+02  0.12109525213E+02  0.00000000000E+00 0.  1.
         25    2    1    2    0    0  0.19446026812E+02  0.79925885097E+02  0.97889151005E+03  0.99027414559E+03  0.12509196585E+03 0.  0.
         23    2    1    2    0    0 -0.19446026812E+02 -0.79925885097E+02  0.58421934035E+03  0.59705575523E+03  0.91635376075E+02 0.  0.
          5    1    3    3  502    0  0.46902065267E+02  0.71162807645E+02  0.33408706297E+03  0.34481239386E+03  0.41800000000E+01 0.  1.
         -5    1    3    3    0  502 -0.27456038454E+02  0.87630774520E+01  0.64480444708E+03  0.64546175173E+03  0.41800000000E+01 0.  1.
        -11    1    4    4    0    0 -0.51287063715E+02 -0.74413121893E+02  0.40686159896E+03  0.41677816200E+03  0.00000000000E+00 0.  1.
         11    1    4    4    0    0  0.31841036903E+02 -0.55127632040E+01  0.17735774140E+03  0.18027759323E+03  0.00000000000E+00 0. -1.
</event>
<event>
 8    1  0.6615242E-009  0.8173150E+02  0.7561462E-02  0.1324208E+00
          2   -1    0    0  501    0  0.00000000000E+00  0.00000000000E+00  0.49037141165E+03  0.49037141165E+03  0.00000000000E+00 0. -1.
         -2   -1    0    0    0  501 -0.00000000000E+00 -0.00000000000E+00 -0.27833267819E+02  0.27833267819E+02  0.00000000000E+00 0.  1.
         25    2    1    2    0    0  0.17012612322E+02  0.20928930112E+02  0.18614685305E+03  0.22586576224E+03  0.12504896065E+03 0.  0.
         23    2    1    2    0    0 -0.17012612322E+02 -0.20928930112E+02  0.27639129079E+03  0.29233891723E+03  0.91337001324E+02 0.  0.
          5    1    3    3  502    0  0.99388038712E+00 -0.22371147254E+02  0.17719385685E+03  0.17865215177E+03  0.41800000000E+01 0.  1.
         -5    1    3    3    0  502  0.16018731934E+02  0.43300077366E+02  0.89529961988E+01  0.47213610470E+02  0.41800000000E+01 0.  1.
        -11    1    4    4    0    0 -0.51720265201E+02 -0.28135984671E+02  0.15233136684E+03  0.16331400671E+03  0.00000000000E+00 0.  1.
         11    1    4    4    0    0  0.34707652879E+02  0.72070545593E+01  0.12405992395E+03  0.12902491052E+03  0.00000000000E+00 0. -1.
</event>
<event>
 8    1  0.6615242E-009  0.1973913E+03  0.7561462E-02  0.1151959E+00
          1   -1    0    0  501    0  0.00000000000E+00  0.00000000000E+00  0.24241458688E+03  0.24241458688E+03  0.00000000000E+00 0. -1.
         -1   -1    0    0    0  501 -0.00000000000E+00 -0.00000000000E+00 -0.21346423795E+03  0.21346423795E+03  0.00000000000E+00 0.  1.
         25    2    1    2    0    0 -0.10706528780E+03  0.15977712093E+03  0.69306652615E+02  0.23967156571E+03  0.12508934044E+03 0.  0.
         23    2    1    2    0    0  0.10706528780E+03 -0.15977712093E+03 -0.40356303682E+02  0.21620725911E+03  0.90140132147E+02 0.  0.
          5    1    3    3  502    0 -0.69734910063E+01  0.93243068838E+01  0.57189446249E+02  0.58512199053E+02  0.41800000000E+01 0. -1.
         -5    1    3    3    0  502 -0.10009179679E+03  0.15045281405E+03  0.12117206366E+02  0.18115936666E+03  0.41800000000E+01 0. -1.
        -11    1    4    4    0    0  0.97433300638E+02 -0.94702342379E+02  0.55533390891E+01  0.13598757774E+03  0.00000000000E+00 0. -1.
         11    1    4    4    0    0  0.96319871592E+01 -0.65074778550E+02 -0.45909642772E+02  0.80219681372E+02  0.00000000000E+00 0.  1.
</event>
<event>
 8    1  0.6615242E-009  0.9645439E+02  0.7561462E-02  0.1287934E+00
          1   -1    0    0  501    0  0.00000000000E+00  0.00000000000E+00  0.30162758102E+03  0.30162758102E+03  0.00000000000E+00 0. -1.
         -1   -1    0    0    0  501 -0.00000000000E+00 -0.00000000000E+00 -0.40306000171E+02  0.40306000171E+02  0.00000000000E+00 0.  1.
         25    2    1    2    0    0  0.45782934669E+01 -0.21135090146E+02  0.15301710594E+03  0.19881907817E+03  0.12508852197E+03 0.  0.
         23    2    1    2    0    0 -0.45782934669E+01  0.21135090146E+02  0.10830447492E+03  0.14311450302E+03  0.91017849248E+02 0.  0.
          5    1    3    3  502    0 -0.42072926571E+02  0.11519580521E+02  0.10173664598E+02  0.44986750683E+02  0.41800000000E+01 0.  1.
         -5    1    3    3    0  502  0.46651220038E+02 -0.32654670667E+02  0.14284344134E+03  0.15383232749E+03  0.41800000000E+01 0.  1.
        -11    1    4    4    0    0  0.49015712598E+01  0.55818997596E+02  0.52863226250E+02  0.77034450624E+02  0.00000000000E+00 0. -1.
         11    1    4    4    0    0 -0.94798647266E+01 -0.34683907449E+02  0.55441248666E+02  0.66080052397E+02  0.00000000000E+00 0.  1.
</event>
<event>
 8    1  0.6615242E-009  0.9925654E+02  0.7561462E-02  0.1281867E+00
         -2   -1    0    0    0  501 -0.00000000000E+00  0.00000000000E+00  0.38838832723E+02  0.38838832723E+02  0.00000000000E+00 0.  1.
          2   -1    0    0  501    0  0.00000000000E+00 -0.00000000000E+00 -0.51082235744E+03  0.51082235744E+03  0.00000000000E+00 0. -1.
         25    2    1    2    0    0 -0.64684945569E+02 -0.12300017881E+02 -0.37391309762E+03  0.39974473839E+03  0.12509763655E+03 0.  0.
         23    2    1    2    0    0  0.64684945569E+02  0.12300017881E+02 -0.98070427096E+02  0.14991645178E+03  0.92313060939E+02 0.  0.
          5    1    3    3  502    0  0.27654509303E+02 -0.14695436640E+02 -0.20280399520E+03  0.20525023901E+03  0.41800000000E+01 0.  1.
         -5    1    3    3    0  502 -0.92339454872E+02  0.23954187599E+01 -0.17110910242E+03  0.19449449938E+03  0.41800000000E+01 0.  1.
        -11    1    4    4    0    0  0.33949659680E+01  0.12716969723E+02  0.15820841606E+02  0.20580236684E+02  0.00000000000E+00 0.  1.
         11    1    4    4    0    0  0.61289979601E+02 -0.41695184295E+00 -0.11389126870E+03  0.12933621509E+03  0.00000000000E+00 0. -1.
</event>
<event>
 8    1  0.6615242E-009  0.1559726E+03  0.7561462E-02  0.1193320E+00
         -2   -1    0    0    0  501 -0.00000000000E+00  0.00000000000E+00  0.28421611986E+02  0.28421611986E+02  0.00000000000E+00 0.  1.
          2   -1    0    0  501    0  0.00000000000E+00 -0.00000000000E+00 -0.10422686162E+04  0.10422686162E+04  0.00000000000E+00 0. -1.
         25    2    1    2    0    0  0.71835868350E+02 -0.10587894459E+03 -0.65540755086E+03  0.67939539891E+03  0.12509319505E+03 0.  0.
         23    2    1    2    0    0 -0.71835868350E+02  0.10587894459E+03 -0.35843945335E+03  0.39129482927E+03  0.90895867936E+02 0.  0.
          5    1    3    3  502    0 -0.26859898248E+02 -0.72718970955E+00 -0.48781830327E+02  0.55849103027E+02  0.41800000000E+01 0.  1.
         -5    1    3    3    0  502  0.98695766599E+02 -0.10515175488E+03 -0.60662572054E+03  0.62354629589E+03  0.41800000000E+01 0.  1.
        -11    1    4    4    0    0 -0.34969272011E+02  0.96204213837E+02 -0.16528038833E+03  0.19441118155E+03  0.00000000000E+00 0.  1.
         11    1    4    4    0    0 -0.36866596339E+02  0.96747307530E+01 -0.19315906502E+03  0.19688364773E+03  0.00000000000E+00 0. -1.
</event>
<event>
 8    1  0.6615242E-009  0.1071661E+03  0.7561462E-02  0.1265910E+00
          2   -1    0    0  501    0  0.00000000000E+00  0.00000000000E+00  0.24454515345E+03  0.24454515345E+03  0.00000000000E+00 0. -1.
         -2   -1    0    0    0  501 -0.00000000000E+00 -0.00000000000E+00 -0.51107531413E+02  0.51107531413E+02  0.00000000000E+00 0.  1.
         25    2    1    2    0    0 -0.38015175200E+01  0.25929662221E+02  0.12933112993E+03  0.18182202853E+03  0.12508361193E+03 0.  0.
         23    2    1    2    0    0  0.38015175200E+01 -0.25929662221E+02  0.64106492106E+02  0.11383065633E+03  0.90338126346E+02 0.  0.
          5    1    3    3  502    0  0.18668373261E+02  0.69020103836E+02  0.10555224093E+03  0.12755795098E+03  0.41800000000E+01 0.  1.
         -5    1    3    3    0  502 -0.22469890781E+02 -0.43090441615E+02  0.23778889001E+02  0.54264077551E+02  0.41800000000E+01 0.  1.
        -11    1    4    4    0    0 -0.30355588760E+02 -0.45402421010E+02  0.34315049851E+02  0.64500885643E+02  0.00000000000E+00 0. -1.
         11    1    4    4    0    0  0.34157106280E+02  0.19472758789E+02  0.29791442255E+02  0.49329770686E+02  0.00000000000E+00 0.  1.
</event>
<event>
 8    1  0.6615242E-009  0.1259237E+03  0.7561462E-02  0.1233633E+00
          2   -1    0    0  501    0  0.00000000000E+00  0.00000000000E+00  0.54329618862E+03  0.54329618862E+03  0.00000000000E+00 0. -1.
         -2   -1    0    0    0  501 -0.00000000000E+00 -0.00000000000E+00 -0.50737607216E+02  0.50737607216E+02  0.00000000000E+00 0.  1.
         25    2    1    2    0    0 -0.52817668130E+02 -0.10041268360E+03  0.35519988966E+03  0.39330300223E+03  0.12509147393E+03 0.  0.
         23    2    1    2    0    0  0.52817668130E+02  0.10041268360E+03  0.13735869174E+03  0.20073079360E+03  0.92482583284E+02 0.  0.
          5    1    3    3  502    0 -0.13713887018E+02  0.12245041957E+02  0.27454252888E+00  0.18856286041E+02  0.41800000000E+01 0.  1.
         -5    1    3    3    0  502 -0.39103781112E+02 -0.11265772556E+03  0.35492534713E+03  0.37444671619E+03  0.41800000000E+01 0.  1.
        -11    1    4    4    0    0  0.17164742630E+02  0.25986949527E+02 -0.92525424787E+01  0.32489374842E+02  0.00000000000E+00 0.  1.
         11    1    4    4    0    0  0.35652925499E+02  0.74425734072E+02  0.14661123422E+03  0.16824141876E+03  0.00000000000E+00 0. -1.
</event>
<event>
 8    1  0.6615242E-009  0.1522344E+03  0.7561462E-02  0.1197754E+00
          3   -1    0    0  501    0  0.00000000000E+00  0.00000000000E+00  0.51678545606E+03  0.51678545606E+03  0.00000000000E+00 0. -1.
         -3   -1    0    0    0  501 -0.00000000000E+00 -0.00000000000E+00 -0.69336884660E+02  0.69336884660E+02  0.00000000000E+00 0.  1.
         25    2    1    2    0    0 -0.11348681010E+03  0.21326903506E+02  0.39532786200E+03  0.43042521693E+03  0.12509059124E+03 0.  0.
         23    2    1    2    0    0  0.11348681010E+03 -0.21326903506E+02  0.52120709394E+02  0.15569712378E+03  0.90503774106E+02 0.  0.
          5    1    3    3  502    0 -0.12095445653E+03 -0.19465061965E+02  0.23855912440E+03  0.26821036040E+03  0.41800000000E+01 0.  1.
         -5    1    3    3    0  502  0.74676464338E+01  0.40791965471E+02  0.15676873761E+03  0.16221485653E+03  0.41800000000E+01 0.  1.
        -11    1    4    4    0    0  0.64283642441E+02  0.28376792001E+02  0.31888173186E+01  0.70340582637E+02  0.00000000000E+00 0.  1.
         11    1    4    4    0    0  0.49203167655E+02 -0.49703695507E+02  0.48931892076E+02  0.85356541146E+02  0.00000000000E+00 0. -1.
</event>
<event>
 8    1  0.6615242E-009  0.1119448E+03  0.7561462E-02  0.1257010E+00
         -2   -1    0    0    0  501 -0.00000000000E+00  0.00000000000E+00  0.69393628578E+02  0.69393628578E+02  0.00000000000E+00 0. -1.
          2   -1    0    0  501    0  0.00000000000E+00 -0.00000000000E+00 -0.31557444023E+03  0.31557444023E+03  0.00000000000E+00 0.  1.
         25    2    1    2    0    0  0.45485408801E+02  0.81038147361E+01 -0.24908314979E+03  0.28253063778E+03  0.12508617649E+03 0.  0.
         23    2    1    2    0    0 -0.45485408801E+02 -0.81038147361E+01  0.29023381311E+01  0.10243743103E+03  0.91380574976E+02 0.  0.
          5    1    3    3  502    0  0.21285595927E+02 -0.57096473965E+02 -0.14435133985E+03  0.15674139737E+03  0.41800000000E+01 0. -1.
         -5    1    3    3    0  502  0.24199812874E+02  0.65200288701E+02 -0.10473180994E+03  0.12578924041E+03  0.41800000000E+01 0. -1.
        -11    1    4    4    0    0  0.23587419387E+02  0.45501748043E-01 -0.18157766179E+02  0.29766976607E+02  0.00000000000E+00 0.  1.
         11    1    4    4    0    0 -0.69072828188E+02 -0.81493164842E+01  0.21060104310E+02  0.72670454426E+02  0.00000000000E+00 0. -1.
</event>
<event>
 8    1  0.6615242E-009  0.1137113E+03  0.7561462E-02  0.1253848E+00
          2   -1    0    0  501    0  0.00000000000E+00  0.00000000000E+00  0.13095207650E+03  0.13095207650E+03  0.00000000000E+00 0. -1.
         -2   -1    0    0    0  501 -0.00000000000E+00 -0.00000000000E+00 -0.10934617068E+03  0.10934617068E+03  0.00000000000E+00 0.  1.
         25    2    1    2    0    0 -0.65014257644E+00 -0.49466446415E+02  0.22710470182E+02  0.13642121125E+03  0.12509048492E+03 0.  0.
         23    2    1    2    0    0  0.65014257644E+00  0.49466446415E+02 -0.11045643641E+01  0.10387703593E+03  0.91333819173E+02 0.  0.
          5    1    3    3  502    0 -0.61160446553E+01 -0.86193977712E+02 -0.95735794201E+01  0.87039839263E+02  0.41800000000E+01 0. -1.
         -5    1    3    3    0  502  0.54659020788E+01  0.36727531298E+02  0.32284049603E+02  0.49381371989E+02  0.41800000000E+01 0. -1.
        -11    1    4    4    0    0 -0.41933275119E+02  0.43712545540E+02 -0.47037947505E+01  0.60756167463E+02  0.00000000000E+00 0.  1.
         11    1    4    4    0    0  0.42583417695E+02  0.57539008747E+01  0.35992303864E+01  0.43120868466E+02  0.00000000000E+00 0. -1.
</event>
<event>
 8    1  0.6615242E-009  0.1050210E+03  0.7561462E-02  0.1270078E+00
          2   -1    0    0  501    0  0.00000000000E+00  0.00000000000E+00  0.74041804668E+02  0.74041804668E+02  0.00000000000E+00 0. -1.
         -2   -1    0    0    0  501 -0.00000000000E+00 -0.00000000000E+00 -0.16575482714E+03  0.16575482714E+03  0.00000000000E+00 0.  1.
         25    2    1    2    0    0 -0.31416115259E+02 -0.25086718653E+02 -0.26672872342E+02  0.13407216776E+03  0.12509032056E+03 0.  0.
         23    2    1    2    0    0  0.31416115259E+02  0.25086718653E+02 -0.65040150126E+02  0.10572446404E+03  0.73014556206E+02 0.  0.
          5    1    3    3  502    0  0.48138082904E+02 -0.80575310305E+01 -0.17827873793E+02  0.52129687473E+02  0.41800000000E+01 0. -1.
         -5    1    3    3    0  502 -0.79554198163E+02 -0.17029187622E+02 -0.88449985487E+01  0.81942480288E+02  0.41800000000E+01 0. -1.
        -11    1    4    4    0    0  0.53475514916E+02  0.17737188704E+02 -0.59254606893E+02  0.81763971263E+02  0.00000000000E+00 0.  1.
         11    1    4    4    0    0 -0.22059399657E+02  0.73495299483E+01 -0.57855432331E+01  0.23960492779E+02  0.00000000000E+00 0. -1.
</event>
<event>
 8    1  0.6615242E-009  0.1964432E+03  0.7561462E-02  0.1152775E+00
         -1   -1    0    0    0  501 -0.00000000000E+00  0.00000000000E+00  0.49996304288E+03  0.49996304288E+03  0.00000000000E+00 0.  1.
          1   -1    0    0  501    0  0.00000000000E+00 -0.00000000000E+00 -0.14145081806E+03  0.14145081806E+03  0.00000000000E+00 0. -1.
         25    2    1    2    0    0  0.14403564076E+03  0.12260405415E+03  0.35659425457E+03  0.42259350435E+03  0.12509111731E+03 0.  0.
         23    2    1    2    0    0 -0.14403564076E+03 -0.12260405415E+03  0.19179702577E+01  0.21882035658E+03  0.11000295424E+03 0.  0.
          5    1    3    3  502    0  0.23830682718E+02  0.35876904043E+02  0.20878909610E+03  0.21322620086E+03  0.41800000000E+01 0.  1.
         -5    1    3    3    0  502  0.12020495805E+03  0.86727150104E+02  0.14780515847E+03  0.20936730350E+03  0.41800000000E+01 0.  1.
        -11    1    4    4    0    0 -0.36191818876E+02  0.23551184862E+01  0.35083688907E+02  0.50460475265E+02  0.00000000000E+00 0.  1.
         11    1    4    4    0    0 -0.10784382189E+03 -0.12495917263E+03 -0.33165718649E+02  0.16835988132E+03  0.00000000000E+00 0. -1.
</event>
<event>
 8    1  0.6615242E-009  0.1020102E+03  0.7561462E-02  0.1276125E+00
         -2   -1    0    0    0  501 -0.00000000000E+00  0.00000000000E+00  0.76724932969E+02  0.76724932969E+02  0.00000000000E+00 0.  1.
          2   -1    0    0  501    0  0.00000000000E+00 -0.00000000000E+00 -0.18809589969E+03  0.18809589969E+03  0.00000000000E+00 0. -1.
         25    2    1    2    0    0  0.13348390174E+02  0.14922994396E+02 -0.93269918115E+01  0.12703167689E+03  0.12509667811E+03 0.  0.
         23    2    1    2    0    0 -0.13348390174E+02 -0.14922994396E+02 -0.10204397491E+03  0.13778915578E+03  0.90399133576E+02 0.  0.
          5    1    3    3  502    0 -0.17424344905E+02 -0.50851965249E+02 -0.25063552753E+01  0.53974849531E+02  0.41800000000E+01 0.  1.
         -5    1    3    3    0  502  0.30772735079E+02  0.65774959645E+02 -0.68206365361E+01  0.73056827356E+02  0.41800000000E+01 0.  1.
        -11    1    4    4    0    0 -0.43933584303E+02 -0.16014556554E+02 -0.21193272295E+02  0.51339854323E+02  0.00000000000E+00 0.  1.
         11    1    4    4    0    0  0.30585194129E+02  0.10915621588E+01 -0.80850702618E+02  0.86449301453E+02  0.00000000000E+00 0. -1.
</event>
<event>
 8    1  0.6615242E-009  0.1613537E+03  0.7561462E-02  0.1187177E+00
          1   -1    0    0  501    0  0.00000000000E+00  0.00000000000E+00  0.98311666526E+02  0.98311666526E+02  0.00000000000E+00 0. -1.
         -1   -1    0    0    0  501 -0.00000000000E+00 -0.00000000000E+00 -0.35372333188E+03  0.35372333188E+03  0.00000000000E+00 0.  1.
         25    2    1    2    0    0  0.77922598434E+02 -0.12530767829E+03 -0.93493436501E+02  0.21485533353E+03  0.12509135099E+03 0.  0.
         23    2    1    2    0    0 -0.77922598434E+02  0.12530767829E+03 -0.16191822885E+03  0.23717966487E+03  0.90899587502E+02 0.  0.
          5    1    3    3  502    0  0.63098638680E+02 -0.11575229548E+03 -0.12291870004E+03  0.18029562205E+03  0.41800000000E+01 0. -1.
         -5    1    3    3    0  502  0.14823959753E+02 -0.95553828160E+01  0.29425263537E+02  0.34559711483E+02  0.41800000000E+01 0. -1.
        -11    1    4    4    0    0 -0.91777973935E+01  0.98450969817E+02 -0.82645457363E+02  0.12886852620E+03  0.00000000000E+00 0. -1.
         11    1    4    4    0    0 -0.68744801040E+02  0.26856708477E+02 -0.79272771488E+02  0.10831113867E+03  0.00000000000E+00 0.  1.
</event>
<event>
 8    1  0.6615242E-009  0.1315867E+03  0.7561462E-02  0.1225120E+00
          2   -1    0    0  501    0  0.00000000000E+00  0.00000000000E+00  0.69569533851E+03  0.69569533851E+03  0.00000000000E+00 0. -1.
         -2   -1    0    0    0  501 -0.00000000000E+00 -0.00000000000E+00 -0.27530868622E+02  0.27530868622E+02  0.00000000000E+00 0.  1.
         25    2    1    2    0    0  0.48040394715E+02 -0.64877337091E+02  0.44014984161E+03  0.46464461969E+03  0.12508313694E+03 0.  0.
         23    2    1    2    0    0 -0.48040394715E+02  0.64877337091E+02  0.22801462828E+03  0.25858158744E+03  0.91415634673E+02 0.  0.
          5    1    3    3  502    0  0.67378343119E+02  0.96478679075E+01  0.15672569903E+03  0.17091910254E+03  0.41800000000E+01 0.  1.
         -5    1    3    3    0  502 -0.19337948404E+02 -0.74525204998E+02  0.28342414258E+03  0.29372551715E+03  0.41800000000E+01 0.  1.
        -11    1    4    4    0    0 -0.35742655916E+02  0.86167403608E+02  0.14866054048E+03  0.17550588364E+03  0.00000000000E+00 0.  1.
         11    1    4    4    0    0 -0.12297738799E+02 -0.21290066517E+02  0.79354087800E+02  0.83075703804E+02  0.00000000000E+00 0. -1.
</event>
<event>
 8    1  0.6615242E-009  0.1110993E+03  0.7561462E-02  0.1258548E+00
         -2   -1    0    0    0  501 -0.00000000000E+00  0.00000000000E+00  0.33829846177E+03  0.33829846177E+03  0.00000000000E+00 0.  1.
          2   -1    0    0  501    0  0.00000000000E+00 -0.00000000000E+00 -0.68831989036E+02  0.68831989036E+02  0.00000000000E+00 0. -1.
         25    2    1    2    0    0 -0.22108172214E+02 -0.77491112652E+02  0.25963881592E+03  0.29925446688E+03  0.12508907784E+03 0.  0.
         23    2    1    2    0    0  0.22108172214E+02  0.77491112652E+02  0.98276568185E+01  0.10787598393E+03  0.71042249765E+02 0.  0.
          5    1    3    3  502    0 -0.66779583106E+02 -0.46659902431E+02  0.21112422689E+03  0.22633508521E+03  0.41800000000E+01 0.  1.
         -5    1    3    3    0  502  0.44671410892E+02 -0.30831210220E+02  0.48514589023E+02  0.72919381668E+02  0.41800000000E+01 0.  1.
        -11    1    4    4    0    0  0.17383696983E+02  0.13469551715E+02 -0.26244165737E+02  0.34240005540E+02  0.00000000000E+00 0. -1.
         11    1    4    4    0    0  0.47244752313E+01  0.64021560937E+02  0.36071822555E+02  0.73635978390E+02  0.00000000000E+00 0.  1.
</event>
<event>
 8    1  0.6615242E-009  0.9231040E+02  0.7561462E-02  0.1297351E+00
          4   -1    0    0  501    0  0.00000000000E+00  0.00000000000E+00  0.31482092766E+02  0.31482092766E+02  0.00000000000E+00 0. -1.
         -4   -1    0    0    0  501 -0.00000000000E+00 -0.00000000000E+00 -0.68746432866E+03  0.68746432866E+03  0.00000000000E+00 0.  1.
         25    2    1    2    0    0 -0.19364112751E+01  0.65958287799E+02 -0.17598463526E+03  0.22577123056E+03  0.12509121185E+03 0.  0.
         23    2    1    2    0    0  0.19364112751E+01 -0.65958287799E+02 -0.47999760064E+03  0.49317519087E+03  0.92031662221E+02 0.  0.
          5    1    3    3  502    0 -0.14874688346E+02  0.42306744466E+02  0.25999741045E+01  0.45114845074E+02  0.41800000000E+01 0. -1.
         -5    1    3    3    0  502  0.12938277071E+02  0.23651543333E+02 -0.17858460936E+03  0.18065638548E+03  0.41800000000E+01 0. -1.
        -11    1    4    4    0    0 -0.38371404636E+02 -0.42675766510E+01 -0.13605917226E+03  0.14143081439E+03  0.00000000000E+00 0. -1.
         11    1    4    4    0    0  0.40307815911E+02 -0.61690711148E+02 -0.34393842838E+03  0.35174437648E+03  0.00000000000E+00 0.  1.
</event>
<event>
 8    1  0.6615242E-009  0.1136658E+03  0.7561462E-02  0.1253928E+00
         -1   -1    0    0    0  501 -0.00000000000E+00  0.00000000000E+00  0.34170056039E+02  0.34170056039E+02  0.00000000000E+00 0.  1.
          1   -1    0    0  501    0  0.00000000000E+00 -0.00000000000E+00 -0.55611772694E+03  0.55611772694E+03  0.00000000000E+00 0. -1.
         25    2    1    2    0    0  0.67329635058E+02 -0.41403754458E+02 -0.22014278840E+03  0.26524785508E+03  0.12508407851E+03 0.  0.
         23    2    1    2    0    0 -0.67329635058E+02  0.41403754458E+02 -0.30180488250E+03  0.32503992791E+03  0.91198777355E+02 0.  0.
          5    1    3    3  502    0  0.67004119813E+02 -0.19671305602E+01 -0.34672576502E+02  0.75584929952E+02  0.41800000000E+01 0.  1.
         -5    1    3    3    0  502  0.32551524532E+00 -0.39436623897E+02 -0.18547021190E+03  0.18966292513E+03  0.41800000000E+01 0.  1.
        -11    1    4    4    0    0 -0.55233317740E+02 -0.19379450176E+02 -0.15535131840E+03  0.16601299529E+03  0.00000000000E+00 0.  1.
         11    1    4    4    0    0 -0.12096317318E+02  0.60783204633E+02 -0.14645356410E+03  0.15902693261E+03  0.00000000000E+00 0. -1.
</event>
<event>
 8    1  0.6615242E-009  0.9501196E+02  0.7561462E-02  0.1291149E+00
         -3   -1    0    0    0  501 -0.00000000000E+00  0.00000000000E+00  0.84429508441E+02  0.84429508441E+02  0.00000000000E+00 0.  1.
          3   -1    0    0  501    0  0.00000000000E+00 -0.00000000000E+00 -0.24622942136E+03  0.24622942136E+03  0.00000000000E+00 0. -1.
         25    2    1    2    0    0  0.46356000924E+02  0.50127218084E+02 -0.13835462587E+02  0.14317868235E+03  0.12508836173E+03 0.  0.
         23    2    1    2    0    0 -0.46356000924E+02 -0.50127218084E+02 -0.14796445033E+03  0.18748024745E+03  0.92702469268E+02 0.  0.
          5    1    3    3  502    0  0.21561678469E+02  0.44101584016E+02 -0.67524724651E+02  0.83587777398E+02  0.41800000000E+01 0.  1.
         -5    1    3    3    0  502  0.24794322456E+02  0.60256340681E+01  0.53689262064E+02  0.59590904952E+02  0.41800000000E+01 0.  1.
        -11    1    4    4    0    0 -0.64345539747E+02 -0.65071281874E+02 -0.11287530134E+03  0.14531157511E+03  0.00000000000E+00 0. -1.
         11    1    4    4    0    0  0.17989538823E+02  0.14944063790E+02 -0.35089148998E+02  0.42168672341E+02  0.00000000000E+00 0.  1.
</event>
<event>
 8    1  0.6615242E-009  0.1698741E+03  0.7561462E-02  0.1177979E+00
          1   -1    0    0  501    0  0.00000000000E+00  0.00000000000E+00  0.57663821060E+03  0.57663821060E+03  0.00000000000E+00 0. -1.
         -1   -1    0    0    0  501 -0.00000000000E+00 -0.00000000000E+00 -0.75426708522E+02  0.75426708522E+02  0.00000000000E+00 0.  1.
         25    2    1    2    0    0 -0.76237510807E+02  0.14856473983E+03  0.35668101991E+03  0.41322115960E+03  0.12508691699E+03 0.  0.
         23    2    1    2    0    0  0.76237510807E+02 -0.14856473983E+03  0.14453048217E+03  0.23884375953E+03  0.90959558125E+02 0.  0.
          5    1    3    3  502    0 -0.57925556020E+01  0.42210120336E+02  0.10243114770E+02  0.44018652403E+02  0.41800000000E+01 0. -1.
         -5    1    3    3    0  502 -0.70444955205E+02  0.10635461949E+03  0.34643790514E+03  0.36920250720E+03  0.41800000000E+01 0. -1.
        -11    1    4    4    0    0  0.26709464618E+02 -0.26747146547E+02  0.87869750126E+02  0.95655100940E+02  0.00000000000E+00 0. -1.
         11    1    4    4    0    0  0.49528046189E+02 -0.12181759328E+03  0.56660732042E+02  0.14318865858E+03  0.00000000000E+00 0.  1.
</event>
<event>
 8    1  0.6615242E-009  0.1112893E+03  0.7561462E-02  0.1258201E+00
          2   -1    0    0  501    0  0.00000000000E+00  0.00000000000E+00  0.55225801596E+03  0.55225801596E+03  0.00000000000E+00 0. -1.
         -2   -1    0    0    0  501 -0.00000000000E+00 -0.00000000000E+00 -0.30953218644E+02  0.30953218644E+02  0.00000000000E+00 0.  1.
         25    2    1    2    0    0 -0.23187500896E+01  0.58198182679E+02  0.38502255311E+03  0.40900262404E+03  0.12509346504E+03 0.  0.
         23    2    1    2    0    0  0.23187500896E+01 -0.58198182679E+02  0.13628224420E+03  0.17420861057E+03  0.91560825908E+02 0.  0.
          5    1    3    3  502    0  0.46899833761E+02 -0.13580885817E+02  0.17210690027E+03  0.17894773647E+03  0.41800000000E+01 0.  1.
         -5    1    3    3    0  502 -0.49218583850E+02  0.71779068495E+02  0.21291565284E+03  0.23005488757E+03  0.41800000000E+01 0.  1.
        -11    1    4    4    0    0 -0.38256759662E+01  0.13728529110E+02  0.83687314331E+02  0.84892136785E+02  0.00000000000E+00 0. -1.
         11    1    4    4    0    0  0.61444260558E+01 -0.71926711788E+02  0.52594929874E+02  0.89316473781E+02  0.00000000000E+00 0.  1.
</event>
<event>
 8    1  0.6615242E-009  0.8139355E+02  0.7561462E-02  0.1325143E+00
          1   -1    0    0  501    0  0.00000000000E+00  0.00000000000E+00  0.30692044017E+03  0.30692044017E+03  0.00000000000E+00 0. -1.
         -1   -1    0    0    0  501 -0.00000000000E+00 -0.00000000000E+00 -0.49276163256E+02  0.49276163256E+02  0.00000000000E+00 0.  1.
         25    2    1    2    0    0 -0.15441700858E+02  0.35130265396E+02  0.94872073551E+02  0.16161589504E+03  0.12508559276E+03 0.  0.
         23    2    1    2    0    0  0.15441700858E+02 -0.35130265396E+02  0.16277220336E+03  0.19458070839E+03  0.99469996564E+02 0.  0.
          5    1    3    3  502    0 -0.22017262109E+02 -0.76827991300E+01  0.11227609365E+03  0.11474832826E+03  0.41800000000E+01 0.  1.
         -5    1    3    3    0  502  0.65755612507E+01  0.42813064526E+02 -0.17404020101E+02  0.46867566776E+02  0.41800000000E+01 0.  1.
        -11    1    4    4    0    0 -0.36232873232E+02 -0.21524762141E+02  0.11652190770E+03  0.12390920653E+03  0.00000000000E+00 0. -1.
         11    1    4    4    0    0  0.51674574091E+02 -0.13605503255E+02  0.46250295662E+02  0.70671501860E+02  0.00000000000E+00 0.  1.
</event>
<event>
 8    1  0.6615242E-009  0.1032458E+03  0.7561462E-02  0.1273615E+00
         -4   -1    0    0    0  501 -0.00000000000E+00  0.00000000000E+00  0.12739716485E+04  0.12739716485E+04  0.00000000000E+00 0. -1.
          4   -1    0    0  501    0  0.00000000000E+00 -0.00000000000E+00 -0.31457230791E+02  0.31457230791E+02  0.00000000000E+00 0.  1.
         25    2    1    2    0    0 -0.83675754884E+01  0.77956533117E+02  0.11334682284E+04  0.11430415745E+04  0.12508628628E+03 0.  0.
         23    2    1    2    0    0  0.83675754884E+01 -0.77956533117E+02  0.10904618935E+03  0.16238730477E+03  0.91276108388E+02 0.  0.
          5    1    3    3  502    0  0.15198516149E+02  0.48255682932E+02  0.14133621227E+03  0.15017657317E+03  0.41800000000E+01 0. -1.
         -5    1    3    3    0  502 -0.23566091637E+02  0.29700850185E+02  0.99213201611E+03  0.99286500138E+03  0.41800000000E+01 0. -1.
        -11    1    4    4    0    0  0.88724002513E+01  0.18819067761E+02  0.75131700506E+01  0.22120680863E+02  0.00000000000E+00 0.  1.
         11    1    4    4    0    0 -0.50482476294E+00 -0.96775600878E+02  0.10153301930E+03  0.14026662390E+03  0.00000000000E+00 0. -1.
</event>
<event>
 8    1  0.6615242E-009  0.1073657E+03  0.7561462E-02  0.1265527E+00
         -1   -1    0    0    0  501 -0.00000000000E+00  0.00000000000E+00  0.15219034404E+03  0.15219034404E+03  0.00000000000E+00 0.  1.
          1   -1    0    0  501    0  0.00000000000E+00 -0.00000000000E+00 -0.93613928123E+02  0.93613928123E+02  0.00000000000E+00 0. -1.
         25    2    1    2    0    0  0.39098406468E+02  0.14714616220E+02  0.23713511421E+01  0.13191885950E+03  0.12510698168E+03 0.  0.
         23    2    1    2    0    0 -0.39098406468E+02 -0.14714616220E+02  0.56205064775E+02  0.11388541267E+03  0.89809089700E+02 0.  0.
          5    1    3    3  502    0 -0.21208611753E+02 -0.36990345563E+02  0.24495830828E+02  0.49351889582E+02  0.41800000000E+01 0. -1.
         -5    1    3    3    0  502  0.60307018221E+02  0.51704961784E+02 -0.22124479686E+02  0.82566969916E+02  0.41800000000E+01 0. -1.
        -11    1    4    4    0    0 -0.62112241967E+02  0.46184567200E+01  0.56106753820E+02  0.83828566544E+02  0.00000000000E+00 0.  1.
         11    1    4    4    0    0  0.23013835499E+02 -0.19333072940E+02  0.98310954947E-01  0.30056846121E+02  0.00000000000E+00 0. -1.
</event>
<event>
 8    1  0.6615242E-009  0.8515050E+02  0.7561462E-02  0.1315039E+00
         -1   -1    0    0    0  501 -0.00000000000E+00  0.00000000000E+00  0.83846971498E+02  0.83846971498E+02  0.00000000000E+00 0.  1.
          1   -1    0    0  501    0  0.00000000000E+00 -0.00000000000E+00 -0.20149864899E+03  0.20149864899E+03  0.00000000000E+00 0. -1.
         25    2    1    2    0    0  0.16330724350E+02  0.46985195953E+02 -0.79510244905E+01  0.13485416931E+03  0.12509247377E+03 0.  0.
         23    2    1    2    0    0 -0.16330724350E+02 -0.46985195953E+02 -0.10970065300E+03  0.15049145118E+03  0.90217195768E+02 0.  0.
          5    1    3    3  502    0 -0.22342592821E+02 -0.61258562596E+01  0.44724450810E+02  0.50541729978E+02  0.41800000000E+01 0.  1.
         -5    1    3    3    0  502  0.38673317171E+02  0.53111052212E+02 -0.52675475301E+02  0.84312439333E+02  0.41800000000E+01 0.  1.
        -11    1    4    4    0    0  0.23224566618E+02 -0.29849007081E+02 -0.99140321308E+02  0.10610912792E+03  0.00000000000E+00 0. -1.
         11    1    4    4    0    0 -0.39555290968E+02 -0.17136188872E+02 -0.10560331694E+02  0.44382323262E+02  0.00000000000E+00 0.  1.
</event>
<event>
 8    1  0.6615242E-009  0.1469622E+03  0.7561462E-02  0.1204256E+00
         -2   -1    0    0    0  501 -0.00000000000E+00  0.00000000000E+00  0.14020990250E+03  0.14020990250E+03  0.00000000000E+00 0.  1.
          2   -1    0    0  501    0  0.00000000000E+00 -0.00000000000E+00 -0.18959370447E+03  0.18959370447E+03  0.00000000000E+00 0. -1.
         25    2    1    2    0    0 -0.10951224989E+03  0.38744118153E+02  0.91330704016E+01  0.17095768618E+03  0.12509627462E+03 0.  0.
         23    2    1    2    0    0  0.10951224989E+03 -0.38744118153E+02 -0.58516872373E+02  0.15884592078E+03  0.91179836755E+02 0.  0.
          5    1    3    3  502    0 -0.48567559738E+02 -0.34121812949E+02 -0.31764317063E+02  0.67450353715E+02  0.41800000000E+01 0. -1.
         -5    1    3    3    0  502 -0.60944690149E+02  0.72865931102E+02  0.40897387464E+02  0.10350733247E+03  0.41800000000E+01 0. -1.
        -11    1    4    4    0    0  0.65471732299E+02 -0.61445792623E+02 -0.62095577305E+02  0.10916956482E+03  0.00000000000E+00 0.  1.
         11    1    4    4    0    0  0.44040517588E+02  0.22701674471E+02  0.35787049326E+01  0.49676355968E+02  0.00000000000E+00 0. -1.
</event>
<event>
 8    1  0.6615242E-009  0.1874513E+03  0.7561462E-02  0.1160780E+00
          4   -1    0    0  501    0  0.00000000000E+00  0.00000000000E+00  0.56861799752E+02  0.56861799752E+02  0.00000000000E+00 0. -1.
         -4   -1    0    0    0  501 -0.00000000000E+00 -0.00000000000E+00 -0.75766415138E+03  0.75766415138E+03  0.00000000000E+00 0.  1.
         25    2    1    2    0    0  0.71011435451E+02 -0.14832348679E+03 -0.23591926566E+03  0.31360299882E+03  0.12508581159E+03 0.  0.
         23    2    1    2    0    0 -0.71011435451E+02  0.14832348679E+03 -0.46488308597E+03  0.50092295231E+03  0.88119463407E+02 0.  0.
          5    1    3    3  502    0  0.24382495349E+02  0.18559288940E+02 -0.20461148791E+02  0.37082129055E+02  0.41800000000E+01 0.  1.
         -5    1    3    3    0  502  0.46628940101E+02 -0.16688277574E+03 -0.21545811687E+03  0.27652086977E+03  0.41800000000E+01 0.  1.
        -11    1    4    4    0    0 -0.38828750475E+02  0.33114310775E+02 -0.24841657239E+03  0.25360406716E+03  0.00000000000E+00 0.  1.
         11    1    4    4    0    0 -0.32182684976E+02  0.11520917602E+03 -0.21646651358E+03  0.24731888515E+03  0.00000000000E+00 0. -1.
</event>
<event>
 8    1  0.6615242E-009  0.2381022E+03  0.7561462E-02  0.1121064E+00
         -1   -1    0    0    0  501 -0.00000000000E+00  0.00000000000E+00  0.11984700630E+03  0.11984700630E+03  0.00000000000E+00 0.  1.
          1   -1    0    0  501    0  0.00000000000E+00 -0.00000000000E+00 -0.50666702443E+03  0.50666702443E+03  0.00000000000E+00 0. -1.
         25    2    1    2    0    0  0.14933939252E+03 -0.16239727742E+03 -0.18297983633E+03  0.31273436989E+03  0.12508411464E+03 0.  0.
         23    2    1    2    0    0 -0.14933939252E+03  0.16239727742E+03 -0.20384018180E+03  0.31377966085E+03  0.90728859663E+02 0.  0.
          5    1    3    3  502    0  0.15424806737E+03 -0.85672165572E+02 -0.12279550712E+03  0.21500789569E+03  0.41800000000E+01 0.  1.
         -5    1    3    3    0  502 -0.49086748486E+01 -0.76725111845E+02 -0.60184329211E+02  0.97726474197E+02  0.41800000000E+01 0.  1.
        -11    1    4    4    0    0 -0.96529050574E+02  0.82704810467E+02 -0.58773613587E+02  0.14004385361E+03  0.00000000000E+00 0. -1.
         11    1    4    4    0    0 -0.52810341947E+02  0.79692466950E+02 -0.14506656821E+03  0.17373580724E+03  0.00000000000E+00 0.  1.
</event>
<event>
 8    1  0.6615242E-009  0.1617562E+03  0.7561462E-02  0.1186728E+00
          3   -1    0    0  501    0  0.00000000000E+00  0.00000000000E+00  0.33743603823E+03  0.33743603823E+03  0.00000000000E+00 0. -1.
         -3   -1    0    0    0  501 -0.00000000000E+00 -0.00000000000E+00 -0.90078380502E+02  0.90078380502E+02  0.00000000000E+00 0.  1.
         25    2    1    2    0    0  0.57048713770E+02 -0.12450502960E+03  0.10851675534E+03  0.21489452409E+03  0.12509081563E+03 0.  0.
         23    2    1    2    0    0 -0.57048713770E+02  0.12450502960E+03  0.13884090238E+03  0.21261989464E+03  0.84701625041E+02 0.  0.
          5    1    3    3  502    0  0.87693150245E+01  0.18928807725E+02 -0.91369201261E+01  0.23155050362E+02  0.41800000000E+01 0.  1.
         -5    1    3    3    0  502  0.48279398745E+02 -0.14343383733E+03  0.11765367547E+03  0.19173947373E+03  0.41800000000E+01 0.  1.
        -11    1    4    4    0    0 -0.24497679516E+02  0.25698869930E+01  0.57285220588E+02  0.62356532285E+02  0.00000000000E+00 0. -1.
         11    1    4    4    0    0 -0.32551034253E+02  0.12193514261E+03  0.81555681795E+02  0.15026336236E+03  0.00000000000E+00 0.  1.
</event>
<event>
 8    1  0.6615242E-009  0.9143263E+02  0.7561462E-02  0.1299419E+00
         -3   -1    0    0    0  501 -0.00000000000E+00  0.00000000000E+00  0.47400621940E+03  0.47400621940E+03  0.00000000000E+00 0.  1.
          3   -1    0    0  501    0  0.00000000000E+00 -0.00000000000E+00 -0.51018965121E+02  0.51018965121E+02  0.00000000000E+00 0. -1.
         25    2    1    2    0    0 -0.34282357630E+02  0.34192828365E+02  0.39392690136E+03  0.41613594137E+03  0.12508512513E+03 0.  0.
         23    2    1    2    0    0  0.34282357630E+02 -0.34192828365E+02  0.29060352915E+02  0.10888924315E+03  0.93101737927E+02 0.  0.
          5    1    3    3  502    0 -0.63794386950E+02  0.41396611902E+02  0.36853511659E+03  0.37632300999E+03  0.41800000000E+01 0. -1.
         -5    1    3    3    0  502  0.29512029320E+02 -0.72037835367E+01  0.25391784771E+02  0.39812931388E+02  0.41800000000E+01 0. -1.
        -11    1    4    4    0    0  0.36748692277E+02 -0.48874944440E+02  0.52851450097E+02  0.80823897180E+02  0.00000000000E+00 0.  1.
         11    1    4    4    0    0 -0.24663346470E+01  0.14682116075E+02 -0.23791097182E+02  0.28065345965E+02  0.00000000000E+00 0. -1.
</event>
<event>
 8    1  0.6615242E-009  0.1776606E+03  0.7561462E-02  0.1170086E+00
         -2   -1    0    0    0  501 -0.00000000000E+00  0.00000000000E+00  0.71935171458E+02  0.71935171458E+02  0.00000000000E+00 0.  1.
          2   -1    0    0  501    0  0.00000000000E+00 -0.00000000000E+00 -0.50206120842E+03  0.50206120842E+03  0.00000000000E+00 0. -1.
         25    2    1    2    0    0 -0.29436147428E+02  0.15228809305E+03 -0.25015172942E+03  0.31981593711E+03  0.12509274895E+03 0.  0.
         23    2    1    2    0    0  0.29436147428E+02 -0.15228809305E+03 -0.17997430754E+03  0.25418044277E+03  0.90326054099E+02 0.  0.
          5    1    3    3  502    0 -0.29278542545E+02 -0.13663090369E+02 -0.51429078923E+02  0.60879681757E+02  0.41800000000E+01 0. -1.
         -5    1    3    3    0  502 -0.15760488253E+00  0.16595118342E+03 -0.19872265049E+03  0.25893625535E+03  0.41800000000E+01 0. -1.
        -11    1    4    4    0    0  0.26949744840E+02 -0.80187861319E+02 -0.33658033624E+02  0.91045291352E+02  0.00000000000E+00 0.  1.
         11    1    4    4    0    0  0.24864025874E+01 -0.72100231730E+02 -0.14631627392E+03  0.16313515141E+03  0.00000000000E+00 0. -1.
</event>
<event>
 8    1  0.6615242E-009  0.9245934E+02  0.7561462E-02  0.1297003E+00
          1   -1    0    0  501    0  0.00000000000E+00  0.00000000000E+00  0.11815305089E+03  0.11815305089E+03  0.00000000000E+00 0. -1.
         -1   -1    0    0    0  501 -0.00000000000E+00 -0.00000000000E+00 -0.14837270431E+03  0.14837270431E+03  0.00000000000E+00 0.  1.
         25    2    1    2    0    0 -0.54004705087E+02  0.55190269942E+02 -0.10649337955E+02  0.14737572473E+03  0.12507486468E+03 0.  0.
         23    2    1    2    0    0  0.54004705087E+02 -0.55190269942E+02 -0.19570315462E+02  0.11915003047E+03  0.88607327267E+02 0.  0.
          5    1    3    3  502    0 -0.35219146311E+02  0.50580578531E+02  0.52579431481E+02  0.81122451925E+02  0.41800000000E+01 0. -1.
         -5    1    3    3    0  502 -0.18785558776E+02  0.46096914112E+01 -0.63228769437E+02  0.66253272809E+02  0.41800000000E+01 0. -1.
        -11    1    4    4    0    0 -0.15744092210E+02 -0.25035967362E+01 -0.27072011624E+02  0.31417164886E+02  0.00000000000E+00 0.  1.
         11    1    4    4    0    0  0.69748797297E+02 -0.52686673206E+02  0.75016961622E+01  0.87732865581E+02  0.00000000000E+00 0. -1.
</event>
<event>
 8    1  0.6615242E-009  0.1157811E+03  0.7561462E-02  0.1250224E+00
          1   -1    0    0  501    0  0.00000000000E+00  0.00000000000E+00  0.45616453417E+03  0.45616453417E+03  0.00000000000E+00 0. -1.
         -1   -1    0    0    0  501 -0.00000000000E+00 -0.00000000000E+00 -0.58405874613E+02  0.58405874613E+02  0.00000000000E+00 0.  1.
         25    2    1    2    0    0 -0.88980118905E+02  0.62077808374E+02  0.29995434873E+03  0.34262491745E+03  0.12509239340E+03 0.  0.
         23    2    1    2    0    0  0.88980118905E+02 -0.62077808374E+02  0.97804310830E+02  0.17194549133E+03  0.90710820298E+02 0.  0.
          5    1    3    3  502    0 -0.53808141479E+02  0.49043763239E+02  0.46750763053E+02  0.86623975019E+02  0.41800000000E+01 0.  1.
         -5    1    3    3    0  502 -0.35171977427E+02  0.13034045135E+02  0.25320358567E+03  0.25600094243E+03  0.41800000000E+01 0.  1.
        -11    1    4    4    0    0  0.22720506870E+02 -0.48073242817E+02  0.23091868717E+00  0.53172468730E+02  0.00000000000E+00 0.  1.
         11    1    4    4    0    0  0.66259612035E+02 -0.14004565557E+02  0.97573392143E+02  0.11877302260E+03  0.00000000000E+00 0. -1.
</event>
<event>
 8    1  0.6615242E-009  0.3319208E+03  0.7561462E-02  0.1070290E+00
          2   -1    0    0  501    0  0.00000000000E+00  0.00000000000E+00  0.22383166398E+03  0.22383166398E+03  0.00000000000E+00 0. -1.
         -2   -1    0    0    0  501 -0.00000000000E+00 -0.00000000000E+00 -0.55870741224E+03  0.55870741224E+03  0.00000000000E+00 0.  1.
         25    2    1    2    0    0  0.26088000014E+03  0.18609942614E+03 -0.56738105338E+02  0.34864610180E+03  0.12507406132E+03 0.  0.
         23    2    1    2    0    0 -0.26088000014E+03 -0.18609942614E+03 -0.27813764292E+03  0.43389297442E+03  0.90615638575E+02 0.  0.
          5    1    3    3  502    0  0.10311985379E+03  0.26799936502E+02  0.25794734517E+02  0.10970315205E+03  0.41800000000E+01 0. -1.
         -5    1    3    3    0  502  0.15776014636E+03  0.15929948964E+03 -0.82532839855E+02  0.23894294974E+03  0.41800000000E+01 0. -1.
        -11    1    4    4    0    0 -0.22489719758E+03 -0.19297799135E+03 -0.24533009207E+03  0.38471562056E+03  0.00000000000E+00 0. -1.
         11    1    4    4    0    0 -0.35982802566E+02  0.68785652133E+01 -0.32807550854E+02  0.49177353862E+02  0.00000000000E+00 0.  1.
</event>
<event>
 8    1  0.6615242E-009  0.9224169E+02  0.7561462E-02  0.1297512E+00
          2   -1    0    0  501    0  0.00000000000E+00  0.00000000000E+00  0.16653077001E+03  0.16653077001E+03  0.00000000000E+00 0. -1.
         -2   -1    0    0    0  501 -0.00000000000E+00 -0.00000000000E+00 -0.87450521607E+02  0.87450521607E+02  0.00000000000E+00 0.  1.
         25    2    1    2    0    0 -0.70711683691E+01 -0.40544269018E+02  0.82799869102E+02  0.15555813394E+03  0.12509466631E+03 0.  0.
         23    2    1    2    0    0  0.70711683691E+01  0.40544269018E+02 -0.37196207024E+01  0.98423157675E+02  0.89327729269E+02 0.  0.
          5    1    3    3  502    0 -0.47525729391E+02 -0.12263333595E+02  0.92761740490E+02  0.10502998240E+03  0.41800000000E+01 0.  1.
         -5    1    3    3    0  502  0.40454561022E+02 -0.28280935423E+02 -0.99618713882E+01  0.50528151534E+02  0.41800000000E+01 0.  1.
        -11    1    4    4    0    0 -0.40325652586E+01  0.61680143073E+02  0.19803461132E+02  0.64906692296E+02  0.00000000000E+00 0.  1.
         11    1    4    4    0    0  0.11103733628E+02 -0.21135874055E+02 -0.23523081834E+02  0.33516465379E+02  0.00000000000E+00 0. -1.
</event>
<event>
 8    1  0.6615242E-009  0.1109144E+03  0.7561462E-02  0.1258886E+00
         -1   -1    0    0    0  501 -0.00000000000E+00  0.00000000000E+00  0.40284944778E+03  0.40284944778E+03  0.00000000000E+00 0.  1.
          1   -1    0    0  501    0  0.00000000000E+00 -0.00000000000E+00 -0.49996235990E+02  0.49996235990E+02  0.00000000000E+00 0. -1.
         25    2    1    2    0    0 -0.11655612288E+02 -0.46152173390E+02  0.67587626436E+02  0.14993945069E+03  0.12509146741E+03 0.  0.
         23    2    1    2    0    0  0.11655612288E+02  0.46152173390E+02  0.28526558536E+03  0.30290623308E+03  0.90054735821E+02 0.  0.
          5    1    3    3  502    0  0.20189223155E+00  0.37990326872E+02  0.50217570307E+02  0.63107705265E+02  0.41800000000E+01 0. -1.
         -5    1    3    3    0  502 -0.11857504520E+02 -0.84142500262E+02  0.17370056129E+02  0.86831745426E+02  0.41800000000E+01 0. -1.
        -11    1    4    4    0    0  0.47372331642E+02  0.11456845440E+02  0.17960479663E+03  0.18610018830E+03  0.00000000000E+00 0. -1.
         11    1    4    4    0    0 -0.35716719354E+02  0.34695327950E+02  0.10566078873E+03  0.11680604478E+03  0.00000000000E+00 0.  1.
</event>
<event>
 8    1  0.6615242E-009  0.1067462E+03  0.7561462E-02  0.1266717E+00
          3   -1    0    0  501    0  0.00000000000E+00  0.00000000000E+00  0.10700209824E+03  0.10700209824E+03  0.00000000000E+00 0. -1.
         -3   -1    0    0    0  501 -0.00000000000E+00 -0.00000000000E+00 -0.13700439112E+03  0.13700439112E+03  0.00000000000E+00 0.  1.
         25    2    1    2    0    0 -0.13000165737E+01  0.49338514383E+02  0.53722532970E+01  0.13458093872E+03  0.12508872418E+03 0.  0.
         23    2    1    2    0    0  0.13000165737E+01 -0.49338514383E+02 -0.35374546180E+02  0.10942555064E+03  0.91030838565E+02 0.  0.
          5    1    3    3  502    0  0.47923377223E+02  0.58399272805E+01 -0.32776999581E+02  0.58502640424E+02  0.41800000000E+01 0. -1.
         -5    1    3    3    0  502 -0.49223393797E+02  0.43498587103E+02  0.38149252878E+02  0.76078298298E+02  0.41800000000E+01 0. -1.
        -11    1    4    4    0    0  0.42778719044E+02 -0.35169675184E+02 -0.35149989211E+02  0.65593037718E+02  0.00000000000E+00 0.  1.
         11    1    4    4    0    0 -0.41478702470E+02 -0.14168839199E+02 -0.22455696860E+00  0.43832512918E+02  0.00000000000E+00 0. -1.
</event>
<event>
 8    1  0.6615242E-009  0.1371139E+03  0.7561462E-02  0.1217266E+00
          2   -1    0    0  501    0  0.00000000000E+00  0.00000000000E+00  0.55584880671E+03  0.55584880671E+03  0.00000000000E+00 0. -1.
         -2   -1    0    0    0  501 -0.00000000000E+00 -0.00000000000E+00 -0.47567502718E+02  0.47567502718E+02  0.00000000000E+00 0.  1.
         25    2    1    2    0    0  0.83146822347E+02  0.68284079327E+02  0.37451792535E+03  0.40925128661E+03  0.12508728805E+03 0.  0.
         23    2    1    2    0    0 -0.83146822347E+02 -0.68284079327E+02  0.13376337864E+03  0.19416502281E+03  0.90726540012E+02 0.  0.
          5    1    3    3  502    0  0.28508182839E+02 -0.36278866173E+02  0.12203163094E+03  0.13052993515E+03  0.41800000000E+01 0.  1.
         -5    1    3    3    0  502  0.54638639508E+02  0.10456294550E+03  0.25248629441E+03  0.27872135146E+03  0.41800000000E+01 0.  1.
        -11    1    4    4    0    0 -0.50436888465E+02 -0.27108378044E+02  0.12927288288E+03  0.14138678200E+03  0.00000000000E+00 0. -1.
         11    1    4    4    0    0 -0.32709933882E+02 -0.41175701284E+02  0.44904957652E+01  0.52778240810E+02  0.00000000000E+00 0.  1.
</event>
<event>
 8    1  0.6615242E-009  0.9866361E+02  0.7561462E-02  0.1283132E+00
          1   -1    0    0  501    0  0.00000000000E+00  0.00000000000E+00  0.67427029059E+02  0.67427029059E+02  0.00000000000E+00 0. -1.
         -1   -1    0    0    0  501 -0.00000000000E+00 -0.00000000000E+00 -0.21115236596E+03  0.21115236596E+03  0.00000000000E+00 0.  1.
         25    2    1    2    0    0  0.83997546161E+01  0.49535317683E+02 -0.84025902469E+02  0.15884755132E+03  0.12509152129E+03 0.  0.
         23    2    1    2    0    0 -0.83997546161E+01 -0.49535317683E+02 -0.59699434428E+02  0.11973184369E+03  0.90815132813E+02 0.  0.
          5    1    3    3  502    0 -0.27139393769E+02  0.72157916598E+02 -0.87110089144E+02  0.11639996414E+03  0.41800000000E+01 0.  1.
         -5    1    3    3    0  502  0.35539148385E+02 -0.22622598916E+02  0.30841866755E+01  0.42447587176E+02  0.41800000000E+01 0.  1.
        -11    1    4    4    0    0  0.13721116822E+02 -0.53570509665E+02 -0.74522967598E+02  0.92799467952E+02  0.00000000000E+00 0.  1.
         11    1    4    4    0    0 -0.22120871438E+02  0.40351919824E+01  0.14823533169E+02  0.26932375742E+02  0.00000000000E+00 0. -1.
</event>
<event>
 8    1  0.6615242E-009  0.1052960E+03  0.7561462E-02  0.1269538E+00
         -4   -1    0    0    0  501 -0.00000000000E+00  0.00000000000E+00  0.22760359278E+02  0.22760359278E+02  0.00000000000E+00 0.  1.
          4   -1    0    0  501    0  0.00000000000E+00 -0.00000000000E+00 -0.15160046155E+04  0.15160046155E+04  0.00000000000E+00 0. -1.
         25    2    1    2    0    0 -0.44936537120E+02  0.35571660486E+02 -0.13874562467E+04  0.13942619171E+04  0.12508725551E+03 0.  0.
         23    2    1    2    0    0  0.44936537120E+02 -0.35571660486E+02 -0.10578800957E+03  0.14450305776E+03  0.80033713731E+02 0.  0.
          5    1    3    3  502    0  0.30856194151E+02  0.24444494633E+02 -0.17681854765E+03  0.18119577597E+03  0.41800000000E+01 0.  1.
         -5    1    3    3    0  502 -0.75792731271E+02  0.11127165853E+02 -0.12106376990E+04  0.12130661411E+04  0.41800000000E+01 0.  1.
        -11    1    4    4    0    0  0.33133717551E+02  0.19174633902E+02 -0.23350013818E+02  0.44841197234E+02  0.00000000000E+00 0. -1.
         11    1    4    4    0    0  0.11802819569E+02 -0.54746294387E+02 -0.82437995756E+02  0.99661860524E+02  0.00000000000E+00 0.  1.
</event>
<event>
 8    1  0.6615242E-009  0.1090917E+03  0.7561462E-02  0.1262261E+00
          1   -1    0    0  501    0  0.00000000000E+00  0.00000000000E+00  0.89937444857E+02  0.89937444857E+02  0.00000000000E+00 0. -1.
         -1   -1    0    0    0  501 -0.00000000000E+00 -0.00000000000E+00 -0.15455943569E+03  0.15455943569E+03  0.00000000000E+00 0.  1.
         25    2    1    2    0    0  0.26778083765E+02 -0.33759963975E+02 -0.18266922623E+02  0.13355587318E+03  0.12508672936E+03 0.  0.
         23    2    1    2    0    0 -0.26778083765E+02  0.33759963975E+02 -0.46355068209E+02  0.11094100736E+03  0.91117033688E+02 0.  0.
          5    1    3    3  502    0  0.75719882205E+02 -0.33796048261E+02 -0.83397322534E+01  0.83442776640E+02  0.41800000000E+01 0.  1.
         -5    1    3    3    0  502 -0.48941798441E+02  0.36084286598E-01 -0.99271903695E+01  0.50113096545E+02  0.41800000000E+01 0.  1.
        -11    1    4    4    0    0 -0.46481336275E+02  0.43850731428E+02 -0.57672772911E+02  0.86078743044E+02  0.00000000000E+00 0.  1.
         11    1    4    4    0    0  0.19703252510E+02 -0.10090767454E+02  0.11317704702E+02  0.24862264318E+02  0.00000000000E+00 0. -1.
</event>
<event>
 8    1  0.6615242E-009  0.1081960E+03  0.7561462E-02  0.1263948E+00
         -1   -1    0    0    0  501 -0.00000000000E+00  0.00000000000E+00  0.22208179997E+03  0.22208179997E+03  0.00000000000E+00 0.  1.
          1   -1    0    0  501    0  0.00000000000E+00 -0.00000000000E+00 -0.73097213720E+02  0.73097213720E+02  0.00000000000E+00 0. -1.
         25    2    1    2    0    0  0.58124231524E+02 -0.33973836193E+02  0.97616327255E+02  0.17235686113E+03  0.12508114324E+03 0.  0.
         23    2    1    2    0    0 -0.58124231524E+02  0.33973836193E+02  0.51368258998E+02  0.12282215257E+03  0.88960301779E+02 0.  0.
          5    1    3    3  502    0 -0.70746368531E+01 -0.38480822602E+02 -0.14977959189E+02  0.42102682292E+02  0.41800000000E+01 0.  1.
         -5    1    3    3    0  502  0.65198868377E+02  0.45069864089E+01  0.11259428644E+03  0.13025417884E+03  0.41800000000E+01 0.  1.
        -11    1    4    4    0    0 -0.18758406647E+02  0.60991014825E+02  0.28626723842E+02  0.69937622402E+02  0.00000000000E+00 0.  1.
         11    1    4    4    0    0 -0.39365824877E+02 -0.27017178632E+02  0.22741535156E+02  0.52884530165E+02  0.00000000000E+00 0. -1.
</event>
<event>
 8    1  0.6615242E-009  0.1301063E+03  0.7561462E-02  0.1227298E+00
          2   -1    0    0  501    0  0.00000000000E+00  0.00000000000E+00  0.50779773235E+02  0.50779773235E+02  0.00000000000E+00 0. -1.
         -2   -1    0    0    0  501 -0.00000000000E+00 -0.00000000000E+00 -0.48388060214E+03  0.48388060214E+03  0.00000000000E+00 0.  1.
         25    2    1    2    0    0  0.91158977666E+02 -0.99564901223E+01 -0.34189771474E+03  0.37543427337E+03  0.12509098838E+03 0.  0.
         23    2    1    2    0    0 -0.91158977666E+02  0.99564901223E+01 -0.91203114170E+02  0.15922610201E+03  0.92875468353E+02 0.  0.
          5    1    3    3  502    0  0.11073718104E+03 -0.27127163865E+02 -0.19283875924E+03  0.22405996016E+03  0.41800000000E+01 0. -1.
         -5    1    3    3    0  502 -0.19578203372E+02  0.17170673743E+02 -0.14905895550E+03  0.15137431320E+03  0.41800000000E+01 0. -1.
        -11    1    4    4    0    0 -0.77405366245E+02 -0.25678138689E+02 -0.29633185620E+02  0.86770289962E+02  0.00000000000E+00 0. -1.
         11    1    4    4    0    0 -0.13753611421E+02  0.35634628811E+02 -0.61569928551E+02  0.72455812047E+02  0.00000000000E+00 0.  1.
</event>
<event>
 8    1  0.6615242E-009  0.1462225E+03  0.7561462E-02  0.1205193E+00
          2   -1    0    0  501    0  0.00000000000E+00  0.00000000000E+00  0.39313701689E+02  0.39313701689E+02  0.00000000000E+00 0. -1.
         -2   -1    0    0    0  501 -0.00000000000E+00 -0.00000000000E+00 -0.63655134490E+03  0.63655134490E+03  0.00000000000E+00 0.  1.
         25    2    1    2    0    0  0.97560212909E+02  0.59773297771E+02 -0.29472003013E+03  0.33999754977E+03  0.12509034902E+03 0.  0.
         23    2    1    2    0    0 -0.97560212909E+02 -0.59773297771E+02 -0.30251761308E+03  0.33586749682E+03  0.90549582713E+02 0.  0.
          5    1    3    3  502    0  0.11876767823E+03  0.44889111457E+02 -0.28496485625E+03  0.31199877471E+03  0.41800000000E+01 0. -1.
         -5    1    3    3    0  502 -0.21207465319E+02  0.14884186314E+02 -0.97551738781E+01  0.27998775060E+02  0.41800000000E+01 0. -1.
        -11    1    4    4    0    0 -0.23811117953E+02  0.19583029911E+02 -0.31862076297E+02  0.44335722669E+02  0.00000000000E+00 0. -1.
         11    1    4    4    0    0 -0.73749094956E+02 -0.79356327682E+02 -0.27065553678E+03  0.29153177415E+03  0.00000000000E+00 0.  1.
</event>
<event>
 8    1  0.6615242E-009  0.9815197E+02  0.7561462E-02  0.1284231E+00
         -2   -1    0    0    0  501 -0.00000000000E+00  0.00000000000E+00  0.86281003289E+02  0.86281003289E+02  0.00000000000E+00 0.  1.
          2   -1    0    0  501    0  0.00000000000E+00 -0.00000000000E+00 -0.17648977874E+03  0.17648977874E+03  0.00000000000E+00 0. -1.
         25    2    1    2    0    0  0.55470450534E+02  0.13859836079E+02 -0.30842627239E+02  0.14095370196E+03  0.12509041731E+03 0.  0.
         23    2    1    2    0    0 -0.55470450534E+02 -0.13859836079E+02 -0.59366148211E+02  0.12181708007E+03  0.89699473270E+02 0.  0.
          5    1    3    3  502    0 -0.14255161356E+02  0.40231447033E+02 -0.47975657883E+02  0.64349942540E+02  0.41800000000E+01 0. -1.
         -5    1    3    3    0  502  0.69725611890E+02 -0.26371610953E+02  0.17133030644E+02  0.76603759416E+02  0.41800000000E+01 0. -1.
        -11    1    4    4    0    0 -0.16365734988E+02  0.20823228717E+02  0.15365991829E+02  0.30619566307E+02  0.00000000000E+00 0.  1.
         11    1    4    4    0    0 -0.39104715546E+02 -0.34683064797E+02 -0.74732140041E+02  0.91197513764E+02  0.00000000000E+00 0. -1.
</event>
<event>
 8    1  0.6615242E-009  0.1254299E+03  0.7561462E-02  0.1234399E+00
         -4   -1    0    0    0  501 -0.00000000000E+00  0.00000000000E+00  0.77041980099E+02  0.77041980099E+02  0.00000000000E+00 0.  1.
          4   -1    0    0  501    0  0.00000000000E+00 -0.00000000000E+00 -0.26651693113E+03  0.26651693113E+03  0.00000000000E+00 0. -1.
         25    2    1    2    0    0  0.83888336304E+02 -0.22748554616E+02 -0.66012902887E+02  0.16601496610E+03  0.12509402830E+03 0.  0.
         23    2    1    2    0    0 -0.83888336304E+02  0.22748554616E+02 -0.12346204814E+03  0.17754394512E+03  0.93403562109E+02 0.  0.
          5    1    3    3  502    0 -0.10423587035E+02 -0.49811766945E+02 -0.72619412705E+01  0.51575880835E+02  0.41800000000E+01 0.  1.
         -5    1    3    3    0  502  0.94311923339E+02  0.27063212329E+02 -0.58750961616E+02  0.11443908526E+03  0.41800000000E+01 0.  1.
        -11    1    4    4    0    0 -0.65671598854E+02  0.39673269587E+02 -0.32639511498E+02  0.83379043690E+02  0.00000000000E+00 0.  1.
         11    1    4    4    0    0 -0.18216737449E+02 -0.16924714971E+02 -0.90822536642E+02  0.94164901435E+02  0.00000000000E+00 0. -1.
</event>
<event>
 8    1  0.6615242E-009  0.1297637E+03  0.7561462E-02  0.1227807E+00
          1   -1    0    0  501    0  0.00000000000E+00  0.00000000000E+00  0.50207114632E+03  0.50207114632E+03  0.00000000000E+00 0. -1.
         -1   -1    0    0    0  501 -0.00000000000E+00 -0.00000000000E+00 -0.51723641829E+02  0.51723641829E+02  0.00000000000E+00 0.  1.
         25    2    1    2    0    0 -0.98865879415E+02 -0.47894114472E+02  0.16085481248E+03  0.23149543215E+03  0.12509019185E+03 0.  0.
         23    2    1    2    0    0  0.98865879415E+02  0.47894114472E+02  0.28949269202E+03  0.32229935600E+03  0.89456960789E+02 0.  0.
          5    1    3    3  502    0 -0.40205379795E+02 -0.58523927335E+02  0.15610446228E+03  0.17154474104E+03  0.41800000000E+01 0.  1.
         -5    1    3    3    0  502 -0.58660499621E+02  0.10629812864E+02  0.47503501933E+01  0.59950691107E+02  0.41800000000E+01 0.  1.
        -11    1    4    4    0    0  0.44710782120E+02  0.58322466774E+02  0.94812019020E+02  0.11995783892E+03  0.00000000000E+00 0.  1.
         11    1    4    4    0    0  0.54155097296E+02 -0.10428352303E+02  0.19468067300E+03  0.20234151708E+03  0.00000000000E+00 0. -1.
</event>
<event>
 8    1  0.6615242E-009  0.1241073E+03  0.7561462E-02  0.1236471E+00
         -4   -1    0    0    0  501 -0.00000000000E+00  0.00000000000E+00  0.35772540836E+02  0.35772540836E+02  0.00000000000E+00 0.  1.
          4   -1    0    0  501    0  0.00000000000E+00 -0.00000000000E+00 -0.57897425370E+03  0.57897425370E+03  0.00000000000E+00 0. -1.
         25    2    1    2    0    0 -0.67593320495E+02  0.23783606106E+01 -0.15572872768E+03  0.21088889152E+03  0.12509266312E+03 0.  0.
         23    2    1    2    0    0  0.67593320495E+02 -0.23783606106E+01 -0.38747298518E+03  0.40385790301E+03  0.91604464980E+02 0.  0.
          5    1    3    3  502    0  0.36632264044E+02  0.56027064636E+01 -0.49485792660E+02  0.61964741296E+02  0.41800000000E+01 0.  1.
         -5    1    3    3    0  502 -0.10422558454E+03 -0.32243458531E+01 -0.10624293502E+03  0.14892415022E+03  0.41800000000E+01 0.  1.
        -11    1    4    4    0    0  0.50474603604E+02 -0.40538401481E+02 -0.16051348896E+03  0.17307694168E+03  0.00000000000E+00 0.  1.
         11    1    4    4    0    0  0.17118716891E+02  0.38160040870E+02 -0.22695949622E+03  0.23078096133E+03  0.00000000000E+00 0. -1.
</event>
<event>
 8    1  0.6615242E-009  0.5611391E+02  0.7561462E-02  0.1414903E+00
          4   -1    0    0  501    0  0.00000000000E+00  0.00000000000E+00  0.18531402690E+03  0.18531402690E+03  0.00000000000E+00 0.  1.
         -4   -1    0    0    0  501 -0.00000000000E+00 -0.00000000000E+00 -0.72729288496E+02  0.72729288496E+02  0.00000000000E+00 0. -1.
         25    2    1    2    0    0 -0.41345905215E+02  0.88917844082E+01  0.46314156942E+02  0.13992428320E+03  0.12508099851E+03 0.  0.
         23    2    1    2    0    0  0.41345905215E+02 -0.88917844082E+01  0.66270581466E+02  0.11811903220E+03  0.88157632067E+02 0.  0.
          5    1    3    3  502    0 -0.27734522631E+02 -0.67900154733E+01  0.88301070383E+02  0.92897037017E+02  0.41800000000E+01 0.  1.
         -5    1    3    3    0  502 -0.13611382585E+02  0.15681799881E+02 -0.41986913441E+02  0.47027246184E+02  0.41800000000E+01 0.  1.
        -11    1    4    4    0    0  0.23626695895E+02 -0.27659965782E+02  0.80720300886E+02  0.88538474355E+02  0.00000000000E+00 0.  1.
         11    1    4    4    0    0  0.17719209321E+02  0.18768181374E+02 -0.14449719419E+02  0.29580557844E+02  0.00000000000E+00 0. -1.
</event>
<event>
 8    1  0.6615242E-009  0.9501927E+02  0.7561462E-02  0.1291133E+00
         -1   -1    0    0    0  501 -0.00000000000E+00  0.00000000000E+00  0.80277165435E+02  0.80277165435E+02  0.00000000000E+00 0.  1.
          1   -1    0    0  501    0  0.00000000000E+00 -0.00000000000E+00 -0.16779175196E+03  0.16779175196E+03  0.00000000000E+00 0. -1.
         25    2    1    2    0    0  0.20447072417E+01  0.27834784133E+02 -0.21991585973E+02  0.13004762718E+03  0.12509915845E+03 0.  0.
         23    2    1    2    0    0 -0.20447072417E+01 -0.27834784133E+02 -0.65523000552E+02  0.11802129022E+03  0.94110601465E+02 0.  0.
          5    1    3    3  502    0 -0.25720022771E+02  0.68363489406E+02  0.59035778287E+01  0.73398984232E+02  0.41800000000E+01 0. -1.
         -5    1    3    3    0  502  0.27764730013E+02 -0.40528705273E+02 -0.27895163802E+02  0.56648642943E+02  0.41800000000E+01 0. -1.
        -11    1    4    4    0    0  0.25643142238E+02  0.33605473905E+01  0.13121293734E+02  0.29000558131E+02  0.00000000000E+00 0.  1.
         11    1    4    4    0    0 -0.27687849480E+02 -0.31195331524E+02 -0.78644294287E+02  0.89020732088E+02  0.00000000000E+00 0. -1.
</event>
<event>
 8    1  0.6615242E-009  0.8610110E+02  0.7561462E-02  0.1312578E+00
         -2   -1    0    0    0  501 -0.00000000000E+00  0.00000000000E+00  0.56043596518E+03  0.56043596518E+03  0.00000000000E+00 0.  1.
          2   -1    0    0  501    0  0.00000000000E+00 -0.00000000000E+00 -0.91116666505E+02  0.91116666505E+02  0.00000000000E+00 0. -1.
         25    2    1    2    0    0  0.22788367484E+02 -0.33066314777E+02 -0.34248837401E+02  0.13574334648E+03  0.12506231401E+03 0.  0.
         23    2    1    2    0    0 -0.22788367484E+02  0.33066314777E+02  0.50356813608E+03  0.51580928520E+03  0.10423847736E+03 0.  0.
          5    1    3    3  502    0 -0.58117495888E+01  0.86783733015E+01  0.42364161685E+02  0.43832467324E+02  0.41800000000E+01 0. -1.
         -5    1    3    3    0  502  0.28600117073E+02 -0.41744688078E+02 -0.76612999085E+02  0.91910879161E+02  0.41800000000E+01 0. -1.
        -11    1    4    4    0    0 -0.23088169070E+02  0.69760642483E+02  0.29341259987E+03  0.30247407253E+03  0.00000000000E+00 0. -1.
         11    1    4    4    0    0  0.29980158652E+00 -0.36694327706E+02  0.21015553621E+03  0.21333521267E+03  0.00000000000E+00 0.  1.
</event>
<event>
 8    1  0.6615242E-009  0.1682330E+03  0.7561462E-02  0.1179703E+00
          2   -1    0    0  501    0  0.00000000000E+00  0.00000000000E+00  0.11971249089E+04  0.11971249089E+04  0.00000000000E+00 0. -1.
         -2   -1    0    0    0  501 -0.00000000000E+00 -0.00000000000E+00 -0.25759545411E+02  0.25759545411E+02  0.00000000000E+00 0.  1.
         25    2    1    2    0    0 -0.41961135240E+02  0.13116968021E+03  0.59373569832E+03  0.62220240359E+03  0.12509008633E+03 0.  0.
         23    2    1    2    0    0  0.41961135240E+02 -0.13116968021E+03  0.57762966521E+03  0.60068205076E+03  0.90535485295E+02 0.  0.
          5    1    3    3  502    0 -0.26683751379E+01  0.13737499270E+03  0.36564726136E+03  0.39063333317E+03  0.41800000000E+01 0.  1.
         -5    1    3    3    0  502 -0.39292760102E+02 -0.62053124937E+01  0.22808843696E+03  0.23156907042E+03  0.41800000000E+01 0.  1.
        -11    1    4    4    0    0  0.60061170040E+02 -0.57521169627E+02  0.22223677935E+03  0.23728719982E+03  0.00000000000E+00 0. -1.
         11    1    4    4    0    0 -0.18100034801E+02 -0.73648510582E+02  0.35539288586E+03  0.36339485094E+03  0.00000000000E+00 0.  1.
</event>
<event>
 8    1  0.6615242E-009  0.1928749E+03  0.7561462E-02  0.1155894E+00
          1   -1    0    0  501    0  0.00000000000E+00  0.00000000000E+00  0.57110783613E+03  0.57110783613E+03  0.00000000000E+00 0. -1.
         -1   -1    0    0    0  501 -0.00000000000E+00 -0.00000000000E+00 -0.72183664905E+02  0.72183664905E+02  0.00000000000E+00 0.  1.
         25    2    1    2    0    0 -0.31104412494E+01 -0.17093615098E+03  0.25258787346E+03  0.32966533651E+03  0.12509899169E+03 0.  0.
         23    2    1    2    0    0  0.31104412494E+01  0.17093615098E+03  0.24633629776E+03  0.31362616452E+03  0.91929086370E+02 0.  0.
          5    1    3    3  502    0 -0.45846695791E+02 -0.12527072978E+03  0.22405721387E+03  0.26079452207E+03  0.41800000000E+01 0.  1.
         -5    1    3    3    0  502  0.42736254541E+02 -0.45665421195E+02  0.28530659593E+02  0.68870814442E+02  0.41800000000E+01 0.  1.
        -11    1    4    4    0    0  0.10172821383E+02 -0.64710701700E+01  0.30386043657E+01  0.12433590010E+02  0.00000000000E+00 0.  1.
         11    1    4    4    0    0 -0.70623801337E+01  0.17740722115E+03  0.24329769339E+03  0.30119257451E+03  0.00000000000E+00 0. -1.
</event>
<event>
 8    1  0.6615242E-009  0.1223744E+03  0.7561462E-02  0.1239231E+00
         -1   -1    0    0    0  501 -0.00000000000E+00  0.00000000000E+00  0.22460720611E+03  0.22460720611E+03  0.00000000000E+00 0.  1.
          1   -1    0    0  501    0  0.00000000000E+00 -0.00000000000E+00 -0.14008222139E+03  0.14008222139E+03  0.00000000000E+00 0. -1.
         25    2    1    2    0    0  0.10064163851E+03  0.50580747738E+02  0.12927555782E+03  0.21224216153E+03  0.12508962322E+03 0.  0.
         23    2    1    2    0    0 -0.10064163851E+03 -0.50580747738E+02 -0.44750573093E+02  0.15244726597E+03  0.92468392796E+02 0.  0.
          5    1    3    3  502    0  0.14630900262E+02  0.36492214720E+02  0.11777020272E+03  0.12422977915E+03  0.41800000000E+01 0.  1.
         -5    1    3    3    0  502  0.86010738246E+02  0.14088533018E+02  0.11505355098E+02  0.88012382380E+02  0.41800000000E+01 0.  1.
        -11    1    4    4    0    0 -0.88806821637E+02 -0.55945861426E+02  0.92014903229E+00  0.10496398265E+03  0.00000000000E+00 0.  1.
         11    1    4    4    0    0 -0.11834816871E+02  0.53651136875E+01 -0.45670722125E+02  0.47483283318E+02  0.00000000000E+00 0. -1.
</event>
<event>
 8    1  0.6615242E-009  0.1167326E+03  0.7561462E-02  0.1248587E+00
          2   -1    0    0  501    0  0.00000000000E+00  0.00000000000E+00  0.15232867330E+03  0.15232867330E+03  0.00000000000E+00 0. -1.
         -2   -1    0    0    0  501 -0.00000000000E+00 -0.00000000000E+00 -0.11113875010E+03  0.11113875010E+03  0.00000000000E+00 0.  1.
         25    2    1    2    0    0 -0.53219336726E+02  0.29661402885E+02  0.60488235722E+02  0.15171803597E+03  0.12508972441E+03 0.  0.
         23    2    1    2    0    0  0.53219336726E+02 -0.29661402885E+02 -0.19298312530E+02  0.11174938743E+03  0.91670082921E+02 0.  0.
          5    1    3    3  502    0 -0.69510439228E+02 -0.21845068351E+02  0.64482963986E+02  0.97388054798E+02  0.41800000000E+01 0. -1.
         -5    1    3    3    0  502  0.16291102502E+02  0.51506471236E+02 -0.39947282635E+01  0.54329981168E+02  0.41800000000E+01 0. -1.
        -11    1    4    4    0    0  0.76478316472E+02 -0.32042713526E+02 -0.26884221829E+02  0.87168972484E+02  0.00000000000E+00 0.  1.
         11    1    4    4    0    0 -0.23258979747E+02  0.23813106412E+01  0.75859092991E+01  0.24580414950E+02  0.00000000000E+00 0. -1.
</event>
<event>
 8    1  0.6615242E-009  0.1507490E+03  0.7561462E-02  0.1199556E+00
          1   -1    0    0  501    0  0.00000000000E+00  0.00000000000E+00  0.70246967507E+03  0.70246967507E+03  0.00000000000E+00 0. -1.
         -1   -1    0    0    0  501 -0.00000000000E+00 -0.00000000000E+00 -0.44230979106E+02  0.44230979106E+02  0.00000000000E+00 0.  1.
         25    2    1    2    0    0 -0.40514590589E+02  0.11552576309E+03  0.21451056606E+03  0.27685569182E+03  0.12508659862E+03 0.  0.
         23    2    1    2    0    0  0.40514590589E+02 -0.11552576309E+03  0.44372812990E+03  0.46984496235E+03  0.94191302105E+02 0.  0.
          5    1    3    3  502    0 -0.79057107084E+02  0.10900276081E+03  0.15303277183E+03  0.20388263707E+03  0.41800000000E+01 0.  1.
         -5    1    3    3    0  502  0.38542516495E+02  0.65230022791E+01  0.61477794234E+02  0.72973054755E+02  0.41800000000E+01 0.  1.
        -11    1    4    4    0    0  0.39038300707E+02 -0.57958107120E+02  0.10416356171E+03  0.12543196837E+03  0.00000000000E+00 0.  1.
         11    1    4    4    0    0  0.14762898818E+01 -0.57567655971E+02  0.33956456820E+03  0.34441299398E+03  0.00000000000E+00 0. -1.
</event>
<event>
 8    1  0.6615242E-009  0.2061878E+03  0.7561462E-02  0.1144621E+00
         -2   -1    0    0    0  501 -0.00000000000E+00  0.00000000000E+00  0.12639960020E+03  0.12639960020E+03  0.00000000000E+00 0.  1.
          2   -1    0    0  501    0  0.00000000000E+00 -0.00000000000E+00 -0.40817233689E+03  0.40817233689E+03  0.00000000000E+00 0. -1.
         25    2    1    2    0    0  0.15231168400E+03 -0.98209169361E+02 -0.47829698274E+02  0.22534395245E+03  0.12509327256E+03 0.  0.
         23    2    1    2    0    0 -0.15231168400E+03  0.98209169361E+02 -0.23394303842E+03  0.30922798463E+03  0.89714609866E+02 0.  0.
          5    1    3    3  502    0  0.17271432520E+03 -0.73986903180E+02 -0.36518861263E+02  0.19145599912E+03  0.41800000000E+01 0.  1.
         -5    1    3    3    0  502 -0.20402641199E+02 -0.24222266181E+02 -0.11310837011E+02  0.33887953328E+02  0.41800000000E+01 0.  1.
        -11    1    4    4    0    0 -0.69023139970E+02  0.82785989027E+02 -0.17675134243E+03  0.20702355151E+03  0.00000000000E+00 0.  1.
         11    1    4    4    0    0 -0.83288544034E+02  0.15423180334E+02 -0.57191695993E+02  0.10220443312E+03  0.00000000000E+00 0. -1.
</event>
<event>
 8    1  0.6615242E-009  0.1082352E+03  0.7561462E-02  0.1263873E+00
         -4   -1    0    0    0  501 -0.00000000000E+00  0.00000000000E+00  0.41539298823E+03  0.41539298823E+03  0.00000000000E+00 0. -1.
          4   -1    0    0  501    0  0.00000000000E+00 -0.00000000000E+00 -0.37863138218E+02  0.37863138218E+02  0.00000000000E+00 0.  1.
         25    2    1    2    0    0 -0.36945023422E+02  0.14876103308E+02  0.12259558101E+03  0.17961925026E+03  0.12508863009E+03 0.  0.
         23    2    1    2    0    0  0.36945023422E+02 -0.14876103308E+02  0.25493426901E+03  0.27363687619E+03  0.91101181608E+02 0.  0.
          5    1    3    3  502    0 -0.74419660774E+02  0.23987371062E+02  0.39032782769E+02  0.87491201905E+02  0.41800000000E+01 0.  1.
         -5    1    3    3    0  502  0.37474637352E+02 -0.91112677540E+01  0.83562798236E+02  0.92128048355E+02  0.41800000000E+01 0.  1.
        -11    1    4    4    0    0 -0.30650513656E+02 -0.39596519462E+01  0.75310798736E+02  0.81405461962E+02  0.00000000000E+00 0.  1.
         11    1    4    4    0    0  0.67595537078E+02 -0.10916451361E+02  0.17962347027E+03  0.19223141423E+03  0.00000000000E+00 0. -1.
</event>
<event>
 8    1  0.6615242E-009  0.1050579E+03  0.7561462E-02  0.1270006E+00
          2   -1    0    0  501    0  0.00000000000E+00  0.00000000000E+00  0.12866151928E+03  0.12866151928E+03  0.00000000000E+00 0. -1.
         -2   -1    0    0    0  501 -0.00000000000E+00 -0.00000000000E+00 -0.16213953207E+03  0.16213953207E+03  0.00000000000E+00 0.  1.
         25    2    1    2    0    0 -0.42983468391E+02  0.52829909417E+02 -0.84960010237E+02  0.16584444275E+03  0.12509035921E+03 0.  0.
         23    2    1    2    0    0  0.42983468391E+02 -0.52829909417E+02  0.51481997450E+02  0.12495660860E+03  0.91242424820E+02 0.  0.
          5    1    3    3  502    0 -0.66584227890E+02 -0.16427852664E+02 -0.47580339534E+02  0.83574486879E+02  0.41800000000E+01 0. -1.
         -5    1    3    3    0  502  0.23600759499E+02  0.69257762081E+02 -0.37379670703E+02  0.82269955872E+02  0.41800000000E+01 0. -1.
        -11    1    4    4    0    0  0.95387645678E+01 -0.12602401069E+02 -0.26616567442E+02  0.30955616689E+02  0.00000000000E+00 0.  1.
         11    1    4    4    0    0  0.33444703823E+02 -0.40227508348E+02  0.78098564892E+02  0.94000991909E+02  0.00000000000E+00 0. -1.
</event>
<event>
 8    1  0.6615242E-009  0.1351448E+03  0.7561462E-02  0.1220015E+00
          1   -1    0    0  501    0  0.00000000000E+00  0.00000000000E+00  0.83825291445E+02  0.83825291445E+02  0.00000000000E+00 0. -1.
         -1   -1    0    0    0  501 -0.00000000000E+00 -0.00000000000E+00 -0.23930018018E+03  0.23930018018E+03  0.00000000000E+00 0.  1.
         25    2    1    2    0    0 -0.69514503355E+01  0.83395552188E+02 -0.44914171721E+02  0.15706333347E+03  0.12509383324E+03 0.  0.
         23    2    1    2    0    0  0.69514503355E+01 -0.83395552188E+02 -0.11056071701E+03  0.16606213815E+03  0.91377353836E+02 0.  0.
          5    1    3    3  502    0  0.20981833591E+02 -0.27767910822E+02 -0.17300459856E+02  0.39090568216E+02  0.41800000000E+01 0. -1.
         -5    1    3    3    0  502 -0.27933283926E+02  0.11116346301E+03 -0.27613711866E+02  0.11797276526E+03  0.41800000000E+01 0. -1.
        -11    1    4    4    0    0  0.46931851012E+02 -0.41829871308E+02 -0.76742182752E+02  0.99205339507E+02  0.00000000000E+00 0.  1.
         11    1    4    4    0    0 -0.39980400676E+02 -0.41565680880E+02 -0.33818534259E+02  0.66856798642E+02  0.00000000000E+00 0. -1.
</event>
<event>
 8    1  0.6615242E-009  0.5832448E+02  0.7561462E-02  0.1405001E+00
         -2   -1    0    0    0  501 -0.00000000000E+00  0.00000000000E+00  0.12866292657E+02  0.12866292657E+02  0.00000000000E+00 0. -1.
          2   -1    0    0  501    0  0.00000000000E+00 -0.00000000000E+00 -0.96125279323E+03  0.96125279323E+03  0.00000000000E+00 0.  1.
         25    2    1    2    0    0  0.99483442595E+01  0.23171685384E+02 -0.63710068481E+03  0.64975360784E+03  0.12508625725E+03 0.  0.
         23    2    1    2    0    0 -0.99483442595E+01 -0.23171685384E+02 -0.31128581576E+03  0.32436547805E+03  0.87625382731E+02 0.  0.
          5    1    3    3  502    0  0.19438469840E+01 -0.63685357418E-01 -0.61882853352E+03  0.61884570686E+03  0.41800000000E+01 0. -1.
         -5    1    3    3    0  502  0.80044972756E+01  0.23235370742E+02 -0.18272151291E+02  0.30907900979E+02  0.41800000000E+01 0. -1.
        -11    1    4    4    0    0 -0.23316532836E+02 -0.51088464354E+02 -0.15069074323E+03  0.16081477541E+03  0.00000000000E+00 0. -1.
         11    1    4    4    0    0  0.13368188577E+02  0.27916778970E+02 -0.16059507253E+03  0.16355070264E+03  0.00000000000E+00 0.  1.
</event>
<event>
 8    1  0.6615242E-009  0.1760863E+03  0.7561462E-02  0.1171645E+00
          2   -1    0    0  501    0  0.00000000000E+00  0.00000000000E+00  0.20819455234E+03  0.20819455234E+03  0.00000000000E+00 0. -1.
         -2   -1    0    0    0  501 -0.00000000000E+00 -0.00000000000E+00 -0.24274558920E+03  0.24274558920E+03  0.00000000000E+00 0.  1.
         25    2    1    2    0    0 -0.12050161545E+03 -0.96645424451E+02  0.10356699337E+03  0.22413006465E+03  0.12508871401E+03 0.  0.
         23    2    1    2    0    0  0.12050161545E+03  0.96645424451E+02 -0.13811803024E+03  0.22681007688E+03  0.92223876015E+02 0.  0.
          5    1    3    3  502    0 -0.14474598820E+03 -0.83446220740E+02  0.71972989588E+02  0.18196773474E+03  0.41800000000E+01 0. -1.
         -5    1    3    3    0  502  0.24244372752E+02 -0.13199203711E+02  0.31594003787E+02  0.42162329917E+02  0.41800000000E+01 0. -1.
        -11    1    4    4    0    0  0.39680853945E+02  0.49916514404E+02 -0.46559040544E+01  0.63936734532E+02  0.00000000000E+00 0. -1.
         11    1    4    4    0    0  0.80820761500E+02  0.46728910048E+02 -0.13346212618E+03  0.16287334235E+03  0.00000000000E+00 0.  1.
</event>
<event>
 8    1  0.6615242E-009  0.1214667E+03  0.7561462E-02  0.1240697E+00
          2   -1    0    0  501    0  0.00000000000E+00  0.00000000000E+00  0.17150225868E+03  0.17150225868E+03  0.00000000000E+00 0.  1.
         -2   -1    0    0    0  501 -0.00000000000E+00 -0.00000000000E+00 -0.10411057556E+03  0.10411057556E+03  0.00000000000E+00 0. -1.
         25    2    1    2    0    0 -0.58026722849E+02  0.31173446415E+02  0.77568125076E+02  0.16125320069E+03  0.12508755485E+03 0.  0.
         23    2    1    2    0    0  0.58026722849E+02 -0.31173446415E+02 -0.10176441956E+02  0.11435963355E+03  0.92928367518E+02 0.  0.
          5    1    3    3  502    0 -0.14087726250E+02 -0.41551600581E+02 -0.28807080746E+01  0.44167526767E+02  0.41800000000E+01 0.  1.
         -5    1    3    3    0  502 -0.43938996599E+02  0.72725046996E+02  0.80448833150E+02  0.11708567392E+03  0.41800000000E+01 0.  1.
        -11    1    4    4    0    0  0.62192120896E+00  0.29937976193E+02 -0.40123549114E+00  0.29947123308E+02  0.00000000000E+00 0.  1.
         11    1    4    4    0    0  0.57404801640E+02 -0.61111422608E+02 -0.97752064644E+01  0.84412510245E+02  0.00000000000E+00 0. -1.
</event>
<event>
 8    1  0.6615242E-009  0.2217421E+03  0.7561462E-02  0.1132591E+00
          1   -1    0    0  501    0  0.00000000000E+00  0.00000000000E+00  0.18139958157E+03  0.18139958157E+03  0.00000000000E+00 0. -1.
         -1   -1    0    0    0  501 -0.00000000000E+00 -0.00000000000E+00 -0.32691271665E+03  0.32691271665E+03  0.00000000000E+00 0.  1.
         25    2    1    2    0    0 -0.76664751313E+02 -0.19082591548E+03 -0.12516912383E+01  0.24071018098E+03  0.12509120826E+03 0.  0.
         23    2    1    2    0    0  0.76664751313E+02  0.19082591548E+03 -0.14426144384E+03  0.26760211724E+03  0.92236190615E+02 0.  0.
          5    1    3    3  502    0 -0.10077124481E+03 -0.11083880574E+03  0.27302725397E+02  0.15232529617E+03  0.41800000000E+01 0. -1.
         -5    1    3    3    0  502  0.24106493498E+02 -0.79987109744E+02 -0.28554416635E+02  0.88384884813E+02  0.41800000000E+01 0. -1.
        -11    1    4    4    0    0  0.10021578139E+02  0.80259333075E+02 -0.10524981159E+03  0.13273852272E+03  0.00000000000E+00 0.  1.
         11    1    4    4    0    0  0.66643173174E+02  0.11056658241E+03 -0.39011632246E+02  0.13486359452E+03  0.00000000000E+00 0. -1.
</event>
<event>
 8    1  0.6615242E-009  0.2208343E+03  0.7561462E-02  0.1133263E+00
          1   -1    0    0  501    0  0.00000000000E+00  0.00000000000E+00  0.35393734208E+03  0.35393734208E+03  0.00000000000E+00 0. -1.
         -1   -1    0    0    0  501 -0.00000000000E+00 -0.00000000000E+00 -0.14234948418E+03  0.14234948418E+03  0.00000000000E+00 0.  1.
         25    2    1    2    0    0 -0.19450035885E+03 -0.16841248063E+02  0.14160124931E+03  0.27168510325E+03  0.12509142374E+03 0.  0.
         23    2    1    2    0    0  0.19450035885E+03  0.16841248063E+02  0.69986608587E+02  0.22460172302E+03  0.86219437324E+02 0.  0.
          5    1    3    3  502    0 -0.11567686837E+03  0.49368596179E+02  0.99350525182E+02  0.16033214094E+03  0.41800000000E+01 0.  1.
         -5    1    3    3    0  502 -0.78823490475E+02 -0.66209844242E+02  0.42250724132E+02  0.11135296231E+03  0.41800000000E+01 0.  1.
        -11    1    4    4    0    0  0.58152879894E+02  0.45057097875E+02  0.32378066776E+02  0.80375610212E+02  0.00000000000E+00 0.  1.
         11    1    4    4    0    0  0.13634747895E+03 -0.28215849812E+02  0.37608541811E+02  0.14422611280E+03  0.00000000000E+00 0. -1.
</event>
<event>
 8    1  0.6615242E-009  0.1767503E+03  0.7561462E-02  0.1170986E+00
          2   -1    0    0  501    0  0.00000000000E+00  0.00000000000E+00  0.22273474936E+04  0.22273474936E+04  0.00000000000E+00 0. -1.
         -2   -1    0    0    0  501 -0.00000000000E+00 -0.00000000000E+00 -0.38432460145E+02  0.38432460145E+02  0.00000000000E+00 0.  1.
         25    2    1    2    0    0  0.14693721172E+03  0.87319392550E+01  0.20011224543E+04  0.20104243719E+04  0.12509311471E+03 0.  0.
         23    2    1    2    0    0 -0.14693721172E+03 -0.87319392550E+01  0.18779257923E+03  0.25535558185E+03  0.90959493280E+02 0.  0.
          5    1    3    3  502    0  0.43886160573E+02  0.59719556173E+02  0.98959331600E+03  0.99237332892E+03  0.41800000000E+01 0. -1.
         -5    1    3    3    0  502  0.10305105115E+03 -0.50987616918E+02  0.10115291383E+04  0.10180510430E+04  0.41800000000E+01 0. -1.
        -11    1    4    4    0    0 -0.14717594401E+03 -0.23854404874E+02  0.13743622137E+03  0.20277698605E+03  0.00000000000E+00 0.  1.
         11    1    4    4    0    0  0.23873229303E+00  0.15122465619E+02  0.50356357853E+02  0.52578595795E+02  0.00000000000E+00 0. -1.
</event>
<event>
 8    1  0.6615242E-009  0.1893373E+03  0.7561462E-02  0.1159060E+00
          1   -1    0    0  501    0  0.00000000000E+00  0.00000000000E+00  0.45863127492E+03  0.45863127492E+03  0.00000000000E+00 0. -1.
         -1   -1    0    0    0  501 -0.00000000000E+00 -0.00000000000E+00 -0.89091774234E+02  0.89091774234E+02  0.00000000000E+00 0.  1.
         25    2    1    2    0    0  0.73560536550E+02  0.15109459980E+03  0.23259659366E+03  0.31303707765E+03  0.12510118295E+03 0.  0.
         23    2    1    2    0    0 -0.73560536550E+02 -0.15109459980E+03  0.13694290703E+03  0.23468597150E+03  0.89907812832E+02 0.  0.
          5    1    3    3  502    0  0.70836696949E+02  0.47182416276E+02  0.39990844357E+02  0.94131599757E+02  0.41800000000E+01 0.  1.
         -5    1    3    3    0  502  0.27238396013E+01  0.10391218353E+03  0.19260574930E+03  0.21890547789E+03  0.41800000000E+01 0.  1.
        -11    1    4    4    0    0  0.18456202436E+02 -0.46999981741E+02  0.48345655634E+02  0.69906595616E+02  0.00000000000E+00 0. -1.
         11    1    4    4    0    0 -0.92016738987E+02 -0.10409461806E+03  0.88597251392E+02  0.16477937589E+03  0.00000000000E+00 0.  1.
</event>
<event>
 8    1  0.6615242E-009  0.1012478E+03  0.7561462E-02  0.1277694E+00
          4   -1    0    0  501    0  0.00000000000E+00  0.00000000000E+00  0.28810184259E+03  0.28810184259E+03  0.00000000000E+00 0.  1.
         -4   -1    0    0    0  501 -0.00000000000E+00 -0.00000000000E+00 -0.62928479774E+02  0.62928479774E+02  0.00000000000E+00 0. -1.
         25    2    1    2    0    0 -0.10201922555E+02 -0.72940617544E+02  0.16262175215E+03  0.21798803702E+03  0.12509411297E+03 0.  0.
         23    2    1    2    0    0  0.10201922555E+02  0.72940617544E+02  0.62551610672E+02  0.13304228535E+03  0.91450165567E+02 0.  0.
          5    1    3    3  502    0 -0.27930201711E+02 -0.76367089569E+02  0.17680341971E+03  0.19465084166E+03  0.41800000000E+01 0.  1.
         -5    1    3    3    0  502  0.17728279156E+02  0.34264720246E+01 -0.14181667562E+02  0.23337195358E+02  0.41800000000E+01 0.  1.
        -11    1    4    4    0    0  0.21428308835E+02  0.84054415988E+02  0.73604284411E+02  0.11376250679E+03  0.00000000000E+00 0.  1.
         11    1    4    4    0    0 -0.11226386280E+02 -0.11113798443E+02 -0.11052673739E+02  0.19279778565E+02  0.00000000000E+00 0. -1.
</event>
<event>
 8    1  0.6615242E-009  0.6492287E+02  0.7561462E-02  0.1378262E+00
          1   -1    0    0  501    0  0.00000000000E+00  0.00000000000E+00  0.91389628325E+02  0.91389628325E+02  0.00000000000E+00 0. -1.
         -1   -1    0    0    0  501 -0.00000000000E+00 -0.00000000000E+00 -0.14344524261E+03  0.14344524261E+03  0.00000000000E+00 0.  1.
         25    2    1    2    0    0  0.26261900526E+02 -0.20198967991E+02 -0.14232116381E+02  0.13018256267E+03  0.12508901134E+03 0.  0.
         23    2    1    2    0    0 -0.26261900526E+02  0.20198967991E+02 -0.37823497905E+02  0.10465230827E+03  0.91781277532E+02 0.  0.
          5    1    3    3  502    0  0.15352531910E+02 -0.72594111361E+01 -0.69792972557E+02  0.71950890921E+02  0.41800000000E+01 0.  1.
         -5    1    3    3    0  502  0.10909368617E+02 -0.12939556855E+02  0.55560856175E+02  0.58231671744E+02  0.41800000000E+01 0.  1.
        -11    1    4    4    0    0 -0.59048640037E+02  0.65566579208E+01 -0.11664239113E+02  0.60545735831E+02  0.00000000000E+00 0. -1.
         11    1    4    4    0    0  0.32786739510E+02  0.13642310071E+02 -0.26159258792E+02  0.44106572439E+02  0.00000000000E+00 0.  1.
</event>
<event>
 8    1  0.6615242E-009  0.1298754E+03  0.7561462E-02  0.1227641E+00
         -1   -1    0    0    0  501 -0.00000000000E+00  0.00000000000E+00  0.35680138799E+02  0.35680138799E+02  0.00000000000E+00 0.  1.
          1   -1    0    0  501    0  0.00000000000E+00 -0.00000000000E+00 -0.59617908925E+03  0.59617908925E+03  0.00000000000E+00 0. -1.
         25    2    1    2    0    0 -0.20070089794E+02 -0.91307858059E+02 -0.36282540600E+03  0.39500588437E+03  0.12508972778E+03 0.  0.
         23    2    1    2    0    0  0.20070089794E+02  0.91307858059E+02 -0.19767354444E+03  0.23685334368E+03  0.91020562460E+02 0.  0.
          5    1    3    3  502    0 -0.72918659105E+02 -0.60349557790E+02 -0.22382091557E+03  0.24304829688E+03  0.41800000000E+01 0. -1.
         -5    1    3    3    0  502  0.52848569311E+02 -0.30958300269E+02 -0.13900449043E+03  0.15195758749E+03  0.41800000000E+01 0. -1.
        -11    1    4    4    0    0 -0.83221650424E+01  0.62909123452E+02 -0.18367210304E+03  0.19432513394E+03  0.00000000000E+00 0. -1.
         11    1    4    4    0    0  0.28392254837E+02  0.28398734607E+02 -0.14001441397E+02  0.42528209735E+02  0.00000000000E+00 0.  1.
</event>
<event>
 8    1  0.6615242E-009  0.1670103E+03  0.7561462E-02  0.1181002E+00
          1   -1    0    0  501    0  0.00000000000E+00  0.00000000000E+00  0.15507567101E+03  0.15507567101E+03  0.00000000000E+00 0. -1.
         -1   -1    0    0    0  501 -0.00000000000E+00 -0.00000000000E+00 -0.22371847660E+03  0.22371847660E+03  0.00000000000E+00 0.  1.
         25    2    1    2    0    0 -0.14826318481E+03 -0.27038258782E+02 -0.42391896602E+02  0.20039362635E+03  0.12508994035E+03 0.  0.
         23    2    1    2    0    0  0.14826318481E+03  0.27038258782E+02 -0.26250908990E+02  0.17840052126E+03  0.91785599938E+02 0.  0.
          5    1    3    3  502    0 -0.60826366897E+02  0.29640403049E+02  0.29289724987E+02  0.73849582210E+02  0.41800000000E+01 0. -1.
         -5    1    3    3    0  502 -0.87436817915E+02 -0.56678661831E+02 -0.71681621589E+02  0.12654404414E+03  0.41800000000E+01 0. -1.
        -11    1    4    4    0    0  0.89890489435E+02  0.45461834723E+02 -0.50351235507E+02  0.11261583114E+03  0.00000000000E+00 0.  1.
         11    1    4    4    0    0  0.58372695377E+02 -0.18423575941E+02  0.24100326516E+02  0.65784690120E+02  0.00000000000E+00 0. -1.
</event>
<event>
 8    1  0.6615242E-009  0.1418221E+03  0.7561462E-02  0.1210898E+00
          1   -1    0    0  501    0  0.00000000000E+00  0.00000000000E+00  0.29791887884E+02  0.29791887884E+02  0.00000000000E+00 0. -1.
         -1   -1    0    0    0  501 -0.00000000000E+00 -0.00000000000E+00 -0.95577217497E+03  0.95577217497E+03  0.00000000000E+00 0.  1.
         25    2    1    2    0    0 -0.28149050589E+02 -0.12106122546E+03 -0.39535732069E+03  0.43289996927E+03  0.12508710171E+03 0.  0.
         23    2    1    2    0    0  0.28149050589E+02  0.12106122546E+03 -0.53062296640E+03  0.55266409359E+03  0.91807834669E+02 0.  0.
          5    1    3    3  502    0 -0.52363125673E+02 -0.24244520231E+02 -0.24949160887E+03  0.25611175098E+03  0.41800000000E+01 0.  1.
         -5    1    3    3    0  502  0.24214075084E+02 -0.96816705230E+02 -0.14586571181E+03  0.17678821829E+03  0.41800000000E+01 0.  1.
        -11    1    4    4    0    0  0.31352695869E+02  0.11112451309E+03 -0.52975034350E+03  0.54218730656E+03  0.00000000000E+00 0.  1.
         11    1    4    4    0    0 -0.32036452804E+01  0.99367123702E+01 -0.87262290155E+00  0.10476787033E+02  0.00000000000E+00 0. -1.
</event>
<event>
 8    1  0.6615242E-009  0.1109567E+03  0.7561462E-02  0.1258808E+00
          1   -1    0    0  501    0  0.00000000000E+00  0.00000000000E+00  0.20587491377E+02  0.20587491377E+02  0.00000000000E+00 0. -1.
         -1   -1    0    0    0  501 -0.00000000000E+00 -0.00000000000E+00 -0.74171230509E+03  0.74171230509E+03  0.00000000000E+00 0.  1.
         25    2    1    2    0    0 -0.49732985336E+02 -0.20175368607E+02 -0.31507708472E+03  0.34322319900E+03  0.12509268440E+03 0.  0.
         23    2    1    2    0    0  0.49732985336E+02  0.20175368607E+02 -0.40604772899E+03  0.41907659747E+03  0.88713138784E+02 0.  0.
          5    1    3    3  502    0  0.28677836663E+02 -0.28016729156E+02 -0.19782064360E+03  0.20188569752E+03  0.41800000000E+01 0.  1.
         -5    1    3    3    0  502 -0.78410821999E+02  0.78413605496E+01 -0.11725644112E+03  0.14133750148E+03  0.41800000000E+01 0.  1.
        -11    1    4    4    0    0  0.74420293825E+02  0.71075229272E+01 -0.26802757615E+03  0.27825829475E+03  0.00000000000E+00 0. -1.
         11    1    4    4    0    0 -0.24687308489E+02  0.13067845680E+02 -0.13802015284E+03  0.14081830272E+03  0.00000000000E+00 0.  1.
</event>
<event>
 8    1  0.6615242E-009  0.8957957E+02  0.7561462E-02  0.1303873E+00
          3   -1    0    0  501    0  0.00000000000E+00  0.00000000000E+00  0.38595721775E+02  0.38595721775E+02  0.00000000000E+00 0.  1.
         -3   -1    0    0    0  501 -0.00000000000E+00 -0.00000000000E+00 -0.36489050932E+03  0.36489050932E+03  0.00000000000E+00 0. -1.
         25    2    1    2    0    0 -0.14387765283E+01 -0.46407575050E+02 -0.20429552030E+03  0.24400728326E+03  0.12508861488E+03 0.  0.
         23    2    1    2    0    0  0.14387765283E+01  0.46407575050E+02 -0.12199926724E+03  0.15947894783E+03  0.91618668905E+02 0.  0.
          5    1    3    3  502    0  0.16612099560E+02  0.40427677237E+02 -0.79980204744E+02  0.91239599350E+02  0.41800000000E+01 0.  1.
         -5    1    3    3    0  502 -0.18050876088E+02 -0.86835252288E+02 -0.12431531555E+03  0.15276768391E+03  0.41800000000E+01 0.  1.
        -11    1    4    4    0    0 -0.75195729516E-01  0.25349295152E+02 -0.13319206286E+03  0.13558288250E+03  0.00000000000E+00 0. -1.
         11    1    4    4    0    0  0.15139722579E+01  0.21058279899E+02  0.11192795615E+02  0.23896065324E+02  0.00000000000E+00 0.  1.
</event>
<event>
 8    1  0.6615242E-009  0.9795441E+02  0.7561462E-02  0.1284657E+00
         -1   -1    0    0    0  501 -0.00000000000E+00  0.00000000000E+00  0.69732682249E+02  0.69732682249E+02  0.00000000000E+00 0.  1.
          1   -1    0    0  501    0  0.00000000000E+00 -0.00000000000E+00 -0.25554016299E+03  0.25554016299E+03  0.00000000000E+00 0. -1.
         25    2    1    2    0    0 -0.73360367017E+02  0.10572793229E+02 -0.13059874747E+03  0.19544406917E+03  0.12509525941E+03 0.  0.
         23    2    1    2    0    0  0.73360367017E+02 -0.10572793229E+02 -0.55208733266E+02  0.12982877607E+03  0.91181025776E+02 0.  0.
          5    1    3    3  502    0 -0.42294129416E+02 -0.14812484010E+02 -0.14560857983E+03  0.15240582006E+03  0.41800000000E+01 0. -1.
         -5    1    3    3    0  502 -0.31066237600E+02  0.25385277239E+02  0.15009832361E+02  0.43038249112E+02  0.41800000000E+01 0. -1.
        -11    1    4    4    0    0 -0.12573113201E+02  0.16246993667E+02  0.54784731810E+01  0.21261741396E+02  0.00000000000E+00 0.  1.
         11    1    4    4    0    0  0.85933480218E+02 -0.26819786897E+02 -0.60687206447E+02  0.10856703467E+03  0.00000000000E+00 0. -1.
</event>
<event>
 8    1  0.6615242E-009  0.1392722E+03  0.7561462E-02  0.1214312E+00
         -2   -1    0    0    0  501 -0.00000000000E+00  0.00000000000E+00  0.39341190526E+02  0.39341190526E+02  0.00000000000E+00 0.  1.
          2   -1    0    0  501    0  0.00000000000E+00 -0.00000000000E+00 -0.79214960854E+03  0.79214960854E+03  0.00000000000E+00 0. -1.
         25    2    1    2    0    0  0.67278081636E+02 -0.66413735807E+02 -0.63400892543E+03  0.65310820688E+03  0.12508352332E+03 0.  0.
         23    2    1    2    0    0 -0.67278081636E+02  0.66413735807E+02 -0.11879949259E+03  0.17838259218E+03  0.93647771901E+02 0.  0.
          5    1    3    3  502    0  0.56969153286E+02 -0.10085592697E+03 -0.54159713966E+03  0.55386129718E+03  0.41800000000E+01 0.  1.
         -5    1    3    3    0  502  0.10308928351E+02  0.34442191168E+02 -0.92411785768E+02  0.99246909700E+02  0.41800000000E+01 0.  1.
        -11    1    4    4    0    0 -0.31866199997E+02  0.81832712506E+02 -0.54440693646E+02  0.10332394042E+03  0.00000000000E+00 0.  1.
         11    1    4    4    0    0 -0.35411881640E+02 -0.15418976699E+02 -0.64358798944E+02  0.75058651768E+02  0.00000000000E+00 0. -1.
</event>
<event>
 8    1  0.6615242E-009  0.9650873E+02  0.7561462E-02  0.1287814E+00
          2   -1    0    0  501    0  0.00000000000E+00  0.00000000000E+00  0.26809100146E+03  0.26809100146E+03  0.00000000000E+00 0. -1.
         -2   -1    0    0    0  501 -0.00000000000E+00 -0.00000000000E+00 -0.53781169231E+02  0.53781169231E+02  0.00000000000E+00 0.  1.
         25    2    1    2    0    0 -0.17889422981E+01 -0.43583695179E+02  0.81838615708E+02  0.15571792266E+03  0.12509106130E+03 0.  0.
         23    2    1    2    0    0  0.17889422981E+01  0.43583695179E+02  0.13247121652E+03  0.16615424803E+03  0.90309867297E+02 0.  0.
          5    1    3    3  502    0 -0.40573073462E+02  0.27081050151E+02  0.46782334048E+02  0.67717182062E+02  0.41800000000E+01 0. -1.
         -5    1    3    3    0  502  0.38784131164E+02 -0.70664745330E+02  0.35056281659E+02  0.88000740602E+02  0.41800000000E+01 0. -1.
        -11    1    4    4    0    0  0.23328621392E+02  0.15754743515E+02  0.12755160577E+03  0.13062101153E+03  0.00000000000E+00 0. -1.
         11    1    4    4    0    0 -0.21539679094E+02  0.27828951664E+02  0.49196107567E+01  0.35533236500E+02  0.00000000000E+00 0.  1.
</event>
<event>
 8    1  0.6615242E-009  0.4613336E+02  0.7561462E-02  0.1467388E+00
          1   -1    0    0  501    0  0.00000000000E+00  0.00000000000E+00  0.27886065891E+03  0.27886065891E+03  0.00000000000E+00 0. -1.
         -1   -1    0    0    0  501 -0.00000000000E+00 -0.00000000000E+00 -0.56191297255E+02  0.56191297255E+02  0.00000000000E+00 0.  1.
         25    2    1    2    0    0  0.19892902815E+02 -0.22739409589E+02  0.50787283777E+02  0.13834582180E+03  0.12508960742E+03 0.  0.
         23    2    1    2    0    0 -0.19892902815E+02  0.22739409589E+02  0.17188207787E+03  0.19670613436E+03  0.90758174670E+02 0.  0.
          5    1    3    3  502    0  0.55390817349E+01 -0.93277622601E+01  0.91877331543E+02  0.92609961811E+02  0.41800000000E+01 0. -1.
         -5    1    3    3    0  502  0.14353821080E+02 -0.13411647329E+02 -0.41090047766E+02  0.45735859991E+02  0.41800000000E+01 0. -1.
        -11    1    4    4    0    0  0.20672038378E+01 -0.15942441677E+02 -0.29152274016E+01  0.16338094416E+02  0.00000000000E+00 0.  1.
         11    1    4    4    0    0 -0.21960106653E+02  0.38681851266E+02  0.17479730528E+03  0.18036803994E+03  0.00000000000E+00 0. -1.
</event>
<event>
 8    1  0.6615242E-009  0.1603202E+03  0.7561462E-02  0.1188336E+00
         -2   -1    0    0    0  501 -0.00000000000E+00  0.00000000000E+00  0.29683259474E+03  0.29683259474E+03  0.00000000000E+00 0.  1.
          2   -1    0    0  501    0  0.00000000000E+00 -0.00000000000E+00 -0.14135415010E+03  0.14135415010E+03  0.00000000000E+00 0. -1.
         25    2    1    2    0    0 -0.93091055128E+02 -0.72542746695E+02 -0.54137072898E+02  0.18028616948E+03  0.12507551959E+03 0.  0.
         23    2    1    2    0    0  0.93091055128E+02  0.72542746695E+02  0.20961551753E+03  0.25790057536E+03  0.92981971054E+02 0.  0.
          5    1    3    3  502    0 -0.12399149167E+03 -0.63488241070E+02 -0.46655563017E+02  0.14696550861E+03  0.41800000000E+01 0.  1.
         -5    1    3    3    0  502  0.30900436541E+02 -0.90545056249E+01 -0.74815098810E+01  0.33320660867E+02  0.41800000000E+01 0.  1.
        -11    1    4    4    0    0  0.15587865183E+02  0.69518902234E+02  0.82652528818E+02  0.10912057473E+03  0.00000000000E+00 0.  1.
         11    1    4    4    0    0  0.77503189945E+02  0.30238444608E+01  0.12696298871E+03  0.14878000064E+03  0.00000000000E+00 0. -1.
</event>
<event>
 8    1  0.6615242E-009  0.1065853E+03  0.7561462E-02  0.1267027E+00
          2   -1    0    0  501    0  0.00000000000E+00  0.00000000000E+00  0.43209894720E+03  0.43209894720E+03  0.00000000000E+00 0.  1.
         -2   -1    0    0    0  501 -0.00000000000E+00 -0.00000000000E+00 -0.58751993571E+02  0.58751993571E+02  0.00000000000E+00 0. -1.
         25    2    1    2    0    0 -0.20999162561E+01  0.31768814300E+02  0.27944169138E+02  0.13206776939E+03  0.12508937570E+03 0.  0.
         23    2    1    2    0    0  0.20999162561E+01 -0.31768814300E+02  0.34540278449E+03  0.35878317138E+03  0.91698491377E+02 0.  0.
          5    1    3    3  502    0  0.34105240225E+02 -0.33103720647E+02  0.32160000397E+02  0.57539219295E+02  0.41800000000E+01 0.  1.
         -5    1    3    3    0  502 -0.36205156481E+02  0.64872534947E+02 -0.42158312595E+01  0.74528550097E+02  0.41800000000E+01 0.  1.
        -11    1    4    4    0    0  0.16694026242E+01  0.29615657327E+02  0.17853656934E+03  0.18098392375E+03  0.00000000000E+00 0.  1.
         11    1    4    4    0    0  0.43051363186E+00 -0.61384471627E+02  0.16686621514E+03  0.17779924762E+03  0.00000000000E+00 0. -1.
</event>
<event>
 8    1  0.6615242E-009  0.3634705E+03  0.7561462E-02  0.1057218E+00
         -2   -1    0    0    0  501 -0.00000000000E+00  0.00000000000E+00  0.19108741052E+03  0.19108741052E+03  0.00000000000E+00 0. -1.
          2   -1    0    0  501    0  0.00000000000E+00 -0.00000000000E+00 -0.74922656318E+03  0.74922656318E+03  0.00000000000E+00 0.  1.
         25    2    1    2    0    0  0.35831838919E+03 -0.36313135095E+02 -0.23433529906E+03  0.44751729445E+03  0.12509190476E+03 0.  0.
         23    2    1    2    0    0 -0.35831838919E+03  0.36313135095E+02 -0.32380385360E+03  0.49279667926E+03  0.91043504248E+02 0.  0.
          5    1    3    3  502    0  0.27181736739E+03 -0.55225509240E+02 -0.22723329875E+03  0.35859027113E+03  0.41800000000E+01 0.  1.
         -5    1    3    3    0  502  0.86501021805E+02  0.18912374144E+02 -0.71020003023E+01  0.88927023325E+02  0.41800000000E+01 0.  1.
        -11    1    4    4    0    0 -0.15070896592E+03  0.38076131493E+01 -0.19441449108E+03  0.24601765113E+03  0.00000000000E+00 0.  1.
         11    1    4    4    0    0 -0.20760942327E+03  0.32505521946E+02 -0.12938936252E+03  0.24677902812E+03  0.00000000000E+00 0. -1.
</event>
<event>
 8    1  0.6615242E-009  0.2081270E+03  0.7561462E-02  0.1143058E+00
          1   -1    0    0  501    0  0.00000000000E+00  0.00000000000E+00  0.11796510845E+04  0.11796510845E+04  0.00000000000E+00 0. -1.
         -1   -1    0    0    0  501 -0.00000000000E+00 -0.00000000000E+00 -0.47166448789E+02  0.47166448789E+02  0.00000000000E+00 0.  1.
         25    2    1    2    0    0  0.15130610398E+03  0.96309756799E+02  0.86353995379E+03  0.89079638305E+03  0.12509131822E+03 0.  0.
         23    2    1    2    0    0 -0.15130610398E+03 -0.96309756799E+02  0.26894468190E+03  0.33602115023E+03  0.91705316746E+02 0.  0.
          5    1    3    3  502    0  0.16945227086E+03  0.63843575281E+02  0.70447781618E+03  0.72739022546E+03  0.41800000000E+01 0.  1.
         -5    1    3    3    0  502 -0.18146166881E+02  0.32466181518E+02  0.15906213762E+03  0.16340615759E+03  0.41800000000E+01 0.  1.
        -11    1    4    4    0    0  0.93118251372E+01 -0.15041735612E+02  0.90374727988E+01  0.19865543340E+02  0.00000000000E+00 0.  1.
         11    1    4    4    0    0 -0.16061792912E+03 -0.81268021187E+02  0.25990720910E+03  0.31615560689E+03  0.00000000000E+00 0. -1.
</event>
<event>
 8    1  0.6615242E-009  0.1308927E+03  0.7561462E-02  0.1226137E+00
          2   -1    0    0  501    0  0.00000000000E+00  0.00000000000E+00  0.13131663704E+04  0.13131663704E+04  0.00000000000E+00 0. -1.
         -2   -1    0    0    0  501 -0.00000000000E+00 -0.00000000000E+00 -0.19797835541E+02  0.19797835541E+02  0.00000000000E+00 0.  1.
         25    2    1    2    0    0 -0.44640438418E+01 -0.11785747423E+03  0.79868333905E+03  0.81697733936E+03  0.12508631034E+03 0.  0.
         23    2    1    2    0    0  0.44640438418E+01  0.11785747423E+03  0.49468519582E+03  0.51598686659E+03  0.87285116783E+02 0.  0.
          5    1    3    3  502    0 -0.19445754941E+02 -0.79018605274E+02  0.18845439166E+03  0.20531587250E+03  0.41800000000E+01 0. -1.
         -5    1    3    3    0  502  0.14981711099E+02 -0.38838868954E+02  0.61022894738E+03  0.61166146686E+03  0.41800000000E+01 0. -1.
        -11    1    4    4    0    0 -0.33838232985E+02  0.46952860243E+02  0.29553983810E+03  0.30115343764E+03  0.00000000000E+00 0.  1.
         11    1    4    4    0    0  0.38302276827E+02  0.70904613985E+02  0.19914535772E+03  0.21483342895E+03  0.00000000000E+00 0. -1.
</event>
<event>
 8    1  0.6615242E-009  0.1279027E+03  0.7561462E-02  0.1230601E+00
         -2   -1    0    0    0  501 -0.00000000000E+00  0.00000000000E+00  0.57369176944E+02  0.57369176944E+02  0.00000000000E+00 0.  1.
          2   -1    0    0  501    0  0.00000000000E+00 -0.00000000000E+00 -0.36551559221E+03  0.36551559221E+03  0.00000000000E+00 0. -1.
         25    2    1    2    0    0  0.53388817459E+01  0.72590890598E+02 -0.25746411413E+03  0.29536300795E+03  0.12511432910E+03 0.  0.
         23    2    1    2    0    0 -0.53388817459E+01 -0.72590890598E+02 -0.50682301131E+02  0.12752176120E+03  0.91625121418E+02 0.  0.
          5    1    3    3  502    0 -0.21511194450E+01  0.10588177374E+03 -0.22183100058E+03  0.24584963401E+03  0.41800000000E+01 0.  1.
         -5    1    3    3    0  502  0.74900011908E+01 -0.33290883138E+02 -0.35633113553E+02  0.49513373945E+02  0.41800000000E+01 0.  1.
        -11    1    4    4    0    0 -0.25315455907E+02 -0.87130496578E+02 -0.30835654774E+02  0.95830231905E+02  0.00000000000E+00 0.  1.
         11    1    4    4    0    0  0.19976574162E+02  0.14539605979E+02 -0.19846646357E+02  0.31691529292E+02  0.00000000000E+00 0. -1.
</event>
<event>
 8    1  0.6615242E-009  0.5619904E+02  0.7561462E-02  0.1414512E+00
         -2   -1    0    0    0  501 -0.00000000000E+00  0.00000000000E+00  0.40941432807E+02  0.40941432807E+02  0.00000000000E+00 0. -1.
          2   -1    0    0  501    0  0.00000000000E+00 -0.00000000000E+00 -0.29030201670E+03  0.29030201670E+03  0.00000000000E+00 0.  1.
         25    2    1    2    0    0  0.39252607532E+01 -0.18524278840E+02 -0.14329785135E+03  0.19115643621E+03  0.12509177560E+03 0.  0.
         23    2    1    2    0    0 -0.39252607532E+01  0.18524278840E+02 -0.10606273254E+03  0.14008701330E+03  0.89534973522E+02 0.  0.
          5    1    3    3  502    0 -0.13470353628E+02 -0.83481061935E+01 -0.16231089481E+03  0.16313626292E+03  0.41800000000E+01 0.  1.
         -5    1    3    3    0  502  0.17395614381E+02 -0.10176172647E+02  0.19013043460E+02  0.28020173288E+02  0.41800000000E+01 0.  1.
        -11    1    4    4    0    0 -0.27094255646E+02 -0.17745230167E+02 -0.87341761356E+02  0.93153503205E+02  0.00000000000E+00 0.  1.
         11    1    4    4    0    0  0.23168994893E+02  0.36269509008E+02 -0.18720971187E+02  0.46933510099E+02  0.00000000000E+00 0. -1.
</event>
<event>
 8    1  0.6615242E-009  0.1207777E+03  0.7561462E-02  0.1241820E+00
         -1   -1    0    0    0  501 -0.00000000000E+00  0.00000000000E+00  0.98085573879E+02  0.98085573879E+02  0.00000000000E+00 0.  1.
          1   -1    0    0  501    0  0.00000000000E+00 -0.00000000000E+00 -0.16469510990E+03  0.16469510990E+03  0.00000000000E+00 0. -1.
         25    2    1    2    0    0  0.59409148518E+02 -0.28506571279E+02 -0.22805736812E+02  0.14321070697E+03  0.12508850237E+03 0.  0.
         23    2    1    2    0    0 -0.59409148518E+02  0.28506571279E+02 -0.43803799212E+02  0.11956997681E+03  0.89644492278E+02 0.  0.
          5    1    3    3  502    0 -0.37109242712E+02 -0.14143514037E+02 -0.21883475943E+02  0.45535632238E+02  0.41800000000E+01 0.  1.
         -5    1    3    3    0  502  0.96518391230E+02 -0.14363057242E+02 -0.92226086903E+00  0.97675074733E+02  0.41800000000E+01 0.  1.
        -11    1    4    4    0    0 -0.45494043576E+02  0.56590549056E+02 -0.49278822094E+02  0.87753065760E+02  0.00000000000E+00 0.  1.
         11    1    4    4    0    0 -0.13915104942E+02 -0.28083977777E+02  0.54750228813E+01  0.31816911052E+02  0.00000000000E+00 0. -1.
</event>
<event>
 8    1  0.6615242E-009  0.1199290E+03  0.7561462E-02  0.1243214E+00
         -2   -1    0    0    0  501 -0.00000000000E+00  0.00000000000E+00  0.53066495816E+03  0.53066495816E+03  0.00000000000E+00 0.  1.
          2   -1    0    0  501    0  0.00000000000E+00 -0.00000000000E+00 -0.75461135076E+02  0.75461135076E+02  0.00000000000E+00 0. -1.
         25    2    1    2    0    0  0.67611149312E+02 -0.74756641528E+02  0.35414414676E+02  0.16450378597E+03  0.12508993512E+03 0.  0.
         23    2    1    2    0    0 -0.67611149312E+02  0.74756641528E+02  0.41978940840E+03  0.44162230726E+03  0.92990816205E+02 0.  0.
          5    1    3    3  502    0  0.81330724662E+02 -0.87698901582E+02  0.59478392803E+02  0.13364481181E+03  0.41800000000E+01 0. -1.
         -5    1    3    3    0  502 -0.13719575350E+02  0.12942260054E+02 -0.24063978127E+02  0.30858974163E+02  0.41800000000E+01 0. -1.
        -11    1    4    4    0    0 -0.44344042218E+02  0.51535574344E+02  0.39404950640E+03  0.39987163315E+03  0.00000000000E+00 0.  1.
         11    1    4    4    0    0 -0.23267107094E+02  0.23221067184E+02  0.25739902006E+02  0.41750674114E+02  0.00000000000E+00 0. -1.
</event>
<event>
 8    1  0.6615242E-009  0.1153926E+03  0.7561462E-02  0.1250897E+00
          2   -1    0    0  501    0  0.00000000000E+00  0.00000000000E+00  0.21586124832E+03  0.21586124832E+03  0.00000000000E+00 0. -1.
         -2   -1    0    0    0  501 -0.00000000000E+00 -0.00000000000E+00 -0.98343634711E+02  0.98343634711E+02  0.00000000000E+00 0.  1.
         25    2    1    2    0    0 -0.53097366090E+02  0.50971582580E+02  0.45152368413E+02  0.15197395075E+03  0.12505963704E+03 0.  0.
         23    2    1    2    0    0  0.53097366090E+02 -0.50971582580E+02  0.72365245198E+02  0.16223093228E+03  0.12515875583E+03 0.  0.
          5    1    3    3  502    0 -0.49984692847E+02  0.78859651817E+02  0.67972699484E+02  0.11556415741E+03  0.41800000000E+01 0.  1.
         -5    1    3    3    0  502 -0.31126732433E+01 -0.27888069237E+02 -0.22820331071E+02  0.36409793335E+02  0.41800000000E+01 0.  1.
        -11    1    4    4    0    0  0.74272314785E+02 -0.45435406062E+02  0.96281927019E+02  0.12981125659E+03  0.00000000000E+00 0. -1.
         11    1    4    4    0    0 -0.21174948695E+02 -0.55361765178E+01 -0.23916681821E+02  0.32419675692E+02  0.00000000000E+00 0.  1.
</event>
<event>
 8    1  0.6615242E-009  0.1384649E+03  0.7561462E-02  0.1215410E+00
         -1   -1    0    0    0  501 -0.00000000000E+00  0.00000000000E+00  0.23355828352E+03  0.23355828352E+03  0.00000000000E+00 0.  1.
          1   -1    0    0  501    0  0.00000000000E+00 -0.00000000000E+00 -0.97891470380E+02  0.97891470380E+02  0.00000000000E+00 0. -1.
         25    2    1    2    0    0 -0.94283806735E+02 -0.20375555734E+02  0.11893872348E+03  0.19773581100E+03  0.12509369099E+03 0.  0.
         23    2    1    2    0    0  0.94283806735E+02  0.20375555734E+02  0.16728089652E+02  0.13371394289E+03  0.91076836002E+02 0.  0.
          5    1    3    3  502    0 -0.66702807589E+02 -0.64933867824E+02  0.11041261696E+03  0.14447868395E+03  0.41800000000E+01 0.  1.
         -5    1    3    3    0  502 -0.27580999146E+02  0.44558312090E+02  0.85261065245E+01  0.53257127060E+02  0.41800000000E+01 0.  1.
        -11    1    4    4    0    0  0.81792299743E+02  0.52171370050E+02  0.34907874062E+01  0.97077380202E+02  0.00000000000E+00 0.  1.
         11    1    4    4    0    0  0.12491506992E+02 -0.31795814316E+02  0.13237302246E+02  0.36636562689E+02  0.00000000000E+00 0. -1.
</event>
<event>
 8    1  0.6615242E-009  0.1188055E+03  0.7561462E-02  0.1245081E+00
          1   -1    0    0  501    0  0.00000000000E+00  0.00000000000E+00  0.12476645304E+04  0.12476645304E+04  0.00000000000E+00 0. -1.
         -1   -1    0    0    0  501 -0.00000000000E+00 -0.00000000000E+00 -0.13430024323E+02  0.13430024323E+02  0.00000000000E+00 0.  1.
         25    2    1    2    0    0  0.69709370643E+02 -0.21395031105E+02  0.77048129404E+03  0.78396780937E+03  0.12508780091E+03 0.  0.
         23    2    1    2    0    0 -0.69709370643E+02  0.21395031105E+02  0.46375321203E+03  0.47712674535E+03  0.85239343927E+02 0.  0.
          5    1    3    3  502    0  0.54332902425E+02  0.37046149382E+02  0.20687500990E+03  0.21711569172E+03  0.41800000000E+01 0. -1.
         -5    1    3    3    0  502  0.15376468218E+02 -0.58441180487E+02  0.56360628414E+03  0.56685211764E+03  0.41800000000E+01 0. -1.
        -11    1    4    4    0    0 -0.83902784221E+02 -0.18317604260E+01  0.37584893702E+03  0.38510447415E+03  0.00000000000E+00 0. -1.
         11    1    4    4    0    0  0.14193413577E+02  0.23226791531E+02  0.87904275004E+02  0.92022271206E+02  0.00000000000E+00 0.  1.
</event>
<event>
 8    1  0.6615242E-009  0.1024189E+03  0.7561462E-02  0.1275290E+00
         -2   -1    0    0    0  501 -0.00000000000E+00  0.00000000000E+00  0.34958346154E+02  0.34958346154E+02  0.00000000000E+00 0. -1.
          2   -1    0    0  501    0  0.00000000000E+00 -0.00000000000E+00 -0.55857683996E+03  0.55857683996E+03  0.00000000000E+00 0.  1.
         25    2    1    2    0    0  0.35482745152E+02 -0.81100487671E+02 -0.29182577076E+03  0.32961596173E+03  0.12509231569E+03 0.  0.
         23    2    1    2    0    0 -0.35482745152E+02  0.81100487671E+02 -0.23179272305E+03  0.26391922438E+03  0.89939847882E+02 0.  0.
          5    1    3    3  502    0  0.16119978159E+02 -0.19281644976E+02  0.48380903871E+01  0.25932895084E+02  0.41800000000E+01 0.  1.
         -5    1    3    3    0  502  0.19362766993E+02 -0.61818842694E+02 -0.29666386114E+03  0.30368306664E+03  0.41800000000E+01 0.  1.
        -11    1    4    4    0    0 -0.36982415468E+02  0.38523331477E+01 -0.13524140751E+03  0.14025967999E+03  0.00000000000E+00 0.  1.
         11    1    4    4    0    0  0.14996703162E+01  0.77248154523E+02 -0.96551315535E+02  0.12365954439E+03  0.00000000000E+00 0. -1.
</event>
<event>
 8    1  0.6615242E-009  0.9838632E+02  0.7561462E-02  0.1283726E+00
          1   -1    0    0  501    0  0.00000000000E+00  0.00000000000E+00  0.21767770907E+02  0.21767770907E+02  0.00000000000E+00 0. -1.
         -1   -1    0    0    0  501 -0.00000000000E+00 -0.00000000000E+00 -0.57784242597E+03  0.57784242597E+03  0.00000000000E+00 0.  1.
         25    2    1    2    0    0  0.12448095905E+00 -0.24225171795E+02 -0.26421206652E+03  0.29332956873E+03  0.12508934948E+03 0.  0.
         23    2    1    2    0    0 -0.12448095905E+00  0.24225171795E+02 -0.29186258854E+03  0.30628062814E+03  0.89650310322E+02 0.  0.
          5    1    3    3  502    0  0.45246720045E+02  0.12385188146E+02 -0.40370924456E+02  0.62031786220E+02  0.41800000000E+01 0.  1.
         -5    1    3    3    0  502 -0.45122239086E+02 -0.36610359941E+02 -0.22384114207E+03  0.23129778251E+03  0.41800000000E+01 0.  1.
        -11    1    4    4    0    0  0.35962856101E+02  0.38433853087E+02 -0.19398225716E+03  0.20099652777E+03  0.00000000000E+00 0.  1.
         11    1    4    4    0    0 -0.36087337060E+02 -0.14208681292E+02 -0.97880331379E+02  0.10528410037E+03  0.00000000000E+00 0. -1.
</event>
<event>
 8    1  0.6615242E-009  0.2650334E+03  0.7561462E-02  0.1104156E+00
          1   -1    0    0  501    0  0.00000000000E+00  0.00000000000E+00  0.61876701983E+03  0.61876701983E+03  0.00000000000E+00 0. -1.
         -1   -1    0    0    0  501 -0.00000000000E+00 -0.00000000000E+00 -0.12057853039E+03  0.12057853039E+03  0.00000000000E+00 0.  1.
         25    2    1    2    0    0  0.24935042693E+03 -0.97974115029E+01  0.23265402983E+03  0.36338675697E+03  0.12510161015E+03 0.  0.
         23    2    1    2    0    0 -0.24935042693E+03  0.97974115029E+01  0.26553445961E+03  0.37595879325E+03  0.92546422392E+02 0.  0.
          5    1    3    3  502    0  0.10043847028E+03 -0.57681858875E+02  0.13917403924E+03  0.18111313800E+03  0.41800000000E+01 0. -1.
         -5    1    3    3    0  502  0.14891195665E+03  0.47884447372E+02  0.93479990588E+02  0.18227361897E+03  0.41800000000E+01 0. -1.
        -11    1    4    4    0    0 -0.21243419391E+03  0.31668814869E+02  0.17987779359E+03  0.28015570886E+03  0.00000000000E+00 0.  1.
         11    1    4    4    0    0 -0.36916233021E+02 -0.21871403366E+02  0.85656666018E+02  0.95803084392E+02  0.00000000000E+00 0. -1.
</event>
<event>
 8    1  0.6615242E-009  0.1480819E+03  0.7561462E-02  0.1202850E+00
          2   -1    0    0  501    0  0.00000000000E+00  0.00000000000E+00  0.91593360029E+02  0.91593360029E+02  0.00000000000E+00 0. -1.
         -2   -1    0    0    0  501 -0.00000000000E+00 -0.00000000000E+00 -0.31073885982E+03  0.31073885982E+03  0.00000000000E+00 0.  1.
         25    2    1    2    0    0  0.12615581601E+03  0.21637518571E+01 -0.88850384238E+02  0.19865490245E+03  0.12509759291E+03 0.  0.
         23    2    1    2    0    0 -0.12615581601E+03 -0.21637518571E+01 -0.13029511555E+03  0.20367731740E+03  0.92669632306E+02 0.  0.
          5    1    3    3  502    0  0.83801913463E+02 -0.49329671158E+02 -0.88942397916E+02  0.13184991355E+03  0.41800000000E+01 0.  1.
         -5    1    3    3    0  502  0.42353902547E+02  0.51493423015E+02  0.92013678007E-01  0.66804988895E+02  0.41800000000E+01 0.  1.
        -11    1    4    4    0    0 -0.63154919834E+02  0.18354870436E+02 -0.10251831634E+02  0.66562340853E+02  0.00000000000E+00 0. -1.
         11    1    4    4    0    0 -0.63000896176E+02 -0.20518622293E+02 -0.12004328392E+03  0.13711497655E+03  0.00000000000E+00 0.  1.
</event>
<event>
 8    1  0.6615242E-009  0.1245104E+03  0.7561462E-02  0.1235836E+00
          1   -1    0    0  501    0  0.00000000000E+00  0.00000000000E+00  0.87637025448E+03  0.87637025448E+03  0.00000000000E+00 0. -1.
         -1   -1    0    0    0  501 -0.00000000000E+00 -0.00000000000E+00 -0.29634373416E+02  0.29634373416E+02  0.00000000000E+00 0.  1.
         25    2    1    2    0    0  0.65780374290E+02  0.41183048106E+02  0.70445472868E+03  0.71967180368E+03  0.12509172298E+03 0.  0.
         23    2    1    2    0    0 -0.65780374290E+02 -0.41183048106E+02  0.14228115238E+03  0.18633282422E+03  0.91939621294E+02 0.  0.
          5    1    3    3  502    0 -0.31769612839E+02  0.24374687161E+02  0.11258683085E+03  0.11956881096E+03  0.41800000000E+01 0.  1.
         -5    1    3    3    0  502  0.97549987128E+02  0.16808360945E+02  0.59186789784E+03  0.60010299272E+03  0.41800000000E+01 0.  1.
        -11    1    4    4    0    0 -0.33692073990E+02 -0.62610253214E+02  0.51800973768E+02  0.87968974876E+02  0.00000000000E+00 0.  1.
         11    1    4    4    0    0 -0.32088300299E+02  0.21427205108E+02  0.90480178615E+02  0.98363849341E+02  0.00000000000E+00 0. -1.
</event>
<event>
 8    1  0.6615242E-009  0.1087807E+03  0.7561462E-02  0.1262845E+00
          3   -1    0    0  501    0  0.00000000000E+00  0.00000000000E+00  0.26945507042E+02  0.26945507042E+02  0.00000000000E+00 0. -1.
         -3   -1    0    0    0  501 -0.00000000000E+00 -0.00000000000E+00 -0.44712131999E+03  0.44712131999E+03  0.00000000000E+00 0.  1.
         25    2    1    2    0    0 -0.97792546339E+01 -0.89499618459E+01 -0.23846535435E+03  0.26960900244E+03  0.12509018079E+03 0.  0.
         23    2    1    2    0    0  0.97792546339E+01  0.89499618459E+01 -0.18171045859E+03  0.20445782459E+03  0.92782410169E+02 0.  0.
          5    1    3    3  502    0  0.36275036262E+02 -0.51324282151E+02 -0.12430006678E+03  0.13934862466E+03  0.41800000000E+01 0.  1.
         -5    1    3    3    0  502 -0.46054290896E+02  0.42374320305E+02 -0.11416528757E+03  0.13026037778E+03  0.41800000000E+01 0.  1.
        -11    1    4    4    0    0  0.49765158366E+02  0.13614757854E+02 -0.12181472825E+03  0.13229044046E+03  0.00000000000E+00 0.  1.
         11    1    4    4    0    0 -0.39985903732E+02 -0.46647960083E+01 -0.59895730341E+02  0.72167384130E+02  0.00000000000E+00 0. -1.
</event>
<event>
 8    1  0.6615242E-009  0.1341540E+03  0.7561462E-02  0.1221419E+00
          1   -1    0    0  501    0  0.00000000000E+00  0.00000000000E+00  0.50599996611E+02  0.50599996611E+02  0.00000000000E+00 0. -1.
         -1   -1    0    0    0  501 -0.00000000000E+00 -0.00000000000E+00 -0.39521382702E+03  0.39521382702E+03  0.00000000000E+00 0.  1.
         25    2    1    2    0    0  0.48928723358E+02  0.75159793215E+02 -0.17201219756E+03  0.23082403429E+03  0.12509406145E+03 0.  0.
         23    2    1    2    0    0 -0.48928723358E+02 -0.75159793215E+02 -0.17260163285E+03  0.21498978934E+03  0.91576587477E+02 0.  0.
          5    1    3    3  502    0 -0.41553955350E+02  0.20285546021E+02 -0.37872034865E+02  0.59916592088E+02  0.41800000000E+01 0. -1.
         -5    1    3    3    0  502  0.90482678709E+02  0.54874247194E+02 -0.13414016269E+03  0.17090744220E+03  0.41800000000E+01 0. -1.
        -11    1    4    4    0    0 -0.91729021784E+01  0.14918293979E+02 -0.14951693637E+01  0.17576494561E+02  0.00000000000E+00 0. -1.
         11    1    4    4    0    0 -0.39755821180E+02 -0.90078087194E+02 -0.17110646348E+03  0.19741329478E+03  0.00000000000E+00 0.  1.
</event>
<event>
 7    1  0.6615242E-009  0.1441532E+03  0.7561462E-02  0.1207847E+00
          1   -1    0    0  501    0  0.00000000000E+00  0.00000000000E+00  0.45974782416E+02  0.45974782416E+02  0.00000000000E+00 0. -1.
         -1   -1    0    0    0  501 -0.00000000000E+00 -0.00000000000E+00 -0.62965947978E+03  0.62965947978E+03  0.00000000000E+00 0.  1.
         23    2    1    2    0    0  0.97210393984E+02  0.83734115148E+02 -0.32220379320E+03  0.35861315156E+03  0.91251550032E+02 0.  0.
          5    1    1    2  502    0 -0.45717357651E+02 -0.96337229362E+02 -0.23394898263E+03  0.25713914021E+03  0.41800000000E+01 0.  1.
         -5    1    1    2    0  502 -0.51493036333E+02  0.12603114214E+02 -0.27531921528E+02  0.59881970422E+02  0.41800000000E+01 0.  1.
        -11    1    3    3    0    0  0.44062569622E+02  0.41469619030E+02 -0.51298008074E+02  0.79326697754E+02  0.00000000000E+00 0. -1.
         11    1    3    3    0    0  0.53147824362E+02  0.42264496118E+02 -0.27090578513E+03  0.27928645381E+03  0.00000000000E+00 0.  1.
</event>
<event>
 8    1  0.6615242E-009  0.1442323E+03  0.7561462E-02  0.1207745E+00
          2   -1    0    0  501    0  0.00000000000E+00  0.00000000000E+00  0.38983725809E+03  0.38983725809E+03  0.00000000000E+00 0. -1.
         -2   -1    0    0    0  501 -0.00000000000E+00 -0.00000000000E+00 -0.84956163772E+02  0.84956163772E+02  0.00000000000E+00 0.  1.
         25    2    1    2    0    0 -0.79655297467E+02  0.59014846136E+02  0.22019929307E+02  0.16112437800E+03  0.12509384245E+03 0.  0.
         23    2    1    2    0    0  0.79655297467E+02 -0.59014846136E+02  0.28286116501E+03  0.31366904386E+03  0.92466815274E+02 0.  0.
          5    1    3    3  502    0 -0.46456745485E+02  0.94239504108E+02 -0.54865384154E+01  0.10529429158E+03  0.41800000000E+01 0. -1.
         -5    1    3    3    0  502 -0.33198551982E+02 -0.35224657972E+02  0.27506467722E+02  0.55830086419E+02  0.41800000000E+01 0. -1.
        -11    1    4    4    0    0 -0.15427818354E+02  0.89661329453E+01  0.26870187324E+02  0.32255481487E+02  0.00000000000E+00 0.  1.
         11    1    4    4    0    0  0.95083115822E+02 -0.67980979081E+02  0.25599097769E+03  0.28141356238E+03  0.00000000000E+00 0. -1.
</event>
<event>
 8    1  0.6615242E-009  0.1047664E+03  0.7561462E-02  0.1270581E+00
          1   -1    0    0  501    0  0.00000000000E+00  0.00000000000E+00  0.88021709188E+03  0.88021709188E+03  0.00000000000E+00 0. -1.
         -1   -1    0    0    0  501 -0.00000000000E+00 -0.00000000000E+00 -0.21128022124E+02  0.21128022124E+02  0.00000000000E+00 0.  1.
         25    2    1    2    0    0  0.65549252482E+02  0.46584122687E+02  0.52259359135E+03  0.54334022020E+03  0.12509095965E+03 0.  0.
         23    2    1    2    0    0 -0.65549252482E+02 -0.46584122687E+02  0.33649547841E+03  0.35800489380E+03  0.92040817072E+02 0.  0.
          5    1    3    3  502    0  0.16669360281E+02 -0.58311442250E+01  0.25048213494E+01  0.18319834747E+02  0.41800000000E+01 0.  1.
         -5    1    3    3    0  502  0.48879892201E+02  0.52415266912E+02  0.52008877000E+03  0.52502038546E+03  0.41800000000E+01 0.  1.
        -11    1    4    4    0    0  0.18349381994E+02 -0.28295327517E+02  0.13141020552E+03  0.13566859436E+03  0.00000000000E+00 0.  1.
         11    1    4    4    0    0 -0.83898634476E+02 -0.18288795170E+02  0.20508527288E+03  0.22233629944E+03  0.00000000000E+00 0. -1.
</event>
<event>
 8    1  0.6615242E-009  0.1412247E+03  0.7561462E-02  0.1211690E+00
          1   -1    0    0  501    0  0.00000000000E+00  0.00000000000E+00  0.17795195475E+03  0.17795195475E+03  0.00000000000E+00 0. -1.
         -1   -1    0    0    0  501 -0.00000000000E+00 -0.00000000000E+00 -0.15618515112E+03  0.15618515112E+03  0.00000000000E+00 0.  1.
         25    2    1    2    0    0 -0.84186245040E+02  0.90224992368E+02 -0.80127336972E+01  0.17590940856E+03  0.12510812531E+03 0.  0.
         23    2    1    2    0    0  0.84186245040E+02 -0.90224992368E+02  0.29779537327E+02  0.15822769730E+03  0.94452687880E+02 0.  0.
          5    1    3    3  502    0 -0.46590302164E+02 -0.65233633690E+01 -0.45393737101E+02  0.65507818567E+02  0.41800000000E+01 0. -1.
         -5    1    3    3    0  502 -0.37595942877E+02  0.96748355737E+02  0.37381003404E+02  0.11040159000E+03  0.41800000000E+01 0. -1.
        -11    1    4    4    0    0  0.52726889173E+02 -0.23817910190E+02 -0.28447973509E+02  0.64472512627E+02  0.00000000000E+00 0.  1.
         11    1    4    4    0    0  0.31459355867E+02 -0.66407082177E+02  0.58227510836E+02  0.93755184673E+02  0.00000000000E+00 0. -1.
</event>
<event>
 8    1  0.6615242E-009  0.1953790E+03  0.7561462E-02  0.1153697E+00
         -3   -1    0    0    0  501 -0.00000000000E+00  0.00000000000E+00  0.65299103832E+02  0.65299103832E+02  0.00000000000E+00 0.  1.
          3   -1    0    0  501    0  0.00000000000E+00 -0.00000000000E+00 -0.70788633528E+03  0.70788633528E+03  0.00000000000E+00 0. -1.
         25    2    1    2    0    0  0.28281610104E+02 -0.17848844128E+03 -0.40932965728E+03  0.46460309165E+03  0.12508913341E+03 0.  0.
         23    2    1    2    0    0 -0.28281610104E+02  0.17848844128E+03 -0.23325757416E+03  0.30858234746E+03  0.90310553773E+02 0.  0.
          5    1    3    3  502    0 -0.15573332956E+02 -0.13641887693E+03 -0.36284636033E+03  0.38797885546E+03  0.41800000000E+01 0. -1.
         -5    1    3    3    0  502  0.43854943059E+02 -0.42069564349E+02 -0.46483296956E+02  0.76624236187E+02  0.41800000000E+01 0. -1.
        -11    1    4    4    0    0 -0.50147518951E+02  0.12623189580E+03 -0.20330538728E+03  0.24450428559E+03  0.00000000000E+00 0. -1.
         11    1    4    4    0    0  0.21865908847E+02  0.52256545473E+02 -0.29952186884E+02  0.64078061874E+02  0.00000000000E+00 0.  1.
</event>
<event>
 7    1  0.6615242E-009  0.9990345E+02  0.7561462E-02  0.1280499E+00
          2   -1    0    0  501    0  0.00000000000E+00  0.00000000000E+00  0.27785534769E+03  0.27785534769E+03  0.00000000000E+00 0. -1.
         -2   -1    0    0    0  501 -0.00000000000E+00 -0.00000000000E+00 -0.56186039154E+02  0.56186039154E+02  0.00000000000E+00 0.  1.
         23    2    1    2    0    0 -0.39365958165E+02  0.38345810608E+02  0.14103140833E+03  0.17562481147E+03  0.89073769503E+02 0.  0.
          5    1    1    2  502    0  0.67211746593E+02 -0.27451744872E+02  0.43945046521E+00  0.72723329773E+02  0.41800000000E+01 0.  1.
         -5    1    1    2    0  502 -0.27845788427E+02 -0.10894065736E+02  0.80198449742E+02  0.85693245606E+02  0.41800000000E+01 0.  1.
        -11    1    3    3    0    0  0.58575039054E+01  0.49879383389E+02  0.10591255137E+03  0.11721660196E+03  0.00000000000E+00 0.  1.
         11    1    3    3    0    0 -0.45223462071E+02 -0.11533572780E+02  0.35118856963E+02  0.58408209501E+02  0.00000000000E+00 0. -1.
</event>
<event>
 8    1  0.6615242E-009  0.1000571E+03  0.7561462E-02  0.1280176E+00
         -2   -1    0    0    0  501 -0.00000000000E+00  0.00000000000E+00  0.33166036885E+03  0.33166036885E+03  0.00000000000E+00 0.  1.
          2   -1    0    0  501    0  0.00000000000E+00 -0.00000000000E+00 -0.56130382962E+02  0.56130382962E+02  0.00000000000E+00 0. -1.
         25    2    1    2    0    0  0.66419161462E+02  0.17393302361E+02  0.21302649831E+03  0.25640481702E+03  0.12509639976E+03 0.  0.
         23    2    1    2    0    0 -0.66419161462E+02 -0.17393302361E+02  0.62503487579E+02  0.13138593479E+03  0.92959915689E+02 0.  0.
          5    1    3    3  502    0  0.90774704391E+02  0.36232434573E+02  0.10291297422E+03  0.14199080582E+03  0.41800000000E+01 0.  1.
         -5    1    3    3    0  502 -0.24355542929E+02 -0.18839132212E+02  0.11011352408E+03  0.11441401120E+03  0.41800000000E+01 0.  1.
        -11    1    4    4    0    0 -0.34234974328E+02 -0.18685449846E+02 -0.19265909563E+02  0.43501204287E+02  0.00000000000E+00 0. -1.
         11    1    4    4    0    0 -0.32184187134E+02  0.12921474854E+01  0.81769397142E+02  0.87884730503E+02  0.00000000000E+00 0.  1.
</event>
<event>
 8    1  0.6615242E-009  0.1337462E+03  0.7561462E-02  0.1222001E+00
         -2   -1    0    0    0  501 -0.00000000000E+00  0.00000000000E+00  0.10064275620E+03  0.10064275620E+03  0.00000000000E+00 0.  1.
          2   -1    0    0  501    0  0.00000000000E+00 -0.00000000000E+00 -0.34899522512E+03  0.34899522512E+03  0.00000000000E+00 0. -1.
         25    2    1    2    0    0 -0.52516007977E+02 -0.85888799640E+02  0.75655958082E+01  0.16074759195E+03  0.12509089927E+03 0.  0.
         23    2    1    2    0    0  0.52516007977E+02  0.85888799640E+02 -0.25591806473E+03  0.28889038936E+03  0.88480417121E+02 0.  0.
          5    1    3    3  502    0 -0.92537946545E+02 -0.53190355325E+02  0.16651791048E+02  0.10810753903E+03  0.41800000000E+01 0.  1.
         -5    1    3    3    0  502  0.40021938568E+02 -0.32698444315E+02 -0.90861952397E+01  0.52640052919E+02  0.41800000000E+01 0.  1.
        -11    1    4    4    0    0  0.48064449395E+02  0.39471536981E+02 -0.22376950995E+03  0.23225199054E+03  0.00000000000E+00 0. -1.
         11    1    4    4    0    0  0.44515585823E+01  0.46417262659E+02 -0.32148554779E+02  0.56638398820E+02  0.00000000000E+00 0.  1.
</event>
<event>
 8    1  0.6615242E-009  0.1466107E+03  0.7561462E-02  0.1204701E+00
          2   -1    0    0  501    0  0.00000000000E+00  0.00000000000E+00  0.14825798826E+04  0.14825798826E+04  0.00000000000E+00 0. -1.
         -2   -1    0    0    0  501 -0.00000000000E+00 -0.00000000000E+00 -0.21980497761E+02  0.21980497761E+02  0.00000000000E+00 0.  1.
         25    2    1    2    0    0  0.12050694068E+03 -0.45975663063E+02  0.10428709582E+04  0.10582364702E+04  0.12509559187E+03 0.  0.
         23    2    1    2    0    0 -0.12050694068E+03  0.45975663063E+02  0.41772842671E+03  0.44632391021E+03  0.89846034951E+02 0.  0.
          5    1    3    3  502    0  0.28283984951E+02  0.31191987633E+02  0.11389680864E+03  0.12150258975E+03  0.41800000000E+01 0.  1.
         -5    1    3    3    0  502  0.92222955729E+02 -0.77167650696E+02  0.92897414953E+03  0.93673388045E+03  0.41800000000E+01 0.  1.
        -11    1    4    4    0    0 -0.54908002276E+02  0.10137208461E+02  0.64670687351E+02  0.85439741993E+02  0.00000000000E+00 0.  1.
         11    1    4    4    0    0 -0.65598938404E+02  0.35838454602E+02  0.35305773936E+03  0.36088416822E+03  0.00000000000E+00 0. -1.
</event>
<event>
 8    1  0.6615242E-009  0.1097336E+03  0.7561462E-02  0.1261064E+00
         -1   -1    0    0    0  501 -0.00000000000E+00  0.00000000000E+00  0.35822085937E+03  0.35822085937E+03  0.00000000000E+00 0.  1.
          1   -1    0    0  501    0  0.00000000000E+00 -0.00000000000E+00 -0.36511356321E+02  0.36511356321E+02  0.00000000000E+00 0. -1.
         25    2    1    2    0    0 -0.21555357362E+02 -0.69727084723E+01  0.13595673686E+03  0.18613162777E+03  0.12508995350E+03 0.  0.
         23    2    1    2    0    0  0.21555357362E+02  0.69727084723E+01  0.18575276619E+03  0.20860058791E+03  0.92178430435E+02 0.  0.
          5    1    3    3  502    0  0.99328010712E+01  0.54712268978E+02  0.44548064460E+02  0.71372931570E+02  0.41800000000E+01 0.  1.
         -5    1    3    3    0  502 -0.31488158434E+02 -0.61684977450E+02  0.91408672400E+02  0.11475869620E+03  0.41800000000E+01 0.  1.
        -11    1    4    4    0    0 -0.10901593350E+02 -0.37619436923E+02  0.65783273222E+02  0.76560471575E+02  0.00000000000E+00 0. -1.
         11    1    4    4    0    0  0.32456950713E+02  0.44592145395E+02  0.11996949297E+03  0.13204011634E+03  0.00000000000E+00 0.  1.
</event>
<event>
 8    1  0.6615242E-009  0.1033545E+03  0.7561462E-02  0.1273396E+00
          2   -1    0    0  501    0  0.00000000000E+00  0.00000000000E+00  0.25856582778E+02  0.25856582778E+02  0.00000000000E+00 0.  1.
         -2   -1    0    0    0  501 -0.00000000000E+00 -0.00000000000E+00 -0.47357754130E+03  0.47357754130E+03  0.00000000000E+00 0. -1.
         25    2    1    2    0    0  0.19557489434E+02  0.12748694687E+02 -0.25193979620E+03  0.28225505409E+03  0.12509688263E+03 0.  0.
         23    2    1    2    0    0 -0.19557489434E+02 -0.12748694687E+02 -0.19578116233E+03  0.21717906999E+03  0.91057456092E+02 0.  0.
          5    1    3    3  502    0  0.13151025502E+02  0.61961238993E+02 -0.74097364226E+02  0.97570673845E+02  0.41800000000E+01 0.  1.
         -5    1    3    3    0  502  0.64064639319E+01 -0.49212544306E+02 -0.17784243197E+03  0.18468438025E+03  0.41800000000E+01 0.  1.
        -11    1    4    4    0    0  0.49030863631E+01 -0.49246448761E+02 -0.91653886470E+02  0.10416183503E+03  0.00000000000E+00 0.  1.
         11    1    4    4    0    0 -0.24460575797E+02  0.36497754074E+02 -0.10412727586E+03  0.11301723496E+03  0.00000000000E+00 0. -1.
</event>
<event>
 8    1  0.6615242E-009  0.1069852E+03  0.7561462E-02  0.1266257E+00
         -2   -1    0    0    0  501 -0.00000000000E+00  0.00000000000E+00  0.83110393967E+02  0.83110393967E+02  0.00000000000E+00 0.  1.
          2   -1    0    0  501    0  0.00000000000E+00 -0.00000000000E+00 -0.16930754235E+03  0.16930754235E+03  0.00000000000E+00 0. -1.
         25    2    1    2    0    0  0.55504721162E+01  0.51909360804E+02 -0.51642532496E+02  0.14504839432E+03  0.12508675410E+03 0.  0.
         23    2    1    2    0    0 -0.55504721162E+01 -0.51909360804E+02 -0.34554615891E+02  0.10736954200E+03  0.87228479244E+02 0.  0.
          5    1    3    3  502    0 -0.55836938957E+02  0.20518736415E+01 -0.16518539063E+02  0.58414967861E+02  0.41800000000E+01 0.  1.
         -5    1    3    3    0  502  0.61387411073E+02  0.49857487162E+02 -0.35123993434E+02  0.86633426454E+02  0.41800000000E+01 0.  1.
        -11    1    4    4    0    0  0.20525010655E+02 -0.48225366591E+02  0.12105140407E+02  0.53791230415E+02  0.00000000000E+00 0.  1.
         11    1    4    4    0    0 -0.26075482771E+02 -0.36839942126E+01 -0.46659756297E+02  0.53578311590E+02  0.00000000000E+00 0. -1.
</event>
<event>
 8    1  0.6615242E-009  0.1521841E+03  0.7561462E-02  0.1197815E+00
          4   -1    0    0  501    0  0.00000000000E+00  0.00000000000E+00  0.15688215553E+03  0.15688215553E+03  0.00000000000E+00 0. -1.
         -4   -1    0    0    0  501 -0.00000000000E+00 -0.00000000000E+00 -0.15915045129E+03  0.15915045129E+03  0.00000000000E+00 0.  1.
         25    2    1    2    0    0  0.11652247148E+03 -0.18410303964E+02 -0.24175567602E+02  0.17363439581E+03  0.12509204486E+03 0.  0.
         23    2    1    2    0    0 -0.11652247148E+03  0.18410303964E+02  0.21907271846E+02  0.14239821102E+03  0.76687002093E+02 0.  0.
          5    1    3    3  502    0  0.13799821247E+03 -0.28734546793E+02 -0.23313594031E+01  0.14103931530E+03  0.41800000000E+01 0. -1.
         -5    1    3    3    0  502 -0.21475740993E+02  0.10324242828E+02 -0.21844208199E+02  0.32595080503E+02  0.41800000000E+01 0. -1.
        -11    1    4    4    0    0  0.58941561918E+01  0.15633438484E+02  0.97588764148E+01  0.19348931364E+02  0.00000000000E+00 0. -1.
         11    1    4    4    0    0 -0.12241662767E+03  0.27768654804E+01  0.12148395432E+02  0.12304927965E+03  0.00000000000E+00 0.  1.
</event>
<event>
 8    1  0.6615242E-009  0.2111392E+03  0.7561462E-02  0.1140667E+00
         -2   -1    0    0    0  501 -0.00000000000E+00  0.00000000000E+00  0.38314714662E+02  0.38314714662E+02  0.00000000000E+00 0.  1.
          2   -1    0    0  501    0  0.00000000000E+00 -0.00000000000E+00 -0.13814626178E+04  0.13814626178E+04  0.00000000000E+00 0. -1.
         25    2    1    2    0    0 -0.19759410176E+03  0.43694299107E+02 -0.61808584529E+03  0.66229169582E+03  0.12509019699E+03 0.  0.
         23    2    1    2    0    0  0.19759410176E+03 -0.43694299107E+02 -0.72506205788E+03  0.75748563667E+03  0.84361609537E+02 0.  0.
          5    1    3    3  502    0 -0.14846123791E+02 -0.81907360875E+00  0.77570377081E+00  0.15464552678E+02  0.41800000000E+01 0. -1.
         -5    1    3    3    0  502 -0.18274797797E+03  0.44513372716E+02 -0.61886154906E+03  0.64682714314E+03  0.41800000000E+01 0. -1.
        -11    1    4    4    0    0  0.13563747269E+03  0.10957735913E+02 -0.47675451064E+03  0.49579477547E+03  0.00000000000E+00 0.  1.
         11    1    4    4    0    0  0.61956629074E+02 -0.54652035020E+02 -0.24830754724E+03  0.26169086120E+03  0.00000000000E+00 0. -1.
</event>
<event>
 8    1  0.6615242E-009  0.1968684E+03  0.7561462E-02  0.1152408E+00
          1   -1    0    0  501    0  0.00000000000E+00  0.00000000000E+00  0.22100708132E+03  0.22100708132E+03  0.00000000000E+00 0. -1.
         -1   -1    0    0    0  501 -0.00000000000E+00 -0.00000000000E+00 -0.22835401944E+03  0.22835401944E+03  0.00000000000E+00 0.  1.
         25    2    1    2    0    0 -0.36965518817E+02 -0.17972466016E+03  0.65729372117E+02  0.23158830419E+03  0.12508153032E+03 0.  0.
         23    2    1    2    0    0  0.36965518817E+02  0.17972466016E+03 -0.73076310232E+02  0.21777279657E+03  0.91746611680E+02 0.  0.
          5    1    3    3  502    0  0.48123714912E+01 -0.16572203502E+03  0.18518861814E+02  0.16687532008E+03  0.41800000000E+01 0. -1.
         -5    1    3    3    0  502 -0.41777890309E+02 -0.14002625146E+02  0.47210510303E+02  0.64712984112E+02  0.41800000000E+01 0. -1.
        -11    1    4    4    0    0  0.24714290283E+02  0.13582933553E+03 -0.79542629132E+01  0.13828837563E+03  0.00000000000E+00 0. -1.
         11    1    4    4    0    0  0.12251228534E+02  0.43895324635E+02 -0.65122047319E+02  0.79484420941E+02  0.00000000000E+00 0.  1.
</event>
<event>
 8    1  0.6615242E-009  0.1057281E+03  0.7561462E-02  0.1268692E+00
         -1   -1    0    0    0  501 -0.00000000000E+00  0.00000000000E+00  0.30264577768E+02  0.30264577768E+02  0.00000000000E+00 0. -1.
          1   -1    0    0  501    0  0.00000000000E+00 -0.00000000000E+00 -0.67495264748E+03  0.67495264748E+03  0.00000000000E+00 0.  1.
         25    2    1    2    0    0 -0.30507482857E+02  0.86318796788E+02 -0.30203715920E+03  0.33949350101E+03  0.12509096892E+03 0.  0.
         23    2    1    2    0    0  0.30507482857E+02 -0.86318796788E+02 -0.34265091051E+03  0.36572372423E+03  0.89233148566E+02 0.  0.
          5    1    3    3  502    0 -0.21438720231E+02  0.45838928392E+02 -0.20294213512E+02  0.54682296800E+02  0.41800000000E+01 0.  1.
         -5    1    3    3    0  502 -0.90687626261E+01  0.40479868396E+02 -0.28174294569E+03  0.28481120421E+03  0.41800000000E+01 0.  1.
        -11    1    4    4    0    0  0.66196838329E+01  0.14200274116E+02 -0.13313054934E+02  0.20559801329E+02  0.00000000000E+00 0. -1.
         11    1    4    4    0    0  0.23887799024E+02 -0.10051907090E+03 -0.32933785558E+03  0.34516392290E+03  0.00000000000E+00 0.  1.
</event>
<event>
 8    1  0.6615242E-009  0.1286298E+03  0.7561462E-02  0.1229503E+00
          2   -1    0    0  501    0  0.00000000000E+00  0.00000000000E+00  0.25260730194E+03  0.25260730194E+03  0.00000000000E+00 0.  1.
         -2   -1    0    0    0  501 -0.00000000000E+00 -0.00000000000E+00 -0.67654899446E+02  0.67654899446E+02  0.00000000000E+00 0. -1.
         25    2    1    2    0    0 -0.70900805333E+02 -0.15608290107E+02  0.10588793062E+03  0.17924044806E+03  0.12507734188E+03 0.  0.
         23    2    1    2    0    0  0.70900805333E+02  0.15608290107E+02  0.79064471870E+02  0.14102175332E+03  0.91462567651E+02 0.  0.
          5    1    3    3  502    0  0.30648643693E+01 -0.56780861303E+02  0.25622675117E+02  0.62509627131E+02  0.41800000000E+01 0. -1.
         -5    1    3    3    0  502 -0.73965669702E+02  0.41172571196E+02  0.80265255501E+02  0.11673082093E+03  0.41800000000E+01 0. -1.
        -11    1    4    4    0    0  0.30339179502E+02  0.52514019984E+02  0.31053222478E+02  0.68135825628E+02  0.00000000000E+00 0.  1.
         11    1    4    4    0    0  0.40561625831E+02 -0.36905729877E+02  0.48011249392E+02  0.72885927695E+02  0.00000000000E+00 0. -1.
</event>
<event>
 8    1  0.6615242E-009  0.1876587E+03  0.7561462E-02  0.1160590E+00
          1   -1    0    0  501    0  0.00000000000E+00  0.00000000000E+00  0.30003529530E+03  0.30003529530E+03  0.00000000000E+00 0. -1.
         -1   -1    0    0    0  501 -0.00000000000E+00 -0.00000000000E+00 -0.13693154698E+03  0.13693154698E+03  0.00000000000E+00 0.  1.
         25    2    1    2    0    0 -0.15724460737E+02 -0.16797115615E+03  0.54474604372E+02  0.21697167187E+03  0.12509059081E+03 0.  0.
         23    2    1    2    0    0  0.15724460737E+02  0.16797115615E+03  0.10862914395E+03  0.21999517042E+03  0.90199867674E+02 0.  0.
          5    1    3    3  502    0  0.42258504385E+02 -0.13091222197E+03  0.17482846842E+02  0.13873324543E+03  0.41800000000E+01 0.  1.
         -5    1    3    3    0  502 -0.57982965122E+02 -0.37058934179E+02  0.36991757530E+02  0.78238426441E+02  0.41800000000E+01 0.  1.
        -11    1    4    4    0    0  0.13029073020E+02  0.12067338571E+03  0.25064247110E+02  0.12393562541E+03  0.00000000000E+00 0.  1.
         11    1    4    4    0    0  0.26953877172E+01  0.47297770438E+02  0.83564896838E+02  0.96059545006E+02  0.00000000000E+00 0. -1.
</event>
<event>
 8    1  0.6615242E-009  0.1391102E+03  0.7561462E-02  0.1214531E+00
         -2   -1    0    0    0  501 -0.00000000000E+00  0.00000000000E+00  0.52797499994E+02  0.52797499994E+02  0.00000000000E+00 0.  1.
          2   -1    0    0  501    0  0.00000000000E+00 -0.00000000000E+00 -0.48285068435E+03  0.48285068435E+03  0.00000000000E+00 0. -1.
         25    2    1    2    0    0 -0.69032186330E+02  0.75708929199E+02 -0.13027801145E+03  0.20765032504E+03  0.12509601318E+03 0.  0.
         23    2    1    2    0    0  0.69032186330E+02 -0.75708929199E+02 -0.29977517291E+03  0.32799785930E+03  0.84971505251E+02 0.  0.
          5    1    3    3  502    0 -0.10340590980E+03  0.51695995835E+02 -0.11417987810E+03  0.16254161046E+03  0.41800000000E+01 0. -1.
         -5    1    3    3    0  502  0.34373723472E+02  0.24012933364E+02 -0.16098133347E+02  0.45108714584E+02  0.41800000000E+01 0. -1.
        -11    1    4    4    0    0  0.25381406093E+02 -0.72286967042E+02 -0.25109854272E+03  0.26252637874E+03  0.00000000000E+00 0.  1.
         11    1    4    4    0    0  0.43650780237E+02 -0.34219621568E+01 -0.48676630192E+02  0.65471480563E+02  0.00000000000E+00 0. -1.
</event>
<event>
 8    1  0.6615242E-009  0.8338120E+02  0.7561462E-02  0.1319721E+00
          2   -1    0    0  501    0  0.00000000000E+00  0.00000000000E+00  0.50368531448E+03  0.50368531448E+03  0.00000000000E+00 0. -1.
         -2   -1    0    0    0  501 -0.00000000000E+00 -0.00000000000E+00 -0.25462688151E+02  0.25462688151E+02  0.00000000000E+00 0.  1.
         25    2    1    2    0    0  0.66748026041E+01 -0.34235556757E+02  0.30288755532E+03  0.32955987001E+03  0.12510879432E+03 0.  0.
         23    2    1    2    0    0 -0.66748026041E+01  0.34235556757E+02  0.17533507101E+03  0.19958813262E+03  0.88749136455E+02 0.  0.
          5    1    3    3  502    0 -0.47217664689E+02 -0.50497755755E+01  0.22686757416E+03  0.23182186414E+03  0.41800000000E+01 0.  1.
         -5    1    3    3    0  502  0.53892467293E+02 -0.29185781181E+02  0.76019981161E+02  0.97738005862E+02  0.41800000000E+01 0.  1.
        -11    1    4    4    0    0 -0.25921994429E+02  0.26038097317E+02  0.17484350673E+03  0.17866220684E+03  0.00000000000E+00 0. -1.
         11    1    4    4    0    0  0.19247191825E+02  0.81974594397E+01  0.49156427954E+00  0.20925925783E+02  0.00000000000E+00 0.  1.
</event>
<event>
 8    1  0.6615242E-009  0.1053669E+03  0.7561462E-02  0.1269399E+00
         -1   -1    0    0    0  501 -0.00000000000E+00  0.00000000000E+00  0.88871869439E+02  0.88871869439E+02  0.00000000000E+00 0.  1.
          1   -1    0    0  501    0  0.00000000000E+00 -0.00000000000E+00 -0.21563485983E+03  0.21563485983E+03  0.00000000000E+00 0. -1.
         25    2    1    2    0    0  0.49777978918E+01  0.73821277865E+02 -0.11653643157E+03  0.18628774295E+03  0.12509206112E+03 0.  0.
         23    2    1    2    0    0 -0.49777978918E+01 -0.73821277865E+02 -0.10226558823E+02  0.11821898632E+03  0.91633982144E+02 0.  0.
          5    1    3    3  502    0  0.58616767504E+02  0.34514925403E+02 -0.93677427194E+02  0.11584532047E+03  0.41800000000E+01 0.  1.
         -5    1    3    3    0  502 -0.53638969612E+02  0.39306352462E+02 -0.22859004378E+02  0.70442422488E+02  0.41800000000E+01 0.  1.
        -11    1    4    4    0    0 -0.10966695307E+02 -0.35204629858E+02  0.40116872573E+02  0.54488511032E+02  0.00000000000E+00 0.  1.
         11    1    4    4    0    0  0.59888974156E+01 -0.38616648006E+02 -0.50343431397E+02  0.63730475287E+02  0.00000000000E+00 0. -1.
</event>
<event>
 8    1  0.6615242E-009  0.1096069E+03  0.7561462E-02  0.1261300E+00
         -1   -1    0    0    0  501 -0.00000000000E+00  0.00000000000E+00  0.60452802065E+02  0.60452802065E+02  0.00000000000E+00 0.  1.
          1   -1    0    0  501    0  0.00000000000E+00 -0.00000000000E+00 -0.32574660562E+03  0.32574660562E+03  0.00000000000E+00 0. -1.
         25    2    1    2    0    0 -0.17599451480E+02  0.74015833035E+02 -0.19967760749E+03  0.24760279006E+03  0.12509160835E+03 0.  0.
         23    2    1    2    0    0  0.17599451480E+02 -0.74015833035E+02 -0.65616196066E+02  0.13859661763E+03  0.95474881509E+02 0.  0.
          5    1    3    3  502    0  0.38044530808E+02 -0.11324609186E+02 -0.31151179654E+02  0.50631032889E+02  0.41800000000E+01 0. -1.
         -5    1    3    3    0  502 -0.55643982289E+02  0.85340442221E+02 -0.16852642784E+03  0.19697175717E+03  0.41800000000E+01 0. -1.
        -11    1    4    4    0    0 -0.20250911413E+01 -0.15153565405E+02 -0.74378515007E+02  0.75933490854E+02  0.00000000000E+00 0. -1.
         11    1    4    4    0    0  0.19624542622E+02 -0.58862267631E+02  0.87623189410E+01  0.62663126773E+02  0.00000000000E+00 0.  1.
</event>
<event>
 8    1  0.6615242E-009  0.9813202E+02  0.7561462E-02  0.1284274E+00
         -2   -1    0    0    0  501 -0.00000000000E+00  0.00000000000E+00  0.10142045808E+03  0.10142045808E+03  0.00000000000E+00 0. -1.
          2   -1    0    0  501    0  0.00000000000E+00 -0.00000000000E+00 -0.16876640794E+03  0.16876640794E+03  0.00000000000E+00 0.  1.
         25    2    1    2    0    0  0.45804790411E+01  0.54352144776E+02  0.19474465484E+02  0.13784667002E+03  0.12508922095E+03 0.  0.
         23    2    1    2    0    0 -0.45804790411E+01 -0.54352144776E+02 -0.86820415343E+02  0.13234019600E+03  0.83672017583E+02 0.  0.
          5    1    3    3  502    0  0.52344442988E+00 -0.40649274487E+02  0.10814544636E+02  0.42273683138E+02  0.41800000000E+01 0.  1.
         -5    1    3    3    0  502  0.40570346112E+01  0.95001419263E+02  0.86599208481E+01  0.95572986878E+02  0.41800000000E+01 0.  1.
        -11    1    4    4    0    0 -0.14520634908E+02 -0.41517097437E+02  0.32442123433E-01  0.43983170307E+02  0.00000000000E+00 0. -1.
         11    1    4    4    0    0  0.99401558665E+01 -0.12835047339E+02 -0.86852857466E+02  0.88357025691E+02  0.00000000000E+00 0.  1.
</event>
<event>
 8    1  0.6615242E-009  0.1039644E+03  0.7561462E-02  0.1272173E+00
         -1   -1    0    0    0  501 -0.00000000000E+00  0.00000000000E+00  0.63090891748E+02  0.63090891748E+02  0.00000000000E+00 0.  1.
          1   -1    0    0  501    0  0.00000000000E+00 -0.00000000000E+00 -0.28235641902E+03  0.28235641902E+03  0.00000000000E+00 0. -1.
         25    2    1    2    0    0  0.73384041857E+02 -0.25917401886E+02 -0.13619933943E+03  0.20064867623E+03  0.12511075849E+03 0.  0.
         23    2    1    2    0    0 -0.73384041857E+02  0.25917401886E+02 -0.83066187843E+02  0.14479863454E+03  0.89497059628E+02 0.  0.
          5    1    3    3  502    0 -0.17282926120E+02  0.96744998367E+01 -0.90935163982E+02  0.93161000053E+02  0.41800000000E+01 0.  1.
         -5    1    3    3    0  502  0.90666967977E+02 -0.35591901723E+02 -0.45264175444E+02  0.10748767617E+03  0.41800000000E+01 0.  1.
        -11    1    4    4    0    0 -0.29142329895E+01 -0.10481301919E+02  0.15089825443E+02  0.18602507243E+02  0.00000000000E+00 0.  1.
         11    1    4    4    0    0 -0.70469808867E+02  0.36398703805E+02 -0.98156013286E+02  0.12619612730E+03  0.00000000000E+00 0. -1.
</event>
<event>
 8    1  0.6615242E-009  0.1129490E+03  0.7561462E-02  0.1255204E+00
          1   -1    0    0  501    0  0.00000000000E+00  0.00000000000E+00  0.13790659540E+03  0.13790659540E+03  0.00000000000E+00 0. -1.
         -1   -1    0    0    0  501 -0.00000000000E+00 -0.00000000000E+00 -0.11446917812E+03  0.11446917812E+03  0.00000000000E+00 0.  1.
         25    2    1    2    0    0  0.54486041346E+02  0.25914919567E+02 -0.75837270306E+01  0.13908780615E+03  0.12509033994E+03 0.  0.
         23    2    1    2    0    0 -0.54486041346E+02 -0.25914919567E+02  0.31021144309E+02  0.11328796736E+03  0.90727836946E+02 0.  0.
          5    1    3    3  502    0  0.64032470244E+02  0.61274318387E+02 -0.32614317248E+02  0.94529706594E+02  0.41800000000E+01 0. -1.
         -5    1    3    3    0  502 -0.95464288979E+01 -0.35359398820E+02  0.25030590217E+02  0.44558099558E+02  0.41800000000E+01 0. -1.
        -11    1    4    4    0    0 -0.15841021512E+02  0.29068048355E+02 -0.99638167144E+01  0.34571188022E+02  0.00000000000E+00 0.  1.
         11    1    4    4    0    0 -0.38645019833E+02 -0.54982967922E+02  0.40984961024E+02  0.78716779339E+02  0.00000000000E+00 0. -1.
</event>
<event>
 8    1  0.6615242E-009  0.1418118E+03  0.7561462E-02  0.1210912E+00
         -1   -1    0    0    0  501 -0.00000000000E+00  0.00000000000E+00  0.48970928823E+03  0.48970928823E+03  0.00000000000E+00 0.  1.
          1   -1    0    0  501    0  0.00000000000E+00 -0.00000000000E+00 -0.50812417137E+02  0.50812417137E+02  0.00000000000E+00 0. -1.
         25    2    1    2    0    0 -0.10865300514E+03  0.43786616001E+02  0.23694949035E+03  0.29242116185E+03  0.12506930741E+03 0.  0.
         23    2    1    2    0    0  0.10865300514E+03 -0.43786616001E+02  0.20194738075E+03  0.24810054352E+03  0.83954701104E+02 0.  0.
          5    1    3    3  502    0 -0.38022387215E+00 -0.28586056204E+02  0.97210295884E+01  0.30484061340E+02  0.41800000000E+01 0. -1.
         -5    1    3    3    0  502 -0.10827278126E+03  0.72372672206E+02  0.22722846076E+03  0.26193710051E+03  0.41800000000E+01 0. -1.
        -11    1    4    4    0    0  0.19916812807E+02 -0.27905641476E+02  0.12488316485E+03  0.12950370312E+03  0.00000000000E+00 0. -1.
         11    1    4    4    0    0  0.88736192329E+02 -0.15880974526E+02  0.77064215897E+02  0.11859684040E+03  0.00000000000E+00 0.  1.
</event>
<event>
 8    1  0.6615242E-009  0.1102163E+03  0.7561462E-02  0.1260170E+00
         -1   -1    0    0    0  501 -0.00000000000E+00  0.00000000000E+00  0.14520783100E+03  0.14520783100E+03  0.00000000000E+00 0.  1.
          1   -1    0    0  501    0  0.00000000000E+00 -0.00000000000E+00 -0.11647610583E+03  0.11647610583E+03  0.00000000000E+00 0. -1.
         25    2    1    2    0    0 -0.14396976541E+02  0.65845566671E+02 -0.76613605365E+01  0.14229913692E+03  0.12508971317E+03 0.  0.
         23    2    1    2    0    0  0.14396976541E+02 -0.65845566671E+02  0.36393085703E+02  0.11938479991E+03  0.91571623218E+02 0.  0.
          5    1    3    3  502    0 -0.75702366538E+01 -0.35197889509E+02  0.13637746093E+02  0.38725449350E+02  0.41800000000E+01 0.  1.
         -5    1    3    3    0  502 -0.68267398875E+01  0.10104345618E+03 -0.21299106630E+02  0.10357368757E+03  0.41800000000E+01 0.  1.
        -11    1    4    4    0    0 -0.17438434388E+02 -0.15899103681E+02  0.52877298312E+02  0.57904137750E+02  0.00000000000E+00 0.  1.
         11    1    4    4    0    0  0.31835410930E+02 -0.49946462990E+02 -0.16484212609E+02  0.61480662160E+02  0.00000000000E+00 0. -1.
</event>
<event>
 8    1  0.6615242E-009  0.1298680E+03  0.7561462E-02  0.1227652E+00
          2   -1    0    0  501    0  0.00000000000E+00  0.00000000000E+00  0.77643785355E+03  0.77643785355E+03  0.00000000000E+00 0. -1.
         -2   -1    0    0    0  501 -0.00000000000E+00 -0.00000000000E+00 -0.34714468315E+02  0.34714468315E+02  0.00000000000E+00 0.  1.
         25    2    1    2    0    0  0.79812657501E+02 -0.32501231009E+02  0.61433263760E+03  0.63283395402E+03  0.12509130040E+03 0.  0.
         23    2    1    2    0    0 -0.79812657501E+02  0.32501231009E+02  0.12739074764E+03  0.17831836784E+03  0.90236619013E+02 0.  0.
          5    1    3    3  502    0  0.10914104174E+03 -0.28570014665E+02  0.55539082678E+03  0.56674902346E+03  0.41800000000E+01 0.  1.
         -5    1    3    3    0  502 -0.29328384244E+02 -0.39312163441E+01  0.58941810821E+02  0.66084930560E+02  0.41800000000E+01 0.  1.
        -11    1    4    4    0    0 -0.38250694358E+02  0.57049074416E+02  0.42814490741E+02  0.80936970094E+02  0.00000000000E+00 0.  1.
         11    1    4    4    0    0 -0.41561963143E+02 -0.24547843407E+02  0.84576256899E+02  0.97381397747E+02  0.00000000000E+00 0. -1.
</event>
<event>
 8    1  0.6615242E-009  0.1653422E+03  0.7561462E-02  0.1182794E+00
          1   -1    0    0  501    0  0.00000000000E+00  0.00000000000E+00  0.16426983190E+03  0.16426983190E+03  0.00000000000E+00 0. -1.
         -1   -1    0    0    0  501 -0.00000000000E+00 -0.00000000000E+00 -0.27150096639E+03  0.27150096639E+03  0.00000000000E+00 0.  1.
         25    2    1    2    0    0  0.11238952409E+03 -0.99838746267E+02  0.47798191818E+02  0.20132746421E+03  0.12509556476E+03 0.  0.
         23    2    1    2    0    0 -0.11238952409E+03  0.99838746267E+02 -0.15502932631E+03  0.23444333408E+03  0.91271049620E+02 0.  0.
          5    1    3    3  502    0  0.55817826981E+02 -0.81318730221E+02  0.85620598421E+02  0.13067794369E+03  0.41800000000E+01 0.  1.
         -5    1    3    3    0  502  0.56571697114E+02 -0.18520016046E+02 -0.37822406602E+02  0.70649520521E+02  0.41800000000E+01 0.  1.
        -11    1    4    4    0    0 -0.10851206002E+03  0.45257161617E+02 -0.12662306950E+03  0.17279027628E+03  0.00000000000E+00 0.  1.
         11    1    4    4    0    0 -0.38774640732E+01  0.54581584650E+02 -0.28406256804E+02  0.61653057801E+02  0.00000000000E+00 0. -1.
</event>
<event>
 8    1  0.6615242E-009  0.9993519E+02  0.7561462E-02  0.1280432E+00
          4   -1    0    0  501    0  0.00000000000E+00  0.00000000000E+00  0.70589298785E+03  0.70589298785E+03  0.00000000000E+00 0. -1.
         -4   -1    0    0    0  501 -0.00000000000E+00 -0.00000000000E+00 -0.18215272015E+02  0.18215272015E+02  0.00000000000E+00 0.  1.
         25    2    1    2    0    0 -0.34501342846E+01  0.35843624728E+02  0.42356867611E+03  0.44311922490E+03  0.12509018842E+03 0.  0.
         23    2    1    2    0    0  0.34501342846E+01 -0.35843624728E+02  0.26410903973E+03  0.28098903497E+03  0.88907727690E+02 0.  0.
          5    1    3    3  502    0 -0.54573355856E+02  0.52227573603E+01  0.10033906346E+03  0.11441559518E+03  0.41800000000E+01 0.  1.
         -5    1    3    3    0  502  0.51123221572E+02  0.30620867367E+02  0.32322961265E+03  0.32870362973E+03  0.41800000000E+01 0.  1.
        -11    1    4    4    0    0  0.13413469110E+02 -0.58701803647E+02  0.23532356791E+03  0.24290534066E+03  0.00000000000E+00 0. -1.
         11    1    4    4    0    0 -0.99633348252E+01  0.22858178919E+02  0.28785471820E+02  0.38083694309E+02  0.00000000000E+00 0.  1.
</event>
<event>
 8    1  0.6615242E-009  0.1581231E+03  0.7561462E-02  0.1190832E+00
          1   -1    0    0  501    0  0.00000000000E+00  0.00000000000E+00  0.31518096585E+03  0.31518096585E+03  0.00000000000E+00 0. -1.
         -1   -1    0    0    0  501 -0.00000000000E+00 -0.00000000000E+00 -0.97072084013E+02  0.97072084013E+02  0.00000000000E+00 0.  1.
         25    2    1    2    0    0 -0.19170575014E+02  0.13153426775E+03  0.15521559930E+03  0.23960064330E+03  0.12509121258E+03 0.  0.
         23    2    1    2    0    0  0.19170575014E+02 -0.13153426775E+03  0.62893282536E+02  0.17265240656E+03  0.90468303644E+02 0.  0.
          5    1    3    3  502    0  0.60360688554E+01  0.15030546956E+03  0.12247856718E+03  0.19402742107E+03  0.41800000000E+01 0.  1.
         -5    1    3    3    0  502 -0.25206643869E+02 -0.18771201813E+02  0.32737032124E+02  0.45573222236E+02  0.41800000000E+01 0.  1.
        -11    1    4    4    0    0  0.32822137382E-01 -0.60193089495E+02 -0.18275582319E+02  0.62906327260E+02  0.00000000000E+00 0.  1.
         11    1    4    4    0    0  0.19137752876E+02 -0.71341178256E+02  0.81168864855E+02  0.10974607930E+03  0.00000000000E+00 0. -1.
</event>
<event>
 8    1  0.6615242E-009  0.2498704E+03  0.7561462E-02  0.1113387E+00
         -1   -1    0    0    0  501 -0.00000000000E+00  0.00000000000E+00  0.92008717931E+03  0.92008717931E+03  0.00000000000E+00 0.  1.
          1   -1    0    0  501    0  0.00000000000E+00 -0.00000000000E+00 -0.90362527919E+02  0.90362527919E+02  0.00000000000E+00 0. -1.
         25    2    1    2    0    0 -0.24715422165E+03  0.33191621745E+02  0.59052482565E+03  0.65311150337E+03  0.12509265802E+03 0.  0.
         23    2    1    2    0    0  0.24715422165E+03 -0.33191621745E+02  0.23919982575E+03  0.35733820387E+03  0.91033742499E+02 0.  0.
          5    1    3    3  502    0 -0.19800983728E+03  0.22804906620E+02  0.55942128375E+03  0.59388349407E+03  0.41800000000E+01 0. -1.
         -5    1    3    3    0  502 -0.49144384367E+02  0.10386715125E+02  0.31103541904E+02  0.59228009294E+02  0.41800000000E+01 0. -1.
        -11    1    4    4    0    0  0.45741023676E+02 -0.12995567227E+02  0.50474622669E+01  0.47818436714E+02  0.00000000000E+00 0. -1.
         11    1    4    4    0    0  0.20141319797E+03 -0.20196054518E+02  0.23415236348E+03  0.30951976715E+03  0.00000000000E+00 0.  1.
</event>
<event>
 8    1  0.6615242E-009  0.1088154E+03  0.7561462E-02  0.1262779E+00
         -3   -1    0    0    0  501 -0.00000000000E+00  0.00000000000E+00  0.15320510254E+03  0.15320510254E+03  0.00000000000E+00 0.  1.
          3   -1    0    0  501    0  0.00000000000E+00 -0.00000000000E+00 -0.81517533194E+02  0.81517533194E+02  0.00000000000E+00 0. -1.
         25    2    1    2    0    0 -0.64490873370E+01 -0.20595284873E+02  0.60913837885E+02  0.14079954262E+03  0.12509300168E+03 0.  0.
         23    2    1    2    0    0  0.64490873370E+01  0.20595284873E+02  0.10773731460E+02  0.93923093113E+02  0.90772890467E+02 0.  0.
          5    1    3    3  502    0 -0.58193927220E+02  0.17123917630E+02  0.42001429006E+02  0.73900975358E+02  0.41800000000E+01 0. -1.
         -5    1    3    3    0  502  0.51744839883E+02 -0.37719202503E+02  0.18912408880E+02  0.66898567262E+02  0.41800000000E+01 0. -1.
        -11    1    4    4    0    0 -0.11546941888E+02  0.53726319882E+02  0.11801128742E+02  0.56206013510E+02  0.00000000000E+00 0.  1.
         11    1    4    4    0    0  0.17996029225E+02 -0.33131035009E+02 -0.10273972818E+01  0.37717079603E+02  0.00000000000E+00 0. -1.
</event>
<event>
 8    1  0.6615242E-009  0.1282728E+03  0.7561462E-02  0.1230041E+00
         -2   -1    0    0    0  501 -0.00000000000E+00  0.00000000000E+00  0.25396643586E+03  0.25396643586E+03  0.00000000000E+00 0.  1.
          2   -1    0    0  501    0  0.00000000000E+00 -0.00000000000E+00 -0.82492176725E+02  0.82492176725E+02  0.00000000000E+00 0. -1.
         25    2    1    2    0    0 -0.94858360374E+02  0.22178656909E+02  0.99809941131E+02  0.18733979587E+03  0.12507667014E+03 0.  0.
         23    2    1    2    0    0  0.94858360374E+02 -0.22178656909E+02  0.71664318002E+02  0.14911881671E+03  0.87239014595E+02 0.  0.
          5    1    3    3  502    0 -0.73879190425E+02 -0.23061706204E+02  0.20719706953E+01  0.77535427602E+02  0.41800000000E+01 0. -1.
         -5    1    3    3    0  502 -0.20979169948E+02  0.45240363113E+02  0.97737970436E+02  0.10980436827E+03  0.41800000000E+01 0. -1.
        -11    1    4    4    0    0  0.23787006436E+02 -0.47844358342E+02  0.41914516854E+02  0.67909727016E+02  0.00000000000E+00 0.  1.
         11    1    4    4    0    0  0.71071353937E+02  0.25665701433E+02  0.29749801148E+02  0.81209089694E+02  0.00000000000E+00 0. -1.
</event>
<event>
 8    1  0.6615242E-009  0.9551486E+02  0.7561462E-02  0.1290021E+00
          1   -1    0    0  501    0  0.00000000000E+00  0.00000000000E+00  0.96164932345E+03  0.96164932345E+03  0.00000000000E+00 0. -1.
         -1   -1    0    0    0  501 -0.00000000000E+00 -0.00000000000E+00 -0.14025108710E+02  0.14025108710E+02  0.00000000000E+00 0.  1.
         25    2    1    2    0    0  0.72257750757E+01 -0.37342619292E+02  0.46887796383E+03  0.48676083563E+03  0.12507151196E+03 0.  0.
         23    2    1    2    0    0 -0.72257750757E+01  0.37342619292E+02  0.47874625091E+03  0.48891359653E+03  0.91607036107E+02 0.  0.
          5    1    3    3  502    0 -0.14540218200E+01  0.26807605345E+02  0.35232997171E+03  0.35337606491E+03  0.41800000000E+01 0.  1.
         -5    1    3    3    0  502  0.86797968957E+01 -0.64150224638E+02  0.11654799211E+03  0.13338477072E+03  0.41800000000E+01 0.  1.
        -11    1    4    4    0    0  0.56074894148E+01  0.66707617843E+02  0.30890451055E+03  0.31607490703E+03  0.00000000000E+00 0. -1.
         11    1    4    4    0    0 -0.12833264490E+02 -0.29364998551E+02  0.16984174036E+03  0.17283868950E+03  0.00000000000E+00 0.  1.
</event>
<event>
 8    1  0.6615242E-009  0.9320151E+02  0.7561462E-02  0.1295279E+00
         -1   -1    0    0    0  501 -0.00000000000E+00  0.00000000000E+00  0.13996886854E+03  0.13996886854E+03  0.00000000000E+00 0.  1.
          1   -1    0    0  501    0  0.00000000000E+00 -0.00000000000E+00 -0.94883944341E+02  0.94883944341E+02  0.00000000000E+00 0. -1.
         25    2    1    2    0    0  0.97428391202E+01 -0.24162861332E+02 -0.36046291280E+01  0.12782667102E+03  0.12509155723E+03 0.  0.
         23    2    1    2    0    0 -0.97428391202E+01  0.24162861332E+02  0.48689553325E+02  0.10702614186E+03  0.91679636000E+02 0.  0.
          5    1    3    3  502    0  0.42881079247E+02 -0.46192984451E+02  0.35010404040E+02  0.72220354201E+02  0.41800000000E+01 0.  1.
         -5    1    3    3    0  502 -0.33138240127E+02  0.22030123119E+02 -0.38615033168E+02  0.55606316816E+02  0.41800000000E+01 0.  1.
        -11    1    4    4    0    0  0.29230887682E+02 -0.10506769494E+02  0.45071469485E+02  0.54738234913E+02  0.00000000000E+00 0. -1.
         11    1    4    4    0    0 -0.38973726802E+02  0.34669630826E+02  0.36180838406E+01  0.52287906949E+02  0.00000000000E+00 0.  1.
</event>
<event>
 8    1  0.6615242E-009  0.6808198E+02  0.7561462E-02  0.1366740E+00
         -3   -1    0    0    0  501 -0.00000000000E+00  0.00000000000E+00  0.39543560864E+03  0.39543560864E+03  0.00000000000E+00 0.  1.
          3   -1    0    0  501    0  0.00000000000E+00 -0.00000000000E+00 -0.39249328698E+02  0.39249328698E+02  0.00000000000E+00 0. -1.
         25    2    1    2    0    0 -0.82824745765E+01  0.28870831563E+02  0.12000536879E+03  0.17591073674E+03  0.12506468111E+03 0.  0.
         23    2    1    2    0    0  0.82824745765E+01 -0.28870831563E+02  0.23618091115E+03  0.25877420060E+03  0.10139299682E+03 0.  0.
          5    1    3    3  502    0  0.60543201697E+01  0.21528081092E+02 -0.22758804881E+02  0.32179942011E+02  0.41800000000E+01 0. -1.
         -5    1    3    3    0  502 -0.14336794746E+02  0.73427504717E+01  0.14276417367E+03  0.14373079473E+03  0.41800000000E+01 0. -1.
        -11    1    4    4    0    0  0.48712292615E+02 -0.28304197780E+02  0.18591700084E+03  0.19426565899E+03  0.00000000000E+00 0.  1.
         11    1    4    4    0    0 -0.40429818038E+02 -0.56663378334E+00  0.50263910310E+02  0.64508541605E+02  0.00000000000E+00 0. -1.
</event>
<event>
 8    1  0.6615242E-009  0.7249563E+02  0.7561462E-02  0.1351806E+00
          2   -1    0    0  501    0  0.00000000000E+00  0.00000000000E+00  0.13171075447E+03  0.13171075447E+03  0.00000000000E+00 0. -1.
         -2   -1    0    0    0  501 -0.00000000000E+00 -0.00000000000E+00 -0.96724920692E+02  0.96724920692E+02  0.00000000000E+00 0.  1.
         25    2    1    2    0    0  0.33823020575E+02 -0.50760793519E+02  0.31493378340E+02  0.14268672960E+03  0.12508802918E+03 0.  0.
         23    2    1    2    0    0 -0.33823020575E+02  0.50760793519E+02  0.34924554363E+01  0.85748945564E+02  0.60166681319E+02 0.  0.
          5    1    3    3  502    0  0.44821500261E+02 -0.22064197567E+02  0.74418325324E+02  0.89729344386E+02  0.41800000000E+01 0. -1.
         -5    1    3    3    0  502 -0.10998479686E+02 -0.28696595951E+02 -0.42924946984E+02  0.52957385209E+02  0.41800000000E+01 0. -1.
        -11    1    4    4    0    0 -0.25909477849E+02  0.21923394373E+02  0.30368140026E+02  0.45542948871E+02  0.00000000000E+00 0. -1.
         11    1    4    4    0    0 -0.79135427266E+01  0.28837399145E+02 -0.26875684589E+02  0.40205996693E+02  0.00000000000E+00 0.  1.
</event>
<event>
 8    1  0.6615242E-009  0.1082047E+03  0.7561462E-02  0.1263931E+00
          2   -1    0    0  501    0  0.00000000000E+00  0.00000000000E+00  0.67012904206E+03  0.67012904206E+03  0.00000000000E+00 0. -1.
         -2   -1    0    0    0  501 -0.00000000000E+00 -0.00000000000E+00 -0.18591852674E+02  0.18591852674E+02  0.00000000000E+00 0.  1.
         25    2    1    2    0    0  0.31790515583E+02 -0.13005477345E+02  0.40604982577E+03  0.42626653249E+03  0.12508763485E+03 0.  0.
         23    2    1    2    0    0 -0.31790515583E+02  0.13005477345E+02  0.24548736363E+03  0.26245436225E+03  0.86246549166E+02 0.  0.
          5    1    3    3  502    0  0.17996755445E+02 -0.67248327008E+02  0.17242918989E+03  0.18599870595E+03  0.41800000000E+01 0.  1.
         -5    1    3    3    0  502  0.13793760138E+02  0.54242849662E+02  0.23362063588E+03  0.24026782653E+03  0.41800000000E+01 0.  1.
        -11    1    4    4    0    0 -0.30148178712E+02  0.47364707109E+02  0.12262386454E+03  0.13486637948E+03  0.00000000000E+00 0.  1.
         11    1    4    4    0    0 -0.16423368711E+01 -0.34359229764E+02  0.12286349908E+03  0.12758798277E+03  0.00000000000E+00 0. -1.
</event>
<event>
 8    1  0.6615242E-009  0.1362176E+03  0.7561462E-02  0.1218511E+00
          3   -1    0    0  501    0  0.00000000000E+00  0.00000000000E+00  0.11781300407E+03  0.11781300407E+03  0.00000000000E+00 0. -1.
         -3   -1    0    0    0  501 -0.00000000000E+00 -0.00000000000E+00 -0.26079892759E+03  0.26079892759E+03  0.00000000000E+00 0.  1.
         25    2    1    2    0    0 -0.95886693414E+01 -0.12225069488E+03 -0.14170227170E+03  0.22530589077E+03  0.12508411423E+03 0.  0.
         23    2    1    2    0    0  0.95886693414E+01  0.12225069488E+03 -0.12836518265E+01  0.15330604089E+03  0.91999562148E+02 0.  0.
          5    1    3    3  502    0  0.12349392988E+02 -0.93561125722E+02 -0.17732885360E+02  0.96115136044E+02  0.41800000000E+01 0.  1.
         -5    1    3    3    0  502 -0.21938062329E+02 -0.28689569153E+02 -0.12396938634E+03  0.12919075472E+03  0.41800000000E+01 0.  1.
        -11    1    4    4    0    0  0.38862440616E+02  0.47740724125E+02  0.28571330528E+02  0.67865948448E+02  0.00000000000E+00 0. -1.
         11    1    4    4    0    0 -0.29273771274E+02  0.74509970750E+02 -0.29854982355E+02  0.85440092446E+02  0.00000000000E+00 0.  1.
</event>
<event>
 8    1  0.6615242E-009  0.1105484E+03  0.7561462E-02  0.1259558E+00
          1   -1    0    0  501    0  0.00000000000E+00  0.00000000000E+00  0.69074132983E+03  0.69074132983E+03  0.00000000000E+00 0. -1.
         -1   -1    0    0    0  501 -0.00000000000E+00 -0.00000000000E+00 -0.23544635450E+02  0.23544635450E+02  0.00000000000E+00 0.  1.
         25    2    1    2    0    0  0.13980226314E+02  0.64865839708E+02  0.32935531612E+03  0.35850495115E+03  0.12509137402E+03 0.  0.
         23    2    1    2    0    0 -0.13980226314E+02 -0.64865839708E+02  0.33784137826E+03  0.35578101413E+03  0.89667771593E+02 0.  0.
          5    1    3    3  502    0 -0.40777305166E+02  0.25373954714E+02  0.24828265377E+03  0.25291970022E+03  0.41800000000E+01 0. -1.
         -5    1    3    3    0  502  0.54757531479E+02  0.39491884994E+02  0.81072662350E+02  0.10558525093E+03  0.41800000000E+01 0. -1.
        -11    1    4    4    0    0  0.25471595941E+02  0.40937116001E+01  0.40582484096E+02  0.48088446532E+02  0.00000000000E+00 0.  1.
         11    1    4    4    0    0 -0.39451822255E+02 -0.68959551308E+02  0.29725889416E+03  0.30769256760E+03  0.00000000000E+00 0. -1.
</event>
<event>
 8    1  0.6615242E-009  0.1312133E+03  0.7561462E-02  0.1225666E+00
         -2   -1    0    0    0  501 -0.00000000000E+00  0.00000000000E+00  0.26148139975E+03  0.26148139975E+03  0.00000000000E+00 0.  1.
          2   -1    0    0  501    0  0.00000000000E+00 -0.00000000000E+00 -0.82297264904E+02  0.82297264904E+02  0.00000000000E+00 0. -1.
         25    2    1    2    0    0 -0.47748107913E+02  0.83211370950E+02  0.11680657076E+03  0.19620042920E+03  0.12508724708E+03 0.  0.
         23    2    1    2    0    0  0.47748107913E+02 -0.83211370950E+02  0.62377564084E+02  0.14757823545E+03  0.93189919053E+02 0.  0.
          5    1    3    3  502    0  0.39151695418E+01 -0.15966624751E+02 -0.15456180541E+02  0.22948367597E+02  0.41800000000E+01 0.  1.
         -5    1    3    3    0  502 -0.51663277455E+02  0.99177995701E+02  0.13226275130E+03  0.17325206161E+03  0.41800000000E+01 0.  1.
        -11    1    4    4    0    0  0.74854647396E+02 -0.73100662190E+02  0.52049285517E+02  0.11685911677E+03  0.00000000000E+00 0. -1.
         11    1    4    4    0    0 -0.27106539483E+02 -0.10110708760E+02  0.10328278567E+02  0.30719118681E+02  0.00000000000E+00 0.  1.
</event>
<event>
 8    1  0.6615242E-009  0.1019262E+03  0.7561462E-02  0.1276297E+00
         -1   -1    0    0    0  501 -0.00000000000E+00  0.00000000000E+00  0.26378562192E+02  0.26378562192E+02  0.00000000000E+00 0.  1.
          1   -1    0    0  501    0  0.00000000000E+00 -0.00000000000E+00 -0.63059683757E+03  0.63059683757E+03  0.00000000000E+00 0. -1.
         25    2    1    2    0    0  0.40332392976E+02  0.36572101808E+02 -0.45091642947E+03  0.47110240197E+03  0.12509047215E+03 0.  0.
         23    2    1    2    0    0 -0.40332392976E+02 -0.36572101808E+02 -0.15330184591E+03  0.18587299779E+03  0.89906033144E+02 0.  0.
          5    1    3    3  502    0  0.18994174787E+02 -0.27164740771E+02 -0.30217250193E+02  0.45047268798E+02  0.41800000000E+01 0.  1.
         -5    1    3    3    0  502  0.21338218190E+02  0.63736842579E+02 -0.42069917928E+03  0.42605513317E+03  0.41800000000E+01 0.  1.
        -11    1    4    4    0    0 -0.13435092210E+02 -0.63579279182E+02 -0.78397276133E+02  0.10182808723E+03  0.00000000000E+00 0. -1.
         11    1    4    4    0    0 -0.26897300766E+02  0.27007177374E+02 -0.74904569775E+02  0.84044910562E+02  0.00000000000E+00 0.  1.
</event>
<event>
 8    1  0.6615242E-009  0.9255434E+02  0.7561462E-02  0.1296781E+00
          1   -1    0    0  501    0  0.00000000000E+00  0.00000000000E+00  0.10554843711E+04  0.10554843711E+04  0.00000000000E+00 0. -1.
         -1   -1    0    0    0  501 -0.00000000000E+00 -0.00000000000E+00 -0.12129598708E+02  0.12129598708E+02  0.00000000000E+00 0.  1.
         25    2    1    2    0    0  0.23190745278E+02 -0.63717346418E+01  0.75331972063E+03  0.76401335994E+03  0.12508957989E+03 0.  0.
         23    2    1    2    0    0 -0.23190745278E+02  0.63717346418E+01  0.29003505171E+03  0.30360060982E+03  0.86455707709E+02 0.  0.
          5    1    3    3  502    0 -0.42297839774E+02 -0.46148458996E+00  0.12058621489E+03  0.12785862442E+03  0.41800000000E+01 0. -1.
         -5    1    3    3    0  502  0.65488585052E+02 -0.59102500518E+01  0.63273350574E+03  0.63615473551E+03  0.41800000000E+01 0. -1.
        -11    1    4    4    0    0 -0.46317543387E+02 -0.11220646872E+02  0.24776244925E+03  0.25230427861E+03  0.00000000000E+00 0. -1.
         11    1    4    4    0    0  0.23126798109E+02  0.17592381513E+02  0.42272602457E+02  0.51296331219E+02  0.00000000000E+00 0.  1.
</event>
<event>
 8    1  0.6615242E-009  0.9146517E+02  0.7561462E-02  0.1299342E+00
          2   -1    0    0  501    0  0.00000000000E+00  0.00000000000E+00  0.44917201307E+03  0.44917201307E+03  0.00000000000E+00 0. -1.
         -2   -1    0    0    0  501 -0.00000000000E+00 -0.00000000000E+00 -0.57287819353E+02  0.57287819353E+02  0.00000000000E+00 0.  1.
         25    2    1    2    0    0 -0.74273476759E+02  0.45382974492E+02  0.33826907957E+03  0.37101049045E+03  0.12508657045E+03 0.  0.
         23    2    1    2    0    0  0.74273476759E+02 -0.45382974492E+02  0.53615114148E+02  0.13544934197E+03  0.88858201942E+02 0.  0.
          5    1    3    3  502    0 -0.58245961950E+02  0.18755746482E+02  0.33373691675E+03  0.33932605575E+03  0.41800000000E+01 0. -1.
         -5    1    3    3    0  502 -0.16027514809E+02  0.26627228010E+02  0.45321628213E+01  0.31684434701E+02  0.41800000000E+01 0. -1.
        -11    1    4    4    0    0  0.37186719957E+02 -0.89480367352E+01  0.70985853825E+02  0.80634427795E+02  0.00000000000E+00 0. -1.
         11    1    4    4    0    0  0.37086756802E+02 -0.36434937757E+02 -0.17370739678E+02  0.54814914178E+02  0.00000000000E+00 0.  1.
</event>
<event>
 8    1  0.6615242E-009  0.1112468E+03  0.7561462E-02  0.1258278E+00
         -2   -1    0    0    0  501 -0.00000000000E+00  0.00000000000E+00  0.18826506030E+02  0.18826506030E+02  0.00000000000E+00 0.  1.
          2   -1    0    0  501    0  0.00000000000E+00 -0.00000000000E+00 -0.91753648998E+03  0.91753648998E+03  0.00000000000E+00 0. -1.
         25    2    1    2    0    0 -0.59447861798E+02 -0.36309344748E+02 -0.60512246358E+03  0.62183009898E+03  0.12508820596E+03 0.  0.
         23    2    1    2    0    0  0.59447861798E+02  0.36309344748E+02 -0.29358752037E+03  0.31453289704E+03  0.88796927948E+02 0.  0.
          5    1    3    3  502    0 -0.74374254743E+02 -0.52676147977E+02 -0.25231550464E+03  0.26830373202E+03  0.41800000000E+01 0. -1.
         -5    1    3    3    0  502  0.14926392945E+02  0.16366803228E+02 -0.35280695895E+03  0.35352636696E+03  0.41800000000E+01 0. -1.
        -11    1    4    4    0    0  0.54083524303E+02  0.62114283837E+02 -0.25361668486E+03  0.26665452312E+03  0.00000000000E+00 0. -1.
         11    1    4    4    0    0  0.53643374953E+01 -0.25804939089E+02 -0.39970835505E+02  0.47878373919E+02  0.00000000000E+00 0.  1.
</event>
<event>
 8    1  0.6615242E-009  0.1666458E+03  0.7561462E-02  0.1181392E+00
         -2   -1    0    0    0  501 -0.00000000000E+00  0.00000000000E+00  0.34068235146E+02  0.34068235146E+02  0.00000000000E+00 0.  1.
          2   -1    0    0  501    0  0.00000000000E+00 -0.00000000000E+00 -0.10005094752E+04  0.10005094752E+04  0.00000000000E+00 0. -1.
         25    2    1    2    0    0  0.14091271743E+03  0.45431987760E+02 -0.47095751826E+03  0.50928267514E+03  0.12508956688E+03 0.  0.
         23    2    1    2    0    0 -0.14091271743E+03 -0.45431987760E+02 -0.49548372176E+03  0.52529503518E+03  0.92251265630E+02 0.  0.
          5    1    3    3  502    0  0.14598854075E+03  0.68389282536E+02 -0.44805966229E+03  0.47619815347E+03  0.41800000000E+01 0. -1.
         -5    1    3    3    0  502 -0.50758233248E+01 -0.22957294775E+02 -0.22897855976E+02  0.33084521670E+02  0.41800000000E+01 0. -1.
        -11    1    4    4    0    0 -0.62704964728E+02 -0.22885580122E+02 -0.91888976332E+02  0.11357484911E+03  0.00000000000E+00 0.  1.
         11    1    4    4    0    0 -0.78207752698E+02 -0.22546407638E+02 -0.40359474543E+03  0.41172018607E+03  0.00000000000E+00 0. -1.
</event>
<event>
 8    1  0.6615242E-009  0.8443734E+02  0.7561462E-02  0.1316911E+00
         -1   -1    0    0    0  501 -0.00000000000E+00  0.00000000000E+00  0.44859241394E+03  0.44859241394E+03  0.00000000000E+00 0.  1.
          1   -1    0    0  501    0  0.00000000000E+00 -0.00000000000E+00 -0.27062988906E+02  0.27062988906E+02  0.00000000000E+00 0. -1.
         25    2    1    2    0    0  0.46499942372E+01  0.17561949851E+02  0.26174119123E+03  0.29066482317E+03  0.12509014235E+03 0.  0.
         23    2    1    2    0    0 -0.46499942372E+01 -0.17561949851E+02  0.15978823380E+03  0.18499057967E+03  0.91428608092E+02 0.  0.
          5    1    3    3  502    0  0.28182767929E+02 -0.43651221170E+02  0.17002963942E+03  0.17784051338E+03  0.41800000000E+01 0.  1.
         -5    1    3    3    0  502 -0.23532773691E+02  0.61213171022E+02  0.91711551810E+02  0.11282430979E+03  0.41800000000E+01 0.  1.
        -11    1    4    4    0    0  0.10293355796E+02  0.13256786854E+02 -0.43325704259E+01  0.17333976396E+02  0.00000000000E+00 0. -1.
         11    1    4    4    0    0 -0.14943350033E+02 -0.30818736705E+02  0.16412080422E+03  0.16765660327E+03  0.00000000000E+00 0.  1.
</event>
<event>
 8    1  0.6615242E-009  0.7969946E+02  0.7561462E-02  0.1329906E+00
          2   -1    0    0  501    0  0.00000000000E+00  0.00000000000E+00  0.60242799235E+03  0.60242799235E+03  0.00000000000E+00 0. -1.
         -2   -1    0    0    0  501 -0.00000000000E+00 -0.00000000000E+00 -0.20523467889E+02  0.20523467889E+02  0.00000000000E+00 0.  1.
         25    2    1    2    0    0  0.72461704076E+01 -0.22691389803E+01  0.41047650977E+03  0.42918100081E+03  0.12509080863E+03 0.  0.
         23    2    1    2    0    0 -0.72461704076E+01  0.22691389803E+01  0.17142801469E+03  0.19377045943E+03  0.90009836965E+02 0.  0.
          5    1    3    3  502    0  0.22563508039E+01  0.51324257039E+02  0.86151648336E+02  0.10039347285E+03  0.41800000000E+01 0.  1.
         -5    1    3    3    0  502  0.49898196038E+01 -0.53593396019E+02  0.32432486143E+03  0.32878752796E+03  0.41800000000E+01 0.  1.
        -11    1    4    4    0    0 -0.21588585741E+02  0.21106638356E+02  0.16697074274E+03  0.16967847874E+03  0.00000000000E+00 0. -1.
         11    1    4    4    0    0  0.14342415334E+02 -0.18837499376E+02  0.44572719507E+01  0.24091980691E+02  0.00000000000E+00 0.  1.
</event>
<event>
 8    1  0.6615242E-009  0.1133864E+03  0.7561462E-02  0.1254424E+00
         -1   -1    0    0    0  501 -0.00000000000E+00  0.00000000000E+00  0.30907889594E+02  0.30907889594E+02  0.00000000000E+00 0.  1.
          1   -1    0    0  501    0  0.00000000000E+00 -0.00000000000E+00 -0.47933182607E+03  0.47933182607E+03  0.00000000000E+00 0. -1.
         25    2    1    2    0    0 -0.26038339279E+02  0.50667567115E+02 -0.24774185025E+03  0.28331808537E+03  0.12509162908E+03 0.  0.
         23    2    1    2    0    0  0.26038339279E+02 -0.50667567115E+02 -0.20068208622E+03  0.22692163029E+03  0.89302458484E+02 0.  0.
          5    1    3    3  502    0 -0.13670861106E+02 -0.40534614546E+02 -0.56030152442E+02  0.70617262780E+02  0.41800000000E+01 0. -1.
         -5    1    3    3    0  502 -0.12367478172E+02  0.91202181661E+02 -0.19171169781E+03  0.21270082259E+03  0.41800000000E+01 0. -1.
        -11    1    4    4    0    0  0.91076936385E+01 -0.67307305643E+02 -0.18824236053E+03  0.20012098784E+03  0.00000000000E+00 0. -1.
         11    1    4    4    0    0  0.16930645640E+02  0.16639738529E+02 -0.12439725690E+02  0.26800642443E+02  0.00000000000E+00 0.  1.
</event>
<event>
 8    1  0.6615242E-009  0.1364720E+03  0.7561462E-02  0.1218157E+00
         -2   -1    0    0    0  501 -0.00000000000E+00  0.00000000000E+00  0.45959277171E+02  0.45959277171E+02  0.00000000000E+00 0. -1.
          2   -1    0    0  501    0  0.00000000000E+00 -0.00000000000E+00 -0.48339869604E+03  0.48339869604E+03  0.00000000000E+00 0.  1.
         25    2    1    2    0    0 -0.84016056319E+02  0.23722257269E+02 -0.32863500555E+03  0.36230921841E+03  0.12508221162E+03 0.  0.
         23    2    1    2    0    0  0.84016056319E+02 -0.23722257269E+02 -0.10880441332E+03  0.16704875480E+03  0.91899090928E+02 0.  0.
          5    1    3    3  502    0  0.11509012046E+02 -0.33097316875E+02 -0.12945077271E+03  0.13417475432E+03  0.41800000000E+01 0. -1.
         -5    1    3    3    0  502 -0.95525068365E+02  0.56819574144E+02 -0.19918423284E+03  0.22813446409E+03  0.41800000000E+01 0. -1.
        -11    1    4    4    0    0 -0.17109219728E+02 -0.18457016835E+02 -0.26613001590E+02  0.36628386858E+02  0.00000000000E+00 0.  1.
         11    1    4    4    0    0  0.10112527605E+03 -0.52652404344E+01 -0.82191411729E+02  0.13042036794E+03  0.00000000000E+00 0. -1.
</event>
<event>
 8    1  0.6615242E-009  0.1038516E+03  0.7561462E-02  0.1272399E+00
          1   -1    0    0  501    0  0.00000000000E+00  0.00000000000E+00  0.76963226933E+02  0.76963226933E+02  0.00000000000E+00 0. -1.
         -1   -1    0    0    0  501 -0.00000000000E+00 -0.00000000000E+00 -0.19695177929E+03  0.19695177929E+03  0.00000000000E+00 0.  1.
         25    2    1    2    0    0 -0.13111812653E+02  0.40802947334E+02 -0.27190582463E+02  0.13499334538E+03  0.12508827036E+03 0.  0.
         23    2    1    2    0    0  0.13111812653E+02 -0.40802947334E+02 -0.92797969894E+02  0.13892166084E+03  0.94079564688E+02 0.  0.
          5    1    3    3  502    0  0.50104432036E+02  0.21419076533E+02  0.14718122942E+02  0.56597937172E+02  0.41800000000E+01 0.  1.
         -5    1    3    3    0  502 -0.63216244689E+02  0.19383870802E+02 -0.41908705406E+02  0.78395408211E+02  0.41800000000E+01 0.  1.
        -11    1    4    4    0    0 -0.11834364422E+02 -0.56234171834E+02 -0.93307737537E+02  0.10958406886E+03  0.00000000000E+00 0.  1.
         11    1    4    4    0    0  0.24946177075E+02  0.15431224499E+02  0.50976764381E+00  0.29337591982E+02  0.00000000000E+00 0. -1.
</event>
<event>
 8    1  0.6615242E-009  0.1413064E+03  0.7561462E-02  0.1211582E+00
          1   -1    0    0  501    0  0.00000000000E+00  0.00000000000E+00  0.11886629328E+04  0.11886629328E+04  0.00000000000E+00 0. -1.
         -1   -1    0    0    0  501 -0.00000000000E+00 -0.00000000000E+00 -0.25439638757E+02  0.25439638757E+02  0.00000000000E+00 0.  1.
         25    2    1    2    0    0 -0.11644221640E+03 -0.25860767757E+01  0.86064728688E+03  0.87745473911E+03  0.12509032424E+03 0.  0.
         23    2    1    2    0    0  0.11644221640E+03  0.25860767757E+01  0.30257600712E+03  0.33664783240E+03  0.90631371085E+02 0.  0.
          5    1    3    3  502    0 -0.11789311402E+03 -0.18893918851E+02  0.42480674670E+03  0.44128676725E+03  0.41800000000E+01 0.  1.
         -5    1    3    3    0  502  0.14508976176E+01  0.16307842076E+02  0.43584054017E+03  0.43616797186E+03  0.41800000000E+01 0.  1.
        -11    1    4    4    0    0 -0.14279526317E+02  0.59745175087E+01  0.20073938108E+02  0.25348820929E+02  0.00000000000E+00 0.  1.
         11    1    4    4    0    0  0.13072174272E+03 -0.33884407330E+01  0.28250206901E+03  0.31129901147E+03  0.00000000000E+00 0. -1.
</event>
<event>
 8    1  0.6615242E-009  0.1510128E+03  0.7561462E-02  0.1199234E+00
          2   -1    0    0  501    0  0.00000000000E+00  0.00000000000E+00  0.83524682215E+03  0.83524682215E+03  0.00000000000E+00 0. -1.
         -2   -1    0    0    0  501 -0.00000000000E+00 -0.00000000000E+00 -0.38967703856E+02  0.38967703856E+02  0.00000000000E+00 0.  1.
         25    2    1    2    0    0  0.12003716949E+03  0.33549448412E+02  0.58565224412E+03  0.61169451751E+03  0.12508854529E+03 0.  0.
         23    2    1    2    0    0 -0.12003716949E+03 -0.33549448412E+02  0.21062687417E+03  0.26252000849E+03  0.94966242357E+02 0.  0.
          5    1    3    3  502    0  0.91119052732E+02 -0.15224119003E+02  0.18290668735E+03  0.20495556652E+03  0.41800000000E+01 0.  1.
         -5    1    3    3    0  502  0.28918116761E+02  0.48773567415E+02  0.40274555677E+03  0.40673895099E+03  0.41800000000E+01 0.  1.
        -11    1    4    4    0    0 -0.12380942829E+03 -0.51688532847E+02  0.20093779779E+03  0.24161224626E+03  0.00000000000E+00 0. -1.
         11    1    4    4    0    0  0.37722587958E+01  0.18139084436E+02  0.96890763836E+01  0.20907762237E+02  0.00000000000E+00 0.  1.
</event>
<event>
 8    1  0.6615242E-009  0.1326245E+03  0.7561462E-02  0.1223613E+00
          1   -1    0    0  501    0  0.00000000000E+00  0.00000000000E+00  0.52697803425E+02  0.52697803425E+02  0.00000000000E+00 0. -1.
         -1   -1    0    0    0  501 -0.00000000000E+00 -0.00000000000E+00 -0.53925459883E+03  0.53925459883E+03  0.00000000000E+00 0.  1.
         25    2    1    2    0    0  0.12321571347E+03 -0.28841067136E+02 -0.29639410899E+03  0.34570394972E+03  0.12509130188E+03 0.  0.
         23    2    1    2    0    0 -0.12321571347E+03  0.28841067136E+02 -0.19016268642E+03  0.24624845254E+03  0.91992031581E+02 0.  0.
          5    1    3    3  502    0  0.85295094964E+02 -0.39898698557E+02 -0.74123537377E+02  0.11991217855E+03  0.41800000000E+01 0. -1.
         -5    1    3    3    0  502  0.37920618508E+02  0.11057631421E+02 -0.22227057161E+03  0.22579177116E+03  0.41800000000E+01 0. -1.
        -11    1    4    4    0    0 -0.10934668907E+03  0.36685364258E+02 -0.19749644034E+03  0.22870801977E+03  0.00000000000E+00 0.  1.
         11    1    4    4    0    0 -0.13869024401E+02 -0.78442971217E+01  0.73337539224E+01  0.17540432770E+02  0.00000000000E+00 0. -1.
</event>
<event>
 8    1  0.6615242E-009  0.1071697E+03  0.7561462E-02  0.1265903E+00
          4   -1    0    0  501    0  0.00000000000E+00  0.00000000000E+00  0.31141422466E+03  0.31141422466E+03  0.00000000000E+00 0. -1.
         -4   -1    0    0    0  501 -0.00000000000E+00 -0.00000000000E+00 -0.58399602842E+02  0.58399602842E+02  0.00000000000E+00 0.  1.
         25    2    1    2    0    0 -0.45653787779E+02  0.49601812617E+02  0.19761293432E+03  0.24339829620E+03  0.12508897085E+03 0.  0.
         23    2    1    2    0    0  0.45653787779E+02 -0.49601812617E+02  0.55401687492E+02  0.12641553130E+03  0.91470932123E+02 0.  0.
          5    1    3    3  502    0 -0.67170979569E+02  0.27626848334E+02  0.40530719606E+02  0.83279018228E+02  0.41800000000E+01 0. -1.
         -5    1    3    3    0  502  0.21517191790E+02  0.21974964283E+02  0.15708221472E+03  0.16011927797E+03  0.41800000000E+01 0. -1.
        -11    1    4    4    0    0  0.10318979881E+02 -0.69321818735E+02  0.20618842501E+02  0.73055681261E+02  0.00000000000E+00 0.  1.
         11    1    4    4    0    0  0.35334807898E+02  0.19720006118E+02  0.34782844991E+02  0.53359850038E+02  0.00000000000E+00 0. -1.
</event>
<event>
 8    1  0.6615242E-009  0.1110337E+03  0.7561462E-02  0.1258667E+00
         -2   -1    0    0    0  501 -0.00000000000E+00  0.00000000000E+00  0.39016956725E+02  0.39016956725E+02  0.00000000000E+00 0.  1.
          2   -1    0    0  501    0  0.00000000000E+00 -0.00000000000E+00 -0.40421679093E+03  0.40421679093E+03  0.00000000000E+00 0. -1.
         25    2    1    2    0    0  0.54095320429E+02  0.26583628099E+02 -0.15385937011E+03  0.20725023469E+03  0.12508781329E+03 0.  0.
         23    2    1    2    0    0 -0.54095320429E+02 -0.26583628099E+02 -0.21134046409E+03  0.23598351297E+03  0.85967631427E+02 0.  0.
          5    1    3    3  502    0 -0.14010836835E+02  0.44411564829E+02 -0.11152745989E+02  0.48068147275E+02  0.41800000000E+01 0.  1.
         -5    1    3    3    0  502  0.68106157264E+02 -0.17827936730E+02 -0.14270662412E+03  0.15918208742E+03  0.41800000000E+01 0.  1.
        -11    1    4    4    0    0 -0.34845236399E+02  0.29396403441E+02 -0.99331855053E+02  0.10929389948E+03  0.00000000000E+00 0. -1.
         11    1    4    4    0    0 -0.19250084030E+02 -0.55980031540E+02 -0.11200860904E+03  0.12668961349E+03  0.00000000000E+00 0.  1.
</event>
<event>
 8    1  0.6615242E-009  0.1051487E+03  0.7561462E-02  0.1269827E+00
          3   -1    0    0  501    0  0.00000000000E+00  0.00000000000E+00  0.33848446983E+03  0.33848446983E+03  0.00000000000E+00 0. -1.
         -3   -1    0    0    0  501 -0.00000000000E+00 -0.00000000000E+00 -0.58333363080E+02  0.58333363080E+02  0.00000000000E+00 0.  1.
         25    2    1    2    0    0 -0.15057582334E+02 -0.22124622926E+02  0.32304437836E+02  0.13193230952E+03  0.12508528237E+03 0.  0.
         23    2    1    2    0    0  0.15057582334E+02  0.22124622926E+02  0.24784666892E+03  0.26488552340E+03  0.89555231484E+02 0.  0.
          5    1    3    3  502    0  0.30037280683E+02  0.34014401201E+02  0.38336417633E+02  0.59551415070E+02  0.41800000000E+01 0.  1.
         -5    1    3    3    0  502 -0.45094863017E+02 -0.56139024127E+02 -0.60319797975E+01  0.72380894446E+02  0.41800000000E+01 0.  1.
        -11    1    4    4    0    0 -0.36882555412E+02  0.16327013365E+02  0.12614821423E+03  0.13243967008E+03  0.00000000000E+00 0. -1.
         11    1    4    4    0    0  0.51940137747E+02  0.57976095612E+01  0.12169845469E+03  0.13244585331E+03  0.00000000000E+00 0.  1.
</event>
<event>
 8    1  0.6615242E-009  0.1785676E+03  0.7561462E-02  0.1169197E+00
          1   -1    0    0  501    0  0.00000000000E+00  0.00000000000E+00  0.42079007680E+03  0.42079007680E+03  0.00000000000E+00 0. -1.
         -1   -1    0    0    0  501 -0.00000000000E+00 -0.00000000000E+00 -0.80751265144E+02  0.80751265144E+02  0.00000000000E+00 0.  1.
         25    2    1    2    0    0 -0.64140258950E+02  0.13353635939E+03  0.16974278869E+03  0.25769438134E+03  0.12509135767E+03 0.  0.
         23    2    1    2    0    0  0.64140258950E+02 -0.13353635939E+03  0.17029602297E+03  0.24384696060E+03  0.92274983923E+02 0.  0.
          5    1    3    3  502    0 -0.16915672634E+02 -0.21270432127E+02  0.75284146245E+01  0.28508256529E+02  0.41800000000E+01 0.  1.
         -5    1    3    3    0  502 -0.47224586316E+02  0.15480679152E+03  0.16221437406E+03  0.22918612481E+03  0.41800000000E+01 0.  1.
        -11    1    4    4    0    0  0.90938923098E+01 -0.10562741509E+03  0.73335339664E+02  0.12891051834E+03  0.00000000000E+00 0. -1.
         11    1    4    4    0    0  0.55046366640E+02 -0.27908944304E+02  0.96960683301E+02  0.11493644226E+03  0.00000000000E+00 0.  1.
</event>
<event>
 8    1  0.6615242E-009  0.1140073E+03  0.7561462E-02  0.1253324E+00
          2   -1    0    0  501    0  0.00000000000E+00  0.00000000000E+00  0.93902033793E+03  0.93902033793E+03  0.00000000000E+00 0. -1.
         -2   -1    0    0    0  501 -0.00000000000E+00 -0.00000000000E+00 -0.20975409526E+02  0.20975409526E+02  0.00000000000E+00 0.  1.
         25    2    1    2    0    0 -0.42029183488E+02  0.91848399365E+01  0.76650823171E+03  0.77783823594E+03  0.12508652390E+03 0.  0.
         23    2    1    2    0    0  0.42029183488E+02 -0.91848399365E+01  0.15153669670E+03  0.18215751152E+03  0.91472263599E+02 0.  0.
          5    1    3    3  502    0 -0.43465627547E+01 -0.56085475698E+02  0.29875994601E+03  0.30403856817E+03  0.41800000000E+01 0.  1.
         -5    1    3    3    0  502 -0.37682620733E+02  0.65270315635E+02  0.46774828570E+03  0.47379966777E+03  0.41800000000E+01 0.  1.
        -11    1    4    4    0    0 -0.17919979975E+02 -0.28041285744E+02  0.27743947032E+02  0.43326273615E+02  0.00000000000E+00 0.  1.
         11    1    4    4    0    0  0.59949163463E+02  0.18856445808E+02  0.12379274967E+03  0.13883123791E+03  0.00000000000E+00 0. -1.
</event>
<event>
 8    1  0.6615242E-009  0.9339271E+02  0.7561462E-02  0.1294838E+00
          1   -1    0    0  501    0  0.00000000000E+00  0.00000000000E+00  0.26885095109E+03  0.26885095109E+03  0.00000000000E+00 0. -1.
         -1   -1    0    0    0  501 -0.00000000000E+00 -0.00000000000E+00 -0.75999347198E+02  0.75999347198E+02  0.00000000000E+00 0.  1.
         25    2    1    2    0    0  0.88371307986E+02 -0.70527760965E+01  0.13519335131E+03  0.20441063402E+03  0.12508890971E+03 0.  0.
         23    2    1    2    0    0 -0.88371307986E+02  0.70527760965E+01  0.57658252574E+02  0.14043966427E+03  0.92409931740E+02 0.  0.
          5    1    3    3  502    0  0.81353259597E+02  0.14638003071E+01  0.15854084956E+03  0.17825029856E+03  0.41800000000E+01 0. -1.
         -5    1    3    3    0  502  0.70180483890E+01 -0.85165764036E+01 -0.23347498244E+02  0.26160335455E+02  0.41800000000E+01 0. -1.
        -11    1    4    4    0    0 -0.64654793810E+02 -0.84092088503E+01 -0.11048076733E+02  0.66128792184E+02  0.00000000000E+00 0.  1.
         11    1    4    4    0    0 -0.23716514176E+02  0.15461984947E+02  0.68706329307E+02  0.74310872085E+02  0.00000000000E+00 0. -1.
</event>
<event>
 7    1  0.6615242E-009  0.1111926E+03  0.7561462E-02  0.1258377E+00
         -4   -1    0    0    0  501 -0.00000000000E+00  0.00000000000E+00  0.22236786319E+02  0.22236786319E+02  0.00000000000E+00 0.  1.
          4   -1    0    0  501    0  0.00000000000E+00 -0.00000000000E+00 -0.93783240649E+03  0.93783240649E+03  0.00000000000E+00 0. -1.
         25    2    1    2    0    0 -0.31706480779E+02  0.10549125849E+03 -0.52124757472E+03  0.54724730991E+03  0.12508747943E+03 0.  0.
          5    1    3    3  502    0 -0.35564913393E+01  0.35178459068E+02 -0.21113163539E+02  0.41393365262E+02  0.41800000000E+01 0. -1.
         -5    1    3    3    0  502 -0.28149989440E+02  0.70312799417E+02 -0.50013441118E+03  0.50585394465E+03  0.41800000000E+01 0. -1.
        -11    1    1    2    0    0  0.22124127003E+02 -0.90265339982E+02 -0.37523892986E+03  0.38657672341E+03  0.00000000000E+00 0. -1.
         11    1    1    2    0    0  0.95823537757E+01 -0.15225918504E+02 -0.19109115589E+02  0.26245159492E+02  0.00000000000E+00 0.  1.
</event>
<event>
 8    1  0.6615242E-009  0.1268641E+03  0.7561462E-02  0.1232184E+00
         -3   -1    0    0    0  501 -0.00000000000E+00  0.00000000000E+00  0.41848610893E+03  0.41848610893E+03  0.00000000000E+00 0.  1.
          3   -1    0    0  501    0  0.00000000000E+00 -0.00000000000E+00 -0.59624262488E+02  0.59624262488E+02  0.00000000000E+00 0. -1.
         25    2    1    2    0    0  0.11473438181E+03  0.91656268754E+01  0.19766120690E+03  0.26071443529E+03  0.12511625382E+03 0.  0.
         23    2    1    2    0    0 -0.11473438181E+03 -0.91656268754E+01  0.16120063954E+03  0.21739593613E+03  0.89595534332E+02 0.  0.
          5    1    3    3  502    0  0.30200695053E+02  0.56446137285E+01 -0.13028754766E+02  0.33632789009E+02  0.41800000000E+01 0.  1.
         -5    1    3    3    0  502  0.84533686754E+02  0.35210131469E+01  0.21068996167E+03  0.22708164628E+03  0.41800000000E+01 0.  1.
        -11    1    4    4    0    0 -0.56115489492E+02 -0.42667434721E+02  0.46987221188E+02  0.84718693933E+02  0.00000000000E+00 0.  1.
         11    1    4    4    0    0 -0.58618892314E+02  0.33501807846E+02  0.11421341835E+03  0.13267724219E+03  0.00000000000E+00 0. -1.
</event>
<event>
 8    1  0.6615242E-009  0.8801150E+02  0.7561462E-02  0.1307740E+00
          1   -1    0    0  501    0  0.00000000000E+00  0.00000000000E+00  0.16792832959E+03  0.16792832959E+03  0.00000000000E+00 0. -1.
         -1   -1    0    0    0  501 -0.00000000000E+00 -0.00000000000E+00 -0.10706351369E+03  0.10706351369E+03  0.00000000000E+00 0.  1.
         25    2    1    2    0    0 -0.29628462950E+02 -0.53383347342E+02 -0.12090136248E+02  0.13971839055E+03  0.12508968652E+03 0.  0.
         23    2    1    2    0    0  0.29628462950E+02  0.53383347342E+02  0.72954952155E+02  0.13527345273E+03  0.96170964326E+02 0.  0.
          5    1    3    3  502    0 -0.45313954500E+01  0.18547515856E+02 -0.50606482759E+02  0.54249722454E+02  0.41800000000E+01 0. -1.
         -5    1    3    3    0  502 -0.25097067500E+02 -0.71930863199E+02  0.38516346511E+02  0.85468668096E+02  0.41800000000E+01 0. -1.
        -11    1    4    4    0    0  0.43362867511E+02  0.28911707122E+02  0.88860786228E+02  0.10301681618E+03  0.00000000000E+00 0. -1.
         11    1    4    4    0    0 -0.13734404562E+02  0.24471640220E+02 -0.15905834073E+02  0.32256636546E+02  0.00000000000E+00 0.  1.
</event>
<event>
 8    1  0.6615242E-009  0.7816902E+02  0.7561462E-02  0.1334329E+00
         -1   -1    0    0    0  501 -0.00000000000E+00  0.00000000000E+00  0.97811574654E+01  0.97811574654E+01  0.00000000000E+00 0.  1.
          1   -1    0    0  501    0  0.00000000000E+00 -0.00000000000E+00 -0.15020121215E+04  0.15020121215E+04  0.00000000000E+00 0. -1.
         25    2    1    2    0    0 -0.24414968415E+02 -0.42320497837E+02 -0.97954524554E+03  0.98870885183E+03  0.12509672423E+03 0.  0.
         23    2    1    2    0    0  0.24414968415E+02  0.42320497837E+02 -0.51268571853E+03  0.52308442717E+03  0.91561764625E+02 0.  0.
          5    1    3    3  502    0 -0.27866385396E+02 -0.38723114532E+02 -0.98089591217E+03  0.98206429420E+03  0.41800000000E+01 0. -1.
         -5    1    3    3    0  502  0.34514169807E+01 -0.35973833053E+01  0.13506666267E+01  0.66445576344E+01  0.41800000000E+01 0. -1.
        -11    1    4    4    0    0 -0.14647969002E+02 -0.22153017803E+02 -0.94613804117E+02  0.98270499761E+02  0.00000000000E+00 0.  1.
         11    1    4    4    0    0  0.39062937417E+02  0.64473515640E+02 -0.41807191442E+03  0.42481392741E+03  0.00000000000E+00 0. -1.
</event>
<event>
 8    1  0.6615242E-009  0.1093585E+03  0.7561462E-02  0.1261763E+00
          2   -1    0    0  501    0  0.00000000000E+00  0.00000000000E+00  0.65810625103E+02  0.65810625103E+02  0.00000000000E+00 0. -1.
         -2   -1    0    0    0  501 -0.00000000000E+00 -0.00000000000E+00 -0.21263372564E+03  0.21263372564E+03  0.00000000000E+00 0.  1.
         25    2    1    2    0    0 -0.22618275520E+02  0.36967940959E+02 -0.65102326250E+02  0.14752502700E+03  0.12508839140E+03 0.  0.
         23    2    1    2    0    0  0.22618275520E+02 -0.36967940959E+02 -0.81720774283E+02  0.13091932374E+03  0.92646475013E+02 0.  0.
          5    1    3    3  502    0  0.25910295865E+02  0.63043835758E+02 -0.61924893956E+02  0.92184779385E+02  0.41800000000E+01 0. -1.
         -5    1    3    3    0  502 -0.48528571385E+02 -0.26075894799E+02 -0.31774322936E+01  0.55340247616E+02  0.41800000000E+01 0. -1.
        -11    1    4    4    0    0 -0.32508118287E+02 -0.11855204523E+02 -0.80225994945E+01  0.35520215814E+02  0.00000000000E+00 0. -1.
         11    1    4    4    0    0  0.55126393807E+02 -0.25112736436E+02 -0.73698174789E+02  0.95399107924E+02  0.00000000000E+00 0.  1.
</event>
<event>
 8    1  0.6615242E-009  0.1089460E+03  0.7561462E-02  0.1262534E+00
          2   -1    0    0  501    0  0.00000000000E+00  0.00000000000E+00  0.17493627202E+03  0.17493627202E+03  0.00000000000E+00 0. -1.
         -2   -1    0    0    0  501 -0.00000000000E+00 -0.00000000000E+00 -0.77863833081E+02  0.77863833081E+02  0.00000000000E+00 0.  1.
         25    2    1    2    0    0 -0.36270704446E+02  0.24084768362E+02  0.51536340348E+02  0.14217724440E+03  0.12515084651E+03 0.  0.
         23    2    1    2    0    0  0.36270704446E+02 -0.24084768362E+02  0.45536098594E+02  0.11062286070E+03  0.90929868395E+02 0.  0.
          5    1    3    3  502    0  0.21944033203E+01  0.62449674207E+02  0.60359348369E+02  0.86979885893E+02  0.41800000000E+01 0.  1.
         -5    1    3    3    0  502 -0.38465107766E+02 -0.38364905845E+02 -0.88230080210E+01  0.55197358510E+02  0.41800000000E+01 0.  1.
        -11    1    4    4    0    0  0.18619380117E+02 -0.58883359449E+02  0.26389493741E+02  0.67159040463E+02  0.00000000000E+00 0.  1.
         11    1    4    4    0    0  0.17651324329E+02  0.34798591087E+02  0.19146604853E+02  0.43463820237E+02  0.00000000000E+00 0. -1.
</event>
<event>
 8    1  0.6615242E-009  0.1362660E+03  0.7561462E-02  0.1218443E+00
          3   -1    0    0  501    0  0.00000000000E+00  0.00000000000E+00  0.17540798216E+03  0.17540798216E+03  0.00000000000E+00 0. -1.
         -3   -1    0    0    0  501 -0.00000000000E+00 -0.00000000000E+00 -0.15435023829E+03  0.15435023829E+03  0.00000000000E+00 0.  1.
         25    2    1    2    0    0  0.97159303287E+02  0.51635181151E+02 -0.47921711846E+02  0.17335327163E+03  0.12509494063E+03 0.  0.
         23    2    1    2    0    0 -0.97159303287E+02 -0.51635181151E+02  0.68979455720E+02  0.15640494882E+03  0.87167772461E+02 0.  0.
          5    1    3    3  502    0  0.11000321604E+03  0.73673501469E+02 -0.17784645448E+02  0.13364976009E+03  0.41800000000E+01 0.  1.
         -5    1    3    3    0  502 -0.12843912756E+02 -0.22038320319E+02 -0.30137066398E+02  0.39703511537E+02  0.41800000000E+01 0.  1.
        -11    1    4    4    0    0 -0.13063408904E+02 -0.20978314006E+02  0.61858662548E+02  0.66612584719E+02  0.00000000000E+00 0. -1.
         11    1    4    4    0    0 -0.84095894383E+02 -0.30656867145E+02  0.71207931722E+01  0.89792364100E+02  0.00000000000E+00 0.  1.
</event>
<event>
 8    1  0.6615242E-009  0.1125325E+03  0.7561462E-02  0.1255951E+00
         -2   -1    0    0    0  501 -0.00000000000E+00  0.00000000000E+00  0.19408332697E+03  0.19408332697E+03  0.00000000000E+00 0.  1.
          2   -1    0    0  501    0  0.00000000000E+00 -0.00000000000E+00 -0.66076264686E+02  0.66076264686E+02  0.00000000000E+00 0. -1.
         25    2    1    2    0    0  0.18257015250E+01  0.28389213415E+02  0.78014994977E+02  0.15014278253E+03  0.12508890870E+03 0.  0.
         23    2    1    2    0    0 -0.18257015250E+01 -0.28389213415E+02  0.49992067310E+02  0.11001680913E+03  0.93782785591E+02 0.  0.
          5    1    3    3  502    0  0.59797814233E+02  0.34049533139E+02  0.33119412490E+02  0.76482136331E+02  0.41800000000E+01 0.  1.
         -5    1    3    3    0  502 -0.57972112708E+02 -0.56603197241E+01  0.44895582487E+02  0.73660646196E+02  0.41800000000E+01 0.  1.
        -11    1    4    4    0    0 -0.22499849091E+02  0.29013736615E+02  0.22801402398E+02  0.43219718565E+02  0.00000000000E+00 0.  1.
         11    1    4    4    0    0  0.20674147566E+02 -0.57402950030E+02  0.27190664911E+02  0.66797090566E+02  0.00000000000E+00 0. -1.
</event>
<event>
 8    1  0.6615242E-009  0.1084327E+03  0.7561462E-02  0.1263500E+00
         -1   -1    0    0    0  501 -0.00000000000E+00  0.00000000000E+00  0.77296680233E+02  0.77296680233E+02  0.00000000000E+00 0.  1.
          1   -1    0    0  501    0  0.00000000000E+00 -0.00000000000E+00 -0.23951768789E+03  0.23951768789E+03  0.00000000000E+00 0. -1.
         25    2    1    2    0    0  0.31544549855E+02  0.76782663070E+01 -0.24440601215E+00  0.12921453593E+03  0.12506926946E+03 0.  0.
         23    2    1    2    0    0 -0.31544549855E+02 -0.76782663070E+01 -0.16197660164E+03  0.18759983219E+03  0.88900298976E+02 0.  0.
          5    1    3    3  502    0  0.52839782533E+02  0.52540434817E+02 -0.17172121729E+02  0.76582596414E+02  0.41800000000E+01 0.  1.
         -5    1    3    3    0  502 -0.21295232678E+02 -0.44862168510E+02  0.16927715717E+02  0.52631939519E+02  0.41800000000E+01 0.  1.
        -11    1    4    4    0    0  0.26925690568E+02  0.13612938028E+02 -0.35097879104E+02  0.46283539319E+02  0.00000000000E+00 0. -1.
         11    1    4    4    0    0 -0.58470240422E+02 -0.21291204335E+02 -0.12687872254E+03  0.14131629287E+03  0.00000000000E+00 0.  1.
</event>
<event>
 8    1  0.6615242E-009  0.1117709E+03  0.7561462E-02  0.1257325E+00
          1   -1    0    0  501    0  0.00000000000E+00  0.00000000000E+00  0.60800590328E+03  0.60800590328E+03  0.00000000000E+00 0. -1.
         -1   -1    0    0    0  501 -0.00000000000E+00 -0.00000000000E+00 -0.23221420968E+02  0.23221420968E+02  0.00000000000E+00 0.  1.
         25    2    1    2    0    0  0.46226225357E+02  0.39915196140E+00  0.36409307130E+03  0.38774562939E+03  0.12508351332E+03 0.  0.
         23    2    1    2    0    0 -0.46226225357E+02 -0.39915196140E+00  0.22069141101E+03  0.24348169486E+03  0.91878254267E+02 0.  0.
          5    1    3    3  502    0  0.53269623247E+01  0.58981328764E+02  0.12911748030E+03  0.14211252510E+03  0.41800000000E+01 0.  1.
         -5    1    3    3    0  502  0.40899263032E+02 -0.58582176802E+02  0.23497559100E+03  0.24563310429E+03  0.41800000000E+01 0.  1.
        -11    1    4    4    0    0 -0.55091796301E+01  0.36945979473E+02  0.40892555143E+02  0.55385535345E+02  0.00000000000E+00 0.  1.
         11    1    4    4    0    0 -0.40717045727E+02 -0.37345131434E+02  0.17979885586E+03  0.18809615952E+03  0.00000000000E+00 0. -1.
</event>
<event>
 8    1  0.6615242E-009  0.1032242E+03  0.7561462E-02  0.1273658E+00
          2   -1    0    0  501    0  0.00000000000E+00  0.00000000000E+00  0.85639334856E+03  0.85639334856E+03  0.00000000000E+00 0. -1.
         -2   -1    0    0    0  501 -0.00000000000E+00 -0.00000000000E+00 -0.16147917782E+02  0.16147917782E+02  0.00000000000E+00 0.  1.
         25    2    1    2    0    0  0.30598518296E+02 -0.58015554041E+01  0.59595429376E+03  0.60973712242E+03  0.12509160979E+03 0.  0.
         23    2    1    2    0    0 -0.30598518296E+02  0.58015554041E+01  0.24429113702E+03  0.26280414392E+03  0.91749283755E+02 0.  0.
          5    1    3    3  502    0 -0.43041369970E+02 -0.19225645220E+02  0.14319055794E+03  0.15080846543E+03  0.41800000000E+01 0. -1.
         -5    1    3    3    0  502  0.73639888266E+02  0.13424089816E+02  0.45276373582E+03  0.45892865699E+03  0.41800000000E+01 0. -1.
        -11    1    4    4    0    0  0.25945763196E+02 -0.54211999882E+01  0.26377729141E+02  0.37394606988E+02  0.00000000000E+00 0.  1.
         11    1    4    4    0    0 -0.56544281491E+02  0.11222755392E+02  0.21791340788E+03  0.22540953693E+03  0.00000000000E+00 0. -1.
</event>
<event>
 8    1  0.6615242E-009  0.1148334E+03  0.7561462E-02  0.1251872E+00
         -2   -1    0    0    0  501 -0.00000000000E+00  0.00000000000E+00  0.17532550896E+02  0.17532550896E+02  0.00000000000E+00 0.  1.
          2   -1    0    0  501    0  0.00000000000E+00 -0.00000000000E+00 -0.10319927462E+04  0.10319927462E+04  0.00000000000E+00 0. -1.
         25    2    1    2    0    0  0.16721162594E+02 -0.95353496727E+01 -0.76027426875E+03  0.77073665854E+03  0.12509001928E+03 0.  0.
         23    2    1    2    0    0 -0.16721162594E+02  0.95353496727E+01 -0.25418592653E+03  0.27878863853E+03  0.11288090873E+03 0.  0.
          5    1    3    3  502    0  0.53769486959E+02  0.33228604163E+02 -0.27740345571E+03  0.28454428039E+03  0.41800000000E+01 0. -1.
         -5    1    3    3    0  502 -0.37048324365E+02 -0.42763953836E+02 -0.48287081304E+03  0.48619237815E+03  0.41800000000E+01 0. -1.
        -11    1    4    4    0    0 -0.15553475693E+02 -0.48810275051E+02 -0.15988181186E+03  0.16788849669E+03  0.00000000000E+00 0.  1.
         11    1    4    4    0    0 -0.11676869008E+01  0.58345624724E+02 -0.94304114670E+02  0.11090014184E+03  0.00000000000E+00 0. -1.
</event>
<event>
 8    1  0.6615242E-009  0.1940089E+03  0.7561462E-02  0.1154894E+00
         -1   -1    0    0    0  501 -0.00000000000E+00  0.00000000000E+00  0.39531148732E+03  0.39531148732E+03  0.00000000000E+00 0. -1.
          1   -1    0    0  501    0  0.00000000000E+00 -0.00000000000E+00 -0.12269206427E+03  0.12269206427E+03  0.00000000000E+00 0.  1.
         25    2    1    2    0    0 -0.15233339100E+03  0.11359790667E+03  0.10302227565E+03  0.24974340331E+03  0.12509289271E+03 0.  0.
         23    2    1    2    0    0  0.15233339100E+03 -0.11359790667E+03  0.16959714740E+03  0.26826014827E+03  0.84204324891E+02 0.  0.
          5    1    3    3  502    0 -0.95678984688E+02  0.10213296232E+03  0.10286736046E+02  0.14038838784E+03  0.41800000000E+01 0. -1.
         -5    1    3    3    0  502 -0.56654406312E+02  0.11464944346E+02  0.92735539602E+02  0.10935501547E+03  0.41800000000E+01 0. -1.
        -11    1    4    4    0    0  0.10779013134E+02 -0.70376007448E+01 -0.97531518748E+01  0.16150508348E+02  0.00000000000E+00 0.  1.
         11    1    4    4    0    0  0.14155437787E+03 -0.10656030592E+03  0.17935029928E+03  0.25210963992E+03  0.00000000000E+00 0. -1.
</event>
<event>
 8    1  0.6615242E-009  0.1217250E+03  0.7561462E-02  0.1240278E+00
         -2   -1    0    0    0  501 -0.00000000000E+00  0.00000000000E+00  0.21213294165E+03  0.21213294165E+03  0.00000000000E+00 0.  1.
          2   -1    0    0  501    0  0.00000000000E+00 -0.00000000000E+00 -0.12125138290E+03  0.12125138290E+03  0.00000000000E+00 0. -1.
         25    2    1    2    0    0 -0.87723158329E+02 -0.42757110643E+02  0.11814413841E+03  0.19781034458E+03  0.12508945585E+03 0.  0.
         23    2    1    2    0    0  0.87723158329E+02  0.42757110643E+02 -0.27262579662E+02  0.13557397996E+03  0.90075150709E+02 0.  0.
          5    1    3    3  502    0 -0.10058213435E+02 -0.38171681169E+02 -0.15905316211E+02  0.42763259751E+02  0.41800000000E+01 0.  1.
         -5    1    3    3    0  502 -0.77664944894E+02 -0.45854294734E+01  0.13404945462E+03  0.15504708483E+03  0.41800000000E+01 0.  1.
        -11    1    4    4    0    0 -0.11466901736E+02  0.21549349517E+02  0.11505275389E+02  0.26985841877E+02  0.00000000000E+00 0.  1.
         11    1    4    4    0    0  0.99190060064E+02  0.21207761125E+02 -0.38767855051E+02  0.10858813809E+03  0.00000000000E+00 0. -1.
</event>
<event>
 8    1  0.6615242E-009  0.7336964E+02  0.7561462E-02  0.1348995E+00
          2   -1    0    0  501    0  0.00000000000E+00  0.00000000000E+00  0.41257687093E+03  0.41257687093E+03  0.00000000000E+00 0. -1.
         -2   -1    0    0    0  501 -0.00000000000E+00 -0.00000000000E+00 -0.35016977794E+02  0.35016977794E+02  0.00000000000E+00 0.  1.
         25    2    1    2    0    0 -0.31867885346E+01 -0.45810185236E+01  0.30667655732E+03  0.33125351107E+03  0.12508891411E+03 0.  0.
         23    2    1    2    0    0  0.31867885346E+01  0.45810185236E+01  0.70883335818E+02  0.11634033766E+03  0.92084121962E+02 0.  0.
          5    1    3    3  502    0 -0.26129948604E+02 -0.24907350589E+02  0.29645319371E+03  0.29867225983E+03  0.41800000000E+01 0. -1.
         -5    1    3    3    0  502  0.22943160069E+02  0.20326332065E+02  0.10223363609E+02  0.32581251245E+02  0.41800000000E+01 0. -1.
        -11    1    4    4    0    0  0.25868671654E+02  0.33743483661E+02  0.66782178222E+02  0.79168618725E+02  0.00000000000E+00 0. -1.
         11    1    4    4    0    0 -0.22681883120E+02 -0.29162465137E+02  0.41011575963E+01  0.37171718932E+02  0.00000000000E+00 0.  1.
</event>
<event>
 8    1  0.6615242E-009  0.1060638E+03  0.7561462E-02  0.1268038E+00
         -2   -1    0    0    0  501 -0.00000000000E+00  0.00000000000E+00  0.22529790578E+02  0.22529790578E+02  0.00000000000E+00 0.  1.
          2   -1    0    0  501    0  0.00000000000E+00 -0.00000000000E+00 -0.67583636368E+03  0.67583636368E+03  0.00000000000E+00 0. -1.
         25    2    1    2    0    0 -0.27660552713E+02  0.51293106684E+02 -0.34086701066E+03  0.36774061203E+03  0.12508696898E+03 0.  0.
         23    2    1    2    0    0  0.27660552713E+02 -0.51293106684E+02 -0.31243956244E+03  0.33062554223E+03  0.91097091205E+02 0.  0.
          5    1    3    3  502    0  0.32185604244E+02  0.66339395770E+02 -0.21826185856E+03  0.23041818473E+03  0.41800000000E+01 0. -1.
         -5    1    3    3    0  502 -0.59846156958E+02 -0.15046289087E+02 -0.12260515209E+03  0.13732242729E+03  0.41800000000E+01 0. -1.
        -11    1    4    4    0    0  0.15448391771E+02 -0.59655617234E+02 -0.30944940203E+03  0.31552555823E+03  0.00000000000E+00 0. -1.
         11    1    4    4    0    0  0.12212160943E+02  0.83625105504E+01 -0.29901604088E+01  0.15099984002E+02  0.00000000000E+00 0.  1.
</event>
<event>
 8    1  0.6615242E-009  0.5882072E+02  0.7561462E-02  0.1402848E+00
          2   -1    0    0  501    0  0.00000000000E+00  0.00000000000E+00  0.29206292817E+03  0.29206292817E+03  0.00000000000E+00 0. -1.
         -2   -1    0    0    0  501 -0.00000000000E+00 -0.00000000000E+00 -0.43258911899E+02  0.43258911899E+02  0.00000000000E+00 0.  1.
         25    2    1    2    0    0  0.18812421478E+02 -0.22069826546E+01  0.18248278505E+03  0.22205019175E+03  0.12509013887E+03 0.  0.
         23    2    1    2    0    0 -0.18812421478E+02  0.22069826546E+01  0.66321231222E+02  0.11327164832E+03  0.89850891084E+02 0.  0.
          5    1    3    3  502    0 -0.25243694811E+02 -0.56617199675E+01  0.17510192133E+03  0.17705212355E+03  0.41800000000E+01 0. -1.
         -5    1    3    3    0  502  0.44056116289E+02  0.34547373129E+01  0.73808637232E+01  0.44998068200E+02  0.41800000000E+01 0. -1.
        -11    1    4    4    0    0  0.13488808937E+02  0.55225706773E+01 -0.17855517657E+02  0.23049213961E+02  0.00000000000E+00 0.  1.
         11    1    4    4    0    0 -0.32301230415E+02 -0.33155880227E+01  0.84176748879E+02  0.90222434361E+02  0.00000000000E+00 0. -1.
</event>
<event>
 8    1  0.6615242E-009  0.1229392E+03  0.7561462E-02  0.1238326E+00
          1   -1    0    0  501    0  0.00000000000E+00  0.00000000000E+00  0.71064251265E+03  0.71064251265E+03  0.00000000000E+00 0. -1.
         -1   -1    0    0    0  501 -0.00000000000E+00 -0.00000000000E+00 -0.26891338063E+02  0.26891338063E+02  0.00000000000E+00 0.  1.
         25    2    1    2    0    0  0.82326942441E+02  0.10005312973E+01  0.43492573084E+03  0.45998493491E+03  0.12508805889E+03 0.  0.
         23    2    1    2    0    0 -0.82326942441E+02 -0.10005312973E+01  0.24882544374E+03  0.27754891581E+03  0.91326735935E+02 0.  0.
          5    1    3    3  502    0  0.23598359982E+02 -0.58166983303E+02  0.23634564698E+03  0.24457517819E+03  0.41800000000E+01 0. -1.
         -5    1    3    3    0  502  0.58728582458E+02  0.59167514600E+02  0.19858008386E+03  0.21540975672E+03  0.41800000000E+01 0. -1.
        -11    1    4    4    0    0 -0.12783699616E+02 -0.23206623421E+02  0.10854166987E+02  0.28631857912E+02  0.00000000000E+00 0. -1.
         11    1    4    4    0    0 -0.69543242825E+02  0.22206092124E+02  0.23797127676E+03  0.24891705789E+03  0.00000000000E+00 0.  1.
</event>
<event>
 8    1  0.6615242E-009  0.1337593E+03  0.7561462E-02  0.1221982E+00
          1   -1    0    0  501    0  0.00000000000E+00  0.00000000000E+00  0.92971993747E+03  0.92971993747E+03  0.00000000000E+00 0. -1.
         -1   -1    0    0    0  501 -0.00000000000E+00 -0.00000000000E+00 -0.32741376567E+02  0.32741376567E+02  0.00000000000E+00 0.  1.
         25    2    1    2    0    0 -0.18339629613E+00 -0.10584071738E+03  0.71403567606E+03  0.73259596543E+03  0.12509041049E+03 0.  0.
         23    2    1    2    0    0  0.18339629613E+00  0.10584071738E+03  0.18294288484E+03  0.22986534860E+03  0.90375263665E+02 0.  0.
          5    1    3    3  502    0  0.56179947495E+02 -0.54960682228E+02  0.48289699718E+03  0.48926868424E+03  0.41800000000E+01 0.  1.
         -5    1    3    3    0  502 -0.56363343792E+02 -0.50880035154E+02  0.23113867887E+03  0.24332728119E+03  0.41800000000E+01 0.  1.
        -11    1    4    4    0    0  0.19548256799E+02  0.53642894558E+02  0.15958362352E+03  0.16948931346E+03  0.00000000000E+00 0. -1.
         11    1    4    4    0    0 -0.19364860503E+02  0.52197822824E+02  0.23359261319E+02  0.60376035140E+02  0.00000000000E+00 0.  1.
</event>
<event>
 8    1  0.6615242E-009  0.1268190E+03  0.7561462E-02  0.1232254E+00
         -1   -1    0    0    0  501 -0.00000000000E+00  0.00000000000E+00  0.71801472394E+02  0.71801472394E+02  0.00000000000E+00 0.  1.
          1   -1    0    0  501    0  0.00000000000E+00 -0.00000000000E+00 -0.34751966872E+03  0.34751966872E+03  0.00000000000E+00 0. -1.
         25    2    1    2    0    0 -0.39846217318E+02  0.75070719304E+02 -0.23760144972E+03  0.28164698689E+03  0.12508893790E+03 0.  0.
         23    2    1    2    0    0  0.39846217318E+02 -0.75070719304E+02 -0.38116746608E+02  0.13767415422E+03  0.10138023692E+03 0.  0.
          5    1    3    3  502    0  0.21558958997E+02  0.79512201613E+02 -0.92321634923E+02  0.12380523250E+03  0.41800000000E+01 0.  1.
         -5    1    3    3    0  502 -0.61405176315E+02 -0.44414823094E+01 -0.14527981480E+03  0.15784175440E+03  0.41800000000E+01 0.  1.
        -11    1    4    4    0    0  0.56626651279E+02 -0.73216077405E+02 -0.59797944365E+02  0.11019512592E+03  0.00000000000E+00 0. -1.
         11    1    4    4    0    0 -0.16780433961E+02 -0.18546418993E+01  0.21681197757E+02  0.27479028307E+02  0.00000000000E+00 0.  1.
</event>
<event>
 8    1  0.6615242E-009  0.1237362E+03  0.7561462E-02  0.1237058E+00
         -3   -1    0    0    0  501 -0.00000000000E+00  0.00000000000E+00  0.21425377709E+03  0.21425377709E+03  0.00000000000E+00 0.  1.
          3   -1    0    0  501    0  0.00000000000E+00 -0.00000000000E+00 -0.82471988831E+02  0.82471988831E+02  0.00000000000E+00 0. -1.
         25    2    1    2    0    0  0.43628604300E+02  0.48844375932E+02  0.28362179610E+02  0.14401736650E+03  0.12508940982E+03 0.  0.
         23    2    1    2    0    0 -0.43628604300E+02 -0.48844375932E+02  0.10341960865E+03  0.15270839942E+03  0.91296284846E+02 0.  0.
          5    1    3    3  502    0 -0.34137823929E+02  0.52827603196E+02  0.16295063627E+02  0.65108741200E+02  0.41800000000E+01 0.  1.
         -5    1    3    3    0  502  0.77766428229E+02 -0.39832272640E+01  0.12067115982E+02  0.78908625302E+02  0.41800000000E+01 0.  1.
        -11    1    4    4    0    0  0.64157812407E+01  0.20192795581E+02  0.43828632397E+02  0.48681210544E+02  0.00000000000E+00 0. -1.
         11    1    4    4    0    0 -0.50044385541E+02 -0.69037171513E+02  0.59590976255E+02  0.10402718888E+03  0.00000000000E+00 0.  1.
</event>
<event>
 8    1  0.6615242E-009  0.3407269E+03  0.7561462E-02  0.1066487E+00
          1   -1    0    0  501    0  0.00000000000E+00  0.00000000000E+00  0.11350270294E+04  0.11350270294E+04  0.00000000000E+00 0. -1.
         -1   -1    0    0    0  501 -0.00000000000E+00 -0.00000000000E+00 -0.10711983756E+03  0.10711983756E+03  0.00000000000E+00 0.  1.
         25    2    1    2    0    0  0.23030403119E+03 -0.22761307532E+03  0.39741720492E+03  0.52766970442E+03  0.12508886184E+03 0.  0.
         23    2    1    2    0    0 -0.23030403119E+03  0.22761307532E+03  0.63048998695E+03  0.71447716256E+03  0.90068492506E+02 0.  0.
          5    1    3    3  502    0  0.12433007024E+03 -0.38538649438E+02  0.14296740749E+03  0.19339169029E+03  0.41800000000E+01 0.  1.
         -5    1    3    3    0  502  0.10597396095E+03 -0.18907442589E+03  0.25444979742E+03  0.33427801413E+03  0.41800000000E+01 0.  1.
        -11    1    4    4    0    0 -0.18661227689E+03  0.12983063597E+03  0.46060308091E+03  0.51364903783E+03  0.00000000000E+00 0. -1.
         11    1    4    4    0    0 -0.43691754299E+02  0.97782439354E+02  0.16988690604E+03  0.20082812473E+03  0.00000000000E+00 0.  1.
</event>
<event>
 8    1  0.6615242E-009  0.1675203E+03  0.7561462E-02  0.1180459E+00
         -2   -1    0    0    0  501 -0.00000000000E+00  0.00000000000E+00  0.18722441170E+02  0.18722441170E+02  0.00000000000E+00 0.  1.
          2   -1    0    0  501    0  0.00000000000E+00 -0.00000000000E+00 -0.15330917984E+04  0.15330917984E+04  0.00000000000E+00 0. -1.
         25    2    1    2    0    0 -0.87103560162E+02  0.93716320588E+02 -0.87788466147E+03  0.89593469876E+03  0.12509087363E+03 0.  0.
         23    2    1    2    0    0  0.87103560162E+02 -0.93716320588E+02 -0.63648469576E+03  0.65587954080E+03  0.93249263661E+02 0.  0.
          5    1    3    3  502    0 -0.11308683714E+03  0.99249140521E+02 -0.78177098301E+03  0.79612961690E+03  0.41800000000E+01 0.  1.
         -5    1    3    3    0  502  0.25983276975E+02 -0.55328199332E+01 -0.96113678457E+02  0.99805081861E+02  0.41800000000E+01 0.  1.
        -11    1    4    4    0    0  0.10501032352E+03 -0.92048859453E+02 -0.54211111066E+03  0.55980766061E+03  0.00000000000E+00 0.  1.
         11    1    4    4    0    0 -0.17906763356E+02 -0.16674611352E+01 -0.94373585095E+02  0.96071880195E+02  0.00000000000E+00 0. -1.
</event>
<event>
 8    1  0.6615242E-009  0.9032416E+02  0.7561462E-02  0.1302069E+00
         -1   -1    0    0    0  501 -0.00000000000E+00  0.00000000000E+00  0.36413432963E+02  0.36413432963E+02  0.00000000000E+00 0.  1.
          1   -1    0    0  501    0  0.00000000000E+00 -0.00000000000E+00 -0.36765689592E+03  0.36765689592E+03  0.00000000000E+00 0. -1.
         25    2    1    2    0    0  0.12304330778E+02  0.35278811015E+02 -0.16556412111E+03  0.21084271182E+03  0.12508868800E+03 0.  0.
         23    2    1    2    0    0 -0.12304330778E+02 -0.35278811015E+02 -0.16567934184E+03  0.19322761706E+03  0.92148123246E+02 0.  0.
          5    1    3    3  502    0 -0.55785051671E+02  0.10160742628E+02 -0.59902404033E+02  0.82589243184E+02  0.41800000000E+01 0. -1.
         -5    1    3    3    0  502  0.68089382450E+02  0.25118068388E+02 -0.10566171708E+03  0.12825346864E+03  0.41800000000E+01 0. -1.
        -11    1    4    4    0    0  0.12228566340E+02 -0.14312936922E+02  0.50371580438E+01  0.19487713032E+02  0.00000000000E+00 0.  1.
         11    1    4    4    0    0 -0.24532897118E+02 -0.20965874094E+02 -0.17071649989E+03  0.17373990403E+03  0.00000000000E+00 0. -1.
</event>
<event>
 8    1  0.6615242E-009  0.1026560E+03  0.7561462E-02  0.1274808E+00
          1   -1    0    0  501    0  0.00000000000E+00  0.00000000000E+00  0.29612461326E+03  0.29612461326E+03  0.00000000000E+00 0. -1.
         -1   -1    0    0    0  501 -0.00000000000E+00 -0.00000000000E+00 -0.45994844996E+02  0.45994844996E+02  0.00000000000E+00 0.  1.
         25    2    1    2    0    0  0.28219771269E+02 -0.10968420270E+02  0.10264950108E+03  0.16462392928E+03  0.12508979289E+03 0.  0.
         23    2    1    2    0    0 -0.28219771269E+02  0.10968420270E+02  0.14748026718E+03  0.17749552898E+03  0.94008360613E+02 0.  0.
          5    1    3    3  502    0  0.78398701804E+01  0.45578232443E+02  0.92529246984E+02  0.10352764261E+03  0.41800000000E+01 0. -1.
         -5    1    3    3    0  502  0.20379901088E+02 -0.56546652713E+02  0.10120254096E+02  0.61096286666E+02  0.41800000000E+01 0. -1.
        -11    1    4    4    0    0  0.34490726850E+02 -0.21427988652E+01  0.47233337820E+02  0.58525123043E+02  0.00000000000E+00 0. -1.
         11    1    4    4    0    0 -0.62710498119E+02  0.13111219135E+02  0.10024692936E+03  0.11897040594E+03  0.00000000000E+00 0.  1.
</event>
<event>
 7    1  0.6615242E-009  0.7822113E+02  0.7561462E-02  0.1334177E+00
         -2   -1    0    0    0  501 -0.00000000000E+00  0.00000000000E+00  0.81714843813E+02  0.81714843813E+02  0.00000000000E+00 0.  1.
          2   -1    0    0  501    0  0.00000000000E+00 -0.00000000000E+00 -0.16971400884E+03  0.16971400884E+03  0.00000000000E+00 0. -1.
         23    2    1    2    0    0  0.28385720354E+02  0.27109959637E+02 -0.63822543393E+02  0.11818286319E+03  0.91395695060E+02 0.  0.
          5    1    1    2  502    0  0.20937196346E+01  0.28124221560E+02 -0.55719775368E+02  0.62590105187E+02  0.41800000000E+01 0. -1.
         -5    1    1    2    0  502 -0.30479439989E+02 -0.55234181197E+02  0.31543153737E+02  0.70655884272E+02  0.41800000000E+01 0. -1.
        -11    1    3    3    0    0  0.62276931494E+01 -0.15487218881E+02 -0.67968833872E+02  0.69988573986E+02  0.00000000000E+00 0. -1.
         11    1    3    3    0    0  0.22158027205E+02  0.42597178518E+02  0.41462904797E+01  0.48194289205E+02  0.00000000000E+00 0.  1.
</event>
<event>
 8    1  0.6615242E-009  0.1060330E+03  0.7561462E-02  0.1268098E+00
         -2   -1    0    0    0  501 -0.00000000000E+00  0.00000000000E+00  0.62634908784E+02  0.62634908784E+02  0.00000000000E+00 0.  1.
          2   -1    0    0  501    0  0.00000000000E+00 -0.00000000000E+00 -0.21471536185E+03  0.21471536185E+03  0.00000000000E+00 0. -1.
         25    2    1    2    0    0  0.35572165090E+02 -0.20134554377E+02 -0.93213383523E+02  0.16126163625E+03  0.12508317732E+03 0.  0.
         23    2    1    2    0    0 -0.35572165090E+02  0.20134554377E+02 -0.58867069539E+02  0.11608863438E+03  0.91326118647E+02 0.  0.
          5    1    3    3  502    0 -0.51741227517E+01 -0.56767112492E+02 -0.50542973011E+01  0.57378523230E+02  0.41800000000E+01 0.  1.
         -5    1    3    3    0  502  0.40746287842E+02  0.36632558114E+02 -0.88159086222E+02  0.10388311302E+03  0.41800000000E+01 0.  1.
        -11    1    4    4    0    0  0.30002360686E+02  0.16601868796E+02 -0.17783122227E+02  0.38626456353E+02  0.00000000000E+00 0.  1.
         11    1    4    4    0    0 -0.65574525776E+02  0.35326855816E+01 -0.41083947311E+02  0.77462178028E+02  0.00000000000E+00 0. -1.
</event>
<event>
 8    1  0.6615242E-009  0.1294358E+03  0.7561462E-02  0.1228295E+00
          2   -1    0    0  501    0  0.00000000000E+00  0.00000000000E+00  0.71486152239E+02  0.71486152239E+02  0.00000000000E+00 0. -1.
         -2   -1    0    0    0  501 -0.00000000000E+00 -0.00000000000E+00 -0.27327082891E+03  0.27327082891E+03  0.00000000000E+00 0.  1.
         25    2    1    2    0    0  0.71920607823E+02  0.47289821843E+02 -0.13772586689E+03  0.20499511853E+03  0.12508270517E+03 0.  0.
         23    2    1    2    0    0 -0.71920607823E+02 -0.47289821843E+02 -0.64058809777E+02  0.13976186262E+03  0.89559734547E+02 0.  0.
          5    1    3    3  502    0  0.10772129644E+03  0.38937863804E+02 -0.10875038872E+03  0.15800048858E+03  0.41800000000E+01 0. -1.
         -5    1    3    3    0  502 -0.35800688622E+02  0.83519580390E+01 -0.28975478169E+02  0.46994629949E+02  0.41800000000E+01 0. -1.
        -11    1    4    4    0    0 -0.36114569229E+02 -0.59347310978E+02 -0.73170061267E+02  0.10089709261E+03  0.00000000000E+00 0.  1.
         11    1    4    4    0    0 -0.35806038593E+02  0.12057489135E+02  0.91112514898E+01  0.38864770007E+02  0.00000000000E+00 0. -1.
</event>
<event>
 8    1  0.6615242E-009  0.1224642E+03  0.7561462E-02  0.1239086E+00
         -2   -1    0    0    0  501 -0.00000000000E+00  0.00000000000E+00  0.17144494884E+03  0.17144494884E+03  0.00000000000E+00 0.  1.
          2   -1    0    0  501    0  0.00000000000E+00 -0.00000000000E+00 -0.11382984126E+03  0.11382984126E+03  0.00000000000E+00 0. -1.
         25    2    1    2    0    0  0.82643911986E+02 -0.30842647532E+02  0.32745085926E+02  0.15652089317E+03  0.12508103074E+03 0.  0.
         23    2    1    2    0    0 -0.82643911986E+02  0.30842647532E+02  0.24870021661E+02  0.12875389693E+03  0.90430984191E+02 0.  0.
          5    1    3    3  502    0  0.10160846484E+03 -0.50003747855E+02 -0.74465353277E+00  0.11332555685E+03  0.41800000000E+01 0.  1.
         -5    1    3    3    0  502 -0.18964552856E+02  0.19161100323E+02  0.33489739459E+02  0.43195336318E+02  0.41800000000E+01 0.  1.
        -11    1    4    4    0    0  0.56594452292E+01  0.13079776775E+02 -0.22767480852E+02  0.26860157579E+02  0.00000000000E+00 0. -1.
         11    1    4    4    0    0 -0.88303357215E+02  0.17762870757E+02  0.47637502513E+02  0.10189373935E+03  0.00000000000E+00 0.  1.
</event>
<event>
 8    1  0.6615242E-009  0.6446590E+02  0.7561462E-02  0.1379992E+00
         -1   -1    0    0    0  501 -0.00000000000E+00  0.00000000000E+00  0.37225119191E+02  0.37225119191E+02  0.00000000000E+00 0.  1.
          1   -1    0    0  501    0  0.00000000000E+00 -0.00000000000E+00 -0.36525138267E+03  0.36525138267E+03  0.00000000000E+00 0. -1.
         25    2    1    2    0    0 -0.31503914981E+02 -0.15563117263E+02 -0.13572688011E+03  0.18789318974E+03  0.12508939798E+03 0.  0.
         23    2    1    2    0    0  0.31503914981E+02  0.15563117263E+02 -0.19229938337E+03  0.21458331212E+03  0.88499930619E+02 0.  0.
          5    1    3    3  502    0 -0.39950060694E+02 -0.30439743990E+02 -0.15428580758E+03  0.16230886663E+03  0.41800000000E+01 0.  1.
         -5    1    3    3    0  502  0.84461457136E+01  0.14876626727E+02  0.18558927473E+02  0.25584323113E+02  0.41800000000E+01 0.  1.
        -11    1    4    4    0    0  0.17254811169E+02 -0.17710434654E+02 -0.68822536142E+01  0.25666192139E+02  0.00000000000E+00 0.  1.
         11    1    4    4    0    0  0.14249103812E+02  0.33273551917E+02 -0.18541712976E+03  0.18891711999E+03  0.00000000000E+00 0. -1.
</event>
<event>
 8    1  0.6615242E-009  0.1278037E+03  0.7561462E-02  0.1230752E+00
         -2   -1    0    0    0  501 -0.00000000000E+00  0.00000000000E+00  0.87856849299E+02  0.87856849299E+02  0.00000000000E+00 0.  1.
          2   -1    0    0  501    0  0.00000000000E+00 -0.00000000000E+00 -0.27712864002E+03  0.27712864002E+03  0.00000000000E+00 0. -1.
         25    2    1    2    0    0  0.58197265037E+02 -0.74613891462E+02 -0.17615231399E+03  0.23586392665E+03  0.12509196502E+03 0.  0.
         23    2    1    2    0    0 -0.58197265037E+02  0.74613891462E+02 -0.13119476724E+02  0.12912156266E+03  0.86868307331E+02 0.  0.
          5    1    3    3  502    0 -0.37396536604E+02 -0.26435922744E+02 -0.78115507183E+02  0.90646918446E+02  0.41800000000E+01 0. -1.
         -5    1    3    3    0  502  0.95593801641E+02 -0.48177968719E+02 -0.98036806810E+02  0.14521700820E+03  0.41800000000E+01 0. -1.
        -11    1    4    4    0    0 -0.41430382747E+02  0.21265546086E+02  0.32636250853E+02  0.56866729593E+02  0.00000000000E+00 0.  1.
         11    1    4    4    0    0 -0.16766882289E+02  0.53348345376E+02 -0.45755727577E+02  0.72254833071E+02  0.00000000000E+00 0. -1.
</event>
<event>
 7    1  0.2182642E-008  0.4168690E+02  0.7561462E-02  0.1496152E+00
         -2   -1    0    0    0  501 -0.00000000000E+00  0.00000000000E+00  0.21298958972E+02  0.21298958972E+02  0.00000000000E+00 0.  1.
          2   -1    0    0  501    0  0.00000000000E+00 -0.00000000000E+00 -0.32926214430E+03  0.32926214430E+03  0.00000000000E+00 0. -1.
         25    2    1    2    0    0  0.92959335455E+01  0.30911515821E+01 -0.24390259937E+03  0.27428477324E+03  0.12509072407E+03 0.  0.
          5    1    3    3  502    0  0.28171719091E+02  0.15748495505E+02 -0.24858579730E+03  0.25070706389E+03  0.41800000000E+01 0. -1.
         -5    1    3    3    0  502 -0.18875785545E+02 -0.12657343923E+02  0.46831979240E+01  0.23577709344E+02  0.41800000000E+01 0. -1.
        -11    1    1    2    0    0 -0.88319033850E+01 -0.14135321194E+02 -0.63004706242E+02  0.65172101634E+02  0.00000000000E+00 0. -1.
         11    1    1    2    0    0 -0.46403016046E+00  0.11044169612E+02 -0.10558797103E+01  0.11104228401E+02  0.00000000000E+00 0.  1.
</event>
<event>
 8    1  0.6615242E-009  0.9372207E+02  0.7561462E-02  0.1294081E+00
         -1   -1    0    0    0  501 -0.00000000000E+00  0.00000000000E+00  0.51492350700E+02  0.51492350700E+02  0.00000000000E+00 0.  1.
          1   -1    0    0  501    0  0.00000000000E+00 -0.00000000000E+00 -0.31526302115E+03  0.31526302115E+03  0.00000000000E+00 0. -1.
         25    2    1    2    0    0 -0.21120384585E+01 -0.37506826854E+02 -0.71113671453E+02  0.14871898895E+03  0.12509580584E+03 0.  0.
         23    2    1    2    0    0  0.21120384585E+01  0.37506826854E+02 -0.19265699900E+03  0.21803638290E+03  0.94931144730E+02 0.  0.
          5    1    3    3  502    0  0.41212152908E+02  0.26933200815E+02 -0.11486340875E+02  0.50727184824E+02  0.41800000000E+01 0. -1.
         -5    1    3    3    0  502 -0.43324191366E+02 -0.64440027669E+02 -0.59627330578E+02  0.97991804124E+02  0.41800000000E+01 0. -1.
        -11    1    4    4    0    0  0.49173352686E+01  0.48590676754E+02 -0.19903840772E+03  0.20494272810E+03  0.00000000000E+00 0. -1.
         11    1    4    4    0    0 -0.28052968101E+01 -0.11083849899E+02  0.63814087233E+01  0.13093654802E+02  0.00000000000E+00 0.  1.
</event>
<event>
 8    1  0.6615242E-009  0.1141055E+03  0.7561462E-02  0.1253151E+00
         -2   -1    0    0    0  501 -0.00000000000E+00  0.00000000000E+00  0.63383575761E+03  0.63383575761E+03  0.00000000000E+00 0.  1.
          2   -1    0    0  501    0  0.00000000000E+00 -0.00000000000E+00 -0.29978740306E+02  0.29978740306E+02  0.00000000000E+00 0. -1.
         25    2    1    2    0    0 -0.37447940107E+02  0.16159205491E+02  0.41512293452E+03  0.43547365115E+03  0.12508709743E+03 0.  0.
         23    2    1    2    0    0  0.37447940107E+02 -0.16159205491E+02  0.18873408279E+03  0.22834084677E+03  0.12188322344E+03 0.  0.
          5    1    3    3  502    0  0.19652471744E+02 -0.44026773882E+02  0.14448474391E+03  0.15237417788E+03  0.41800000000E+01 0. -1.
         -5    1    3    3    0  502 -0.57100411851E+02  0.60185979373E+02  0.27063819061E+03  0.28309947327E+03  0.41800000000E+01 0. -1.
        -11    1    4    4    0    0  0.16494441230E+02 -0.52373237056E+02  0.26821431582E+02  0.61109833442E+02  0.00000000000E+00 0. -1.
         11    1    4    4    0    0  0.20953498877E+02  0.36214031564E+02  0.16191265121E+03  0.16723101333E+03  0.00000000000E+00 0.  1.
</event>
<event>
 8    1  0.6615242E-009  0.8965830E+02  0.7561462E-02  0.1303681E+00
          3   -1    0    0  501    0  0.00000000000E+00  0.00000000000E+00  0.45347034213E+02  0.45347034213E+02  0.00000000000E+00 0. -1.
         -3   -1    0    0    0  501 -0.00000000000E+00 -0.00000000000E+00 -0.27701641265E+03  0.27701641265E+03  0.00000000000E+00 0.  1.
         25    2    1    2    0    0 -0.12390366422E+02  0.23937106328E+02 -0.15870859586E+03  0.20386488145E+03  0.12508383288E+03 0.  0.
         23    2    1    2    0    0  0.12390366422E+02 -0.23937106328E+02 -0.72960782581E+02  0.11849856542E+03  0.89398702294E+02 0.  0.
          5    1    3    3  502    0  0.21404116095E+02 -0.28796836744E+02 -0.33189874994E+01  0.36275088839E+02  0.41800000000E+01 0. -1.
         -5    1    3    3    0  502 -0.33794482517E+02  0.52733943072E+02 -0.15538960836E+03  0.16758979261E+03  0.41800000000E+01 0. -1.
        -11    1    4    4    0    0  0.29011679837E+02 -0.45029786433E+02 -0.74316810481E+02  0.91609756867E+02  0.00000000000E+00 0.  1.
         11    1    4    4    0    0 -0.16621313414E+02  0.21092680105E+02  0.13560279000E+01  0.26888808551E+02  0.00000000000E+00 0. -1.
</event>
<event>
 8    1  0.6615242E-009  0.1008072E+03  0.7561462E-02  0.1278608E+00
          2   -1    0    0  501    0  0.00000000000E+00  0.00000000000E+00  0.62174496177E+03  0.62174496177E+03  0.00000000000E+00 0.  1.
         -2   -1    0    0    0  501 -0.00000000000E+00 -0.00000000000E+00 -0.34185647694E+02  0.34185647694E+02  0.00000000000E+00 0. -1.
         25    2    1    2    0    0  0.47687105581E+02 -0.44235750464E+01  0.12842117526E+03  0.18556218228E+03  0.12509075579E+03 0.  0.
         23    2    1    2    0    0 -0.47687105581E+02  0.44235750464E+01  0.45913813882E+03  0.47036842718E+03  0.90249646636E+02 0.  0.
          5    1    3    3  502    0  0.70033832606E+01  0.39083169842E+02  0.11848333605E+03  0.12502925603E+03  0.41800000000E+01 0.  1.
         -5    1    3    3    0  502  0.40683722321E+02 -0.43506744888E+02  0.99378392095E+01  0.60532926253E+02  0.41800000000E+01 0.  1.
        -11    1    4    4    0    0  0.26510361941E+02  0.80086873778E+01  0.13790290595E+03  0.14065614040E+03  0.00000000000E+00 0. -1.
         11    1    4    4    0    0 -0.74197467522E+02 -0.35851123314E+01  0.32123523286E+03  0.32971228678E+03  0.00000000000E+00 0.  1.
</event>
<event>
 8    1  0.6615242E-009  0.1292852E+03  0.7561462E-02  0.1228520E+00
         -4   -1    0    0    0  501 -0.00000000000E+00  0.00000000000E+00  0.19805246922E+03  0.19805246922E+03  0.00000000000E+00 0.  1.
          4   -1    0    0  501    0  0.00000000000E+00 -0.00000000000E+00 -0.14920431500E+03  0.14920431500E+03  0.00000000000E+00 0. -1.
         25    2    1    2    0    0 -0.27318988457E+02  0.11648331112E+03  0.81549553824E+02  0.19134315506E+03  0.12508870597E+03 0.  0.
         23    2    1    2    0    0  0.27318988457E+02 -0.11648331112E+03 -0.32701399607E+02  0.15591362915E+03  0.94472161614E+02 0.  0.
          5    1    3    3  502    0 -0.29791090769E+01  0.10791626941E+03  0.24821284213E+01  0.10806678331E+03  0.41800000000E+01 0. -1.
         -5    1    3    3    0  502 -0.24339879380E+02  0.85670417112E+01  0.79067425403E+02  0.83276371749E+02  0.41800000000E+01 0. -1.
        -11    1    4    4    0    0  0.10485760841E+01 -0.76763862418E+02 -0.63135942712E+02  0.99397873958E+02  0.00000000000E+00 0. -1.
         11    1    4    4    0    0  0.26270412373E+02 -0.39719448702E+02  0.30434543105E+02  0.56515755196E+02  0.00000000000E+00 0.  1.
</event>
<event>
 8    1  0.6615242E-009  0.1445524E+03  0.7561462E-02  0.1207331E+00
          4   -1    0    0  501    0  0.00000000000E+00  0.00000000000E+00  0.13762337696E+03  0.13762337696E+03  0.00000000000E+00 0. -1.
         -4   -1    0    0    0  501 -0.00000000000E+00 -0.00000000000E+00 -0.21221095621E+03  0.21221095621E+03  0.00000000000E+00 0.  1.
         25    2    1    2    0    0  0.11041124201E+03 -0.63419964081E+02 -0.59093796171E+01  0.17859625757E+03  0.12509583624E+03 0.  0.
         23    2    1    2    0    0 -0.11041124201E+03  0.63419964081E+02 -0.68678199635E+02  0.17123807560E+03  0.91613586455E+02 0.  0.
          5    1    3    3  502    0  0.67537069315E+02 -0.63609662366E+02  0.51987672846E+02  0.10643136477E+03  0.41800000000E+01 0.  1.
         -5    1    3    3    0  502  0.42874172700E+02  0.18969828456E+00 -0.57897052463E+02  0.72164892808E+02  0.41800000000E+01 0.  1.
        -11    1    4    4    0    0 -0.34277719339E+02  0.68765867091E+02 -0.52949499529E+02  0.93313214607E+02  0.00000000000E+00 0.  1.
         11    1    4    4    0    0 -0.76133522675E+02 -0.53459030097E+01 -0.15728700107E+02  0.77924860994E+02  0.00000000000E+00 0. -1.
</event>
<event>
 8    1  0.6615242E-009  0.1139426E+03  0.7561462E-02  0.1253438E+00
         -4   -1    0    0    0  501 -0.00000000000E+00  0.00000000000E+00  0.34959223041E+02  0.34959223041E+02  0.00000000000E+00 0. -1.
          4   -1    0    0  501    0  0.00000000000E+00 -0.00000000000E+00 -0.49184079453E+03  0.49184079453E+03  0.00000000000E+00 0.  1.
         25    2    1    2    0    0 -0.20781789727E+02 -0.66950441340E+01 -0.11972830251E+03  0.17452545899E+03  0.12509021951E+03 0.  0.
         23    2    1    2    0    0  0.20781789727E+02  0.66950441340E+01 -0.33715326898E+03  0.35227455857E+03  0.99741322600E+02 0.  0.
          5    1    3    3  502    0 -0.59169196542E+02 -0.42830538304E+02 -0.79774917060E+02  0.10824490114E+03  0.41800000000E+01 0. -1.
         -5    1    3    3    0  502  0.38387406815E+02  0.36135494170E+02 -0.39953385445E+02  0.66280557854E+02  0.41800000000E+01 0. -1.
        -11    1    4    4    0    0 -0.33968130540E+02  0.27052323861E+02 -0.13130923917E+03  0.13830321186E+03  0.00000000000E+00 0.  1.
         11    1    4    4    0    0  0.54749920267E+02 -0.20357279727E+02 -0.20584402981E+03  0.21397134672E+03  0.00000000000E+00 0. -1.
</event>
<event>
 8    1  0.6615242E-009  0.1193502E+03  0.7561462E-02  0.1244173E+00
          4   -1    0    0  501    0  0.00000000000E+00  0.00000000000E+00  0.68340715350E+02  0.68340715350E+02  0.00000000000E+00 0. -1.
         -4   -1    0    0    0  501 -0.00000000000E+00 -0.00000000000E+00 -0.35121982779E+03  0.35121982779E+03  0.00000000000E+00 0.  1.
         25    2    1    2    0    0 -0.53415545566E+02  0.32994456170E+02 -0.27550042012E+03  0.30901674027E+03  0.12509600167E+03 0.  0.
         23    2    1    2    0    0  0.53415545566E+02 -0.32994456170E+02 -0.73786923115E+01  0.11054380286E+03  0.90684246729E+02 0.  0.
          5    1    3    3  502    0  0.20739159018E+02  0.54570888164E+02 -0.83006972296E+02  0.10156635467E+03  0.41800000000E+01 0.  1.
         -5    1    3    3    0  502 -0.74154704584E+02 -0.21576431994E+02 -0.19249344783E+03  0.20745038560E+03  0.41800000000E+01 0.  1.
        -11    1    4    4    0    0  0.44898102948E+02  0.20002402314E+02  0.16427329963E+02  0.51824636191E+02  0.00000000000E+00 0. -1.
         11    1    4    4    0    0  0.85174426178E+01 -0.52996858484E+02 -0.23806022274E+02  0.58719166670E+02  0.00000000000E+00 0.  1.
</event>
<event>
 8    1  0.6615242E-009  0.1690987E+03  0.7561462E-02  0.1178791E+00
          2   -1    0    0  501    0  0.00000000000E+00  0.00000000000E+00  0.69187925279E+03  0.69187925279E+03  0.00000000000E+00 0. -1.
         -2   -1    0    0    0  501 -0.00000000000E+00 -0.00000000000E+00 -0.49183124906E+02  0.49183124906E+02  0.00000000000E+00 0.  1.
         25    2    1    2    0    0 -0.91600662073E+02  0.10843079759E+03  0.42800307778E+03  0.46795556290E+03  0.12509138702E+03 0.  0.
         23    2    1    2    0    0  0.91600662073E+02 -0.10843079759E+03  0.21469305010E+03  0.27310681479E+03  0.91358126971E+02 0.  0.
          5    1    3    3  502    0 -0.51606101520E+02 -0.18964318140E+02  0.14044604815E+03  0.15088207288E+03  0.41800000000E+01 0. -1.
         -5    1    3    3    0  502 -0.39994560554E+02  0.12739511573E+03  0.28755702963E+03  0.31707349002E+03  0.41800000000E+01 0. -1.
        -11    1    4    4    0    0  0.82901683176E+02 -0.65474025754E+02  0.20120273890E+03  0.22724893677E+03  0.00000000000E+00 0.  1.
         11    1    4    4    0    0  0.86989788971E+01 -0.42956771834E+02  0.13490311206E+02  0.45857878022E+02  0.00000000000E+00 0. -1.
</event>
<event>
 8    1  0.6615242E-009  0.4597466E+02  0.7561462E-02  0.1468347E+00
         -3   -1    0    0    0  501 -0.00000000000E+00  0.00000000000E+00  0.15582201590E+03  0.15582201590E+03  0.00000000000E+00 0.  1.
          3   -1    0    0  501    0  0.00000000000E+00 -0.00000000000E+00 -0.79426264559E+02  0.79426264559E+02  0.00000000000E+00 0. -1.
         25    2    1    2    0    0 -0.31190335029E+01 -0.22313802280E+02  0.34550318266E+02  0.13171395575E+03  0.12508879847E+03 0.  0.
         23    2    1    2    0    0  0.31190335029E+01  0.22313802280E+02  0.41845433071E+02  0.10353432471E+03  0.91981965525E+02 0.  0.
          5    1    3    3  502    0 -0.17308790549E+02 -0.10407622446E+02  0.79915945904E+02  0.82534499726E+02  0.41800000000E+01 0.  1.
         -5    1    3    3    0  502  0.14189757046E+02 -0.11906179834E+02 -0.45365627639E+02  0.49179456019E+02  0.41800000000E+01 0.  1.
        -11    1    4    4    0    0 -0.26618922223E+00 -0.14932921940E+02  0.60092168543E+02  0.61920366073E+02  0.00000000000E+00 0.  1.
         11    1    4    4    0    0  0.33852227251E+01  0.37246724220E+02 -0.18246735472E+02  0.41613958636E+02  0.00000000000E+00 0. -1.
</event>
<event>
 8    1  0.6615242E-009  0.1236588E+03  0.7561462E-02  0.1237180E+00
          3   -1    0    0  501    0  0.00000000000E+00  0.00000000000E+00  0.87485092225E+02  0.87485092225E+02  0.00000000000E+00 0. -1.
         -3   -1    0    0    0  501 -0.00000000000E+00 -0.00000000000E+00 -0.27674253732E+03  0.27674253732E+03  0.00000000000E+00 0.  1.
         25    2    1    2    0    0  0.69952699513E+02 -0.52578252823E+01 -0.20129545942E+03  0.24716105700E+03  0.12509077191E+03 0.  0.
         23    2    1    2    0    0 -0.69952699513E+02  0.52578252823E+01  0.12038014325E+02  0.11706657255E+03  0.92944304413E+02 0.  0.
          5    1    3    3  502    0  0.31663188613E+02  0.58278360792E+02 -0.11891239525E+03  0.13622244673E+03  0.41800000000E+01 0. -1.
         -5    1    3    3    0  502  0.38289510900E+02 -0.63536186074E+02 -0.82383064170E+02  0.11093861027E+03  0.41800000000E+01 0. -1.
        -11    1    4    4    0    0  0.17939782615E+02  0.51694290155E+01 -0.16232121964E+02  0.24739453916E+02  0.00000000000E+00 0. -1.
         11    1    4    4    0    0 -0.87892482128E+02  0.88396266786E-01  0.28270136289E+02  0.92327118629E+02  0.00000000000E+00 0.  1.
</event>
<event>
 8    1  0.6615242E-009  0.1158399E+03  0.7561462E-02  0.1250122E+00
          2   -1    0    0  501    0  0.00000000000E+00  0.00000000000E+00  0.28605294540E+03  0.28605294540E+03  0.00000000000E+00 0.  1.
         -2   -1    0    0    0  501 -0.00000000000E+00 -0.00000000000E+00 -0.63105387589E+02  0.63105387589E+02  0.00000000000E+00 0. -1.
         25    2    1    2    0    0  0.51600934520E+02 -0.47900629543E+02  0.76042736394E+02  0.16244580613E+03  0.12509602478E+03 0.  0.
         23    2    1    2    0    0 -0.51600934520E+02  0.47900629543E+02  0.14690482141E+03  0.18671252686E+03  0.91232748385E+02 0.  0.
          5    1    3    3  502    0  0.13537892427E+02  0.34545389709E+02  0.59204555640E+02  0.69995073327E+02  0.41800000000E+01 0. -1.
         -5    1    3    3    0  502  0.38063042093E+02 -0.82446019252E+02  0.16838180754E+02  0.92450732798E+02  0.41800000000E+01 0. -1.
        -11    1    4    4    0    0 -0.23810882316E+02  0.66073394113E+02  0.55660800605E+02  0.89614598422E+02  0.00000000000E+00 0. -1.
         11    1    4    4    0    0 -0.27790052203E+02 -0.18172764571E+02  0.91244020809E+02  0.97097928438E+02  0.00000000000E+00 0.  1.
</event>
<event>
 8    1  0.6615242E-009  0.1093738E+03  0.7561462E-02  0.1261734E+00
         -1   -1    0    0    0  501 -0.00000000000E+00  0.00000000000E+00  0.51806924094E+02  0.51806924094E+02  0.00000000000E+00 0.  1.
          1   -1    0    0  501    0  0.00000000000E+00 -0.00000000000E+00 -0.23444314847E+03  0.23444314847E+03  0.00000000000E+00 0. -1.
         25    2    1    2    0    0 -0.21069370240E+02 -0.55755684929E+01 -0.10578941039E+03  0.16528834835E+03  0.12511528054E+03 0.  0.
         23    2    1    2    0    0  0.21069370240E+02  0.55755684929E+01 -0.76846813988E+02  0.12096172421E+03  0.90836669788E+02 0.  0.
          5    1    3    3  502    0  0.26577358054E+02  0.47390989822E+02 -0.34990652619E+02  0.64761717459E+02  0.41800000000E+01 0.  1.
         -5    1    3    3    0  502 -0.47646728294E+02 -0.52966558315E+02 -0.70798757768E+02  0.10052663089E+03  0.41800000000E+01 0.  1.
        -11    1    4    4    0    0  0.38025102467E+02 -0.33254764994E+02 -0.48154887615E+02  0.69790264462E+02  0.00000000000E+00 0. -1.
         11    1    4    4    0    0 -0.16955732227E+02  0.38830333487E+02 -0.28691926373E+02  0.51171459751E+02  0.00000000000E+00 0.  1.
</event>
<event>
 8    1  0.6615242E-009  0.8856364E+02  0.7561462E-02  0.1306368E+00
         -4   -1    0    0    0  501 -0.00000000000E+00  0.00000000000E+00  0.65810373072E+02  0.65810373072E+02  0.00000000000E+00 0. -1.
          4   -1    0    0  501    0  0.00000000000E+00 -0.00000000000E+00 -0.24047718408E+03  0.24047718408E+03  0.00000000000E+00 0.  1.
         25    2    1    2    0    0 -0.28911536195E+02  0.50290398084E+02 -0.14820900365E+03  0.20243117925E+03  0.12508985772E+03 0.  0.
         23    2    1    2    0    0  0.28911536195E+02 -0.50290398084E+02 -0.26457807359E+02  0.10385637790E+03  0.81982501771E+02 0.  0.
          5    1    3    3  502    0  0.57502627213E+01 -0.68125755899E+01 -0.13355245747E+03  0.13391492824E+03  0.41800000000E+01 0.  1.
         -5    1    3    3    0  502 -0.34661798917E+02  0.57102973674E+02 -0.14656546173E+02  0.68516251008E+02  0.41800000000E+01 0.  1.
        -11    1    4    4    0    0 -0.28471331723E+02 -0.23976493880E+02 -0.78293106873E+01  0.38036654620E+02  0.00000000000E+00 0.  1.
         11    1    4    4    0    0  0.57382867918E+02 -0.26313904204E+02 -0.18628496672E+02  0.65819723284E+02  0.00000000000E+00 0. -1.
</event>
<event>
 8    1  0.6615242E-009  0.1297521E+03  0.7561462E-02  0.1227824E+00
         -1   -1    0    0    0  501 -0.00000000000E+00  0.00000000000E+00  0.20884641859E+02  0.20884641859E+02  0.00000000000E+00 0.  1.
          1   -1    0    0  501    0  0.00000000000E+00 -0.00000000000E+00 -0.84043533942E+03  0.84043533942E+03  0.00000000000E+00 0. -1.
         25    2    1    2    0    0  0.26928036981E+02  0.71353385650E+02 -0.46915221974E+03  0.49149763147E+03  0.12509872754E+03 0.  0.
         23    2    1    2    0    0 -0.26928036981E+02 -0.71353385650E+02 -0.35039847782E+03  0.36982234981E+03  0.90404935384E+02 0.  0.
          5    1    3    3  502    0  0.75301091235E+02  0.37882851781E+02 -0.32427980287E+03  0.33508241934E+03  0.41800000000E+01 0.  1.
         -5    1    3    3    0  502 -0.48373054254E+02  0.33470533870E+02 -0.14487241687E+03  0.15641521213E+03  0.41800000000E+01 0.  1.
        -11    1    4    4    0    0  0.12545140033E+02  0.15967988740E+02 -0.38397688436E+02  0.43436616812E+02  0.00000000000E+00 0.  1.
         11    1    4    4    0    0 -0.39473177015E+02 -0.87321374390E+02 -0.31200078939E+03  0.32638573300E+03  0.00000000000E+00 0. -1.
</event>
<event>
 8    1  0.6615242E-009  0.1186583E+03  0.7561462E-02  0.1245327E+00
          2   -1    0    0  501    0  0.00000000000E+00  0.00000000000E+00  0.74243315760E+02  0.74243315760E+02  0.00000000000E+00 0. -1.
         -2   -1    0    0    0  501 -0.00000000000E+00 -0.00000000000E+00 -0.27124259609E+03  0.27124259609E+03  0.00000000000E+00 0.  1.
         25    2    1    2    0    0 -0.71706651930E+02  0.54144163865E+02 -0.88939904725E+02  0.17784506258E+03  0.12508047497E+03 0.  0.
         23    2    1    2    0    0  0.71706651930E+02 -0.54144163865E+02 -0.10805937560E+03  0.16764084927E+03  0.91395794632E+02 0.  0.
          5    1    3    3  502    0 -0.10013848667E+03  0.37093587610E+02 -0.96041191359E+02  0.14368379725E+03  0.41800000000E+01 0.  1.
         -5    1    3    3    0  502  0.28431834737E+02  0.17050576256E+02  0.71012866345E+01  0.34161265331E+02  0.41800000000E+01 0.  1.
        -11    1    4    4    0    0  0.53829373183E+02 -0.57584899105E+02 -0.25128023253E+02  0.82734754335E+02  0.00000000000E+00 0. -1.
         11    1    4    4    0    0  0.17877278747E+02  0.34407352396E+01 -0.82931352351E+02  0.84906094935E+02  0.00000000000E+00 0.  1.
</event>
<event>
 8    1  0.6615242E-009  0.1748577E+03  0.7561462E-02  0.1172875E+00
          1   -1    0    0  501    0  0.00000000000E+00  0.00000000000E+00  0.49693770565E+03  0.49693770565E+03  0.00000000000E+00 0. -1.
         -1   -1    0    0    0  501 -0.00000000000E+00 -0.00000000000E+00 -0.68942286207E+02  0.68942286207E+02  0.00000000000E+00 0.  1.
         25    2    1    2    0    0 -0.44955987422E+02 -0.12951023866E+03  0.31773729083E+03  0.36796619756E+03  0.12509274098E+03 0.  0.
         23    2    1    2    0    0  0.44955987422E+02  0.12951023866E+03  0.11025812861E+03  0.19791379429E+03  0.90659099511E+02 0.  0.
          5    1    3    3  502    0 -0.88365169074E+02 -0.78054714094E+02  0.19474316630E+03  0.22769127062E+03  0.41800000000E+01 0.  1.
         -5    1    3    3    0  502  0.43409181652E+02 -0.51455524562E+02  0.12299412453E+03  0.14027492694E+03  0.41800000000E+01 0.  1.
        -11    1    4    4    0    0  0.70994303665E+02  0.71778694226E+02  0.70499174637E+02  0.12313612680E+03  0.00000000000E+00 0. -1.
         11    1    4    4    0    0 -0.26038316243E+02  0.57731544429E+02  0.39758953977E+02  0.74777667497E+02  0.00000000000E+00 0.  1.
</event>
<event>
 8    1  0.6615242E-009  0.1172081E+03  0.7561462E-02  0.1247775E+00
          2   -1    0    0  501    0  0.00000000000E+00  0.00000000000E+00  0.12661790576E+04  0.12661790576E+04  0.00000000000E+00 0.  1.
         -2   -1    0    0    0  501 -0.00000000000E+00 -0.00000000000E+00 -0.17376474487E+02  0.17376474487E+02  0.00000000000E+00 0. -1.
         25    2    1    2    0    0 -0.25716024134E+02  0.35578429733E+02  0.10405816225E+04  0.10489922779E+04  0.12509015745E+03 0.  0.
         23    2    1    2    0    0  0.25716024134E+02 -0.35578429733E+02  0.20822096065E+03  0.23456325421E+03  0.98675291790E+02 0.  0.
          5    1    3    3  502    0  0.24012307782E+02 -0.33422852897E+02  0.20845311037E+03  0.21251788077E+03  0.41800000000E+01 0.  1.
         -5    1    3    3    0  502 -0.49728331915E+02  0.69001282630E+02  0.83212851210E+03  0.83647439713E+03  0.41800000000E+01 0.  1.
        -11    1    4    4    0    0  0.45069906558E+02 -0.61062389430E+02  0.14164447474E+03  0.16069557898E+03  0.00000000000E+00 0.  1.
         11    1    4    4    0    0 -0.19353882424E+02  0.25483959697E+02  0.66576485919E+02  0.73867675231E+02  0.00000000000E+00 0. -1.
</event>
<event>
 8    1  0.6615242E-009  0.2764938E+03  0.7561462E-02  0.1097620E+00
         -2   -1    0    0    0  501 -0.00000000000E+00  0.00000000000E+00  0.12781157607E+03  0.12781157607E+03  0.00000000000E+00 0.  1.
          2   -1    0    0  501    0  0.00000000000E+00 -0.00000000000E+00 -0.61955037914E+03  0.61955037914E+03  0.00000000000E+00 0. -1.
         25    2    1    2    0    0  0.23065238420E+03  0.11730253811E+03 -0.22766747511E+03  0.36666124018E+03  0.12509027956E+03 0.  0.
         23    2    1    2    0    0 -0.23065238420E+03 -0.11730253811E+03 -0.26407132796E+03  0.38070071503E+03  0.90768719229E+02 0.  0.
          5    1    3    3  502    0  0.12580797865E+03 -0.22779921932E+01 -0.12442426865E+03  0.17700764890E+03  0.41800000000E+01 0. -1.
         -5    1    3    3    0  502  0.10484440555E+03  0.11958053031E+03 -0.10324320646E+03  0.18965359127E+03  0.41800000000E+01 0. -1.
        -11    1    4    4    0    0 -0.68868599693E+02 -0.72787287962E+02 -0.13931203332E+03  0.17160628176E+03  0.00000000000E+00 0. -1.
         11    1    4    4    0    0 -0.16178378451E+03 -0.44515250150E+02 -0.12475929464E+03  0.20909443327E+03  0.00000000000E+00 0.  1.
</event>
<event>
 8    1  0.6615242E-009  0.1971543E+03  0.7561462E-02  0.1152162E+00
         -2   -1    0    0    0  501 -0.00000000000E+00  0.00000000000E+00  0.10424503070E+04  0.10424503070E+04  0.00000000000E+00 0.  1.
          2   -1    0    0  501    0  0.00000000000E+00 -0.00000000000E+00 -0.38735728818E+02  0.38735728818E+02  0.00000000000E+00 0. -1.
         25    2    1    2    0    0  0.11437869160E+01 -0.17182847754E+03  0.52057868069E+03  0.56229821335E+03  0.12510309352E+03 0.  0.
         23    2    1    2    0    0 -0.11437869160E+01  0.17182847754E+03  0.48313589748E+03  0.51888782246E+03  0.79359579861E+02 0.  0.
          5    1    3    3  502    0 -0.20860526460E+02 -0.18513679510E+03  0.46318046005E+03  0.49926386354E+03  0.41800000000E+01 0. -1.
         -5    1    3    3    0  502  0.22004313376E+02  0.13308317563E+02  0.57398220632E+02  0.63034349804E+02  0.41800000000E+01 0. -1.
        -11    1    4    4    0    0 -0.20797508977E+02  0.15389553723E+03  0.34683220050E+03  0.38001177359E+03  0.00000000000E+00 0. -1.
         11    1    4    4    0    0  0.19653722061E+02  0.17932940304E+02  0.13630369698E+03  0.13887604887E+03  0.00000000000E+00 0.  1.
</event>
<event>
 8    1  0.6615242E-009  0.9575157E+02  0.7561462E-02  0.1289492E+00
          1   -1    0    0  501    0  0.00000000000E+00  0.00000000000E+00  0.62677124986E+03  0.62677124986E+03  0.00000000000E+00 0. -1.
         -1   -1    0    0    0  501 -0.00000000000E+00 -0.00000000000E+00 -0.19116459784E+02  0.19116459784E+02  0.00000000000E+00 0.  1.
         25    2    1    2    0    0  0.16723083814E+02  0.41712845498E+01  0.34492799254E+03  0.36731557409E+03  0.12509336429E+03 0.  0.
         23    2    1    2    0    0 -0.16723083814E+02 -0.41712845498E+01  0.26272679754E+03  0.27857213555E+03  0.90994524086E+02 0.  0.
          5    1    3    3  502    0  0.38172268984E+02 -0.42205794761E+02  0.84976974264E+02  0.10235726543E+03  0.41800000000E+01 0. -1.
         -5    1    3    3    0  502 -0.21449185170E+02  0.46377079310E+02  0.25995101827E+03  0.26495830866E+03  0.41800000000E+01 0. -1.
        -11    1    4    4    0    0  0.32954590971E+02  0.25089677076E+01  0.49404079607E+02  0.59439574922E+02  0.00000000000E+00 0.  1.
         11    1    4    4    0    0 -0.49677674786E+02 -0.66802522574E+01  0.21332271793E+03  0.21913256063E+03  0.00000000000E+00 0. -1.
</event>
<event>
 8    1  0.6615242E-009  0.1388190E+03  0.7561462E-02  0.1214927E+00
         -1   -1    0    0    0  501 -0.00000000000E+00  0.00000000000E+00  0.25156135579E+03  0.25156135579E+03  0.00000000000E+00 0.  1.
          1   -1    0    0  501    0  0.00000000000E+00 -0.00000000000E+00 -0.86877932995E+02  0.86877932995E+02  0.00000000000E+00 0. -1.
         25    2    1    2    0    0  0.97862083565E+02  0.16903799566E+02  0.99945386586E+02  0.18841252689E+03  0.12508986430E+03 0.  0.
         23    2    1    2    0    0 -0.97862083565E+02 -0.16903799566E+02  0.64738036213E+02  0.15002676190E+03  0.91947213736E+02 0.  0.
          5    1    3    3  502    0 -0.26646627580E+02  0.16859790459E+02  0.59702153279E+01  0.32363732275E+02  0.41800000000E+01 0.  1.
         -5    1    3    3    0  502  0.12450871114E+03  0.44009106502E-01  0.93975171259E+02  0.15604879462E+03  0.41800000000E+01 0.  1.
        -11    1    4    4    0    0 -0.73539295652E+02  0.20762304067E+02  0.71541165390E+02  0.10467683421E+03  0.00000000000E+00 0.  1.
         11    1    4    4    0    0 -0.24322787913E+02 -0.37666103632E+02 -0.68031291769E+01  0.45349927688E+02  0.00000000000E+00 0. -1.
</event>
<event>
 8    1  0.6615242E-009  0.1053255E+03  0.7561462E-02  0.1269480E+00
         -2   -1    0    0    0  501 -0.00000000000E+00  0.00000000000E+00  0.63883683864E+02  0.63883683864E+02  0.00000000000E+00 0. -1.
          2   -1    0    0  501    0  0.00000000000E+00 -0.00000000000E+00 -0.26515740510E+03  0.26515740510E+03  0.00000000000E+00 0.  1.
         25    2    1    2    0    0 -0.61466406283E+02 -0.16338550530E+02 -0.15308921375E+03  0.20768096292E+03  0.12509999063E+03 0.  0.
         23    2    1    2    0    0  0.61466406283E+02  0.16338550530E+02 -0.48184507478E+02  0.12136012604E+03  0.91441052579E+02 0.  0.
          5    1    3    3  502    0 -0.82349813081E+02 -0.28927204958E+02 -0.15972600090E+03  0.18206631392E+03  0.41800000000E+01 0.  1.
         -5    1    3    3    0  502  0.20883406798E+02  0.12588654428E+02  0.66367871451E+01  0.25614649000E+02  0.41800000000E+01 0.  1.
        -11    1    4    4    0    0  0.66345621606E+01  0.38734875108E+02 -0.48122866492E+02  0.62130654625E+02  0.00000000000E+00 0.  1.
         11    1    4    4    0    0  0.54831844123E+02 -0.22396324579E+02 -0.61640985841E-01  0.59229471415E+02  0.00000000000E+00 0. -1.
</event>
<event>
 8    1  0.6615242E-009  0.1226264E+03  0.7561462E-02  0.1238826E+00
         -2   -1    0    0    0  501 -0.00000000000E+00  0.00000000000E+00  0.13803703945E+04  0.13803703945E+04  0.00000000000E+00 0.  1.
          2   -1    0    0  501    0  0.00000000000E+00 -0.00000000000E+00 -0.12919013539E+02  0.12919013539E+02  0.00000000000E+00 0. -1.
         25    2    1    2    0    0 -0.56334285795E+02 -0.35236622168E+01  0.95278394565E+03  0.96261699761E+03  0.12509304151E+03 0.  0.
         23    2    1    2    0    0  0.56334285795E+02  0.35236622168E+01  0.41466743529E+03  0.43067241042E+03  0.10170386055E+03 0.  0.
          5    1    3    3  502    0 -0.51569337361E+02 -0.58030213559E+02  0.67519530391E+03  0.67965658465E+03  0.41800000000E+01 0. -1.
         -5    1    3    3    0  502 -0.47649484347E+01  0.54506551343E+02  0.27758864175E+03  0.28296041295E+03  0.41800000000E+01 0. -1.
        -11    1    4    4    0    0  0.18342076932E+02  0.49618079315E+02  0.24920821856E+03  0.25476091101E+03  0.00000000000E+00 0.  1.
         11    1    4    4    0    0  0.37992208864E+02 -0.46094417098E+02  0.16545921673E+03  0.17591149940E+03  0.00000000000E+00 0. -1.
</event>
<event>
 7    1  0.6615242E-009  0.3711336E+03  0.7561462E-02  0.1054260E+00
         -1   -1    0    0    0  501 -0.00000000000E+00  0.00000000000E+00  0.54105552917E+03  0.54105552917E+03  0.00000000000E+00 0.  1.
          1   -1    0    0  501    0  0.00000000000E+00 -0.00000000000E+00 -0.30146726160E+03  0.30146726160E+03  0.00000000000E+00 0. -1.
         25    2    1    2    0    0  0.27406602536E+03  0.23402162031E+03  0.12195996454E+03  0.40050073105E+03  0.12509315567E+03 0.  0.
          5    1    3    3  502    0  0.20767821167E+03  0.12026154661E+03  0.12081894206E+03  0.26871503188E+03  0.41800000000E+01 0. -1.
         -5    1    3    3    0  502  0.66387813683E+02  0.11376007370E+03  0.11410224762E+01  0.13178569917E+03  0.41800000000E+01 0. -1.
        -11    1    1    2    0    0 -0.17706012034E+03 -0.20129777364E+03  0.17928514002E+03  0.32251238940E+03  0.00000000000E+00 0.  1.
         11    1    1    2    0    0 -0.97005905020E+02 -0.32723846675E+02 -0.61656836990E+02  0.11950967031E+03  0.00000000000E+00 0. -1.
</event>
<event>
 8    1  0.6615242E-009  0.1020016E+03  0.7561462E-02  0.1276142E+00
         -2   -1    0    0    0  501 -0.00000000000E+00  0.00000000000E+00  0.28138470445E+02  0.28138470445E+02  0.00000000000E+00 0. -1.
          2   -1    0    0  501    0  0.00000000000E+00 -0.00000000000E+00 -0.72734254969E+03  0.72734254969E+03  0.00000000000E+00 0.  1.
         25    2    1    2    0    0  0.27497285980E+02  0.85522641906E+02 -0.44580582550E+03  0.47165743688E+03  0.12509068988E+03 0.  0.
         23    2    1    2    0    0 -0.27497285980E+02 -0.85522641906E+02 -0.25339825374E+03  0.28382358326E+03  0.90966633434E+02 0.  0.
          5    1    3    3  502    0  0.14221259836E+01  0.35814797403E+02 -0.18297924526E+02  0.40459962893E+02  0.41800000000E+01 0. -1.
         -5    1    3    3    0  502  0.26075159997E+02  0.49707844503E+02 -0.42750790098E+03  0.43119747399E+03  0.41800000000E+01 0. -1.
        -11    1    4    4    0    0 -0.19519685091E+02 -0.96279211991E+02 -0.25186328833E+03  0.27034389354E+03  0.00000000000E+00 0.  1.
         11    1    4    4    0    0 -0.79776008893E+01  0.10756570084E+02 -0.15349654105E+01  0.13479689712E+02  0.00000000000E+00 0. -1.
</event>
<event>
 8    1  0.6615242E-009  0.1111642E+03  0.7561462E-02  0.1258429E+00
         -2   -1    0    0    0  501 -0.00000000000E+00  0.00000000000E+00  0.41748976166E+02  0.41748976166E+02  0.00000000000E+00 0.  1.
          2   -1    0    0  501    0  0.00000000000E+00 -0.00000000000E+00 -0.38921167311E+03  0.38921167311E+03  0.00000000000E+00 0. -1.
         25    2    1    2    0    0 -0.36631418495E+02  0.33368621205E+02 -0.27048930537E+03  0.30210478954E+03  0.12509002296E+03 0.  0.
         23    2    1    2    0    0  0.36631418495E+02 -0.33368621205E+02 -0.76973391575E+02  0.12885585973E+03  0.90684088321E+02 0.  0.
          5    1    3    3  502    0 -0.61425635717E+02 -0.28371931568E+02 -0.14196321630E+03  0.15731847446E+03  0.41800000000E+01 0.  1.
         -5    1    3    3    0  502  0.24794217222E+02  0.61740552773E+02 -0.12852608907E+03  0.14478631508E+03  0.41800000000E+01 0.  1.
        -11    1    4    4    0    0 -0.14078112541E+02  0.12998635102E+02  0.69577764064E+01  0.20385495327E+02  0.00000000000E+00 0.  1.
         11    1    4    4    0    0  0.50709531036E+02 -0.46367256307E+02 -0.83931167982E+02  0.10847036440E+03  0.00000000000E+00 0. -1.
</event>
<event>
 8    1  0.6615242E-009  0.2358825E+03  0.7561462E-02  0.1122567E+00
         -1   -1    0    0    0  501 -0.00000000000E+00  0.00000000000E+00  0.74534455747E+02  0.74534455747E+02  0.00000000000E+00 0.  1.
          1   -1    0    0  501    0  0.00000000000E+00 -0.00000000000E+00 -0.10359260030E+04  0.10359260030E+04  0.00000000000E+00 0. -1.
         25    2    1    2    0    0  0.22218600858E+03  0.74732435845E+02 -0.69817467429E+03  0.74702523437E+03  0.12508903060E+03 0.  0.
         23    2    1    2    0    0 -0.22218600858E+03 -0.74732435845E+02 -0.26321687298E+03  0.36343522441E+03  0.88602938652E+02 0.  0.
          5    1    3    3  502    0  0.66255862304E+02  0.34017544722E+02 -0.85365564306E+02  0.11336571178E+03  0.41800000000E+01 0. -1.
         -5    1    3    3    0  502  0.15593014628E+03  0.40714891123E+02 -0.61280910999E+03  0.63365952258E+03  0.41800000000E+01 0. -1.
        -11    1    4    4    0    0 -0.21994425207E+02  0.75200152509E+00  0.26577377036E+01  0.22167178805E+02  0.00000000000E+00 0.  1.
         11    1    4    4    0    0 -0.20019158338E+03 -0.75484437370E+02 -0.26587461069E+03  0.34126804560E+03  0.00000000000E+00 0. -1.
</event>
<event>
 8    1  0.6615242E-009  0.9403985E+02  0.7561462E-02  0.1293353E+00
         -1   -1    0    0    0  501 -0.00000000000E+00  0.00000000000E+00  0.12806889730E+03  0.12806889730E+03  0.00000000000E+00 0.  1.
          1   -1    0    0  501    0  0.00000000000E+00 -0.00000000000E+00 -0.12527229236E+03  0.12527229236E+03  0.00000000000E+00 0. -1.
         25    2    1    2    0    0 -0.32152691089E+02  0.56914962114E+02  0.10036546939E+02  0.14149697086E+03  0.12509017560E+03 0.  0.
         23    2    1    2    0    0  0.32152691089E+02 -0.56914962114E+02 -0.72399420035E+01  0.11184421880E+03  0.90463274663E+02 0.  0.
          5    1    3    3  502    0  0.18377312384E+02  0.47622978662E+02 -0.43486589216E+02  0.67188016407E+02  0.41800000000E+01 0.  1.
         -5    1    3    3    0  502 -0.50530003473E+02  0.92919834520E+01  0.53523136155E+02  0.74308954449E+02  0.41800000000E+01 0.  1.
        -11    1    4    4    0    0 -0.13604462588E+02 -0.28159225381E+02  0.32240686714E+02  0.44916425238E+02  0.00000000000E+00 0.  1.
         11    1    4    4    0    0  0.45757153676E+02 -0.28755736733E+02 -0.39480628717E+02  0.66927793565E+02  0.00000000000E+00 0. -1.
</event>
<event>
 8    1  0.6615242E-009  0.8833186E+02  0.7561462E-02  0.1306942E+00
         -1   -1    0    0    0  501 -0.00000000000E+00  0.00000000000E+00  0.36499688996E+02  0.36499688996E+02  0.00000000000E+00 0.  1.
          1   -1    0    0  501    0  0.00000000000E+00 -0.00000000000E+00 -0.38316835795E+03  0.38316835795E+03  0.00000000000E+00 0. -1.
         25    2    1    2    0    0 -0.29115358403E+02 -0.19353988879E+02 -0.14091609186E+03  0.19164439589E+03  0.12509176052E+03 0.  0.
         23    2    1    2    0    0  0.29115358403E+02  0.19353988879E+02 -0.20575257710E+03  0.22802365106E+03  0.91860663399E+02 0.  0.
          5    1    3    3  502    0  0.19721272839E+02 -0.43039481484E+02 -0.12678788028E+03  0.13540297100E+03  0.41800000000E+01 0.  1.
         -5    1    3    3    0  502 -0.48836631242E+02  0.23685492606E+02 -0.14128211575E+02  0.56241424888E+02  0.41800000000E+01 0.  1.
        -11    1    4    4    0    0 -0.21450679446E+02  0.37172084335E+01 -0.78132326103E+01  0.23129978189E+02  0.00000000000E+00 0.  1.
         11    1    4    4    0    0  0.50566037849E+02  0.15636780445E+02 -0.19793934449E+03  0.20489367287E+03  0.00000000000E+00 0. -1.
</event>
<event>
 8    1  0.6615242E-009  0.1272321E+03  0.7561462E-02  0.1231622E+00
          2   -1    0    0  501    0  0.00000000000E+00  0.00000000000E+00  0.67074961969E+03  0.67074961969E+03  0.00000000000E+00 0. -1.
         -2   -1    0    0    0  501 -0.00000000000E+00 -0.00000000000E+00 -0.31487849218E+02  0.31487849218E+02  0.00000000000E+00 0.  1.
         25    2    1    2    0    0 -0.61470251466E+02  0.49309610489E+02  0.20700604617E+03  0.25438063247E+03  0.12509186035E+03 0.  0.
         23    2    1    2    0    0  0.61470251466E+02 -0.49309610489E+02  0.43225572430E+03  0.44785683643E+03  0.86721999761E+02 0.  0.
          5    1    3    3  502    0 -0.90468084745E+02  0.13251392338E+02  0.89463947007E+02  0.12798962446E+03  0.41800000000E+01 0. -1.
         -5    1    3    3    0  502  0.28997833279E+02  0.36058218151E+02  0.11754209916E+03  0.12639100801E+03  0.41800000000E+01 0. -1.
        -11    1    4    4    0    0  0.48983603213E+02  0.14792311981E+02  0.21452107258E+03  0.22053910415E+03  0.00000000000E+00 0. -1.
         11    1    4    4    0    0  0.12486648253E+02 -0.64101922470E+02  0.21773465173E+03  0.22731773228E+03  0.00000000000E+00 0.  1.
</event>
<event>
 8    1  0.6615242E-009  0.1099986E+03  0.7561462E-02  0.1260572E+00
         -3   -1    0    0    0  501 -0.00000000000E+00  0.00000000000E+00  0.13385773846E+03  0.13385773846E+03  0.00000000000E+00 0.  1.
          3   -1    0    0  501    0  0.00000000000E+00 -0.00000000000E+00 -0.14449372728E+03  0.14449372728E+03  0.00000000000E+00 0. -1.
         25    2    1    2    0    0  0.66427455710E+02 -0.47934771478E+02  0.16452620360E+02  0.15042636467E+03  0.12508818203E+03 0.  0.
         23    2    1    2    0    0 -0.66427455710E+02  0.47934771478E+02 -0.27088609179E+02  0.12792510106E+03  0.94449402043E+02 0.  0.
          5    1    3    3  502    0  0.23937802768E+02 -0.52848937200E+02  0.63899114540E+02  0.86409477510E+02  0.41800000000E+01 0.  1.
         -5    1    3    3    0  502  0.42489652942E+02  0.49141657224E+01 -0.47446494179E+02  0.64016887161E+02  0.41800000000E+01 0.  1.
        -11    1    4    4    0    0 -0.22454580252E+02  0.67194394978E+02 -0.35410354113E+02  0.79203459957E+02  0.00000000000E+00 0. -1.
         11    1    4    4    0    0 -0.43972875458E+02 -0.19259623501E+02  0.83217449342E+01  0.48721641107E+02  0.00000000000E+00 0.  1.
</event>
<event>
 8    1  0.6615242E-009  0.9589489E+02  0.7561462E-02  0.1289173E+00
         -2   -1    0    0    0  501 -0.00000000000E+00  0.00000000000E+00  0.33412073950E+02  0.33412073950E+02  0.00000000000E+00 0. -1.
          2   -1    0    0  501    0  0.00000000000E+00 -0.00000000000E+00 -0.49083571988E+03  0.49083571988E+03  0.00000000000E+00 0.  1.
         25    2    1    2    0    0 -0.57766507005E+02  0.17897160729E+02 -0.19758858929E+03  0.24155025292E+03  0.12509195168E+03 0.  0.
         23    2    1    2    0    0  0.57766507005E+02 -0.17897160729E+02 -0.25983505664E+03  0.28269754091E+03  0.93522004268E+02 0.  0.
          5    1    3    3  502    0 -0.62476640766E+02 -0.31628744761E+02 -0.51103987028E+02  0.86791693305E+02  0.41800000000E+01 0.  1.
         -5    1    3    3    0  502  0.47101337617E+01  0.49525905490E+02 -0.14648460226E+03  0.15475855962E+03  0.41800000000E+01 0.  1.
        -11    1    4    4    0    0  0.38867992527E+02 -0.30150067277E+02 -0.25494824516E+03  0.25965044793E+03  0.00000000000E+00 0.  1.
         11    1    4    4    0    0  0.18898514478E+02  0.12252906549E+02 -0.48868114820E+01  0.23047092980E+02  0.00000000000E+00 0. -1.
</event>
<event>
 8    1  0.6615242E-009  0.8909538E+02  0.7561462E-02  0.1305057E+00
         -1   -1    0    0    0  501 -0.00000000000E+00  0.00000000000E+00  0.26799060651E+02  0.26799060651E+02  0.00000000000E+00 0.  1.
          1   -1    0    0  501    0  0.00000000000E+00 -0.00000000000E+00 -0.50090266089E+03  0.50090266089E+03  0.00000000000E+00 0. -1.
         25    2    1    2    0    0  0.10444360078E+02 -0.26553845540E+02 -0.20590257241E+03  0.24260407967E+03  0.12508668505E+03 0.  0.
         23    2    1    2    0    0 -0.10444360078E+02  0.26553845540E+02 -0.26820102783E+03  0.28509764188E+03  0.92383346460E+02 0.  0.
          5    1    3    3  502    0  0.31172790205E+02 -0.57307917945E+02 -0.50012019294E+02  0.82308048101E+02  0.41800000000E+01 0.  1.
         -5    1    3    3    0  502 -0.20728430127E+02  0.30754072405E+02 -0.15589055311E+03  0.16029603156E+03  0.41800000000E+01 0.  1.
        -11    1    4    4    0    0  0.20665589606E+02  0.37251086623E+02 -0.23321563182E+03  0.23707433638E+03  0.00000000000E+00 0. -1.
         11    1    4    4    0    0 -0.31109949685E+02 -0.10697241083E+02 -0.34985396019E+02  0.48023305496E+02  0.00000000000E+00 0.  1.
</event>
<event>
 8    1  0.6615242E-009  0.7885371E+02  0.7561462E-02  0.1332336E+00
         -2   -1    0    0    0  501 -0.00000000000E+00  0.00000000000E+00  0.36374602793E+03  0.36374602793E+03  0.00000000000E+00 0.  1.
          2   -1    0    0  501    0  0.00000000000E+00 -0.00000000000E+00 -0.46585414665E+02  0.46585414665E+02  0.00000000000E+00 0. -1.
         25    2    1    2    0    0  0.73421777872E+01  0.71886623867E+02  0.18067842195E+03  0.23133040943E+03  0.12508985532E+03 0.  0.
         23    2    1    2    0    0 -0.73421777872E+01 -0.71886623867E+02  0.13648219131E+03  0.17900103316E+03  0.90511806197E+02 0.  0.
          5    1    3    3  502    0 -0.13022037421E+02  0.36602120257E+02 -0.65993473704E+01  0.39627168100E+02  0.41800000000E+01 0.  1.
         -5    1    3    3    0  502  0.20364215208E+02  0.35284503610E+02  0.18727776932E+03  0.19170324133E+03  0.41800000000E+01 0.  1.
        -11    1    4    4    0    0  0.10998414233E+02 -0.30078673283E+02 -0.30677474415E+01  0.32173013171E+02  0.00000000000E+00 0. -1.
         11    1    4    4    0    0 -0.18340592020E+02 -0.41807950584E+02  0.13954993875E+03  0.14682801999E+03  0.00000000000E+00 0.  1.
</event>
<event>
 8    1  0.6615242E-009  0.9638174E+02  0.7561462E-02  0.1288094E+00
          4   -1    0    0  501    0  0.00000000000E+00  0.00000000000E+00  0.33534376666E+03  0.33534376666E+03  0.00000000000E+00 0. -1.
         -4   -1    0    0    0  501 -0.00000000000E+00 -0.00000000000E+00 -0.41594085419E+02  0.41594085419E+02  0.00000000000E+00 0.  1.
         25    2    1    2    0    0  0.30412452133E+02 -0.35067292939E+02  0.15132495403E+03  0.20174923135E+03  0.12509547698E+03 0.  0.
         23    2    1    2    0    0 -0.30412452133E+02  0.35067292939E+02  0.14242472721E+03  0.17518862073E+03  0.90838414956E+02 0.  0.
          5    1    3    3  502    0  0.20618220245E+02  0.32454243043E+02  0.34382405633E+01  0.38828891250E+02  0.41800000000E+01 0. -1.
         -5    1    3    3    0  502  0.97942318887E+01 -0.67521535982E+02  0.14788671346E+03  0.16292034010E+03  0.41800000000E+01 0. -1.
        -11    1    4    4    0    0 -0.54249850776E+02  0.21944263692E+02  0.13476144989E+03  0.14691917981E+03  0.00000000000E+00 0. -1.
         11    1    4    4    0    0  0.23837398642E+02  0.13123029247E+02  0.76632773214E+01  0.28269440920E+02  0.00000000000E+00 0.  1.
</event>
<event>
 8    1  0.6615242E-009  0.2384188E+03  0.7561462E-02  0.1120851E+00
          1   -1    0    0  501    0  0.00000000000E+00  0.00000000000E+00  0.17787227303E+04  0.17787227303E+04  0.00000000000E+00 0.  1.
         -1   -1    0    0    0  501 -0.00000000000E+00 -0.00000000000E+00 -0.35125536882E+02  0.35125536882E+02  0.00000000000E+00 0. -1.
         25    2    1    2    0    0 -0.17966140087E+03 -0.12290653680E+03  0.11024155429E+04  0.11306421720E+04  0.12508979298E+03 0.  0.
         23    2    1    2    0    0  0.17966140087E+03  0.12290653680E+03  0.64118165059E+03  0.68320609518E+03  0.90952865147E+02 0.  0.
          5    1    3    3  502    0 -0.34009311366E+02  0.25588130400E+02  0.20772463199E+03  0.21208107132E+03  0.41800000000E+01 0.  1.
         -5    1    3    3    0  502 -0.14565208951E+03 -0.14849466720E+03  0.89469091087E+03  0.91856110072E+03  0.41800000000E+01 0.  1.
        -11    1    4    4    0    0  0.32042870102E+02 -0.27625633158E+01  0.18132050331E+03  0.18415075944E+03  0.00000000000E+00 0.  1.
         11    1    4    4    0    0  0.14761853077E+03  0.12566910011E+03  0.45986114728E+03  0.49905533574E+03  0.00000000000E+00 0. -1.
</event>
<event>
 8    1  0.6615242E-009  0.1093674E+03  0.7561462E-02  0.1261746E+00
         -1   -1    0    0    0  501 -0.00000000000E+00  0.00000000000E+00  0.31432421685E+02  0.31432421685E+02  0.00000000000E+00 0.  1.
          1   -1    0    0  501    0  0.00000000000E+00 -0.00000000000E+00 -0.45416302009E+03  0.45416302009E+03  0.00000000000E+00 0. -1.
         25    2    1    2    0    0  0.12175135407E+02 -0.48865077150E+02 -0.26328378692E+03  0.29580662984E+03  0.12508868900E+03 0.  0.
         23    2    1    2    0    0 -0.12175135407E+02  0.48865077150E+02 -0.15944681148E+03  0.18978881193E+03  0.89780163490E+02 0.  0.
          5    1    3    3  502    0  0.31280904256E+02  0.34632387443E+02 -0.11995733231E+03  0.12878327223E+03  0.41800000000E+01 0.  1.
         -5    1    3    3    0  502 -0.19105768849E+02 -0.83497464593E+02 -0.14332645462E+03  0.16702335762E+03  0.41800000000E+01 0.  1.
        -11    1    4    4    0    0  0.19379544087E+02 -0.80981104575E+01 -0.41745798765E+01  0.21414323224E+02  0.00000000000E+00 0. -1.
         11    1    4    4    0    0 -0.31554679494E+02  0.56963187607E+02 -0.15527223161E+03  0.16837448871E+03  0.00000000000E+00 0.  1.
</event>
<event>
 8    1  0.6615242E-009  0.1276535E+03  0.7561462E-02  0.1230980E+00
          2   -1    0    0  501    0  0.00000000000E+00  0.00000000000E+00  0.11587633194E+04  0.11587633194E+04  0.00000000000E+00 0. -1.
         -2   -1    0    0    0  501 -0.00000000000E+00 -0.00000000000E+00 -0.15134122861E+02  0.15134122861E+02  0.00000000000E+00 0.  1.
         25    2    1    2    0    0  0.50217720765E+02  0.57293602498E+02  0.66181256253E+03  0.67782618970E+03  0.12509236250E+03 0.  0.
         23    2    1    2    0    0 -0.50217720765E+02 -0.57293602498E+02  0.48181663404E+03  0.49607125259E+03  0.90194470139E+02 0.  0.
          5    1    3    3  502    0  0.87373480335E+02  0.40633755049E+02  0.55727661844E+03  0.56556160493E+03  0.41800000000E+01 0.  1.
         -5    1    3    3    0  502 -0.37155759570E+02  0.16659847449E+02  0.10453594408E+03  0.11226458476E+03  0.41800000000E+01 0.  1.
        -11    1    4    4    0    0 -0.27466468866E+02  0.22150415680E+02  0.13324449476E+03  0.13783737958E+03  0.00000000000E+00 0. -1.
         11    1    4    4    0    0 -0.22751251899E+02 -0.79444018179E+02  0.34857213928E+03  0.35823387301E+03  0.00000000000E+00 0.  1.
</event>
<event>
 8    1  0.6615242E-009  0.9492986E+02  0.7561462E-02  0.1291334E+00
          2   -1    0    0  501    0  0.00000000000E+00  0.00000000000E+00  0.12387751636E+04  0.12387751636E+04  0.00000000000E+00 0. -1.
         -2   -1    0    0    0  501 -0.00000000000E+00 -0.00000000000E+00 -0.13140282401E+02  0.13140282401E+02  0.00000000000E+00 0.  1.
         25    2    1    2    0    0 -0.96353368967E+01  0.20042756382E+02  0.99961555734E+03  0.10076572523E+04  0.12508926312E+03 0.  0.
         23    2    1    2    0    0  0.96353368967E+01 -0.20042756382E+02  0.22601932391E+03  0.24425819380E+03  0.89904274953E+02 0.  0.
          5    1    3    3  502    0 -0.25881658358E+02  0.55364450264E+02  0.26444218831E+03  0.27144470146E+03  0.41800000000E+01 0.  1.
         -5    1    3    3    0  502  0.16246321462E+02 -0.35321693882E+02  0.73517336903E+03  0.73621255079E+03  0.41800000000E+01 0.  1.
        -11    1    4    4    0    0 -0.34028980378E+02  0.11181401620E+02  0.12276777607E+03  0.12788636397E+03  0.00000000000E+00 0. -1.
         11    1    4    4    0    0  0.43664317275E+02 -0.31224158002E+02  0.10325154784E+03  0.11637182983E+03  0.00000000000E+00 0.  1.
</event>
<event>
 8    1  0.6615242E-009  0.1052722E+03  0.7561462E-02  0.1269584E+00
         -2   -1    0    0    0  501 -0.00000000000E+00  0.00000000000E+00  0.67737970487E+02  0.67737970487E+02  0.00000000000E+00 0. -1.
          2   -1    0    0  501    0  0.00000000000E+00 -0.00000000000E+00 -0.28458733426E+03  0.28458733426E+03  0.00000000000E+00 0.  1.
         25    2    1    2    0    0  0.71474804715E+02 -0.45283115780E+02 -0.12933189453E+03  0.19882816822E+03  0.12508674291E+03 0.  0.
         23    2    1    2    0    0 -0.71474804715E+02  0.45283115780E+02 -0.87517469242E+02  0.15349713653E+03  0.93503236392E+02 0.  0.
          5    1    3    3  502    0  0.72104719652E+02 -0.12721575497E+02 -0.14496631358E+03  0.16246117553E+03  0.41800000000E+01 0. -1.
         -5    1    3    3    0  502 -0.62991493653E+00 -0.32561540283E+02  0.15634419053E+02  0.36366992693E+02  0.41800000000E+01 0. -1.
        -11    1    4    4    0    0 -0.81379931749E+02  0.31202821945E+02 -0.99686658061E+02  0.13241502628E+03  0.00000000000E+00 0.  1.
         11    1    4    4    0    0  0.99051270345E+01  0.14080293835E+02  0.12169188819E+02  0.21082110249E+02  0.00000000000E+00 0. -1.
</event>
<event>
 8    1  0.6615242E-009  0.1415409E+03  0.7561462E-02  0.1211270E+00
          2   -1    0    0  501    0  0.00000000000E+00  0.00000000000E+00  0.18467693004E+03  0.18467693004E+03  0.00000000000E+00 0.  1.
         -2   -1    0    0    0  501 -0.00000000000E+00 -0.00000000000E+00 -0.15037497493E+03  0.15037497493E+03  0.00000000000E+00 0. -1.
         25    2    1    2    0    0  0.93118805846E+02 -0.92339448393E+02  0.25155908531E+01  0.18124753239E+03  0.12508658628E+03 0.  0.
         23    2    1    2    0    0 -0.93118805846E+02  0.92339448393E+02  0.31786364249E+02  0.15380437258E+03  0.73808714543E+02 0.  0.
          5    1    3    3  502    0  0.10427852924E+02 -0.55828630131E+02 -0.50720310542E+02  0.76260070551E+02  0.41800000000E+01 0. -1.
         -5    1    3    3    0  502  0.82690952922E+02 -0.36510818261E+02  0.53235901395E+02  0.10498746184E+03  0.41800000000E+01 0. -1.
        -11    1    4    4    0    0 -0.40966452708E+02  0.17786095549E+02  0.43165514027E+02  0.62111649822E+02  0.00000000000E+00 0.  1.
         11    1    4    4    0    0 -0.52152353138E+02  0.74553352843E+02 -0.11379149779E+02  0.91692722763E+02  0.00000000000E+00 0. -1.
</event>
<event>
 8    1  0.6615242E-009  0.1776755E+03  0.7561462E-02  0.1170072E+00
         -3   -1    0    0    0  501 -0.00000000000E+00  0.00000000000E+00  0.37235591156E+03  0.37235591156E+03  0.00000000000E+00 0.  1.
          3   -1    0    0  501    0  0.00000000000E+00 -0.00000000000E+00 -0.14921433680E+03  0.14921433680E+03  0.00000000000E+00 0. -1.
         25    2    1    2    0    0  0.98474177175E+02  0.14440061907E+03  0.24169324029E+03  0.32343498373E+03  0.12508342792E+03 0.  0.
         23    2    1    2    0    0 -0.98474177175E+02 -0.14440061907E+03 -0.18551665525E+02  0.19813526464E+03  0.91458823755E+02 0.  0.
          5    1    3    3  502    0  0.21409962281E+02  0.68824311811E+01 -0.11149378322E+02  0.25446716503E+02  0.41800000000E+01 0.  1.
         -5    1    3    3    0  502  0.77064214894E+02  0.13751818789E+03  0.25284261861E+03  0.29798826722E+03  0.41800000000E+01 0.  1.
        -11    1    4    4    0    0 -0.56025713086E+02 -0.81877366008E+02  0.35339200730E+02  0.10531686807E+03  0.00000000000E+00 0. -1.
         11    1    4    4    0    0 -0.42448464089E+02 -0.62523253063E+02 -0.53890866254E+02  0.92818396575E+02  0.00000000000E+00 0.  1.
</event>
<event>
 8    1  0.6615242E-009  0.9794559E+02  0.7561462E-02  0.1284676E+00
          2   -1    0    0  501    0  0.00000000000E+00  0.00000000000E+00  0.22733140482E+03  0.22733140482E+03  0.00000000000E+00 0. -1.
         -2   -1    0    0    0  501 -0.00000000000E+00 -0.00000000000E+00 -0.71550269506E+02  0.71550269506E+02  0.00000000000E+00 0.  1.
         25    2    1    2    0    0  0.17423134080E+02  0.35804796445E+02  0.20683425969E+02  0.13288756431E+03  0.12508297881E+03 0.  0.
         23    2    1    2    0    0 -0.17423134080E+02 -0.35804796445E+02  0.13509770935E+03  0.16599411002E+03  0.87847051407E+02 0.  0.
          5    1    3    3  502    0  0.45318180940E+02 -0.33455523816E+02  0.88616720169E+01  0.57175267629E+02  0.41800000000E+01 0.  1.
         -5    1    3    3    0  502 -0.27895046860E+02  0.69260320261E+02  0.11821753952E+02  0.75712296680E+02  0.41800000000E+01 0.  1.
        -11    1    4    4    0    0  0.93906157082E+01 -0.36612130454E+02  0.13390983006E+03  0.13914192160E+03  0.00000000000E+00 0. -1.
         11    1    4    4    0    0 -0.26813749788E+02  0.80733400897E+00  0.11878792901E+01  0.26852188423E+02  0.00000000000E+00 0.  1.
</event>
<event>
 8    1  0.6615242E-009  0.1082737E+03  0.7561462E-02  0.1263800E+00
          3   -1    0    0  501    0  0.00000000000E+00  0.00000000000E+00  0.61242728596E+02  0.61242728596E+02  0.00000000000E+00 0. -1.
         -3   -1    0    0    0  501 -0.00000000000E+00 -0.00000000000E+00 -0.25075999773E+03  0.25075999773E+03  0.00000000000E+00 0.  1.
         25    2    1    2    0    0  0.11406078530E+02 -0.33074361066E+02 -0.16827358209E+03  0.21257332721E+03  0.12508960398E+03 0.  0.
         23    2    1    2    0    0 -0.11406078530E+02  0.33074361066E+02 -0.21243687044E+02  0.99429399116E+02  0.90614012062E+02 0.  0.
          5    1    3    3  502    0  0.67258011102E+02 -0.20308014114E+02 -0.11116227279E+03  0.13156967275E+03  0.41800000000E+01 0. -1.
         -5    1    3    3    0  502 -0.55851932572E+02 -0.12766346952E+02 -0.57111309299E+02  0.81003654463E+02  0.41800000000E+01 0. -1.
        -11    1    4    4    0    0 -0.40214112228E+02 -0.54878289484E+01  0.10308141241E+02  0.41875396889E+02  0.00000000000E+00 0. -1.
         11    1    4    4    0    0  0.28808033697E+02  0.38562190014E+02 -0.31551828285E+02  0.57554002227E+02  0.00000000000E+00 0.  1.
</event>
<event>
 8    1  0.6615242E-009  0.1393296E+03  0.7561462E-02  0.1214234E+00
          1   -1    0    0  501    0  0.00000000000E+00  0.00000000000E+00  0.74352225793E+03  0.74352225793E+03  0.00000000000E+00 0. -1.
         -1   -1    0    0    0  501 -0.00000000000E+00 -0.00000000000E+00 -0.45193882383E+02  0.45193882383E+02  0.00000000000E+00 0.  1.
         25    2    1    2    0    0  0.95041989181E+02 -0.26487648565E+02  0.59900318222E+03  0.61982787865E+03  0.12508881490E+03 0.  0.
         23    2    1    2    0    0 -0.95041989181E+02  0.26487648565E+02  0.99325193331E+02  0.16888826166E+03  0.94462562230E+02 0.  0.
          5    1    3    3  502    0 -0.22273331992E+02  0.19442119730E+02  0.71741074415E+02  0.77706830433E+02  0.41800000000E+01 0.  1.
         -5    1    3    3    0  502  0.11731532117E+03 -0.45929768296E+02  0.52726210780E+03  0.54212104822E+03  0.41800000000E+01 0.  1.
        -11    1    4    4    0    0 -0.22515673685E+02 -0.25118101867E+02 -0.22776231699E+01  0.33809202449E+02  0.00000000000E+00 0.  1.
         11    1    4    4    0    0 -0.72526315496E+02  0.51605750433E+02  0.10160281650E+03  0.13507905921E+03  0.00000000000E+00 0. -1.
</event>
<event>
 8    1  0.6615242E-009  0.1064223E+03  0.7561462E-02  0.1267342E+00
          1   -1    0    0  501    0  0.00000000000E+00  0.00000000000E+00  0.81709164753E+02  0.81709164753E+02  0.00000000000E+00 0. -1.
         -1   -1    0    0    0  501 -0.00000000000E+00 -0.00000000000E+00 -0.21650284471E+03  0.21650284471E+03  0.00000000000E+00 0.  1.
         25    2    1    2    0    0 -0.31570040601E+02  0.48110346027E+02 -0.16533154900E+02  0.13867948439E+03  0.12508949325E+03 0.  0.
         23    2    1    2    0    0  0.31570040601E+02 -0.48110346027E+02 -0.11826052506E+03  0.15953252508E+03  0.90298404814E+02 0.  0.
          5    1    3    3  502    0 -0.17664363795E+02 -0.31640274359E+02  0.28188261207E+02  0.46099752491E+02  0.41800000000E+01 0. -1.
         -5    1    3    3    0  502 -0.13905676805E+02  0.79750620386E+02 -0.44721416108E+02  0.92579731897E+02  0.41800000000E+01 0. -1.
        -11    1    4    4    0    0 -0.22314315216E+01 -0.59571768032E+02 -0.35449598482E+02  0.69357399502E+02  0.00000000000E+00 0. -1.
         11    1    4    4    0    0  0.33801472122E+02  0.11461422006E+02 -0.82810926576E+02  0.90175125575E+02  0.00000000000E+00 0.  1.
</event>
<event>
 8    1  0.6615242E-009  0.9700257E+02  0.7561462E-02  0.1286728E+00
         -2   -1    0    0    0  501 -0.00000000000E+00  0.00000000000E+00  0.35011566402E+03  0.35011566402E+03  0.00000000000E+00 0.  1.
          2   -1    0    0  501    0  0.00000000000E+00 -0.00000000000E+00 -0.39820414800E+02  0.39820414800E+02  0.00000000000E+00 0. -1.
         25    2    1    2    0    0 -0.26105494458E+02 -0.35326731544E+02  0.15513776939E+03  0.20407019280E+03  0.12508973297E+03 0.  0.
         23    2    1    2    0    0  0.26105494458E+02  0.35326731544E+02  0.15515747984E+03  0.18586588603E+03  0.92427318671E+02 0.  0.
          5    1    3    3  502    0 -0.37077141792E+02 -0.68378460766E+02  0.14945642330E+03  0.16853789843E+03  0.41800000000E+01 0. -1.
         -5    1    3    3    0  502  0.10971647334E+02  0.33051729222E+02  0.56813460839E+01  0.35532294369E+02  0.41800000000E+01 0. -1.
        -11    1    4    4    0    0  0.48273093784E+02  0.33567007192E+02  0.15253475042E+03  0.16347441892E+03  0.00000000000E+00 0.  1.
         11    1    4    4    0    0 -0.22167599326E+02  0.17597243519E+01  0.26227294172E+01  0.22391467108E+02  0.00000000000E+00 0. -1.
</event>
<event>
 8    1  0.6615242E-009  0.8583233E+02  0.7561462E-02  0.1313270E+00
         -4   -1    0    0    0  501 -0.00000000000E+00  0.00000000000E+00  0.48734739038E+02  0.48734739038E+02  0.00000000000E+00 0.  1.
          4   -1    0    0  501    0  0.00000000000E+00 -0.00000000000E+00 -0.37408895092E+03  0.37408895092E+03  0.00000000000E+00 0. -1.
         25    2    1    2    0    0 -0.29616897808E+02  0.22555175012E+02 -0.29236313112E+03  0.32018838471E+03  0.12513394707E+03 0.  0.
         23    2    1    2    0    0  0.29616897808E+02 -0.22555175012E+02 -0.32991080756E+02  0.10263530524E+03  0.89775820338E+02 0.  0.
          5    1    3    3  502    0 -0.24633234436E+02 -0.20397558943E+02 -0.26887516229E+03  0.27080284700E+03  0.41800000000E+01 0.  1.
         -5    1    3    3    0  502 -0.49836633726E+01  0.42952733955E+02 -0.23487968835E+02  0.49385537709E+02  0.41800000000E+01 0.  1.
        -11    1    4    4    0    0  0.51960984126E+02 -0.41636745110E+02 -0.30219908388E+02  0.73121852258E+02  0.00000000000E+00 0. -1.
         11    1    4    4    0    0 -0.22344086318E+02  0.19081570098E+02 -0.27711723679E+01  0.29513452985E+02  0.00000000000E+00 0.  1.
</event>
<event>
 8    1  0.6615242E-009  0.1114643E+03  0.7561462E-02  0.1257882E+00
         -3   -1    0    0    0  501 -0.00000000000E+00  0.00000000000E+00  0.61117063148E+02  0.61117063148E+02  0.00000000000E+00 0.  1.
          3   -1    0    0  501    0  0.00000000000E+00 -0.00000000000E+00 -0.26014095157E+03  0.26014095157E+03  0.00000000000E+00 0. -1.
         25    2    1    2    0    0  0.38769064408E+02 -0.26224652473E+02 -0.55461999070E+02  0.14458870815E+03  0.12505634103E+03 0.  0.
         23    2    1    2    0    0 -0.38769064408E+02  0.26224652473E+02 -0.14356188936E+03  0.17666930657E+03  0.91712894705E+02 0.  0.
          5    1    3    3  502    0  0.58866459323E+02 -0.63430144420E+02 -0.53963845943E+02  0.10206964448E+03  0.41800000000E+01 0. -1.
         -5    1    3    3    0  502 -0.20097394916E+02  0.37205491946E+02 -0.14981531270E+01  0.42519063679E+02  0.41800000000E+01 0. -1.
        -11    1    4    4    0    0 -0.33210288634E+02  0.55131573624E+02 -0.12823775680E+03  0.14348287685E+03  0.00000000000E+00 0. -1.
         11    1    4    4    0    0 -0.55587757741E+01 -0.28906921151E+02 -0.15324132557E+02  0.33186429714E+02  0.00000000000E+00 0.  1.
</event>
<event>
 8    1  0.6615242E-009  0.1549351E+03  0.7561462E-02  0.1194537E+00
         -2   -1    0    0    0  501 -0.00000000000E+00  0.00000000000E+00  0.99122080347E+02  0.99122080347E+02  0.00000000000E+00 0.  1.
          2   -1    0    0  501    0  0.00000000000E+00 -0.00000000000E+00 -0.27066359017E+03  0.27066359017E+03  0.00000000000E+00 0. -1.
         25    2    1    2    0    0 -0.54501743722E+02  0.10267568093E+03 -0.47184704034E+02  0.17716276919E+03  0.12509002746E+03 0.  0.
         23    2    1    2    0    0  0.54501743722E+02 -0.10267568093E+03 -0.12435680579E+03  0.19262290133E+03  0.90145612459E+02 0.  0.
          5    1    3    3  502    0 -0.69450222469E+02  0.12380397320E+03 -0.50522597712E+02  0.15073407863E+03  0.41800000000E+01 0.  1.
         -5    1    3    3    0  502  0.14948478747E+02 -0.21128292262E+02  0.33378936779E+01  0.26428690565E+02  0.41800000000E+01 0.  1.
        -11    1    4    4    0    0 -0.20524656575E+02 -0.11376645840E+02 -0.43533480002E+02  0.49455570760E+02  0.00000000000E+00 0. -1.
         11    1    4    4    0    0  0.75026400297E+02 -0.91299035095E+02 -0.80823325791E+02  0.14316733057E+03  0.00000000000E+00 0.  1.
</event>
<event>
 8    1  0.6615242E-009  0.1242071E+03  0.7561462E-02  0.1236314E+00
         -1   -1    0    0    0  501 -0.00000000000E+00  0.00000000000E+00  0.13308660176E+03  0.13308660176E+03  0.00000000000E+00 0.  1.
          1   -1    0    0  501    0  0.00000000000E+00 -0.00000000000E+00 -0.16435851836E+03  0.16435851836E+03  0.00000000000E+00 0. -1.
         25    2    1    2    0    0 -0.77266535517E+02  0.57209481207E+02 -0.16949313704E+02  0.15867559340E+03  0.12509045708E+03 0.  0.
         23    2    1    2    0    0  0.77266535517E+02 -0.57209481207E+02 -0.14322602898E+02  0.13876952673E+03  0.99039397942E+02 0.  0.
          5    1    3    3  502    0 -0.92946307334E+02  0.45081552280E+02 -0.53856855347E+02  0.11657356334E+03  0.41800000000E+01 0.  1.
         -5    1    3    3    0  502  0.15679771817E+02  0.12127928927E+02  0.36907541643E+02  0.42102030051E+02  0.41800000000E+01 0.  1.
        -11    1    4    4    0    0  0.48578436571E+02 -0.76197754730E+02  0.17339579208E+02  0.92014256138E+02  0.00000000000E+00 0.  1.
         11    1    4    4    0    0  0.28688098946E+02  0.18988273523E+02 -0.31662182106E+02  0.46755270593E+02  0.00000000000E+00 0. -1.
</event>
<event>
 8    1  0.6615242E-009  0.2058243E+03  0.7561462E-02  0.1144916E+00
          2   -1    0    0  501    0  0.00000000000E+00  0.00000000000E+00  0.31056498718E+03  0.31056498718E+03  0.00000000000E+00 0. -1.
         -2   -1    0    0    0  501 -0.00000000000E+00 -0.00000000000E+00 -0.15829186001E+03  0.15829186001E+03  0.00000000000E+00 0.  1.
         25    2    1    2    0    0 -0.18496916496E+03 -0.42565143339E+02  0.11015382930E+03  0.25260007944E+03  0.12509016991E+03 0.  0.
         23    2    1    2    0    0  0.18496916496E+03  0.42565143339E+02  0.42119297873E+02  0.21625676775E+03  0.94697259371E+02 0.  0.
          5    1    3    3  502    0 -0.17171868191E+02  0.33245692396E+02  0.41525785798E+02  0.56053656493E+02  0.41800000000E+01 0. -1.
         -5    1    3    3    0  502 -0.16779729677E+03 -0.75810835735E+02  0.68628043505E+02  0.19654642295E+03  0.41800000000E+01 0. -1.
        -11    1    4    4    0    0  0.16374142391E+03  0.36819551894E+02  0.69056991812E+02  0.18148223446E+03  0.00000000000E+00 0. -1.
         11    1    4    4    0    0  0.21227741045E+02  0.57455914446E+01 -0.26937693938E+02  0.34774533292E+02  0.00000000000E+00 0.  1.
</event>
<event>
 8    1  0.6615242E-009  0.9470592E+02  0.7561462E-02  0.1291840E+00
          2   -1    0    0  501    0  0.00000000000E+00  0.00000000000E+00  0.15159104059E+03  0.15159104059E+03  0.00000000000E+00 0. -1.
         -2   -1    0    0    0  501 -0.00000000000E+00 -0.00000000000E+00 -0.84300133034E+02  0.84300133034E+02  0.00000000000E+00 0.  1.
         25    2    1    2    0    0 -0.93667965519E+01  0.14637180765E+02  0.68383320886E+02  0.14361678690E+03  0.12509004343E+03 0.  0.
         23    2    1    2    0    0  0.93667965519E+01 -0.14637180765E+02 -0.10924133337E+01  0.92274386725E+02  0.90616693496E+02 0.  0.
          5    1    3    3  502    0  0.56341003318E+02  0.16478354047E+02  0.43603777040E+02  0.73243474652E+02  0.41800000000E+01 0.  1.
         -5    1    3    3    0  502 -0.65707799870E+02 -0.18411732822E+01  0.24779543846E+02  0.70373312243E+02  0.41800000000E+01 0.  1.
        -11    1    4    4    0    0 -0.23556121234E+02  0.78456343359E+01  0.31971850484E+02  0.40480168590E+02  0.00000000000E+00 0. -1.
         11    1    4    4    0    0  0.32922917786E+02 -0.22482815101E+02 -0.33064263818E+02  0.51794218135E+02  0.00000000000E+00 0.  1.
</event>
<event>
 8    1  0.6615242E-009  0.2422460E+03  0.7561462E-02  0.1118306E+00
         -2   -1    0    0    0  501 -0.00000000000E+00  0.00000000000E+00  0.13286075357E+03  0.13286075357E+03  0.00000000000E+00 0.  1.
          2   -1    0    0  501    0  0.00000000000E+00 -0.00000000000E+00 -0.81350623058E+03  0.81350623058E+03  0.00000000000E+00 0. -1.
         25    2    1    2    0    0 -0.75175964962E+02 -0.21718359206E+03 -0.43889573088E+02  0.26531885898E+03  0.12509062290E+03 0.  0.
         23    2    1    2    0    0  0.75175964962E+02  0.21718359206E+03 -0.63675590393E+03  0.68104812517E+03  0.74487107935E+02 0.  0.
          5    1    3    3  502    0 -0.80911214629E+02 -0.70029841453E+02  0.11975974931E+02  0.10775759705E+03  0.41800000000E+01 0. -1.
         -5    1    3    3    0  502  0.57352496669E+01 -0.14715375060E+03 -0.55865548019E+02  0.15756126193E+03  0.41800000000E+01 0. -1.
        -11    1    4    4    0    0  0.26325355914E+02  0.92245055171E+02 -0.16782857743E+03  0.19330961168E+03  0.00000000000E+00 0.  1.
         11    1    4    4    0    0  0.48850609048E+02  0.12493853689E+03 -0.46892732650E+03  0.48773851349E+03  0.00000000000E+00 0. -1.
</event>
<event>
 8    1  0.6615242E-009  0.7780911E+02  0.7561462E-02  0.1335386E+00
         -2   -1    0    0    0  501 -0.00000000000E+00  0.00000000000E+00  0.35857574174E+02  0.35857574174E+02  0.00000000000E+00 0.  1.
          2   -1    0    0  501    0  0.00000000000E+00 -0.00000000000E+00 -0.66986689061E+03  0.66986689061E+03  0.00000000000E+00 0. -1.
         25    2    1    2    0    0 -0.37577120385E+02 -0.15935380003E+02 -0.57595479620E+03  0.59079297615E+03  0.12508571895E+03 0.  0.
         23    2    1    2    0    0  0.37577120385E+02  0.15935380003E+02 -0.58054520236E+02  0.11493148864E+03  0.90404333128E+02 0.  0.
          5    1    3    3  502    0  0.56243065670E+01  0.54128378876E+01 -0.50408310753E+03  0.50416087049E+03  0.41800000000E+01 0. -1.
         -5    1    3    3    0  502 -0.43201426952E+02 -0.21348217890E+02 -0.71871688676E+02  0.86632105659E+02  0.41800000000E+01 0. -1.
        -11    1    4    4    0    0  0.56210852454E+02  0.39242731477E+02 -0.46958634372E+02  0.83094917109E+02  0.00000000000E+00 0. -1.
         11    1    4    4    0    0 -0.18633732069E+02 -0.23307351474E+02 -0.11095885864E+02  0.31836571528E+02  0.00000000000E+00 0.  1.
</event>
<event>
 8    1  0.6615242E-009  0.8544561E+02  0.7561462E-02  0.1314271E+00
          2   -1    0    0  501    0  0.00000000000E+00  0.00000000000E+00  0.32713910748E+03  0.32713910748E+03  0.00000000000E+00 0. -1.
         -2   -1    0    0    0  501 -0.00000000000E+00 -0.00000000000E+00 -0.60045344203E+02  0.60045344203E+02  0.00000000000E+00 0.  1.
         25    2    1    2    0    0 -0.11043634718E+02 -0.86234669613E+01  0.26129744628E+03  0.29003507454E+03  0.12509061908E+03 0.  0.
         23    2    1    2    0    0  0.11043634718E+02  0.86234669613E+01  0.57963170000E+01  0.97149377142E+02  0.95958731432E+02 0.  0.
          5    1    3    3  502    0 -0.19119907914E+02  0.30206372087E+02  0.12560437186E+02  0.38121290319E+02  0.41800000000E+01 0. -1.
         -5    1    3    3    0  502  0.80762731953E+01 -0.38829839048E+02  0.24873700909E+03  0.25191378423E+03  0.41800000000E+01 0. -1.
        -11    1    4    4    0    0  0.52813324058E+02  0.33931700964E+01  0.12866686522E+02  0.54463863464E+02  0.00000000000E+00 0.  1.
         11    1    4    4    0    0 -0.41769689339E+02  0.52302968649E+01 -0.70703695223E+01  0.42685513678E+02  0.00000000000E+00 0. -1.
</event>
<event>
 8    1  0.6615242E-009  0.8483069E+02  0.7561462E-02  0.1315876E+00
         -2   -1    0    0    0  501 -0.00000000000E+00  0.00000000000E+00  0.29954355467E+03  0.29954355467E+03  0.00000000000E+00 0.  1.
          2   -1    0    0  501    0  0.00000000000E+00 -0.00000000000E+00 -0.69364290957E+02  0.69364290957E+02  0.00000000000E+00 0. -1.
         25    2    1    2    0    0  0.24639091020E+02 -0.79904777586E+02  0.18433023820E+03  0.23794334499E+03  0.12509012920E+03 0.  0.
         23    2    1    2    0    0 -0.24639091020E+02  0.79904777586E+02  0.45849025510E+02  0.13096450064E+03  0.89764742517E+02 0.  0.
          5    1    3    3  502    0  0.19487042723E+02 -0.32496038004E+02  0.18617438319E+03  0.19003712973E+03  0.41800000000E+01 0.  1.
         -5    1    3    3    0  502  0.51520482973E+01 -0.47408739582E+02 -0.18441449823E+01  0.47906215266E+02  0.41800000000E+01 0.  1.
        -11    1    4    4    0    0 -0.10025119306E+02  0.37520258808E+02  0.69991475557E+02  0.80044234576E+02  0.00000000000E+00 0.  1.
         11    1    4    4    0    0 -0.14613971714E+02  0.42384518778E+02 -0.24142450048E+02  0.50920266060E+02  0.00000000000E+00 0. -1.
</event>
<event>
 8    1  0.6615242E-009  0.8552954E+02  0.7561462E-02  0.1314053E+00
          2   -1    0    0  501    0  0.00000000000E+00  0.00000000000E+00  0.89509537097E+02  0.89509537097E+02  0.00000000000E+00 0. -1.
         -2   -1    0    0    0  501 -0.00000000000E+00 -0.00000000000E+00 -0.18008924633E+03  0.18008924633E+03  0.00000000000E+00 0.  1.
         25    2    1    2    0    0 -0.60241710663E+02 -0.39054260096E+01 -0.75232207872E+02  0.15792719222E+03  0.12504717864E+03 0.  0.
         23    2    1    2    0    0  0.60241710663E+02  0.39054260096E+01 -0.15347501356E+02  0.11167159120E+03  0.92685934359E+02 0.  0.
          5    1    3    3  502    0 -0.33495299495E+02 -0.41025408523E+01  0.32384676150E+02  0.46957486933E+02  0.41800000000E+01 0.  1.
         -5    1    3    3    0  502 -0.26746411168E+02  0.19711484272E+00 -0.10761688402E+03  0.11096970529E+03  0.41800000000E+01 0.  1.
        -11    1    4    4    0    0  0.65653547106E+02  0.37734191364E+02 -0.50254356727E+01  0.75891451753E+02  0.00000000000E+00 0.  1.
         11    1    4    4    0    0 -0.54118364424E+01 -0.33828765355E+02 -0.10322065684E+02  0.35780139450E+02  0.00000000000E+00 0. -1.
</event>
<event>
 8    1  0.6615242E-009  0.1333327E+03  0.7561462E-02  0.1222593E+00
         -4   -1    0    0    0  501 -0.00000000000E+00  0.00000000000E+00  0.76659685985E+02  0.76659685985E+02  0.00000000000E+00 0.  1.
          4   -1    0    0  501    0  0.00000000000E+00 -0.00000000000E+00 -0.24614809385E+03  0.24614809385E+03  0.00000000000E+00 0. -1.
         25    2    1    2    0    0 -0.73163351415E+02  0.22290326624E+02 -0.55765210585E+02  0.15686616217E+03  0.12508996550E+03 0.  0.
         23    2    1    2    0    0  0.73163351415E+02 -0.22290326624E+02 -0.11372319728E+03  0.16594161767E+03  0.93562386803E+02 0.  0.
          5    1    3    3  502    0 -0.45407706561E+02  0.74120422978E+02 -0.40456336360E+02  0.95968142991E+02  0.41800000000E+01 0.  1.
         -5    1    3    3    0  502 -0.27755644854E+02 -0.51830096353E+02 -0.15308874225E+02  0.60898019174E+02  0.41800000000E+01 0.  1.
        -11    1    4    4    0    0  0.25788028074E+02  0.36816142541E+02 -0.38436078119E+02  0.59142056480E+02  0.00000000000E+00 0. -1.
         11    1    4    4    0    0  0.47375323341E+02 -0.59106469166E+02 -0.75287119163E+02  0.10679956119E+03  0.00000000000E+00 0.  1.
</event>
<event>
 8    1  0.6615242E-009  0.1498745E+03  0.7561462E-02  0.1200627E+00
          1   -1    0    0  501    0  0.00000000000E+00  0.00000000000E+00  0.18455344350E+03  0.18455344350E+03  0.00000000000E+00 0. -1.
         -1   -1    0    0    0  501 -0.00000000000E+00 -0.00000000000E+00 -0.13630682270E+03  0.13630682270E+03  0.00000000000E+00 0.  1.
         25    2    1    2    0    0 -0.96550704897E+02  0.62358773772E+02  0.41672318997E+02  0.17491403903E+03  0.12509070148E+03 0.  0.
         23    2    1    2    0    0  0.96550704897E+02 -0.62358773772E+02  0.65743017983E+01  0.14594622717E+03  0.89701864524E+02 0.  0.
          5    1    3    3  502    0 -0.74975915206E+02  0.92922817056E+02  0.59262665798E+02  0.13336256502E+03  0.41800000000E+01 0.  1.
         -5    1    3    3    0  502 -0.21574789692E+02 -0.30564043285E+02 -0.17590346801E+02  0.41551474014E+02  0.41800000000E+01 0.  1.
        -11    1    4    4    0    0  0.79543524278E+02 -0.16223799561E+01 -0.11375480947E+02  0.80369185252E+02  0.00000000000E+00 0. -1.
         11    1    4    4    0    0  0.17007180620E+02 -0.60736393816E+02  0.17949782745E+02  0.65577041920E+02  0.00000000000E+00 0.  1.
</event>
<event>
 7    1  0.6615242E-009  0.9255240E+02  0.7561462E-02  0.1296786E+00
          2   -1    0    0  501    0  0.00000000000E+00  0.00000000000E+00  0.56112256620E+03  0.56112256620E+03  0.00000000000E+00 0. -1.
         -2   -1    0    0    0  501 -0.00000000000E+00 -0.00000000000E+00 -0.31522474467E+02  0.31522474467E+02  0.00000000000E+00 0.  1.
         25    2    1    2    0    0 -0.84906595377E+02  0.70190977715E+01  0.41595653214E+03  0.44263517064E+03  0.12509060709E+03 0.  0.
          5    1    3    3  502    0 -0.24551033933E+02 -0.13756132181E+02  0.78060523120E+01  0.29502394690E+02  0.41800000000E+01 0. -1.
         -5    1    3    3    0  502 -0.60355561444E+02  0.20775229953E+02  0.40815047983E+03  0.41313277595E+03  0.41800000000E+01 0. -1.
        -11    1    1    2    0    0  0.65239962438E+02 -0.21022423783E+02  0.10277158020E+03  0.12353215249E+03  0.00000000000E+00 0. -1.
         11    1    1    2    0    0  0.19666632939E+02  0.14003326012E+02  0.10871979392E+02  0.26477717546E+02  0.00000000000E+00 0.  1.
</event>
<event>
 8    1  0.6615242E-009  0.3956822E+03  0.7561462E-02  0.1045285E+00
         -2   -1    0    0    0  501 -0.00000000000E+00  0.00000000000E+00  0.84227361969E+03  0.84227361969E+03  0.00000000000E+00 0.  1.
          2   -1    0    0  501    0  0.00000000000E+00 -0.00000000000E+00 -0.18770285509E+03  0.18770285509E+03  0.00000000000E+00 0. -1.
         25    2    1    2    0    0 -0.25173646822E+03  0.28712851446E+03  0.33848932932E+03  0.52539205510E+03  0.12509097589E+03 0.  0.
         23    2    1    2    0    0  0.25173646822E+03 -0.28712851446E+03  0.31608143528E+03  0.50458441968E+03  0.94254599925E+02 0.  0.
          5    1    3    3  502    0 -0.10981000102E+03  0.21576086312E+03  0.22018271184E+03  0.32727493850E+03  0.41800000000E+01 0. -1.
         -5    1    3    3    0  502 -0.14192646720E+03  0.71367651347E+02  0.11830661748E+03  0.19811711660E+03  0.41800000000E+01 0. -1.
        -11    1    4    4    0    0  0.57540647237E+02 -0.12398692377E+03  0.14110718832E+03  0.19645590331E+03  0.00000000000E+00 0. -1.
         11    1    4    4    0    0  0.19419582099E+03 -0.16314159070E+03  0.17497424696E+03  0.30812851637E+03  0.00000000000E+00 0.  1.
</event>
<event>
 8    1  0.6615242E-009  0.4107166E+03  0.7561462E-02  0.1040131E+00
         -2   -1    0    0    0  501 -0.00000000000E+00  0.00000000000E+00  0.16811534660E+03  0.16811534660E+03  0.00000000000E+00 0.  1.
          2   -1    0    0  501    0  0.00000000000E+00 -0.00000000000E+00 -0.20333634335E+04  0.20333634335E+04  0.00000000000E+00 0. -1.
         25    2    1    2    0    0 -0.40087506850E+03 -0.43267170901E+01 -0.16306545445E+03  0.45050828450E+03  0.12509129043E+03 0.  0.
         23    2    1    2    0    0  0.40087506850E+03  0.43267170901E+01 -0.17021826325E+04  0.17509704956E+04  0.88047834849E+02 0.  0.
          5    1    3    3  502    0 -0.11372147841E+03 -0.57947111187E+02 -0.54398148980E+02  0.13880588373E+03  0.41800000000E+01 0.  1.
         -5    1    3    3    0  502 -0.28715359009E+03  0.53620394097E+02 -0.10866730547E+03  0.31170240077E+03  0.41800000000E+01 0.  1.
        -11    1    4    4    0    0  0.12692518647E+03  0.12285620050E+02 -0.72287397376E+03  0.73403523169E+03  0.00000000000E+00 0. -1.
         11    1    4    4    0    0  0.27394988204E+03 -0.79589029603E+01 -0.97930865869E+03  0.10169352639E+04  0.00000000000E+00 0.  1.
</event>
<event>
 8    1  0.6615242E-009  0.6815721E+02  0.7561462E-02  0.1366474E+00
         -2   -1    0    0    0  501 -0.00000000000E+00  0.00000000000E+00  0.13468508612E+03  0.13468508612E+03  0.00000000000E+00 0.  1.
          2   -1    0    0  501    0  0.00000000000E+00 -0.00000000000E+00 -0.11881298867E+03  0.11881298867E+03  0.00000000000E+00 0. -1.
         25    2    1    2    0    0  0.12954282361E+02 -0.26976568372E+02 -0.44349484208E+02  0.13604944391E+03  0.12508807204E+03 0.  0.
         23    2    1    2    0    0 -0.12954282361E+02  0.26976568372E+02  0.60221581657E+02  0.11744863089E+03  0.96291190288E+02 0.  0.
          5    1    3    3  502    0  0.19491661637E+02 -0.13148800698E+02  0.41968558980E+02  0.48287142968E+02  0.41800000000E+01 0.  1.
         -5    1    3    3    0  502 -0.65373792759E+01 -0.13827767674E+02 -0.86318043188E+02  0.87762300941E+02  0.41800000000E+01 0.  1.
        -11    1    4    4    0    0 -0.51679561273E+02  0.25973214961E+02  0.52150487662E+02  0.77878484270E+02  0.00000000000E+00 0.  1.
         11    1    4    4    0    0  0.38725278912E+02  0.10033534109E+01  0.80710939951E+01  0.39570146616E+02  0.00000000000E+00 0. -1.
</event>
<event>
 8    1  0.6615242E-009  0.2681461E+03  0.7561462E-02  0.1102345E+00
          1   -1    0    0  501    0  0.00000000000E+00  0.00000000000E+00  0.30611852632E+03  0.30611852632E+03  0.00000000000E+00 0. -1.
         -1   -1    0    0    0  501 -0.00000000000E+00 -0.00000000000E+00 -0.25121269977E+03  0.25121269977E+03  0.00000000000E+00 0.  1.
         25    2    1    2    0    0  0.15153765119E+03  0.20154700521E+03  0.17044733130E+00  0.28148227527E+03  0.12508951675E+03 0.  0.
         23    2    1    2    0    0 -0.15153765119E+03 -0.20154700521E+03  0.54735379216E+02  0.27584895082E+03  0.97528595256E+02 0.  0.
          5    1    3    3  502    0  0.87796525020E+02  0.48955098519E+02  0.44817405570E+02  0.11014038187E+03  0.41800000000E+01 0.  1.
         -5    1    3    3    0  502  0.63741126171E+02  0.15259190669E+03 -0.44646958239E+02  0.17134189340E+03  0.41800000000E+01 0.  1.
        -11    1    4    4    0    0 -0.61974856367E+01 -0.81547260475E+02  0.20090311905E+02  0.84213924927E+02  0.00000000000E+00 0. -1.
         11    1    4    4    0    0 -0.14534016555E+03 -0.11999974474E+03  0.34645067311E+02  0.19163502589E+03  0.00000000000E+00 0.  1.
</event>
<event>
 8    1  0.6615242E-009  0.1070342E+03  0.7561462E-02  0.1266163E+00
          2   -1    0    0  501    0  0.00000000000E+00  0.00000000000E+00  0.89522952173E+03  0.89522952173E+03  0.00000000000E+00 0. -1.
         -2   -1    0    0    0  501 -0.00000000000E+00 -0.00000000000E+00 -0.13773526878E+02  0.13773526878E+02  0.00000000000E+00 0.  1.
         25    2    1    2    0    0 -0.86574694457E+01 -0.21618640119E+02  0.48786785170E+03  0.50418709681E+03  0.12508905021E+03 0.  0.
         23    2    1    2    0    0  0.86574694457E+01  0.21618640119E+02  0.39358814315E+03  0.40481595180E+03  0.91771515343E+02 0.  0.
          5    1    3    3  502    0 -0.57943612391E+02 -0.35422016370E+02  0.18756596135E+03  0.19952604772E+03  0.41800000000E+01 0.  1.
         -5    1    3    3    0  502  0.49286142945E+02  0.13803376251E+02  0.30030189035E+03  0.30466104909E+03  0.41800000000E+01 0.  1.
        -11    1    4    4    0    0 -0.37321986493E+02  0.30064734204E+02  0.19691627974E+03  0.20266435342E+03  0.00000000000E+00 0.  1.
         11    1    4    4    0    0  0.45979455939E+02 -0.84460940858E+01  0.19667186340E+03  0.20215159838E+03  0.00000000000E+00 0. -1.
</event>
<event>
 8    1  0.6615242E-009  0.7269403E+02  0.7561462E-02  0.1351164E+00
         -2   -1    0    0    0  501 -0.00000000000E+00  0.00000000000E+00  0.46906935755E+02  0.46906935755E+02  0.00000000000E+00 0.  1.
          2   -1    0    0  501    0  0.00000000000E+00 -0.00000000000E+00 -0.28071559243E+03  0.28071559243E+03  0.00000000000E+00 0. -1.
         25    2    1    2    0    0  0.11645176318E+02 -0.20050619553E+02 -0.18201979273E+03  0.22207537084E+03  0.12509447595E+03 0.  0.
         23    2    1    2    0    0 -0.11645176318E+02  0.20050619553E+02 -0.51788863943E+02  0.10554715734E+03  0.88997070278E+02 0.  0.
          5    1    3    3  502    0  0.34296741990E+02 -0.89311895550E+01 -0.19150060473E+03  0.19479729637E+03  0.41800000000E+01 0.  1.
         -5    1    3    3    0  502 -0.22651565672E+02 -0.11119429998E+02  0.94808120042E+01  0.27278074477E+02  0.41800000000E+01 0.  1.
        -11    1    4    4    0    0  0.68694089682E+01 -0.29990932349E+02  0.59599260496E+00  0.30773365269E+02  0.00000000000E+00 0. -1.
         11    1    4    4    0    0 -0.18514585286E+02  0.50041551903E+02 -0.52384856548E+02  0.74773792071E+02  0.00000000000E+00 0.  1.
</event>
<event>
 8    1  0.6615242E-009  0.1354415E+03  0.7561462E-02  0.1219598E+00
          2   -1    0    0  501    0  0.00000000000E+00  0.00000000000E+00  0.93651348610E+03  0.93651348610E+03  0.00000000000E+00 0. -1.
         -2   -1    0    0    0  501 -0.00000000000E+00 -0.00000000000E+00 -0.23747862538E+02  0.23747862538E+02  0.00000000000E+00 0.  1.
         25    2    1    2    0    0 -0.95098895147E+02 -0.23395155053E+02  0.58271357218E+03  0.60398259848E+03  0.12509491968E+03 0.  0.
         23    2    1    2    0    0  0.95098895147E+02  0.23395155053E+02  0.33005205138E+03  0.35627875016E+03  0.91700916312E+02 0.  0.
          5    1    3    3  502    0 -0.21045058549E+01 -0.41936053003E+02  0.64014759423E+02  0.76670876546E+02  0.41800000000E+01 0. -1.
         -5    1    3    3    0  502 -0.92994389292E+02  0.18540897951E+02  0.51869881275E+03  0.52731172193E+03  0.41800000000E+01 0. -1.
        -11    1    4    4    0    0  0.52690336181E+02  0.58489984967E+02  0.18061973079E+03  0.19703004090E+03  0.00000000000E+00 0.  1.
         11    1    4    4    0    0  0.42408558966E+02 -0.35094829915E+02  0.14943232060E+03  0.15924870925E+03  0.00000000000E+00 0. -1.
</event>
<event>
 8    1  0.6615242E-009  0.1320155E+03  0.7561462E-02  0.1224495E+00
          1   -1    0    0  501    0  0.00000000000E+00  0.00000000000E+00  0.12961343574E+04  0.12961343574E+04  0.00000000000E+00 0. -1.
         -1   -1    0    0    0  501 -0.00000000000E+00 -0.00000000000E+00 -0.16755571736E+02  0.16755571736E+02  0.00000000000E+00 0.  1.
         25    2    1    2    0    0 -0.51379265061E+02  0.76364136641E+02  0.70535001208E+03  0.72224491605E+03  0.12509104275E+03 0.  0.
         23    2    1    2    0    0  0.51379265061E+02 -0.76364136641E+02  0.57402877354E+03  0.59064501305E+03  0.10431293466E+03 0.  0.
          5    1    3    3  502    0 -0.55603955357E+02 -0.12774232887E+02  0.40081816121E+03  0.40487979900E+03  0.41800000000E+01 0. -1.
         -5    1    3    3    0  502  0.42246902963E+01  0.89138369528E+02  0.30453185086E+03  0.31736511705E+03  0.41800000000E+01 0. -1.
        -11    1    4    4    0    0  0.68650556471E+02 -0.72391779632E+02  0.55767967062E+03  0.56653339150E+03  0.00000000000E+00 0. -1.
         11    1    4    4    0    0 -0.17271291410E+02 -0.39723570088E+01  0.16349102925E+02  0.24111621547E+02  0.00000000000E+00 0.  1.
</event>
<event>
 8    1  0.6615242E-009  0.1275945E+03  0.7561462E-02  0.1231069E+00
         -3   -1    0    0    0  501 -0.00000000000E+00  0.00000000000E+00  0.15947444714E+03  0.15947444714E+03  0.00000000000E+00 0.  1.
          3   -1    0    0  501    0  0.00000000000E+00 -0.00000000000E+00 -0.13343957111E+03  0.13343957111E+03  0.00000000000E+00 0. -1.
         25    2    1    2    0    0  0.47954659713E+02  0.75246268512E+02 -0.25382420782E+02  0.15573030624E+03  0.12508401451E+03 0.  0.
         23    2    1    2    0    0 -0.47954659713E+02 -0.75246268512E+02  0.51417296819E+02  0.13718371201E+03  0.90631021809E+02 0.  0.
          5    1    3    3  502    0 -0.34163339361E+02  0.54259969887E+02  0.75635820836E+01  0.64698981927E+02  0.41800000000E+01 0.  1.
         -5    1    3    3    0  502  0.82117999074E+02  0.20986298625E+02 -0.32946002866E+02  0.91031324316E+02  0.41800000000E+01 0.  1.
        -11    1    4    4    0    0 -0.11452341256E+02 -0.67874884795E+02  0.67693385346E+02  0.96542998326E+02  0.00000000000E+00 0.  1.
         11    1    4    4    0    0 -0.36502318457E+02 -0.73713837168E+01 -0.16276088527E+02  0.40640713679E+02  0.00000000000E+00 0. -1.
</event>
<event>
 8    1  0.6615242E-009  0.8182863E+02  0.7561462E-02  0.1323941E+00
          2   -1    0    0  501    0  0.00000000000E+00  0.00000000000E+00  0.19055926734E+03  0.19055926734E+03  0.00000000000E+00 0. -1.
         -2   -1    0    0    0  501 -0.00000000000E+00 -0.00000000000E+00 -0.72678120508E+02  0.72678120508E+02  0.00000000000E+00 0.  1.
         25    2    1    2    0    0  0.30642822992E+02  0.23116593878E+01  0.10352109716E+03  0.16525327433E+03  0.12509077004E+03 0.  0.
         23    2    1    2    0    0 -0.30642822992E+02 -0.23116593878E+01  0.14360049673E+02  0.97984113519E+02  0.91925780417E+02 0.  0.
          5    1    3    3  502    0  0.62305137731E+01  0.29751094093E+02  0.12066644433E+03  0.12450626526E+03  0.41800000000E+01 0. -1.
         -5    1    3    3    0  502  0.24412309219E+02 -0.27439434705E+02 -0.17145347173E+02  0.40747009068E+02  0.41800000000E+01 0. -1.
        -11    1    4    4    0    0  0.27155942676E+02 -0.22001299941E+02  0.11734113186E+02  0.36867218962E+02  0.00000000000E+00 0. -1.
         11    1    4    4    0    0 -0.57798765668E+02  0.19689640553E+02  0.26259364870E+01  0.61116894557E+02  0.00000000000E+00 0.  1.
</event>
<event>
 8    1  0.6615242E-009  0.7691554E+02  0.7561462E-02  0.1338040E+00
         -3   -1    0    0    0  501 -0.00000000000E+00  0.00000000000E+00  0.16463010816E+02  0.16463010816E+02  0.00000000000E+00 0.  1.
          3   -1    0    0  501    0  0.00000000000E+00 -0.00000000000E+00 -0.98397382944E+03  0.98397382944E+03  0.00000000000E+00 0. -1.
         25    2    1    2    0    0 -0.49154651279E+02 -0.12253193039E+02 -0.70941971006E+03  0.72214270709E+03  0.12508974338E+03 0.  0.
         23    2    1    2    0    0  0.49154651279E+02  0.12253193039E+02 -0.25809110856E+03  0.27829413316E+03  0.90941100462E+02 0.  0.
          5    1    3    3  502    0 -0.55139612536E+02 -0.55839986237E+01 -0.71006211214E+03  0.71223397378E+03  0.41800000000E+01 0.  1.
         -5    1    3    3    0  502  0.59849612579E+01 -0.66691944157E+01  0.64240207654E+00  0.99087333116E+01  0.41800000000E+01 0.  1.
        -11    1    4    4    0    0  0.68215174895E+02  0.68829846033E+01 -0.24534351633E+03  0.25474325617E+03  0.00000000000E+00 0. -1.
         11    1    4    4    0    0 -0.19060523616E+02  0.53702084361E+01 -0.12747592233E+02  0.23550876988E+02  0.00000000000E+00 0.  1.
</event>
<event>
 8    1  0.6615242E-009  0.9399844E+02  0.7561462E-02  0.1293448E+00
          2   -1    0    0  501    0  0.00000000000E+00  0.00000000000E+00  0.10818976116E+03  0.10818976116E+03  0.00000000000E+00 0.  1.
         -2   -1    0    0    0  501 -0.00000000000E+00 -0.00000000000E+00 -0.15247710925E+03  0.15247710925E+03  0.00000000000E+00 0. -1.
         25    2    1    2    0    0 -0.44475972764E+02  0.44124465843E+02  0.50934479152E+01  0.13999550309E+03  0.12509083514E+03 0.  0.
         23    2    1    2    0    0  0.44475972764E+02 -0.44124465843E+02 -0.49380796005E+02  0.12067136732E+03  0.90543002142E+02 0.  0.
          5    1    3    3  502    0  0.11359354716E+02  0.15849386677E+02 -0.51678512451E+02  0.55392951237E+02  0.41800000000E+01 0.  1.
         -5    1    3    3    0  502 -0.55835327480E+02  0.28275079166E+02  0.56771960366E+02  0.84602551855E+02  0.41800000000E+01 0.  1.
        -11    1    4    4    0    0  0.52303949698E+02  0.77425596292E+01 -0.72017857819E+01  0.53362122353E+02  0.00000000000E+00 0.  1.
         11    1    4    4    0    0 -0.78279769339E+01 -0.51867025472E+02 -0.42179010223E+02  0.67309244964E+02  0.00000000000E+00 0. -1.
</event>
<event>
 8    1  0.6615242E-009  0.1065787E+03  0.7561462E-02  0.1267040E+00
          3   -1    0    0  501    0  0.00000000000E+00  0.00000000000E+00  0.16964756197E+03  0.16964756197E+03  0.00000000000E+00 0. -1.
         -3   -1    0    0    0  501 -0.00000000000E+00 -0.00000000000E+00 -0.80207995426E+02  0.80207995426E+02  0.00000000000E+00 0.  1.
         25    2    1    2    0    0  0.27973594936E+02 -0.21581623172E+02  0.29359370182E+02  0.13325776556E+03  0.12508945196E+03 0.  0.
         23    2    1    2    0    0 -0.27973594936E+02  0.21581623172E+02  0.60080196365E+02  0.11659779184E+03  0.93472598097E+02 0.  0.
          5    1    3    3  502    0 -0.41708826257E+02 -0.36231615001E+02  0.27618713983E+02  0.61908172929E+02  0.41800000000E+01 0. -1.
         -5    1    3    3    0  502  0.69682421193E+02  0.14649991830E+02  0.17406561986E+01  0.71349592627E+02  0.41800000000E+01 0. -1.
        -11    1    4    4    0    0  0.16262085310E+02 -0.19955477650E+02  0.48375940927E+02  0.54798797135E+02  0.00000000000E+00 0. -1.
         11    1    4    4    0    0 -0.44235680246E+02  0.41537100822E+02  0.11704255438E+02  0.61798994708E+02  0.00000000000E+00 0.  1.
</event>
<event>
 8    1  0.6615242E-009  0.9810080E+02  0.7561462E-02  0.1284341E+00
          2   -1    0    0  501    0  0.00000000000E+00  0.00000000000E+00  0.52935940301E+02  0.52935940301E+02  0.00000000000E+00 0.  1.
         -2   -1    0    0    0  501 -0.00000000000E+00 -0.00000000000E+00 -0.35260250836E+03  0.35260250836E+03  0.00000000000E+00 0. -1.
         25    2    1    2    0    0 -0.30312751484E+02 -0.61077426169E+02 -0.23060968520E+03  0.27106796589E+03  0.12509076837E+03 0.  0.
         23    2    1    2    0    0  0.30312751484E+02  0.61077426169E+02 -0.69056882855E+02  0.13447048277E+03  0.93081377178E+02 0.  0.
          5    1    3    3  502    0 -0.35735575309E+02 -0.16355320113E+02 -0.37036181659E+01  0.39695302319E+02  0.41800000000E+01 0.  1.
         -5    1    3    3    0  502  0.54228238252E+01 -0.44722106056E+02 -0.22690606704E+03  0.23137266357E+03  0.41800000000E+01 0.  1.
        -11    1    4    4    0    0  0.13170235906E+02 -0.22525909840E+02 -0.32367123021E+02  0.41575261642E+02  0.00000000000E+00 0. -1.
         11    1    4    4    0    0  0.17142515578E+02  0.83603336009E+02 -0.36689759834E+02  0.92895221130E+02  0.00000000000E+00 0.  1.
</event>
<event>
 8    1  0.6615242E-009  0.1113858E+03  0.7561462E-02  0.1258025E+00
         -1   -1    0    0    0  501 -0.00000000000E+00  0.00000000000E+00  0.35190289807E+02  0.35190289807E+02  0.00000000000E+00 0.  1.
          1   -1    0    0  501    0  0.00000000000E+00 -0.00000000000E+00 -0.36984349892E+03  0.36984349892E+03  0.00000000000E+00 0. -1.
         25    2    1    2    0    0 -0.32174163808E+01 -0.29722067538E+02 -0.17418510321E+03  0.21651020088E+03  0.12506983584E+03 0.  0.
         23    2    1    2    0    0  0.32174163808E+01  0.29722067538E+02 -0.16046810590E+03  0.18852358785E+03  0.94325908936E+02 0.  0.
          5    1    3    3  502    0  0.23950696789E+02  0.43454668903E+02 -0.57527167507E+02  0.76084108246E+02  0.41800000000E+01 0. -1.
         -5    1    3    3    0  502 -0.27168113170E+02 -0.73176736442E+02 -0.11665793570E+03  0.14042609263E+03  0.41800000000E+01 0. -1.
        -11    1    4    4    0    0  0.41048750252E+02  0.38161679010E+02 -0.67093706095E+02  0.87423561125E+02  0.00000000000E+00 0. -1.
         11    1    4    4    0    0 -0.37831333872E+02 -0.84396114712E+01 -0.93374399809E+02  0.10110002673E+03  0.00000000000E+00 0.  1.
</event>
<event>
 8    1  0.6615242E-009  0.1238228E+03  0.7561462E-02  0.1236921E+00
         -1   -1    0    0    0  501 -0.00000000000E+00  0.00000000000E+00  0.18439899453E+03  0.18439899453E+03  0.00000000000E+00 0.  1.
          1   -1    0    0  501    0  0.00000000000E+00 -0.00000000000E+00 -0.18115337676E+03  0.18115337676E+03  0.00000000000E+00 0. -1.
         25    2    1    2    0    0  0.86990409958E+02  0.28914253648E+01  0.11993168869E+03  0.19392401404E+03  0.12508885443E+03 0.  0.
         23    2    1    2    0    0 -0.86990409958E+02 -0.28914253648E+01 -0.11668607093E+03  0.17162835725E+03  0.90911836959E+02 0.  0.
          5    1    3    3  502    0  0.10792045681E+03 -0.13580229805E+02  0.12577560383E+03  0.16633767631E+03  0.41800000000E+01 0.  1.
         -5    1    3    3    0  502 -0.20930046850E+02  0.16471655170E+02 -0.58439151418E+01  0.27586337730E+02  0.41800000000E+01 0.  1.
        -11    1    4    4    0    0 -0.75529312012E+02 -0.30873251878E+02 -0.43555246397E+02  0.92492670754E+02  0.00000000000E+00 0.  1.
         11    1    4    4    0    0 -0.11461097946E+02  0.27981826513E+02 -0.73130824529E+02  0.79135686497E+02  0.00000000000E+00 0. -1.
</event>
<event>
 8    1  0.6615242E-009  0.2598499E+03  0.7561462E-02  0.1107233E+00
          1   -1    0    0  501    0  0.00000000000E+00  0.00000000000E+00  0.21164841467E+04  0.21164841467E+04  0.00000000000E+00 0. -1.
         -1   -1    0    0    0  501 -0.00000000000E+00 -0.00000000000E+00 -0.33395056284E+02  0.33395056284E+02  0.00000000000E+00 0.  1.
         25    2    1    2    0    0  0.49874608723E+02  0.23738819413E+03  0.10653736886E+04  0.10997769781E+04  0.12509066282E+03 0.  0.
         23    2    1    2    0    0 -0.49874608723E+02 -0.23738819413E+03  0.10177154018E+04  0.10501022248E+04  0.90163253424E+02 0.  0.
          5    1    3    3  502    0 -0.30986489818E+02  0.42963565695E+02  0.12017812594E+03  0.13140123623E+03  0.41800000000E+01 0.  1.
         -5    1    3    3    0  502  0.80861098542E+02  0.19442462844E+03  0.94519556266E+03  0.96837574189E+03  0.41800000000E+01 0.  1.
        -11    1    4    4    0    0 -0.70948457296E+02 -0.14818748201E+03  0.57576051687E+03  0.59874317215E+03  0.00000000000E+00 0.  1.
         11    1    4    4    0    0  0.21073848572E+02 -0.89200712125E+02  0.44195488491E+03  0.45135905267E+03  0.00000000000E+00 0. -1.
</event>
<event>
 8    1  0.6615242E-009  0.1107282E+03  0.7561462E-02  0.1259227E+00
         -1   -1    0    0    0  501 -0.00000000000E+00  0.00000000000E+00  0.75317058987E+02  0.75317058987E+02  0.00000000000E+00 0.  1.
          1   -1    0    0  501    0  0.00000000000E+00 -0.00000000000E+00 -0.20501756630E+03  0.20501756630E+03  0.00000000000E+00 0. -1.
         25    2    1    2    0    0  0.11444753023E+02  0.22661014635E+02 -0.10176118943E+02  0.12804441160E+03  0.12508922412E+03 0.  0.
         23    2    1    2    0    0 -0.11444753023E+02 -0.22661014635E+02 -0.11952438837E+03  0.15229021369E+03  0.90894036175E+02 0.  0.
          5    1    3    3  502    0  0.59203258121E+02  0.45056564445E+02 -0.23337236163E+01  0.74552253068E+02  0.41800000000E+01 0. -1.
         -5    1    3    3    0  502 -0.47758505097E+02 -0.22395549810E+02 -0.78423953270E+01  0.53492158536E+02  0.41800000000E+01 0. -1.
        -11    1    4    4    0    0 -0.32501375011E+02 -0.49928487903E+02 -0.69331076296E+02  0.91411112138E+02  0.00000000000E+00 0.  1.
         11    1    4    4    0    0  0.21056621988E+02  0.27267473268E+02 -0.50193312078E+02  0.60879101548E+02  0.00000000000E+00 0. -1.
</event>
<event>
 8    1  0.6615242E-009  0.2949360E+03  0.7561462E-02  0.1087800E+00
         -2   -1    0    0    0  501 -0.00000000000E+00  0.00000000000E+00  0.11223868577E+03  0.11223868577E+03  0.00000000000E+00 0.  1.
          2   -1    0    0  501    0  0.00000000000E+00 -0.00000000000E+00 -0.87811994374E+03  0.87811994374E+03  0.00000000000E+00 0. -1.
         25    2    1    2    0    0  0.26125413705E+03  0.13552000403E+03 -0.36786466627E+03  0.48743348705E+03  0.12509035128E+03 0.  0.
         23    2    1    2    0    0 -0.26125413705E+03 -0.13552000403E+03 -0.39801659169E+03  0.50292514247E+03  0.88865606642E+02 0.  0.
          5    1    3    3  502    0  0.54978638507E+02  0.34566365522E+02 -0.17768511449E+03  0.18922726185E+03  0.41800000000E+01 0.  1.
         -5    1    3    3    0  502  0.20627549854E+03  0.10095363851E+03 -0.19017955179E+03  0.29820622519E+03  0.41800000000E+01 0.  1.
        -11    1    4    4    0    0 -0.11430250921E+03 -0.47289533487E+02 -0.99712695488E+02  0.15888355872E+03  0.00000000000E+00 0.  1.
         11    1    4    4    0    0 -0.14695162784E+03 -0.88230470545E+02 -0.29830389621E+03  0.34404158375E+03  0.00000000000E+00 0. -1.
</event>
<event>
 8    1  0.6615242E-009  0.8220937E+02  0.7561462E-02  0.1322896E+00
         -1   -1    0    0    0  501 -0.00000000000E+00  0.00000000000E+00  0.13778832197E+03  0.13778832197E+03  0.00000000000E+00 0.  1.
          1   -1    0    0  501    0  0.00000000000E+00 -0.00000000000E+00 -0.10964849400E+03  0.10964849400E+03  0.00000000000E+00 0. -1.
         25    2    1    2    0    0  0.28396302487E+02 -0.22262807193E+02 -0.29322468292E+02  0.13345363376E+03  0.12509229648E+03 0.  0.
         23    2    1    2    0    0 -0.28396302487E+02  0.22262807193E+02  0.57462296262E+02  0.11398318220E+03  0.91587486889E+02 0.  0.
          5    1    3    3  502    0  0.64637972317E+02 -0.18185831981E+00 -0.53871931230E+02  0.84248192337E+02  0.41800000000E+01 0. -1.
         -5    1    3    3    0  502 -0.36241669829E+02 -0.22080948873E+02  0.24549462938E+02  0.49205441424E+02  0.41800000000E+01 0. -1.
        -11    1    4    4    0    0 -0.85118008021E+01 -0.13571591782E+02  0.69458363504E+02  0.71281856857E+02  0.00000000000E+00 0.  1.
         11    1    4    4    0    0 -0.19884501685E+02  0.35834398975E+02 -0.11996067241E+02  0.42701325347E+02  0.00000000000E+00 0. -1.
</event>
<event>
 8    1  0.6615242E-009  0.1496269E+03  0.7561462E-02  0.1200932E+00
         -1   -1    0    0    0  501 -0.00000000000E+00  0.00000000000E+00  0.42531171246E+02  0.42531171246E+02  0.00000000000E+00 0.  1.
          1   -1    0    0  501    0  0.00000000000E+00 -0.00000000000E+00 -0.88903566080E+03  0.88903566080E+03  0.00000000000E+00 0. -1.
         25    2    1    2    0    0  0.29700640311E+02 -0.12352173616E+03 -0.68193625750E+03  0.70485741137E+03  0.12508862347E+03 0.  0.
         23    2    1    2    0    0 -0.29700640311E+02  0.12352173616E+03 -0.16456823205E+03  0.22670942068E+03  0.90414108892E+02 0.  0.
          5    1    3    3  502    0  0.67259981620E+01 -0.12274709770E+03 -0.33052532115E+03  0.35267059612E+03  0.41800000000E+01 0.  1.
         -5    1    3    3    0  502  0.22974642149E+02 -0.77463846235E+00 -0.35141093635E+03  0.35218681525E+03  0.41800000000E+01 0.  1.
        -11    1    4    4    0    0  0.41241392551E+01  0.11863997324E+03 -0.14475171747E+03  0.18720446438E+03  0.00000000000E+00 0. -1.
         11    1    4    4    0    0 -0.33824779566E+02  0.48817629164E+01 -0.19816514585E+02  0.39504956298E+02  0.00000000000E+00 0.  1.
</event>
<event>
 8    1  0.6615242E-009  0.5032423E+02  0.7561462E-02  0.1443601E+00
         -2   -1    0    0    0  501 -0.00000000000E+00  0.00000000000E+00  0.14596580661E+03  0.14596580661E+03  0.00000000000E+00 0.  1.
          2   -1    0    0  501    0  0.00000000000E+00 -0.00000000000E+00 -0.83670585806E+02  0.83670585806E+02  0.00000000000E+00 0. -1.
         25    2    1    2    0    0  0.15094858093E+02 -0.10376337117E+01  0.51256440894E+02  0.13602677521E+03  0.12508848635E+03 0.  0.
         23    2    1    2    0    0 -0.15094858093E+02  0.10376337117E+01  0.11038779911E+02  0.93609617202E+02  0.91716816049E+02 0.  0.
          5    1    3    3  502    0  0.14766026369E+01 -0.33615850588E+02  0.82182591256E+02  0.88902511053E+02  0.41800000000E+01 0.  1.
         -5    1    3    3    0  502  0.13618255456E+02  0.32578216876E+02 -0.30926150361E+02  0.47124264161E+02  0.41800000000E+01 0.  1.
        -11    1    4    4    0    0 -0.16951048621E+02 -0.10207856300E+02  0.49598912729E+02  0.53400285800E+02  0.00000000000E+00 0.  1.
         11    1    4    4    0    0  0.18561905283E+01  0.11245490012E+02 -0.38560132818E+02  0.40209331402E+02  0.00000000000E+00 0. -1.
</event>
<event>
 8    1  0.6615242E-009  0.1140345E+03  0.7561462E-02  0.1253276E+00
         -2   -1    0    0    0  501 -0.00000000000E+00  0.00000000000E+00  0.96252370935E+02  0.96252370935E+02  0.00000000000E+00 0. -1.
          2   -1    0    0  501    0  0.00000000000E+00 -0.00000000000E+00 -0.18725228800E+03  0.18725228800E+03  0.00000000000E+00 0.  1.
         25    2    1    2    0    0 -0.44983966807E+02  0.60070545450E+02 -0.72390926410E+01  0.14605698242E+03  0.12509280536E+03 0.  0.
         23    2    1    2    0    0  0.44983966807E+02 -0.60070545450E+02 -0.83760824419E+02  0.13744767651E+03  0.79018734293E+02 0.  0.
          5    1    3    3  502    0 -0.83878956303E+02  0.23337038970E+02 -0.22961637021E+02  0.90138814464E+02  0.41800000000E+01 0.  1.
         -5    1    3    3    0  502  0.38894989496E+02  0.36733506480E+02  0.15722544380E+02  0.55918167960E+02  0.41800000000E+01 0.  1.
        -11    1    4    4    0    0  0.28710839459E+02 -0.41597810336E+01  0.67852101649E+01  0.29793542214E+02  0.00000000000E+00 0. -1.
         11    1    4    4    0    0  0.16273127348E+02 -0.55910764416E+02 -0.90546034584E+02  0.10765413429E+03  0.00000000000E+00 0.  1.
</event>
<event>
 8    1  0.6615242E-009  0.1063371E+03  0.7561462E-02  0.1267507E+00
          2   -1    0    0  501    0  0.00000000000E+00  0.00000000000E+00  0.66766848216E+03  0.66766848216E+03  0.00000000000E+00 0. -1.
         -2   -1    0    0    0  501 -0.00000000000E+00 -0.00000000000E+00 -0.41699016465E+02  0.41699016465E+02  0.00000000000E+00 0.  1.
         25    2    1    2    0    0 -0.18033274040E+02 -0.78495769652E+02  0.12622357040E+03  0.19510746330E+03  0.12509095765E+03 0.  0.
         23    2    1    2    0    0  0.18033274040E+02  0.78495769652E+02  0.49974589530E+03  0.51426003533E+03  0.90722870535E+02 0.  0.
          5    1    3    3  502    0  0.13973733229E+02 -0.25957841876E+02  0.12996533361E+03  0.13333242335E+03  0.41800000000E+01 0.  1.
         -5    1    3    3    0  502 -0.32007007269E+02 -0.52537927776E+02 -0.37417632149E+01  0.61775039953E+02  0.41800000000E+01 0.  1.
        -11    1    4    4    0    0 -0.98077638621E+01 -0.18166918989E+02  0.92238755674E+02  0.94520988282E+02  0.00000000000E+00 0.  1.
         11    1    4    4    0    0  0.27841037902E+02  0.96662688641E+02  0.40750713963E+03  0.41973904704E+03  0.00000000000E+00 0. -1.
</event>
<event>
 8    1  0.6615242E-009  0.1450441E+03  0.7561462E-02  0.1206698E+00
         -2   -1    0    0    0  501 -0.00000000000E+00  0.00000000000E+00  0.95050381232E+03  0.95050381232E+03  0.00000000000E+00 0.  1.
          2   -1    0    0  501    0  0.00000000000E+00 -0.00000000000E+00 -0.33586722980E+02  0.33586722980E+02  0.00000000000E+00 0. -1.
         25    2    1    2    0    0  0.68227137755E+02  0.70290487571E+02  0.20369742290E+03  0.25832624479E+03  0.12507643135E+03 0.  0.
         23    2    1    2    0    0 -0.68227137755E+02 -0.70290487571E+02  0.71321966643E+03  0.72576429051E+03  0.91955520869E+02 0.  0.
          5    1    3    3  502    0  0.12339096911E+02  0.94006489639E+02  0.14809048047E+03  0.17589126247E+03  0.41800000000E+01 0.  1.
         -5    1    3    3    0  502  0.55888040844E+02 -0.23716002068E+02  0.55606942435E+02  0.82434982322E+02  0.41800000000E+01 0.  1.
        -11    1    4    4    0    0  0.19284625319E+02  0.38105291607E+01  0.99224877169E+02  0.10115331510E+03  0.00000000000E+00 0.  1.
         11    1    4    4    0    0 -0.87511763074E+02 -0.74101016732E+02  0.61399478927E+03  0.62461097541E+03  0.00000000000E+00 0. -1.
</event>
<event>
 8    1  0.6615242E-009  0.1357695E+03  0.7561462E-02  0.1219138E+00
          2   -1    0    0  501    0  0.00000000000E+00  0.00000000000E+00  0.13158070539E+04  0.13158070539E+04  0.00000000000E+00 0. -1.
         -2   -1    0    0    0  501 -0.00000000000E+00 -0.00000000000E+00 -0.15019603214E+02  0.15019603214E+02  0.00000000000E+00 0.  1.
         25    2    1    2    0    0  0.83967710736E+02  0.12295024332E+02  0.82594779927E+03  0.83966588051E+03  0.12508908710E+03 0.  0.
         23    2    1    2    0    0 -0.83967710736E+02 -0.12295024332E+02  0.47483965146E+03  0.49116077665E+03  0.92544420934E+02 0.  0.
          5    1    3    3  502    0 -0.14720093907E+02  0.44617476696E+02  0.26893410875E+03  0.27303924194E+03  0.41800000000E+01 0.  1.
         -5    1    3    3    0  502  0.98687804642E+02 -0.32322452364E+02  0.55701369052E+03  0.56662663857E+03  0.41800000000E+01 0.  1.
        -11    1    4    4    0    0 -0.20869033233E+02 -0.44828522424E+02  0.26675182137E+03  0.27129623510E+03  0.00000000000E+00 0. -1.
         11    1    4    4    0    0 -0.63098677502E+02  0.32533498092E+02  0.20808783009E+03  0.21986454155E+03  0.00000000000E+00 0.  1.
</event>
<event>
 8    1  0.6615242E-009  0.1251215E+03  0.7561462E-02  0.1234880E+00
          1   -1    0    0  501    0  0.00000000000E+00  0.00000000000E+00  0.74754012533E+03  0.74754012533E+03  0.00000000000E+00 0. -1.
         -1   -1    0    0    0  501 -0.00000000000E+00 -0.00000000000E+00 -0.25563516631E+02  0.25563516631E+02  0.00000000000E+00 0.  1.
         25    2    1    2    0    0  0.31398041464E+02  0.70097831640E+02  0.50648145001E+03  0.52732410778E+03  0.12509081676E+03 0.  0.
         23    2    1    2    0    0 -0.31398041464E+02 -0.70097831640E+02  0.21549515869E+03  0.24577953418E+03  0.89832471817E+02 0.  0.
          5    1    3    3  502    0 -0.27424693900E+02 -0.12659891568E+02  0.42275238380E+02  0.52125376450E+02  0.41800000000E+01 0.  1.
         -5    1    3    3    0  502  0.58822735363E+02  0.82757723208E+02  0.46420621163E+03  0.47519873133E+03  0.41800000000E+01 0.  1.
        -11    1    4    4    0    0  0.31135461925E+02 -0.14063399134E+02  0.65979568784E+02  0.74300065151E+02  0.00000000000E+00 0.  1.
         11    1    4    4    0    0 -0.62533503389E+02 -0.56034432506E+02  0.14951558991E+03  0.17147946903E+03  0.00000000000E+00 0. -1.
</event>
<event>
 8    1  0.6615242E-009  0.3027121E+03  0.7561462E-02  0.1083893E+00
          2   -1    0    0  501    0  0.00000000000E+00  0.00000000000E+00  0.13589510326E+04  0.13589510326E+04  0.00000000000E+00 0.  1.
         -2   -1    0    0    0  501 -0.00000000000E+00 -0.00000000000E+00 -0.68094404918E+02  0.68094404918E+02  0.00000000000E+00 0. -1.
         25    2    1    2    0    0  0.27835510565E+03  0.53533014538E+02  0.66008899760E+03  0.72918571903E+03  0.12508788751E+03 0.  0.
         23    2    1    2    0    0 -0.27835510565E+03 -0.53533014538E+02  0.63076763010E+03  0.69785971850E+03  0.93771184472E+02 0.  0.
          5    1    3    3  502    0  0.99702653692E+02 -0.39900850197E+02  0.20653626921E+03  0.23282482664E+03  0.41800000000E+01 0.  1.
         -5    1    3    3    0  502  0.17865245196E+03  0.93433864735E+02  0.45355272839E+03  0.49636089240E+03  0.41800000000E+01 0.  1.
        -11    1    4    4    0    0 -0.21036035297E+01 -0.17594380845E+02  0.21051970652E+02  0.27516774038E+02  0.00000000000E+00 0. -1.
         11    1    4    4    0    0 -0.27625150212E+03 -0.35938633693E+02  0.60971565944E+03  0.67034294446E+03  0.00000000000E+00 0.  1.
</event>
<event>
 8    1  0.6615242E-009  0.1236619E+03  0.7561462E-02  0.1237176E+00
          3   -1    0    0  501    0  0.00000000000E+00  0.00000000000E+00  0.18240404534E+04  0.18240404534E+04  0.00000000000E+00 0. -1.
         -3   -1    0    0    0  501 -0.00000000000E+00 -0.00000000000E+00 -0.96095182724E+01  0.96095182724E+01  0.00000000000E+00 0.  1.
         25    2    1    2    0    0  0.33156133764E+02 -0.48439819707E+02  0.13200262335E+04  0.13272389444E+04  0.12509281740E+03 0.  0.
         23    2    1    2    0    0 -0.33156133764E+02  0.48439819707E+02  0.49440470162E+03  0.50641102731E+03  0.92576315815E+02 0.  0.
          5    1    3    3  502    0 -0.46133733466E+02 -0.23808653307E+01  0.44844670515E+03  0.45083911725E+03  0.41800000000E+01 0.  1.
         -5    1    3    3    0  502  0.79289867230E+02 -0.46058954376E+02  0.87157952833E+03  0.87639982710E+03  0.41800000000E+01 0.  1.
        -11    1    4    4    0    0  0.28807385555E+01 -0.26150329055E+02  0.10019242342E+03  0.10358889938E+03  0.00000000000E+00 0.  1.
         11    1    4    4    0    0 -0.36036872320E+02  0.74590148762E+02  0.39421227820E+03  0.40282212792E+03  0.00000000000E+00 0. -1.
</event>
<event>
 8    1  0.6615242E-009  0.2062642E+03  0.7561462E-02  0.1144559E+00
          2   -1    0    0  501    0  0.00000000000E+00  0.00000000000E+00  0.11371297499E+03  0.11371297499E+03  0.00000000000E+00 0. -1.
         -2   -1    0    0    0  501 -0.00000000000E+00 -0.00000000000E+00 -0.49604209549E+03  0.49604209549E+03  0.00000000000E+00 0.  1.
         25    2    1    2    0    0 -0.15684719528E+03 -0.11364061967E+03 -0.31561336806E+03  0.39086187969E+03  0.12508388302E+03 0.  0.
         23    2    1    2    0    0  0.15684719528E+03  0.11364061967E+03 -0.66715752430E+02  0.21889319079E+03  0.77123305468E+02 0.  0.
          5    1    3    3  502    0 -0.41687644025E+02 -0.71749085204E+02 -0.22064912404E+03  0.23577383068E+03  0.41800000000E+01 0.  1.
         -5    1    3    3    0  502 -0.11515955126E+03 -0.41891534463E+02 -0.94964244023E+02  0.15508804902E+03  0.41800000000E+01 0.  1.
        -11    1    4    4    0    0  0.79002282567E+02  0.13753378978E+02 -0.12589749025E+02  0.81172765535E+02  0.00000000000E+00 0. -1.
         11    1    4    4    0    0  0.77844912713E+02  0.99887240689E+02 -0.54126003405E+02  0.13772042526E+03  0.00000000000E+00 0.  1.
</event>
<event>
 8    1  0.6615242E-009  0.1688960E+03  0.7561462E-02  0.1179004E+00
          4   -1    0    0  501    0  0.00000000000E+00  0.00000000000E+00  0.13780175263E+03  0.13780175263E+03  0.00000000000E+00 0. -1.
         -4   -1    0    0    0  501 -0.00000000000E+00 -0.00000000000E+00 -0.25950397526E+03  0.25950397526E+03  0.00000000000E+00 0.  1.
         25    2    1    2    0    0  0.56249412130E+02 -0.12847182156E+03 -0.12785344605E+03  0.22729443990E+03  0.12508898209E+03 0.  0.
         23    2    1    2    0    0 -0.56249412130E+02  0.12847182156E+03  0.61512234274E+01  0.17001128799E+03  0.95900965557E+02 0.  0.
          5    1    3    3  502    0 -0.16498301625E+02 -0.77908634230E+02 -0.10859631377E+02  0.80482005677E+02  0.41800000000E+01 0.  1.
         -5    1    3    3    0  502  0.72747713754E+02 -0.50563187332E+02 -0.11699381467E+03  0.14681243422E+03  0.41800000000E+01 0.  1.
        -11    1    4    4    0    0  0.10778605420E+02 -0.10508960342E+02 -0.33401443835E+01  0.15419894512E+02  0.00000000000E+00 0.  1.
         11    1    4    4    0    0 -0.67028017549E+02  0.13898078190E+03  0.94913678109E+01  0.15459139348E+03  0.00000000000E+00 0. -1.
</event>
<event>
 8    1  0.6615242E-009  0.9805761E+02  0.7561462E-02  0.1284434E+00
         -1   -1    0    0    0  501 -0.00000000000E+00  0.00000000000E+00  0.32786398084E+02  0.32786398084E+02  0.00000000000E+00 0.  1.
          1   -1    0    0  501    0  0.00000000000E+00 -0.00000000000E+00 -0.49262963608E+03  0.49262963608E+03  0.00000000000E+00 0. -1.
         25    2    1    2    0    0 -0.19352914312E+02  0.51720471565E+02 -0.18594825602E+03  0.23081244686E+03  0.12509232286E+03 0.  0.
         23    2    1    2    0    0  0.19352914312E+02 -0.51720471565E+02 -0.27389498198E+03  0.29460358730E+03  0.93398447677E+02 0.  0.
          5    1    3    3  502    0 -0.55095139520E+02  0.75168547321E+01 -0.27004250046E+02  0.61957077274E+02  0.41800000000E+01 0. -1.
         -5    1    3    3    0  502  0.35742225207E+02  0.44203616833E+02 -0.15894400598E+03  0.16885536959E+03  0.41800000000E+01 0. -1.
        -11    1    4    4    0    0  0.32828475573E+02 -0.31858552328E+01 -0.27005347611E+02  0.42628010528E+02  0.00000000000E+00 0.  1.
         11    1    4    4    0    0 -0.13475561260E+02 -0.48534616332E+02 -0.24688963436E+03  0.25197557677E+03  0.00000000000E+00 0. -1.
</event>
<event>
 8    1  0.6615242E-009  0.9550592E+02  0.7561462E-02  0.1290041E+00
          2   -1    0    0  501    0  0.00000000000E+00  0.00000000000E+00  0.78921792175E+02  0.78921792175E+02  0.00000000000E+00 0. -1.
         -2   -1    0    0    0  501 -0.00000000000E+00 -0.00000000000E+00 -0.21051246383E+03  0.21051246383E+03  0.00000000000E+00 0.  1.
         25    2    1    2    0    0 -0.59034952878E+02  0.36207980899E+02 -0.11523622745E+03  0.18363983443E+03  0.12509219452E+03 0.  0.
         23    2    1    2    0    0  0.59034952878E+02 -0.36207980899E+02 -0.16354444206E+02  0.10579442158E+03  0.78286960915E+02 0.  0.
          5    1    3    3  502    0 -0.10980521293E+02  0.38923084454E+02  0.16077165400E+02  0.43721001802E+02  0.41800000000E+01 0.  1.
         -5    1    3    3    0  502 -0.48054431586E+02 -0.27151035547E+01 -0.13131339285E+03  0.13991883263E+03  0.41800000000E+01 0.  1.
        -11    1    4    4    0    0  0.76820013086E+02 -0.24043872256E+02 -0.32188855055E+01  0.80559192074E+02  0.00000000000E+00 0. -1.
         11    1    4    4    0    0 -0.17785060208E+02 -0.12164108643E+02 -0.13135558701E+02  0.25235229503E+02  0.00000000000E+00 0.  1.
</event>
<event>
 8    1  0.6615242E-009  0.1032519E+03  0.7561462E-02  0.1273603E+00
          1   -1    0    0  501    0  0.00000000000E+00  0.00000000000E+00  0.40651232405E+02  0.40651232405E+02  0.00000000000E+00 0. -1.
         -1   -1    0    0    0  501 -0.00000000000E+00 -0.00000000000E+00 -0.39995011133E+03  0.39995011133E+03  0.00000000000E+00 0.  1.
         25    2    1    2    0    0 -0.62345225458E+02 -0.12001363131E+02 -0.23864861329E+03  0.27682186048E+03  0.12508485903E+03 0.  0.
         23    2    1    2    0    0  0.62345225458E+02  0.12001363131E+02 -0.12065026564E+03  0.16377948326E+03  0.90753912777E+02 0.  0.
          5    1    3    3  502    0 -0.77198883200E+02  0.12782296442E+02 -0.68176835512E+02  0.10386822406E+03  0.41800000000E+01 0.  1.
         -5    1    3    3    0  502  0.14853657743E+02 -0.24783659573E+02 -0.17047177778E+03  0.17295363641E+03  0.41800000000E+01 0.  1.
        -11    1    4    4    0    0 -0.16754284997E+02 -0.60521291533E+01 -0.59703729407E+02  0.62304651818E+02  0.00000000000E+00 0.  1.
         11    1    4    4    0    0  0.79099510455E+02  0.18053492285E+02 -0.60946536235E+02  0.10147483145E+03  0.00000000000E+00 0. -1.
</event>
<event>
 8    1  0.6615242E-009  0.1263827E+03  0.7561462E-02  0.1232924E+00
         -1   -1    0    0    0  501 -0.00000000000E+00  0.00000000000E+00  0.18238222340E+02  0.18238222340E+02  0.00000000000E+00 0.  1.
          1   -1    0    0  501    0  0.00000000000E+00 -0.00000000000E+00 -0.93160526478E+03  0.93160526478E+03  0.00000000000E+00 0. -1.
         25    2    1    2    0    0 -0.65766043464E+01  0.68440250733E+02 -0.60328657947E+03  0.61994375088E+03  0.12509291603E+03 0.  0.
         23    2    1    2    0    0  0.65766043464E+01 -0.68440250733E+02 -0.31008046298E+03  0.32989973625E+03  0.89199903643E+02 0.  0.
          5    1    3    3  502    0 -0.35160142962E+02 -0.24341700427E+02 -0.24366273857E+03  0.24742222333E+03  0.41800000000E+01 0.  1.
         -5    1    3    3    0  502  0.28583538615E+02  0.92781951160E+02 -0.35962384090E+03  0.37252152754E+03  0.41800000000E+01 0.  1.
        -11    1    4    4    0    0 -0.29102432596E+02  0.63237087070E+01 -0.82377655094E+02  0.87595770067E+02  0.00000000000E+00 0.  1.
         11    1    4    4    0    0  0.35679036943E+02 -0.74763959440E+02 -0.22770280788E+03  0.24230396618E+03  0.00000000000E+00 0. -1.
</event>
<event>
 8    1  0.6615242E-009  0.2070162E+03  0.7561462E-02  0.1143951E+00
          1   -1    0    0  501    0  0.00000000000E+00  0.00000000000E+00  0.12096462110E+03  0.12096462110E+03  0.00000000000E+00 0. -1.
         -1   -1    0    0    0  501 -0.00000000000E+00 -0.00000000000E+00 -0.47517204962E+03  0.47517204962E+03  0.00000000000E+00 0.  1.
         25    2    1    2    0    0 -0.11152821362E+03  0.16694509988E+03 -0.90847888131E+02  0.25339793650E+03  0.12509183283E+03 0.  0.
         23    2    1    2    0    0  0.11152821362E+03 -0.16694509988E+03 -0.26335954039E+03  0.34273873422E+03  0.88331102200E+02 0.  0.
          5    1    3    3  502    0  0.24087551191E+01  0.45038258855E+02 -0.72488586124E+02  0.85476981581E+02  0.41800000000E+01 0. -1.
         -5    1    3    3    0  502 -0.11393696873E+03  0.12190684102E+03 -0.18359302007E+02  0.16792095492E+03  0.41800000000E+01 0. -1.
        -11    1    4    4    0    0  0.20641371427E+02 -0.46993330637E+02 -0.17037171465E+02  0.54080537630E+02  0.00000000000E+00 0.  1.
         11    1    4    4    0    0  0.90886842188E+02 -0.11995176924E+03 -0.24632236892E+03  0.28865819659E+03  0.00000000000E+00 0. -1.
</event>
<event>
 8    1  0.6615242E-009  0.1259421E+03  0.7561462E-02  0.1233604E+00
          2   -1    0    0  501    0  0.00000000000E+00  0.00000000000E+00  0.21174303209E+03  0.21174303209E+03  0.00000000000E+00 0. -1.
         -2   -1    0    0    0  501 -0.00000000000E+00 -0.00000000000E+00 -0.12661096342E+03  0.12661096342E+03  0.00000000000E+00 0.  1.
         25    2    1    2    0    0 -0.65017851840E+02 -0.85408109451E+02 -0.12428205113E+02  0.16529957149E+03  0.12509045462E+03 0.  0.
         23    2    1    2    0    0  0.65017851840E+02  0.85408109451E+02  0.97560273788E+02  0.17305442402E+03  0.94381992099E+02 0.  0.
          5    1    3    3  502    0 -0.55169107811E+02 -0.25507248893E+02 -0.61918612266E+02  0.86865626963E+02  0.41800000000E+01 0. -1.
         -5    1    3    3    0  502 -0.98487440289E+01 -0.59900860558E+02  0.49490407153E+02  0.78433944531E+02  0.41800000000E+01 0. -1.
        -11    1    4    4    0    0  0.12685148356E+02  0.75861828312E+02  0.20826838311E+02  0.79684924407E+02  0.00000000000E+00 0.  1.
         11    1    4    4    0    0  0.52332703484E+02  0.95462811387E+01  0.76733435477E+02  0.93369499611E+02  0.00000000000E+00 0. -1.
</event>
<event>
 8    1  0.6615242E-009  0.1013056E+03  0.7561462E-02  0.1277574E+00
          2   -1    0    0  501    0  0.00000000000E+00  0.00000000000E+00  0.12575646920E+03  0.12575646920E+03  0.00000000000E+00 0. -1.
         -2   -1    0    0    0  501 -0.00000000000E+00 -0.00000000000E+00 -0.94832997757E+02  0.94832997757E+02  0.00000000000E+00 0.  1.
         25    2    1    2    0    0 -0.44114453446E+00  0.15955153171E+02  0.18136517547E+02  0.12740174122E+03  0.12509000310E+03 0.  0.
         23    2    1    2    0    0  0.44114453446E+00 -0.15955153171E+02  0.12786953899E+02  0.93187725744E+02  0.90915810056E+02 0.  0.
          5    1    3    3  502    0 -0.26678134882E+02 -0.42106802688E+02  0.35372100212E+02  0.61264700986E+02  0.41800000000E+01 0.  1.
         -5    1    3    3    0  502  0.26236990348E+02  0.58061955860E+02 -0.17235582665E+02  0.66137040231E+02  0.41800000000E+01 0.  1.
        -11    1    4    4    0    0  0.31492630604E+02  0.22944407408E+02 -0.70682777746E+01  0.39600406114E+02  0.00000000000E+00 0.  1.
         11    1    4    4    0    0 -0.31051486069E+02 -0.38899560580E+02  0.19855231674E+02  0.53587319631E+02  0.00000000000E+00 0. -1.
</event>
<event>
 8    1  0.6615242E-009  0.9146749E+02  0.7561462E-02  0.1299336E+00
          1   -1    0    0  501    0  0.00000000000E+00  0.00000000000E+00  0.63701683647E+03  0.63701683647E+03  0.00000000000E+00 0. -1.
         -1   -1    0    0    0  501 -0.00000000000E+00 -0.00000000000E+00 -0.20111248847E+02  0.20111248847E+02  0.00000000000E+00 0.  1.
         25    2    1    2    0    0 -0.14493499044E+02  0.31968471433E+02  0.45623094235E+03  0.47436906499E+03  0.12508913775E+03 0.  0.
         23    2    1    2    0    0  0.14493499044E+02 -0.31968471433E+02  0.16067464527E+03  0.18275902033E+03  0.79702403956E+02 0.  0.
          5    1    3    3  502    0  0.25565511516E+02  0.69640985302E+02  0.28152918787E+03  0.29116939783E+03  0.41800000000E+01 0. -1.
         -5    1    3    3    0  502 -0.40059010559E+02 -0.37672513869E+02  0.17470175448E+03  0.18319966716E+03  0.41800000000E+01 0. -1.
        -11    1    4    4    0    0  0.28461009216E+02 -0.24961643271E+02  0.16265979200E+03  0.16700694780E+03  0.00000000000E+00 0. -1.
         11    1    4    4    0    0 -0.13967510173E+02 -0.70068281619E+01 -0.19851467261E+01  0.15752072525E+02  0.00000000000E+00 0.  1.
</event>
<event>
 8    1  0.6615242E-009  0.2063275E+03  0.7561462E-02  0.1144508E+00
         -1   -1    0    0    0  501 -0.00000000000E+00  0.00000000000E+00  0.77570629892E+03  0.77570629892E+03  0.00000000000E+00 0.  1.
          1   -1    0    0  501    0  0.00000000000E+00 -0.00000000000E+00 -0.61367193190E+02  0.61367193190E+02  0.00000000000E+00 0. -1.
         25    2    1    2    0    0  0.18569851359E+03  0.49457533670E+02  0.31884471032E+03  0.39273285009E+03  0.12508859521E+03 0.  0.
         23    2    1    2    0    0 -0.18569851359E+03 -0.49457533670E+02  0.39549439541E+03  0.44434064202E+03  0.63975024526E+02 0.  0.
          5    1    3    3  502    0  0.62369302589E+02 -0.28010606120E+02  0.43295617167E+02  0.81033985626E+02  0.41800000000E+01 0. -1.
         -5    1    3    3    0  502  0.12332921100E+03  0.77468139790E+02  0.27554909315E+03  0.31169886446E+03  0.41800000000E+01 0. -1.
        -11    1    4    4    0    0 -0.41237682742E+02 -0.33473056061E+02  0.14904419336E+03  0.15822504079E+03  0.00000000000E+00 0. -1.
         11    1    4    4    0    0 -0.14446083085E+03 -0.15984477609E+02  0.24645020205E+03  0.28611560123E+03  0.00000000000E+00 0.  1.
</event>
<event>
 8    1  0.6615242E-009  0.9485855E+02  0.7561462E-02  0.1291495E+00
          3   -1    0    0  501    0  0.00000000000E+00  0.00000000000E+00  0.37203224102E+03  0.37203224102E+03  0.00000000000E+00 0. -1.
         -3   -1    0    0    0  501 -0.00000000000E+00 -0.00000000000E+00 -0.38096147844E+02  0.38096147844E+02  0.00000000000E+00 0.  1.
         25    2    1    2    0    0  0.18645213237E+02 -0.21040922105E+02  0.16583621019E+03  0.20961895762E+03  0.12509234350E+03 0.  0.
         23    2    1    2    0    0 -0.18645213237E+02  0.21040922105E+02  0.16809988299E+03  0.20050943125E+03  0.10562242650E+03 0.  0.
          5    1    3    3  502    0  0.49098759928E+02  0.19950137954E+01  0.16389836635E+03  0.17115728205E+03  0.41800000000E+01 0.  1.
         -5    1    3    3    0  502 -0.30453546691E+02 -0.23035935900E+02  0.19378438435E+01  0.38461675569E+02  0.41800000000E+01 0.  1.
        -11    1    4    4    0    0  0.31172017316E+01  0.58544361764E+02  0.13070490267E+03  0.14325128559E+03  0.00000000000E+00 0. -1.
         11    1    4    4    0    0 -0.21762414969E+02 -0.37503439659E+02  0.37394980320E+02  0.57258145662E+02  0.00000000000E+00 0.  1.
</event>
<event>
 8    1  0.6615242E-009  0.1972603E+03  0.7561462E-02  0.1152071E+00
          1   -1    0    0  501    0  0.00000000000E+00  0.00000000000E+00  0.38868009370E+03  0.38868009370E+03  0.00000000000E+00 0. -1.
         -1   -1    0    0    0  501 -0.00000000000E+00 -0.00000000000E+00 -0.11355582022E+03  0.11355582022E+03  0.00000000000E+00 0.  1.
         25    2    1    2    0    0  0.87332153582E+01  0.17429879076E+03  0.93400722269E+02  0.23415542303E+03  0.12509488280E+03 0.  0.
         23    2    1    2    0    0 -0.87332153582E+01 -0.17429879076E+03  0.18172355122E+03  0.26808049089E+03  0.91582547561E+02 0.  0.
          5    1    3    3  502    0 -0.31007884828E+02  0.16660173542E+03  0.55028502282E+02  0.17822243302E+03  0.41800000000E+01 0.  1.
         -5    1    3    3    0  502  0.39741100187E+02  0.76970553380E+01  0.38372219987E+02  0.55932990012E+02  0.41800000000E+01 0.  1.
        -11    1    4    4    0    0 -0.34281037434E+02 -0.94758856599E+02  0.50994636587E+02  0.11293751986E+03  0.00000000000E+00 0. -1.
         11    1    4    4    0    0  0.25547822076E+02 -0.79539934160E+02  0.13072891463E+03  0.15514297103E+03  0.00000000000E+00 0.  1.
</event>
<event>
 8    1  0.6615242E-009  0.1403395E+03  0.7561462E-02  0.1212873E+00
         -2   -1    0    0    0  501 -0.00000000000E+00  0.00000000000E+00  0.12712213934E+03  0.12712213934E+03  0.00000000000E+00 0.  1.
          2   -1    0    0  501    0  0.00000000000E+00 -0.00000000000E+00 -0.19061334661E+03  0.19061334661E+03  0.00000000000E+00 0. -1.
         25    2    1    2    0    0 -0.10013077971E+03  0.40548699620E+02 -0.78288284133E+01  0.16546735357E+03  0.12509110462E+03 0.  0.
         23    2    1    2    0    0  0.10013077971E+03 -0.40548699620E+02 -0.55662378861E+02  0.15226813238E+03  0.91743738916E+02 0.  0.
          5    1    3    3  502    0 -0.79010448522E+02 -0.34024279894E+02  0.71269428059E+01  0.86420878911E+02  0.41800000000E+01 0.  1.
         -5    1    3    3    0  502 -0.21120331192E+02  0.74572979513E+02 -0.14955771219E+02  0.79046474658E+02  0.41800000000E+01 0.  1.
        -11    1    4    4    0    0  0.82393989018E+02 -0.50457905998E+02 -0.39382849707E+01  0.96696844791E+02  0.00000000000E+00 0.  1.
         11    1    4    4    0    0  0.17736790696E+02  0.99092063782E+01 -0.51724093891E+02  0.55571287587E+02  0.00000000000E+00 0. -1.
</event>
<event>
 8    1  0.6615242E-009  0.1065086E+03  0.7561462E-02  0.1267175E+00
         -3   -1    0    0    0  501 -0.00000000000E+00  0.00000000000E+00  0.22944689875E+02  0.22944689875E+02  0.00000000000E+00 0.  1.
          3   -1    0    0  501    0  0.00000000000E+00 -0.00000000000E+00 -0.76719058484E+03  0.76719058484E+03  0.00000000000E+00 0. -1.
         25    2    1    2    0    0  0.56691968367E+02  0.13759125624E+02 -0.55729691343E+03  0.57413453933E+03  0.12508927499E+03 0.  0.
         23    2    1    2    0    0 -0.56691968367E+02 -0.13759125624E+02 -0.18694898154E+03  0.21600073539E+03  0.91121365085E+02 0.  0.
          5    1    3    3  502    0  0.43874101343E+02 -0.33887926443E+02 -0.47386003405E+03  0.47711018916E+03  0.41800000000E+01 0. -1.
         -5    1    3    3    0  502  0.12817867025E+02  0.47647052067E+02 -0.83436879375E+02  0.97024350168E+02  0.41800000000E+01 0. -1.
        -11    1    4    4    0    0 -0.29129398235E+02 -0.52688972183E+02 -0.11212135547E+03  0.12726290891E+03  0.00000000000E+00 0. -1.
         11    1    4    4    0    0 -0.27562570132E+02  0.38929846560E+02 -0.74827626065E+02  0.88737826478E+02  0.00000000000E+00 0.  1.
</event>
<event>
 8    1  0.6615242E-009  0.2753029E+03  0.7561462E-02  0.1098282E+00
          1   -1    0    0  501    0  0.00000000000E+00  0.00000000000E+00  0.10401623882E+04  0.10401623882E+04  0.00000000000E+00 0. -1.
         -1   -1    0    0    0  501 -0.00000000000E+00 -0.00000000000E+00 -0.86348529514E+02  0.86348529514E+02  0.00000000000E+00 0.  1.
         25    2    1    2    0    0 -0.12891649578E+03  0.22734643046E+03  0.30246575765E+03  0.41885414019E+03  0.12508954344E+03 0.  0.
         23    2    1    2    0    0  0.12891649578E+03 -0.22734643046E+03  0.65134810101E+03  0.70765677750E+03  0.90652654279E+02 0.  0.
          5    1    3    3  502    0  0.21869395386E+02  0.59689713335E+02  0.56594911198E+02  0.85214955883E+02  0.41800000000E+01 0.  1.
         -5    1    3    3    0  502 -0.15078589116E+03  0.16765671712E+03  0.24587084646E+03  0.33363918431E+03  0.41800000000E+01 0.  1.
        -11    1    4    4    0    0  0.65041826486E+02 -0.11166533961E+03  0.43831030132E+03  0.45696335467E+03  0.00000000000E+00 0.  1.
         11    1    4    4    0    0  0.63874669290E+02 -0.11568109084E+03  0.21303779968E+03  0.25069342283E+03  0.00000000000E+00 0. -1.
</event>
<event>
 8    1  0.6615242E-009  0.1191977E+03  0.7561462E-02  0.1244426E+00
          2   -1    0    0  501    0  0.00000000000E+00  0.00000000000E+00  0.92669593236E+03  0.92669593236E+03  0.00000000000E+00 0. -1.
         -2   -1    0    0    0  501 -0.00000000000E+00 -0.00000000000E+00 -0.19420290108E+02  0.19420290108E+02  0.00000000000E+00 0.  1.
         25    2    1    2    0    0  0.43696722973E+02 -0.57574728767E+02  0.59669817184E+03  0.61393807439E+03  0.12508796072E+03 0.  0.
         23    2    1    2    0    0 -0.43696722973E+02  0.57574728767E+02  0.31057747041E+03  0.33217814807E+03  0.93057530279E+02 0.  0.
          5    1    3    3  502    0 -0.41354952919E+02 -0.70925558879E+01  0.24373803594E+03  0.24735852329E+03  0.41800000000E+01 0. -1.
         -5    1    3    3    0  502  0.85051675893E+02 -0.50482172879E+02  0.35296013590E+03  0.36657955110E+03  0.41800000000E+01 0. -1.
        -11    1    4    4    0    0 -0.20885426972E+02  0.68736796393E+02  0.29201409480E+03  0.30072109969E+03  0.00000000000E+00 0.  1.
         11    1    4    4    0    0 -0.22811296001E+02 -0.11162067626E+02  0.18563375607E+02  0.31457048381E+02  0.00000000000E+00 0. -1.
</event>
<event>
 8    1  0.6615242E-009  0.1347649E+03  0.7561462E-02  0.1220552E+00
          1   -1    0    0  501    0  0.00000000000E+00  0.00000000000E+00  0.61079374136E+02  0.61079374136E+02  0.00000000000E+00 0. -1.
         -1   -1    0    0    0  501 -0.00000000000E+00 -0.00000000000E+00 -0.44110028579E+03  0.44110028579E+03  0.00000000000E+00 0.  1.
         25    2    1    2    0    0  0.12022270446E+03 -0.76190110893E+01 -0.16722176617E+03  0.24108646564E+03  0.12509203346E+03 0.  0.
         23    2    1    2    0    0 -0.12022270446E+03  0.76190110893E+01 -0.21279914549E+03  0.26109319429E+03  0.91513014296E+02 0.  0.
          5    1    3    3  502    0  0.54294838642E+02  0.28792882423E+02 -0.45377376653E+01  0.61765872814E+02  0.41800000000E+01 0.  1.
         -5    1    3    3    0  502  0.65927865822E+02 -0.36411893512E+02 -0.16268402850E+03  0.17932059283E+03  0.41800000000E+01 0.  1.
        -11    1    4    4    0    0 -0.63539397532E+02 -0.23609390491E+02 -0.17127563749E+03  0.18420098359E+03  0.00000000000E+00 0.  1.
         11    1    4    4    0    0 -0.56683306932E+02  0.31228401581E+02 -0.41523508001E+02  0.76892210703E+02  0.00000000000E+00 0. -1.
</event>
<event>
 8    1  0.6615242E-009  0.9821117E+02  0.7561462E-02  0.1284103E+00
          1   -1    0    0  501    0  0.00000000000E+00  0.00000000000E+00  0.40367192224E+03  0.40367192224E+03  0.00000000000E+00 0. -1.
         -1   -1    0    0    0  501 -0.00000000000E+00 -0.00000000000E+00 -0.39223394511E+02  0.39223394511E+02  0.00000000000E+00 0.  1.
         25    2    1    2    0    0 -0.40030998557E+02 -0.28174215776E+02  0.27901618856E+03  0.30967097502E+03  0.12509920867E+03 0.  0.
         23    2    1    2    0    0  0.40030998557E+02  0.28174215776E+02  0.85432339170E+02  0.13322434173E+03  0.89742817952E+02 0.  0.
          5    1    3    3  502    0 -0.39123997013E+02 -0.76145672646E+02  0.19070367060E+03  0.20907944180E+03  0.41800000000E+01 0.  1.
         -5    1    3    3    0  502 -0.90700154473E+00  0.47971456870E+02  0.88312517961E+02  0.10059153322E+03  0.41800000000E+01 0.  1.
        -11    1    4    4    0    0 -0.27329774273E+01  0.18505855484E+02 -0.14780027127E+02  0.23840827475E+02  0.00000000000E+00 0.  1.
         11    1    4    4    0    0  0.42763975985E+02  0.96683602917E+01  0.10021236630E+03  0.10938351426E+03  0.00000000000E+00 0. -1.
</event>
<event>
 8    1  0.6615242E-009  0.1020095E+03  0.7561462E-02  0.1276126E+00
         -4   -1    0    0    0  501 -0.00000000000E+00  0.00000000000E+00  0.16187615073E+03  0.16187615073E+03  0.00000000000E+00 0.  1.
          4   -1    0    0  501    0  0.00000000000E+00 -0.00000000000E+00 -0.11981443376E+03  0.11981443376E+03  0.00000000000E+00 0. -1.
         25    2    1    2    0    0  0.84052190317E+02 -0.12229817299E+02  0.73453877914E+01  0.15139575876E+03  0.12510947974E+03 0.  0.
         23    2    1    2    0    0 -0.84052190317E+02  0.12229817299E+02  0.34716329183E+02  0.13029482573E+03  0.92505021339E+02 0.  0.
          5    1    3    3  502    0 -0.17653662850E+01 -0.27254192917E+02  0.47828831281E+02  0.55235650185E+02  0.41800000000E+01 0.  1.
         -5    1    3    3    0  502  0.85817556602E+02  0.15024375617E+02 -0.40483443490E+02  0.96160108572E+02  0.41800000000E+01 0.  1.
        -11    1    4    4    0    0 -0.49335500675E+02  0.20586524240E+02  0.64515679371E+02  0.83785854963E+02  0.00000000000E+00 0.  1.
         11    1    4    4    0    0 -0.34716689642E+02 -0.83567069404E+01 -0.29799350188E+02  0.46508970772E+02  0.00000000000E+00 0. -1.
</event>
<event>
 8    1  0.6615242E-009  0.1205850E+03  0.7561462E-02  0.1242135E+00
         -1   -1    0    0    0  501 -0.00000000000E+00  0.00000000000E+00  0.35890939444E+02  0.35890939444E+02  0.00000000000E+00 0.  1.
          1   -1    0    0  501    0  0.00000000000E+00 -0.00000000000E+00 -0.55414010830E+03  0.55414010830E+03  0.00000000000E+00 0. -1.
         25    2    1    2    0    0 -0.88953036297E+02 -0.95740284691E+01 -0.24617310993E+03  0.29026443688E+03  0.12509172065E+03 0.  0.
         23    2    1    2    0    0  0.88953036297E+02  0.95740284691E+01 -0.27207605892E+03  0.29976661086E+03  0.88489177091E+02 0.  0.
          5    1    3    3  502    0 -0.72997625488E+02 -0.43940392462E+02 -0.70982986966E+02  0.11097507943E+03  0.41800000000E+01 0.  1.
         -5    1    3    3    0  502 -0.15955410808E+02  0.34366363993E+02 -0.17519012297E+03  0.17928935745E+03  0.41800000000E+01 0.  1.
        -11    1    4    4    0    0 -0.45585047430E+01 -0.19336957990E+02 -0.98610850827E+02  0.10059223534E+03  0.00000000000E+00 0. -1.
         11    1    4    4    0    0  0.93511541039E+02  0.28910986459E+02 -0.17346520809E+03  0.19917437552E+03  0.00000000000E+00 0.  1.
</event>
<event>
 8    1  0.6615242E-009  0.2090198E+03  0.7561462E-02  0.1142345E+00
         -3   -1    0    0    0  501 -0.00000000000E+00  0.00000000000E+00  0.38017326152E+03  0.38017326152E+03  0.00000000000E+00 0.  1.
          3   -1    0    0  501    0  0.00000000000E+00 -0.00000000000E+00 -0.12069051277E+03  0.12069051277E+03  0.00000000000E+00 0. -1.
         25    2    1    2    0    0  0.12831051435E+03 -0.13221319623E+03  0.13137697497E+03  0.25855988805E+03  0.12509751717E+03 0.  0.
         23    2    1    2    0    0 -0.12831051435E+03  0.13221319623E+03  0.12810577378E+03  0.24230388624E+03  0.91412070651E+02 0.  0.
          5    1    3    3  502    0  0.15113991633E+03 -0.12899407088E+03  0.12271433011E+03  0.23357873158E+03  0.41800000000E+01 0. -1.
         -5    1    3    3    0  502 -0.22829401978E+02 -0.32191253558E+01  0.86626448588E+01  0.24981156472E+02  0.41800000000E+01 0. -1.
        -11    1    4    4    0    0 -0.35270456335E+02  0.83929408586E+02  0.96848443799E+02  0.13292017071E+03  0.00000000000E+00 0.  1.
         11    1    4    4    0    0 -0.93040058019E+02  0.48283787647E+02  0.31257329977E+02  0.10938371553E+03  0.00000000000E+00 0. -1.
</event>
<event>
 8    1  0.6615242E-009  0.1041151E+03  0.7561462E-02  0.1271873E+00
         -2   -1    0    0    0  501 -0.00000000000E+00  0.00000000000E+00  0.32771982566E+02  0.32771982566E+02  0.00000000000E+00 0. -1.
          2   -1    0    0  501    0  0.00000000000E+00 -0.00000000000E+00 -0.52815802296E+03  0.52815802296E+03  0.00000000000E+00 0.  1.
         25    2    1    2    0    0  0.63103964930E+02 -0.31542023597E+01 -0.20282650098E+03  0.24653281457E+03  0.12509108594E+03 0.  0.
         23    2    1    2    0    0 -0.63103964930E+02  0.31542023597E+01 -0.29255953942E+03  0.31439719095E+03  0.96241624004E+02 0.  0.
          5    1    3    3  502    0 -0.27998575879E+02  0.22082080383E+02 -0.21094233181E+02  0.41641056648E+02  0.41800000000E+01 0. -1.
         -5    1    3    3    0  502  0.91102540808E+02 -0.25236282743E+02 -0.18173226780E+03  0.20489175793E+03  0.41800000000E+01 0. -1.
        -11    1    4    4    0    0 -0.20275713907E+02  0.22861074524E+02 -0.17269420382E+02  0.35099375823E+02  0.00000000000E+00 0. -1.
         11    1    4    4    0    0 -0.42828251022E+02 -0.19706872164E+02 -0.27529011904E+03  0.27929781513E+03  0.00000000000E+00 0.  1.
</event>
<event>
 8    1  0.6615242E-009  0.9258148E+02  0.7561462E-02  0.1296718E+00
          2   -1    0    0  501    0  0.00000000000E+00  0.00000000000E+00  0.80451714649E+03  0.80451714649E+03  0.00000000000E+00 0.  1.
         -2   -1    0    0    0  501 -0.00000000000E+00 -0.00000000000E+00 -0.24417613657E+02  0.24417613657E+02  0.00000000000E+00 0. -1.
         25    2    1    2    0    0  0.30064240961E+02  0.73397517717E+02  0.52517594358E+03  0.54566265551E+03  0.12508760014E+03 0.  0.
         23    2    1    2    0    0 -0.30064240961E+02 -0.73397517717E+02  0.25492358925E+03  0.28327210464E+03  0.94688936620E+02 0.  0.
          5    1    3    3  502    0 -0.14169807416E+02  0.56165406038E+02  0.85185230891E+02  0.10309865295E+03  0.41800000000E+01 0.  1.
         -5    1    3    3    0  502  0.44234048377E+02  0.17232111679E+02  0.43999071269E+03  0.44256400256E+03  0.41800000000E+01 0.  1.
        -11    1    4    4    0    0 -0.13710325397E+02 -0.39107022616E+02  0.23817513378E+03  0.24175344174E+03  0.00000000000E+00 0.  1.
         11    1    4    4    0    0 -0.16353915563E+02 -0.34290495101E+02  0.16748455472E+02  0.41518662903E+02  0.00000000000E+00 0. -1.
</event>
<event>
 8    1  0.6615242E-009  0.1049488E+03  0.7561462E-02  0.1270221E+00
         -1   -1    0    0    0  501 -0.00000000000E+00  0.00000000000E+00  0.39398176115E+03  0.39398176115E+03  0.00000000000E+00 0.  1.
          1   -1    0    0  501    0  0.00000000000E+00 -0.00000000000E+00 -0.49149270090E+02  0.49149270090E+02  0.00000000000E+00 0. -1.
         25    2    1    2    0    0 -0.67325366334E+02 -0.17911241370E+02  0.26027857870E+03  0.29706291427E+03  0.12509164234E+03 0.  0.
         23    2    1    2    0    0  0.67325366334E+02  0.17911241370E+02  0.84553912355E+02  0.14606811697E+03  0.96607521348E+02 0.  0.
          5    1    3    3  502    0 -0.86580509037E+02 -0.51830844931E+02  0.21222792960E+03  0.23503358809E+03  0.41800000000E+01 0.  1.
         -5    1    3    3    0  502  0.19255142703E+02  0.33919603561E+02  0.48050649107E+02  0.62029326176E+02  0.41800000000E+01 0.  1.
        -11    1    4    4    0    0  0.19178005468E+02  0.55849993766E+01 -0.21255113180E+02  0.29167926702E+02  0.00000000000E+00 0. -1.
         11    1    4    4    0    0  0.48147360865E+02  0.12326241993E+02  0.10580902554E+03  0.11690019027E+03  0.00000000000E+00 0.  1.
</event>
<event>
 8    1  0.6615242E-009  0.1255794E+03  0.7561462E-02  0.1234167E+00
          1   -1    0    0  501    0  0.00000000000E+00  0.00000000000E+00  0.24919146955E+03  0.24919146955E+03  0.00000000000E+00 0. -1.
         -1   -1    0    0    0  501 -0.00000000000E+00 -0.00000000000E+00 -0.71076303513E+02  0.71076303513E+02  0.00000000000E+00 0.  1.
         25    2    1    2    0    0  0.17610479776E+02 -0.73734407470E+02  0.10964084098E+03  0.18279792657E+03  0.12508827326E+03 0.  0.
         23    2    1    2    0    0 -0.17610479776E+02  0.73734407470E+02  0.68474325063E+02  0.13746984649E+03  0.91990943352E+02 0.  0.
          5    1    3    3  502    0 -0.82819727216E+01 -0.10230193244E+03  0.57196252606E+02  0.11757193613E+03  0.41800000000E+01 0.  1.
         -5    1    3    3    0  502  0.25892452497E+02  0.28567524975E+02  0.52444588369E+02  0.65225990439E+02  0.41800000000E+01 0.  1.
        -11    1    4    4    0    0  0.25891162351E+02  0.57788823090E+02  0.12049229242E+02  0.64459943278E+02  0.00000000000E+00 0.  1.
         11    1    4    4    0    0 -0.43501642126E+02  0.15945584379E+02  0.56425095822E+02  0.73009903214E+02  0.00000000000E+00 0. -1.
</event>
<event>
 8    1  0.6615242E-009  0.1360097E+03  0.7561462E-02  0.1218801E+00
         -2   -1    0    0    0  501 -0.00000000000E+00  0.00000000000E+00  0.87559607385E+02  0.87559607385E+02  0.00000000000E+00 0.  1.
          2   -1    0    0  501    0  0.00000000000E+00 -0.00000000000E+00 -0.31835225649E+03  0.31835225649E+03  0.00000000000E+00 0. -1.
         25    2    1    2    0    0  0.11318641712E+03  0.38936268682E+01 -0.19879773629E+03  0.26075882491E+03  0.12509316314E+03 0.  0.
         23    2    1    2    0    0 -0.11318641712E+03 -0.38936268682E+01 -0.31994912816E+02  0.14515303897E+03  0.84967081415E+02 0.  0.
          5    1    3    3  502    0  0.24248854736E+02  0.43467733222E+02 -0.13589455901E+03  0.14478347404E+03  0.41800000000E+01 0.  1.
         -5    1    3    3    0  502  0.88937562384E+02 -0.39574106354E+02 -0.62903177276E+02  0.11597535086E+03  0.41800000000E+01 0.  1.
        -11    1    4    4    0    0 -0.10217514043E+03  0.14499260601E+02  0.39798356644E+01  0.10327549066E+03  0.00000000000E+00 0.  1.
         11    1    4    4    0    0 -0.11011276695E+02 -0.18392887470E+02 -0.35974748481E+02  0.41877548307E+02  0.00000000000E+00 0. -1.
</event>
<event>
 8    1  0.6615242E-009  0.1750031E+03  0.7561462E-02  0.1172729E+00
         -2   -1    0    0    0  501 -0.00000000000E+00  0.00000000000E+00  0.10108482256E+03  0.10108482256E+03  0.00000000000E+00 0.  1.
          2   -1    0    0  501    0  0.00000000000E+00 -0.00000000000E+00 -0.44618448884E+03  0.44618448884E+03  0.00000000000E+00 0. -1.
         25    2    1    2    0    0  0.14286034183E+03 -0.28092081061E+02 -0.32037448379E+03  0.37347816196E+03  0.12509150773E+03 0.  0.
         23    2    1    2    0    0 -0.14286034183E+03  0.28092081061E+02 -0.24725182494E+02  0.17379114944E+03  0.91617611240E+02 0.  0.
          5    1    3    3  502    0  0.14801081766E+03  0.13641054012E+02 -0.26438843463E+03  0.30333479402E+03  0.41800000000E+01 0.  1.
         -5    1    3    3    0  502 -0.51504758280E+01 -0.41733135073E+02 -0.55986049167E+02  0.70143367937E+02  0.41800000000E+01 0.  1.
        -11    1    4    4    0    0 -0.75933285836E+02  0.47254112773E+02  0.19202540552E+02  0.91474327740E+02  0.00000000000E+00 0.  1.
         11    1    4    4    0    0 -0.66927055995E+02 -0.19162031712E+02 -0.43927723046E+02  0.82316821704E+02  0.00000000000E+00 0. -1.
</event>
<event>
 8    1  0.6615242E-009  0.1412423E+03  0.7561462E-02  0.1211667E+00
          1   -1    0    0  501    0  0.00000000000E+00  0.00000000000E+00  0.53168573176E+03  0.53168573176E+03  0.00000000000E+00 0. -1.
         -1   -1    0    0    0  501 -0.00000000000E+00 -0.00000000000E+00 -0.66538161302E+02  0.66538161302E+02  0.00000000000E+00 0.  1.
         25    2    1    2    0    0  0.13421681781E+03  0.14439440994E+02  0.35132669153E+03  0.39661079398E+03  0.12508807331E+03 0.  0.
         23    2    1    2    0    0 -0.13421681781E+03 -0.14439440994E+02  0.11382087893E+03  0.20161309908E+03  0.97313912687E+02 0.  0.
          5    1    3    3  502    0  0.30869158995E+02 -0.17645295320E+02  0.81016558196E+01  0.36706547795E+02  0.41800000000E+01 0.  1.
         -5    1    3    3    0  502  0.10334765881E+03  0.32084736315E+02  0.34322503571E+03  0.35990424619E+03  0.41800000000E+01 0.  1.
        -11    1    4    4    0    0 -0.12054629692E+03 -0.30324586397E+01  0.13017086274E+03  0.17744029704E+03  0.00000000000E+00 0.  1.
         11    1    4    4    0    0 -0.13670520887E+02 -0.11406982355E+02 -0.16349983814E+02  0.24172802041E+02  0.00000000000E+00 0. -1.
</event>
<event>
 8    1  0.6615242E-009  0.1294743E+03  0.7561462E-02  0.1228238E+00
         -1   -1    0    0    0  501 -0.00000000000E+00  0.00000000000E+00  0.26147544369E+03  0.26147544369E+03  0.00000000000E+00 0.  1.
          1   -1    0    0  501    0  0.00000000000E+00 -0.00000000000E+00 -0.85918998968E+02  0.85918998968E+02  0.00000000000E+00 0. -1.
         25    2    1    2    0    0 -0.89092677610E+02 -0.21250809757E+02  0.15026326553E+03  0.21590759053E+03  0.12509171260E+03 0.  0.
         23    2    1    2    0    0  0.89092677610E+02  0.21250809757E+02  0.25293179195E+02  0.13148685213E+03  0.90884240935E+02 0.  0.
          5    1    3    3  502    0 -0.11484159670E+03  0.25412101408E+01  0.89695467113E+02  0.14580054630E+03  0.41800000000E+01 0. -1.
         -5    1    3    3    0  502  0.25748919090E+02 -0.23792019897E+02  0.60567798413E+02  0.70107044223E+02  0.41800000000E+01 0. -1.
        -11    1    4    4    0    0  0.34026886316E+02  0.38126957783E+02 -0.23269954452E+02  0.56151444169E+02  0.00000000000E+00 0. -1.
         11    1    4    4    0    0  0.55065791294E+02 -0.16876148026E+02  0.48563133647E+02  0.75335407961E+02  0.00000000000E+00 0.  1.
</event>
<event>
 8    1  0.6615242E-009  0.1429302E+03  0.7561462E-02  0.1209440E+00
         -1   -1    0    0    0  501 -0.00000000000E+00  0.00000000000E+00  0.58279379443E+02  0.58279379443E+02  0.00000000000E+00 0.  1.
          1   -1    0    0  501    0  0.00000000000E+00 -0.00000000000E+00 -0.40792276908E+03  0.40792276908E+03  0.00000000000E+00 0. -1.
         25    2    1    2    0    0 -0.38834937620E+02  0.99928832937E+02 -0.20820485279E+03  0.26550044498E+03  0.12508917430E+03 0.  0.
         23    2    1    2    0    0  0.38834937620E+02 -0.99928832937E+02 -0.14143853685E+03  0.20070170354E+03  0.93714406938E+02 0.  0.
          5    1    3    3  502    0 -0.65533969693E+02  0.97748498101E+02 -0.10168790888E+03  0.15558718867E+03  0.41800000000E+01 0.  1.
         -5    1    3    3    0  502  0.26699032072E+02  0.21803348356E+01 -0.10651694391E+03  0.10991325631E+03  0.41800000000E+01 0.  1.
        -11    1    4    4    0    0 -0.30168171960E+02 -0.35464054935E+02 -0.60420530424E+02  0.76278819397E+02  0.00000000000E+00 0. -1.
         11    1    4    4    0    0  0.69003109581E+02 -0.64464778002E+02 -0.81018006422E+02  0.12442288415E+03  0.00000000000E+00 0.  1.
</event>
<event>
 8    1  0.6615242E-009  0.8357626E+02  0.7561462E-02  0.1319198E+00
          2   -1    0    0  501    0  0.00000000000E+00  0.00000000000E+00  0.10136045206E+04  0.10136045206E+04  0.00000000000E+00 0.  1.
         -2   -1    0    0    0  501 -0.00000000000E+00 -0.00000000000E+00 -0.17253716269E+02  0.17253716269E+02  0.00000000000E+00 0. -1.
         25    2    1    2    0    0  0.21244418575E+02 -0.42502694954E+02  0.78174420456E+03  0.79311405024E+03  0.12509232959E+03 0.  0.
         23    2    1    2    0    0 -0.21244418575E+02  0.42502694954E+02  0.21460659976E+03  0.23774418662E+03  0.90600779313E+02 0.  0.
          5    1    3    3  502    0 -0.32217812236E+02 -0.13369321767E+02  0.60706937098E+03  0.60808504320E+03  0.41800000000E+01 0. -1.
         -5    1    3    3    0  502  0.53462230811E+02 -0.29133373187E+02  0.17467483358E+03  0.18502900703E+03  0.41800000000E+01 0. -1.
        -11    1    4    4    0    0 -0.28775211412E+02  0.97871234367E+00  0.12689602995E+02  0.31464212907E+02  0.00000000000E+00 0. -1.
         11    1    4    4    0    0  0.75307928371E+01  0.41523982610E+02  0.20191699677E+03  0.20627997372E+03  0.00000000000E+00 0.  1.
</event>
<event>
 8    1  0.6615242E-009  0.1893843E+03  0.7561462E-02  0.1159018E+00
         -1   -1    0    0    0  501 -0.00000000000E+00  0.00000000000E+00  0.10235367924E+03  0.10235367924E+03  0.00000000000E+00 0.  1.
          1   -1    0    0  501    0  0.00000000000E+00 -0.00000000000E+00 -0.45396722654E+03  0.45396722654E+03  0.00000000000E+00 0. -1.
         25    2    1    2    0    0 -0.13767400039E+03  0.12446710120E+03 -0.19884749006E+03  0.29939150250E+03  0.12509499512E+03 0.  0.
         23    2    1    2    0    0  0.13767400039E+03 -0.12446710120E+03 -0.15276605724E+03  0.25692940328E+03  0.90714168455E+02 0.  0.
          5    1    3    3  502    0 -0.74356187894E+02  0.34733934993E+02 -0.16510630697E+03  0.18442574094E+03  0.41800000000E+01 0. -1.
         -5    1    3    3    0  502 -0.63317812500E+02  0.89733166204E+02 -0.33741183090E+02  0.11496576157E+03  0.41800000000E+01 0. -1.
        -11    1    4    4    0    0  0.98690814250E+02 -0.10088292395E+03 -0.15707627609E+03  0.21116391186E+03  0.00000000000E+00 0. -1.
         11    1    4    4    0    0  0.38983186144E+02 -0.23584177244E+02  0.43102188452E+01  0.45765491418E+02  0.00000000000E+00 0.  1.
</event>
<event>
 8    1  0.6615242E-009  0.7350367E+02  0.7561462E-02  0.1348568E+00
          1   -1    0    0  501    0  0.00000000000E+00  0.00000000000E+00  0.11179246013E+04  0.11179246013E+04  0.00000000000E+00 0. -1.
         -1   -1    0    0    0  501 -0.00000000000E+00 -0.00000000000E+00 -0.13312233292E+02  0.13312233292E+02  0.00000000000E+00 0.  1.
         25    2    1    2    0    0  0.23550840585E+02  0.47007924419E+02  0.66929007316E+03  0.68290767113E+03  0.12509715505E+03 0.  0.
         23    2    1    2    0    0 -0.23550840585E+02 -0.47007924419E+02  0.43532229483E+03  0.44832916345E+03  0.93429927605E+02 0.  0.
          5    1    3    3  502    0  0.27067923738E+02  0.32095982762E+02  0.66516193938E+03  0.66649883916E+03  0.41800000000E+01 0.  1.
         -5    1    3    3    0  502 -0.35170831535E+01  0.14911941657E+02  0.41281337805E+01  0.16408831963E+02  0.41800000000E+01 0.  1.
        -11    1    4    4    0    0 -0.16789848696E+01  0.19165231819E+02  0.22229902815E+02  0.29398872088E+02  0.00000000000E+00 0.  1.
         11    1    4    4    0    0 -0.21871855715E+02 -0.66173156239E+02  0.41309239202E+03  0.41893029136E+03  0.00000000000E+00 0. -1.
</event>
<event>
 8    1  0.6615242E-009  0.1017313E+03  0.7561462E-02  0.1276697E+00
         -1   -1    0    0    0  501 -0.00000000000E+00  0.00000000000E+00  0.13368484920E+03  0.13368484920E+03  0.00000000000E+00 0.  1.
          1   -1    0    0  501    0  0.00000000000E+00 -0.00000000000E+00 -0.11370558322E+03  0.11370558322E+03  0.00000000000E+00 0. -1.
         25    2    1    2    0    0  0.42030052657E+02 -0.22998713019E+02 -0.18359898479E+02  0.13520464516E+03  0.12509094321E+03 0.  0.
         23    2    1    2    0    0 -0.42030052657E+02  0.22998713019E+02  0.38339164454E+02  0.11218578726E+03  0.93916416061E+02 0.  0.
          5    1    3    3  502    0 -0.35376819533E+02 -0.78725777111E+01  0.25830567297E+02  0.44701089998E+02  0.41800000000E+01 0.  1.
         -5    1    3    3    0  502  0.77406872191E+02 -0.15126135308E+02 -0.44190465776E+02  0.90503555163E+02  0.41800000000E+01 0.  1.
        -11    1    4    4    0    0 -0.21128593722E+02 -0.26720397411E+02  0.46495400069E+02  0.57638696534E+02  0.00000000000E+00 0.  1.
         11    1    4    4    0    0 -0.20901458935E+02  0.49719110430E+02 -0.81562356157E+01  0.54547090729E+02  0.00000000000E+00 0. -1.
</event>
<event>
 8    1  0.6615242E-009  0.1144487E+03  0.7561462E-02  0.1252547E+00
         -1   -1    0    0    0  501 -0.00000000000E+00  0.00000000000E+00  0.10256292221E+03  0.10256292221E+03  0.00000000000E+00 0.  1.
          1   -1    0    0  501    0  0.00000000000E+00 -0.00000000000E+00 -0.15889882945E+03  0.15889882945E+03  0.00000000000E+00 0. -1.
         25    2    1    2    0    0  0.32804583422E+01  0.46717017938E+02  0.18980140917E+02  0.13490152775E+03  0.12507971566E+03 0.  0.
         23    2    1    2    0    0 -0.32804583422E+01 -0.46717017938E+02 -0.75316048154E+02  0.12656022391E+03  0.90286997924E+02 0.  0.
          5    1    3    3  502    0  0.62929307120E+02  0.15349143657E+02  0.56207654402E+00  0.64911341348E+02  0.41800000000E+01 0. -1.
         -5    1    3    3    0  502 -0.59648848778E+02  0.31367874281E+02  0.18418064373E+02  0.69990186402E+02  0.41800000000E+01 0. -1.
        -11    1    4    4    0    0  0.37186612909E+02 -0.41402088962E+02 -0.62712102592E+02  0.83843812900E+02  0.00000000000E+00 0.  1.
         11    1    4    4    0    0 -0.40467071251E+02 -0.53149289753E+01 -0.12603945562E+02  0.42716411007E+02  0.00000000000E+00 0. -1.
</event>
<event>
 8    1  0.6615242E-009  0.2188095E+03  0.7561462E-02  0.1134774E+00
          2   -1    0    0  501    0  0.00000000000E+00  0.00000000000E+00  0.20812139314E+04  0.20812139314E+04  0.00000000000E+00 0. -1.
         -2   -1    0    0    0  501 -0.00000000000E+00 -0.00000000000E+00 -0.28066868612E+02  0.28066868612E+02  0.00000000000E+00 0.  1.
         25    2    1    2    0    0 -0.20914471470E+03  0.27146458920E+02  0.85252169410E+03  0.88708471600E+03  0.12509041741E+03 0.  0.
         23    2    1    2    0    0  0.20914471470E+03 -0.27146458920E+02  0.12006253687E+04  0.12221960840E+04  0.88224429295E+02 0.  0.
          5    1    3    3  502    0 -0.91085243603E+02 -0.10067746807E+02  0.58665083535E+03  0.59377988863E+03  0.41800000000E+01 0. -1.
         -5    1    3    3    0  502 -0.11805947110E+03  0.37214205727E+02  0.26587085876E+03  0.29330482737E+03  0.41800000000E+01 0. -1.
        -11    1    4    4    0    0  0.21159701667E+02  0.19025350192E+02  0.78525590238E+02  0.83522244023E+02  0.00000000000E+00 0.  1.
         11    1    4    4    0    0  0.18798501303E+03 -0.46171809112E+02  0.11220997784E+04  0.11386738400E+04  0.00000000000E+00 0. -1.
</event>
<event>
 8    1  0.6615242E-009  0.1297165E+03  0.7561462E-02  0.1227877E+00
          1   -1    0    0  501    0  0.00000000000E+00  0.00000000000E+00  0.13862989005E+04  0.13862989005E+04  0.00000000000E+00 0. -1.
         -1   -1    0    0    0  501 -0.00000000000E+00 -0.00000000000E+00 -0.13475364736E+02  0.13475364736E+02  0.00000000000E+00 0.  1.
         25    2    1    2    0    0  0.63585014674E+02  0.40521818291E+02  0.92352534311E+03  0.93500374149E+03  0.12509142810E+03 0.  0.
         23    2    1    2    0    0 -0.63585014674E+02 -0.40521818291E+02  0.44929819269E+03  0.46477052378E+03  0.91965765231E+02 0.  0.
          5    1    3    3  502    0 -0.12334209205E+02  0.60908252679E+02  0.53273463084E+03  0.53636331647E+03  0.41800000000E+01 0. -1.
         -5    1    3    3    0  502  0.75919223879E+02 -0.20386434387E+02  0.39079071227E+03  0.39864042502E+03  0.41800000000E+01 0. -1.
        -11    1    4    4    0    0  0.19592199977E+02 -0.28207880049E+02  0.11183850097E+03  0.11699311559E+03  0.00000000000E+00 0.  1.
         11    1    4    4    0    0 -0.83177214651E+02 -0.12313938242E+02  0.33745969172E+03  0.34777740819E+03  0.00000000000E+00 0. -1.
</event>
<event>
 8    1  0.6615242E-009  0.1631909E+03  0.7561462E-02  0.1185141E+00
         -1   -1    0    0    0  501 -0.00000000000E+00  0.00000000000E+00  0.78555462642E+02  0.78555462642E+02  0.00000000000E+00 0. -1.
          1   -1    0    0  501    0  0.00000000000E+00 -0.00000000000E+00 -0.55450314362E+03  0.55450314362E+03  0.00000000000E+00 0.  1.
         25    2    1    2    0    0 -0.11112243166E+03 -0.94398487384E+02 -0.40290507550E+03  0.44636211484E+03  0.12508944186E+03 0.  0.
         23    2    1    2    0    0  0.11112243166E+03  0.94398487384E+02 -0.73042605480E+02  0.18669649142E+03  0.90890530061E+02 0.  0.
          5    1    3    3  502    0 -0.99368900982E+02 -0.29327691580E+02 -0.13410429160E+03  0.16951615085E+03  0.41800000000E+01 0. -1.
         -5    1    3    3    0  502 -0.11753530680E+02 -0.65070795804E+02 -0.26880078390E+03  0.27684596399E+03  0.41800000000E+01 0. -1.
        -11    1    4    4    0    0  0.39672118725E+02  0.70856405960E+02  0.90123350913E+00  0.81211572399E+02  0.00000000000E+00 0.  1.
         11    1    4    4    0    0  0.71450312937E+02  0.23542081424E+02 -0.73943838989E+02  0.10548491902E+03  0.00000000000E+00 0. -1.
</event>
<event>
 8    1  0.6615242E-009  0.5563875E+02  0.7561462E-02  0.1417102E+00
         -2   -1    0    0    0  501 -0.00000000000E+00  0.00000000000E+00  0.82592629989E+02  0.82592629989E+02  0.00000000000E+00 0.  1.
          2   -1    0    0  501    0  0.00000000000E+00 -0.00000000000E+00 -0.15500265351E+03  0.15500265351E+03  0.00000000000E+00 0. -1.
         25    2    1    2    0    0 -0.38724069838E+01  0.17866918400E+02 -0.74268726996E+01  0.12663738571E+03  0.12509055405E+03 0.  0.
         23    2    1    2    0    0  0.38724069838E+01 -0.17866918400E+02 -0.64983150819E+02  0.11095789778E+03  0.88060336597E+02 0.  0.
          5    1    3    3  502    0 -0.74138577971E+01 -0.36203321295E+01  0.57390937529E+02  0.58131439021E+02  0.41800000000E+01 0.  1.
         -5    1    3    3    0  502  0.35414508133E+01  0.21487250530E+02 -0.64817810229E+02  0.68505946691E+02  0.41800000000E+01 0.  1.
        -11    1    4    4    0    0 -0.26846752671E+02 -0.35442195210E+02 -0.10006371242E+02  0.45574387497E+02  0.00000000000E+00 0.  1.
         11    1    4    4    0    0  0.30719159655E+02  0.17575276810E+02 -0.54976779577E+02  0.65383510287E+02  0.00000000000E+00 0. -1.
</event>
<event>
 8    1  0.6615242E-009  0.9282541E+02  0.7561462E-02  0.1296150E+00
          2   -1    0    0  501    0  0.00000000000E+00  0.00000000000E+00  0.43603212295E+03  0.43603212295E+03  0.00000000000E+00 0. -1.
         -2   -1    0    0    0  501 -0.00000000000E+00 -0.00000000000E+00 -0.42975127238E+02  0.42975127238E+02  0.00000000000E+00 0.  1.
         25    2    1    2    0    0  0.12625300697E+02 -0.70255847279E+02  0.13808111370E+03  0.19952204835E+03  0.12508945408E+03 0.  0.
         23    2    1    2    0    0 -0.12625300697E+02  0.70255847279E+02  0.25497588202E+03  0.27948520184E+03  0.89465050962E+02 0.  0.
          5    1    3    3  502    0  0.14103141577E+02  0.19340380669E+02 -0.10091180201E+02  0.26310705894E+02  0.41800000000E+01 0.  1.
         -5    1    3    3    0  502 -0.14778408802E+01 -0.89596227949E+02  0.14817229390E+03  0.17321134245E+03  0.41800000000E+01 0.  1.
        -11    1    4    4    0    0 -0.10953210981E+02  0.44200474164E+02  0.24842881778E+03  0.25256787653E+03  0.00000000000E+00 0. -1.
         11    1    4    4    0    0 -0.16720897163E+01  0.26055373115E+02  0.65470642351E+01  0.26917325318E+02  0.00000000000E+00 0.  1.
</event>
<event>
 8    1  0.6615242E-009  0.1053285E+03  0.7561462E-02  0.1269474E+00
          2   -1    0    0  501    0  0.00000000000E+00  0.00000000000E+00  0.67601799448E+03  0.67601799448E+03  0.00000000000E+00 0.  1.
         -2   -1    0    0    0  501 -0.00000000000E+00 -0.00000000000E+00 -0.23690944984E+02  0.23690944984E+02  0.00000000000E+00 0. -1.
         25    2    1    2    0    0  0.45803461340E+02 -0.55892286842E+01  0.45188116952E+03  0.47114083198E+03  0.12509154904E+03 0.  0.
         23    2    1    2    0    0 -0.45803461340E+02  0.55892286842E+01  0.20044587998E+03  0.22856810749E+03  0.99677642495E+02 0.  0.
          5    1    3    3  502    0 -0.38946186307E+02 -0.16907540256E+02  0.95060017345E+02  0.10419476783E+03  0.41800000000E+01 0. -1.
         -5    1    3    3    0  502  0.84749647647E+02  0.11318311572E+02  0.35682115218E+03  0.36694606415E+03  0.41800000000E+01 0. -1.
        -11    1    4    4    0    0 -0.54168220689E+02  0.26181213763E+02  0.19711705723E+03  0.20609412010E+03  0.00000000000E+00 0.  1.
         11    1    4    4    0    0  0.83647593494E+01 -0.20591985078E+02  0.33288227451E+01  0.22473987392E+02  0.00000000000E+00 0. -1.
</event>
<event>
 8    1  0.6615242E-009  0.1651042E+03  0.7561462E-02  0.1183052E+00
          2   -1    0    0  501    0  0.00000000000E+00  0.00000000000E+00  0.54515825728E+02  0.54515825728E+02  0.00000000000E+00 0. -1.
         -2   -1    0    0    0  501 -0.00000000000E+00 -0.00000000000E+00 -0.60201042408E+03  0.60201042408E+03  0.00000000000E+00 0.  1.
         25    2    1    2    0    0 -0.30502466690E+01 -0.14441949044E+03 -0.30171927062E+03  0.35713923068E+03  0.12509044169E+03 0.  0.
         23    2    1    2    0    0  0.30502466690E+01  0.14441949044E+03 -0.24577532772E+03  0.29938701912E+03  0.91437313377E+02 0.  0.
          5    1    3    3  502    0 -0.38030603002E+02 -0.43436884987E+02 -0.30143325860E+02  0.65262410590E+02  0.41800000000E+01 0. -1.
         -5    1    3    3    0  502  0.34980356333E+02 -0.10098260545E+03 -0.27157594476E+03  0.29187682009E+03  0.41800000000E+01 0. -1.
        -11    1    4    4    0    0 -0.27295119713E+02  0.12523122353E+02 -0.19764180187E+02  0.35951007942E+02  0.00000000000E+00 0. -1.
         11    1    4    4    0    0  0.30345366382E+02  0.13189636808E+03 -0.22601114754E+03  0.26343601118E+03  0.00000000000E+00 0.  1.
</event>
<event>
 8    1  0.6615242E-009  0.1033455E+03  0.7561462E-02  0.1273414E+00
         -1   -1    0    0    0  501 -0.00000000000E+00  0.00000000000E+00  0.40772445817E+03  0.40772445817E+03  0.00000000000E+00 0.  1.
          1   -1    0    0  501    0  0.00000000000E+00 -0.00000000000E+00 -0.36055437658E+02  0.36055437658E+02  0.00000000000E+00 0. -1.
         25    2    1    2    0    0 -0.28375778645E+02 -0.41207997687E+01  0.13291074361E+03  0.18475770546E+03  0.12509187885E+03 0.  0.
         23    2    1    2    0    0  0.28375778645E+02  0.41207997687E+01  0.23875827690E+03  0.25902219037E+03  0.96253906471E+02 0.  0.
          5    1    3    3  502    0 -0.16798897340E+02  0.57490057748E+02  0.91744388682E+02  0.10964403744E+03  0.41800000000E+01 0. -1.
         -5    1    3    3    0  502 -0.11576881305E+02 -0.61610857517E+02  0.41166354930E+02  0.75113668017E+02  0.41800000000E+01 0. -1.
        -11    1    4    4    0    0  0.45295910023E+02  0.28964310732E+02  0.73572379388E+02  0.91123793653E+02  0.00000000000E+00 0. -1.
         11    1    4    4    0    0 -0.16920131378E+02 -0.24843510963E+02  0.16518589751E+03  0.16789839671E+03  0.00000000000E+00 0.  1.
</event>
<event>
 8    1  0.6615242E-009  0.1589972E+03  0.7561462E-02  0.1189834E+00
          2   -1    0    0  501    0  0.00000000000E+00  0.00000000000E+00  0.13483376604E+04  0.13483376604E+04  0.00000000000E+00 0. -1.
         -2   -1    0    0    0  501 -0.00000000000E+00 -0.00000000000E+00 -0.32058176470E+02  0.32058176470E+02  0.00000000000E+00 0.  1.
         25    2    1    2    0    0 -0.11790041693E+03 -0.18342806041E+02  0.11160882344E+04  0.11293975240E+04  0.12509537738E+03 0.  0.
         23    2    1    2    0    0  0.11790041693E+03  0.18342806041E+02  0.20019124958E+03  0.25099831290E+03  0.93202198604E+02 0.  0.
          5    1    3    3  502    0  0.25776764197E+02 -0.12669206758E+02  0.18615614963E+03  0.18840524095E+03  0.41800000000E+01 0.  1.
         -5    1    3    3    0  502 -0.14367718113E+03 -0.56735992830E+01  0.92993208475E+03  0.94099228305E+03  0.41800000000E+01 0.  1.
        -11    1    4    4    0    0  0.75826731921E+02 -0.29540996408E+02  0.14681209113E+03  0.16785754033E+03  0.00000000000E+00 0. -1.
         11    1    4    4    0    0  0.42073685014E+02  0.47883802449E+02  0.53379158448E+02  0.83140772574E+02  0.00000000000E+00 0.  1.
</event>
<event>
 7    1  0.6615242E-009  0.1095675E+03  0.7561462E-02  0.1261373E+00
         -3   -1    0    0    0  501 -0.00000000000E+00  0.00000000000E+00  0.17617214021E+03  0.17617214021E+03  0.00000000000E+00 0.  1.
          3   -1    0    0  501    0  0.00000000000E+00 -0.00000000000E+00 -0.13006929465E+03  0.13006929465E+03  0.00000000000E+00 0. -1.
         23    2    1    2    0    0  0.68526007004E+02  0.76162213160E+02  0.41318625780E+02  0.14442492869E+03  0.93031364823E+02 0.  0.
          5    1    1    2  502    0 -0.38154600992E+02 -0.58117703555E+02  0.62788361561E+02  0.93772553505E+02  0.41800000000E+01 0. -1.
         -5    1    1    2    0  502 -0.30371406012E+02 -0.18044509605E+02 -0.58004141779E+02  0.68043952659E+02  0.41800000000E+01 0. -1.
        -11    1    3    3    0    0  0.93463910037E+01 -0.71171565274E+01 -0.21494301361E+02  0.24495181829E+02  0.00000000000E+00 0. -1.
         11    1    3    3    0    0  0.59179616000E+02  0.83279369687E+02  0.62812927142E+02  0.11992974686E+03  0.00000000000E+00 0.  1.
</event>
<event>
 8    1  0.6615242E-009  0.1137895E+03  0.7561462E-02  0.1253709E+00
         -1   -1    0    0    0  501 -0.00000000000E+00  0.00000000000E+00  0.27047138491E+03  0.27047138491E+03  0.00000000000E+00 0.  1.
          1   -1    0    0  501    0  0.00000000000E+00 -0.00000000000E+00 -0.69261937378E+02  0.69261937378E+02  0.00000000000E+00 0. -1.
         25    2    1    2    0    0  0.51459044367E+02  0.14157224974E+02  0.18532344354E+03  0.22987116048E+03  0.12509001329E+03 0.  0.
         23    2    1    2    0    0 -0.51459044367E+02 -0.14157224974E+02  0.15886003983E+02  0.10986216181E+03  0.94704113999E+02 0.  0.
          5    1    3    3  502    0  0.55134761379E+02  0.64682695684E+02  0.11233297267E+03  0.14092502327E+03  0.41800000000E+01 0. -1.
         -5    1    3    3    0  502 -0.36757170127E+01 -0.50525470711E+02  0.72990470873E+02  0.88946137209E+02  0.41800000000E+01 0. -1.
        -11    1    4    4    0    0 -0.31459225787E+02 -0.44992214514E+02 -0.20062990100E+02  0.58450883874E+02  0.00000000000E+00 0. -1.
         11    1    4    4    0    0 -0.19999818580E+02  0.30834989540E+02  0.35948994082E+02  0.51411277933E+02  0.00000000000E+00 0.  1.
</event>
<event>
 8    1  0.6615242E-009  0.1125782E+03  0.7561462E-02  0.1255869E+00
         -3   -1    0    0    0  501 -0.00000000000E+00  0.00000000000E+00  0.18135611509E+03  0.18135611509E+03  0.00000000000E+00 0.  1.
          3   -1    0    0  501    0  0.00000000000E+00 -0.00000000000E+00 -0.10637198845E+03  0.10637198845E+03  0.00000000000E+00 0. -1.
         25    2    1    2    0    0 -0.69352858759E+02  0.22344473844E+02 -0.13173029306E+02  0.14536016274E+03  0.12508778390E+03 0.  0.
         23    2    1    2    0    0  0.69352858759E+02 -0.22344473844E+02  0.88157155942E+02  0.14236794080E+03  0.84781200117E+02 0.  0.
          5    1    3    3  502    0 -0.92188119135E+02  0.49475685594E+01 -0.44579528989E+02  0.10260572376E+03  0.41800000000E+01 0.  1.
         -5    1    3    3    0  502  0.22835260376E+02  0.17396905285E+02  0.31406499683E+02  0.42754438977E+02  0.41800000000E+01 0.  1.
        -11    1    4    4    0    0  0.72293820690E+02 -0.42166382828E+02  0.45552730022E+02  0.95286156199E+02  0.00000000000E+00 0. -1.
         11    1    4    4    0    0 -0.29409619310E+01  0.19821908983E+02  0.42604425921E+02  0.47081784597E+02  0.00000000000E+00 0.  1.
</event>
<event>
 8    1  0.6615242E-009  0.7525533E+02  0.7561462E-02  0.1343082E+00
          1   -1    0    0  501    0  0.00000000000E+00  0.00000000000E+00  0.13717206089E+02  0.13717206089E+02  0.00000000000E+00 0. -1.
         -1   -1    0    0    0  501 -0.00000000000E+00 -0.00000000000E+00 -0.11293171911E+04  0.11293171911E+04  0.00000000000E+00 0.  1.
         25    2    1    2    0    0  0.24180812480E+02 -0.19539525193E+02 -0.88576600607E+03  0.89509548413E+03  0.12509198001E+03 0.  0.
         23    2    1    2    0    0 -0.24180812480E+02  0.19539525193E+02 -0.22983397894E+03  0.24793891305E+03  0.87655815528E+02 0.  0.
          5    1    3    3  502    0 -0.21314875787E+01  0.15398159609E+02 -0.11637093409E+02  0.19863053683E+02  0.41800000000E+01 0. -1.
         -5    1    3    3    0  502  0.26312300059E+02 -0.34937684802E+02 -0.87412891266E+03  0.87523243045E+03  0.41800000000E+01 0. -1.
        -11    1    4    4    0    0 -0.40793916741E+02  0.44579033967E+02 -0.17856898734E+03  0.18851609255E+03  0.00000000000E+00 0.  1.
         11    1    4    4    0    0  0.16613104261E+02 -0.25039508773E+02 -0.51264991601E+02  0.59422820504E+02  0.00000000000E+00 0. -1.
</event>
<event>
 8    1  0.6615242E-009  0.2494628E+03  0.7561462E-02  0.1113645E+00
         -2   -1    0    0    0  501 -0.00000000000E+00  0.00000000000E+00  0.85899840444E+02  0.85899840444E+02  0.00000000000E+00 0. -1.
          2   -1    0    0  501    0  0.00000000000E+00 -0.00000000000E+00 -0.10748409045E+04  0.10748409045E+04  0.00000000000E+00 0.  1.
         25    2    1    2    0    0 -0.15777233577E+03  0.18567999748E+03 -0.78111179711E+03  0.82773946661E+03  0.12509122112E+03 0.  0.
         23    2    1    2    0    0  0.15777233577E+03 -0.18567999748E+03 -0.20782926690E+03  0.33300127829E+03  0.91256099869E+02 0.  0.
          5    1    3    3  502    0 -0.10507935386E+03  0.11040288160E+03 -0.64959024335E+03  0.66724465043E+03  0.41800000000E+01 0.  1.
         -5    1    3    3    0  502 -0.52692981914E+02  0.75277115871E+02 -0.13152155377E+03  0.16049481618E+03  0.41800000000E+01 0.  1.
        -11    1    4    4    0    0  0.51817178560E+02 -0.11765120204E+03 -0.13965105902E+03  0.18981370767E+03  0.00000000000E+00 0.  1.
         11    1    4    4    0    0  0.10595515721E+03 -0.68028795439E+02 -0.68178207873E+02  0.14318757061E+03  0.00000000000E+00 0. -1.
</event>
<event>
 8    1  0.6615242E-009  0.1326468E+03  0.7561462E-02  0.1223580E+00
         -2   -1    0    0    0  501 -0.00000000000E+00  0.00000000000E+00  0.21089877557E+03  0.21089877557E+03  0.00000000000E+00 0.  1.
          2   -1    0    0  501    0  0.00000000000E+00 -0.00000000000E+00 -0.13412276358E+03  0.13412276358E+03  0.00000000000E+00 0. -1.
         25    2    1    2    0    0 -0.98437157508E+02  0.24049763456E+02 -0.39009920346E+02  0.16564451114E+03  0.12509222632E+03 0.  0.
         23    2    1    2    0    0  0.98437157508E+02 -0.24049763456E+02  0.11578593234E+03  0.17937702800E+03  0.92203421556E+02 0.  0.
          5    1    3    3  502    0 -0.10824714850E+03 -0.60882382937E+01  0.80011626836E+01  0.10879339506E+03  0.41800000000E+01 0.  1.
         -5    1    3    3    0  502  0.98099909920E+01  0.30138001749E+02 -0.47011083030E+02  0.56851116087E+02  0.41800000000E+01 0.  1.
        -11    1    4    4    0    0  0.66676246808E+02  0.20821416882E+02  0.26875301498E+02  0.74843403985E+02  0.00000000000E+00 0. -1.
         11    1    4    4    0    0  0.31760910699E+02 -0.44871180338E+02  0.88910630844E+02  0.10453362402E+03  0.00000000000E+00 0.  1.
</event>
<event>
 8    1  0.6615242E-009  0.3001729E+03  0.7561462E-02  0.1085154E+00
         -1   -1    0    0    0  501 -0.00000000000E+00  0.00000000000E+00  0.14975358721E+03  0.14975358721E+03  0.00000000000E+00 0.  1.
          1   -1    0    0  501    0  0.00000000000E+00 -0.00000000000E+00 -0.64925417197E+03  0.64925417197E+03  0.00000000000E+00 0. -1.
         25    2    1    2    0    0  0.90971206829E+01 -0.28506201186E+03 -0.17126541983E+03  0.35541863394E+03  0.12508978018E+03 0.  0.
         23    2    1    2    0    0 -0.90971206829E+01  0.28506201186E+03 -0.32823516492E+03  0.44358912524E+03  0.87691962746E+02 0.  0.
          5    1    3    3  502    0  0.50183634756E+02 -0.22301253304E+03 -0.91526284852E+02  0.24626717261E+03  0.41800000000E+01 0.  1.
         -5    1    3    3    0  502 -0.41086514073E+02 -0.62049478827E+02 -0.79739134979E+02  0.10915146132E+03  0.41800000000E+01 0.  1.
        -11    1    4    4    0    0  0.33817194240E+02  0.18855367540E+03 -0.19215111734E+03  0.27132663531E+03  0.00000000000E+00 0.  1.
         11    1    4    4    0    0 -0.42914314922E+02  0.96508336466E+02 -0.13608404758E+03  0.17226248993E+03  0.00000000000E+00 0. -1.
</event>
<event>
 8    1  0.6615242E-009  0.1559469E+03  0.7561462E-02  0.1193350E+00
         -1   -1    0    0    0  501 -0.00000000000E+00  0.00000000000E+00  0.10635637538E+03  0.10635637538E+03  0.00000000000E+00 0.  1.
          1   -1    0    0  501    0  0.00000000000E+00 -0.00000000000E+00 -0.30817692437E+03  0.30817692437E+03  0.00000000000E+00 0. -1.
         25    2    1    2    0    0 -0.78431030704E+02  0.12044891490E+03 -0.99559967200E+02  0.21498521706E+03  0.12508832402E+03 0.  0.
         23    2    1    2    0    0  0.78431030704E+02 -0.12044891490E+03 -0.10226058178E+03  0.19954808269E+03  0.93289029595E+02 0.  0.
          5    1    3    3  502    0 -0.93304575936E+02  0.73898867112E+02 -0.18906072381E+02  0.12058896477E+03  0.41800000000E+01 0. -1.
         -5    1    3    3    0  502  0.14873545231E+02  0.46550047786E+02 -0.80653894819E+02  0.94396252288E+02  0.41800000000E+01 0. -1.
        -11    1    4    4    0    0  0.45247525910E+02 -0.67568613343E+02 -0.18844289823E+01  0.81341300596E+02  0.00000000000E+00 0.  1.
         11    1    4    4    0    0  0.33183504795E+02 -0.52880301555E+02 -0.10037615280E+03  0.11820678210E+03  0.00000000000E+00 0. -1.
</event>
<event>
 8    1  0.6615242E-009  0.1276089E+03  0.7561462E-02  0.1231047E+00
         -1   -1    0    0    0  501 -0.00000000000E+00  0.00000000000E+00  0.33773165822E+02  0.33773165822E+02  0.00000000000E+00 0.  1.
          1   -1    0    0  501    0  0.00000000000E+00 -0.00000000000E+00 -0.73261125290E+03  0.73261125290E+03  0.00000000000E+00 0. -1.
         25    2    1    2    0    0  0.47631876105E+01 -0.71276430265E+02 -0.58807110655E+03  0.60545791325E+03  0.12509452783E+03 0.  0.
         23    2    1    2    0    0 -0.47631876105E+01  0.71276430265E+02 -0.11076698053E+03  0.16092650548E+03  0.92330919634E+02 0.  0.
          5    1    3    3  502    0  0.11265399871E+02  0.32594408836E+02 -0.22775732330E+03  0.23039135279E+03  0.41800000000E+01 0.  1.
         -5    1    3    3    0  502 -0.65022122607E+01 -0.10387083910E+03 -0.36031378324E+03  0.37506656046E+03  0.41800000000E+01 0.  1.
        -11    1    4    4    0    0 -0.42387842938E+02  0.65841391946E+02 -0.80814715032E+02  0.11252926858E+03  0.00000000000E+00 0.  1.
         11    1    4    4    0    0  0.37624655328E+02  0.54350383192E+01 -0.29952265503E+02  0.48397236892E+02  0.00000000000E+00 0. -1.
</event>
<event>
 8    1  0.6615242E-009  0.1400520E+03  0.7561462E-02  0.1213259E+00
         -1   -1    0    0    0  501 -0.00000000000E+00  0.00000000000E+00  0.13216338232E+03  0.13216338232E+03  0.00000000000E+00 0.  1.
          1   -1    0    0  501    0  0.00000000000E+00 -0.00000000000E+00 -0.21220734563E+03  0.21220734563E+03  0.00000000000E+00 0. -1.
         25    2    1    2    0    0 -0.63811438990E+02  0.72683338991E+02 -0.12831480742E+03  0.20363713973E+03  0.12509447375E+03 0.  0.
         23    2    1    2    0    0  0.63811438990E+02 -0.72683338991E+02  0.48270844116E+02  0.14073358822E+03  0.90117151248E+02 0.  0.
          5    1    3    3  502    0  0.23955735492E+02 -0.19035690445E+02 -0.29538439832E+02  0.42734372598E+02  0.41800000000E+01 0. -1.
         -5    1    3    3    0  502 -0.87767174482E+02  0.91719029436E+02 -0.98776367586E+02  0.16090276713E+03  0.41800000000E+01 0. -1.
        -11    1    4    4    0    0  0.28645909273E+01 -0.59855815123E+02  0.50567452139E+02  0.78409130215E+02  0.00000000000E+00 0.  1.
         11    1    4    4    0    0  0.60946848063E+02 -0.12827523868E+02 -0.22966080230E+01  0.62324458007E+02  0.00000000000E+00 0. -1.
</event>
<event>
 8    1  0.6615242E-009  0.9762963E+02  0.7561462E-02  0.1285361E+00
          3   -1    0    0  501    0  0.00000000000E+00  0.00000000000E+00  0.35987763656E+02  0.35987763656E+02  0.00000000000E+00 0. -1.
         -3   -1    0    0    0  501 -0.00000000000E+00 -0.00000000000E+00 -0.42208971650E+03  0.42208971650E+03  0.00000000000E+00 0.  1.
         25    2    1    2    0    0  0.48953560435E+02 -0.26204744500E+02 -0.25121224616E+03  0.28607133636E+03  0.12508428020E+03 0.  0.
         23    2    1    2    0    0 -0.48953560435E+02  0.26204744500E+02 -0.13488970668E+03  0.17200614380E+03  0.91146809164E+02 0.  0.
          5    1    3    3  502    0  0.88711948979E+01 -0.43642428419E+02 -0.17117754608E+02  0.47894149748E+02  0.41800000000E+01 0. -1.
         -5    1    3    3    0  502  0.40082365537E+02  0.17437683919E+02 -0.23409449155E+03  0.23817718661E+03  0.41800000000E+01 0. -1.
        -11    1    4    4    0    0 -0.12082541298E+02  0.57192345593E+02 -0.70054957547E+02  0.91239515976E+02  0.00000000000E+00 0.  1.
         11    1    4    4    0    0 -0.36871019137E+02 -0.30987601093E+02 -0.64834749137E+02  0.80766627820E+02  0.00000000000E+00 0. -1.
</event>
<event>
 8    1  0.6615242E-009  0.3043141E+03  0.7561462E-02  0.1083104E+00
          2   -1    0    0  501    0  0.00000000000E+00  0.00000000000E+00  0.28270470101E+03  0.28270470101E+03  0.00000000000E+00 0. -1.
         -2   -1    0    0    0  501 -0.00000000000E+00 -0.00000000000E+00 -0.39733537332E+03  0.39733537332E+03  0.00000000000E+00 0.  1.
         25    2    1    2    0    0  0.26162082571E+02 -0.28529471243E+03  0.79080110084E+02  0.32245693756E+03  0.12508910929E+03 0.  0.
         23    2    1    2    0    0 -0.26162082571E+02  0.28529471243E+03 -0.19371078240E+03  0.35758313677E+03  0.90908222851E+02 0.  0.
          5    1    3    3  502    0  0.68648293392E+02 -0.94273343238E+02  0.34867094400E+02  0.12179178175E+03  0.41800000000E+01 0.  1.
         -5    1    3    3    0  502 -0.42486210820E+02 -0.19102136919E+03  0.44213015684E+02  0.20066515580E+03  0.41800000000E+01 0.  1.
        -11    1    4    4    0    0  0.61845990224E+01  0.24238749665E+03 -0.13314971735E+03  0.27662030841E+03  0.00000000000E+00 0.  1.
         11    1    4    4    0    0 -0.32346681594E+02  0.42907215784E+02 -0.60561065047E+02  0.80962828361E+02  0.00000000000E+00 0. -1.
</event>
<event>
 8    1  0.6615242E-009  0.1259636E+03  0.7561462E-02  0.1233571E+00
          1   -1    0    0  501    0  0.00000000000E+00  0.00000000000E+00  0.85623474743E+03  0.85623474743E+03  0.00000000000E+00 0. -1.
         -1   -1    0    0    0  501 -0.00000000000E+00 -0.00000000000E+00 -0.33129274697E+02  0.33129274697E+02  0.00000000000E+00 0.  1.
         25    2    1    2    0    0 -0.11321352761E+03  0.43326498202E+02  0.54803791933E+03  0.57505531814E+03  0.12509424296E+03 0.  0.
         23    2    1    2    0    0  0.11321352761E+03 -0.43326498202E+02  0.27506755340E+03  0.31430870398E+03  0.91833077827E+02 0.  0.
          5    1    3    3  502    0 -0.76278049657E+01  0.13183601873E+02  0.33478137656E+03  0.33515374571E+03  0.41800000000E+01 0. -1.
         -5    1    3    3    0  502 -0.10558572265E+03  0.30142896329E+02  0.21325654276E+03  0.23990157244E+03  0.41800000000E+01 0. -1.
        -11    1    4    4    0    0  0.52454302574E+02 -0.38946728504E+02  0.22842953851E+03  0.23758862680E+03  0.00000000000E+00 0.  1.
         11    1    4    4    0    0  0.60759225039E+02 -0.43797696980E+01  0.46638014889E+02  0.76720077182E+02  0.00000000000E+00 0. -1.
</event>
<event>
 8    1  0.6615242E-009  0.1251385E+03  0.7561462E-02  0.1234853E+00
          2   -1    0    0  501    0  0.00000000000E+00  0.00000000000E+00  0.17964940205E+02  0.17964940205E+02  0.00000000000E+00 0. -1.
         -2   -1    0    0    0  501 -0.00000000000E+00 -0.00000000000E+00 -0.92935372156E+03  0.92935372156E+03  0.00000000000E+00 0.  1.
         25    2    1    2    0    0 -0.13645067559E+02 -0.62069745438E+02 -0.60423069450E+03  0.62030719346E+03  0.12508973146E+03 0.  0.
         23    2    1    2    0    0  0.13645067559E+02  0.62069745438E+02 -0.30715808685E+03  0.32701146830E+03  0.92474693372E+02 0.  0.
          5    1    3    3  502    0  0.43631181342E+02  0.13046256692E+02 -0.19180156980E+03  0.19717809051E+03  0.41800000000E+01 0. -1.
         -5    1    3    3    0  502 -0.57276248901E+02 -0.75116002130E+02 -0.41242912470E+03  0.42312910295E+03  0.41800000000E+01 0. -1.
        -11    1    4    4    0    0  0.50388187503E+02  0.20201115809E+02 -0.18400324274E+03  0.19184433236E+03  0.00000000000E+00 0.  1.
         11    1    4    4    0    0 -0.36743119944E+02  0.41868629629E+02 -0.12315484411E+03  0.13516713594E+03  0.00000000000E+00 0. -1.
</event>
<event>
 8    1  0.6615242E-009  0.1328140E+03  0.7561462E-02  0.1223339E+00
         -2   -1    0    0    0  501 -0.00000000000E+00  0.00000000000E+00  0.54268833615E+02  0.54268833615E+02  0.00000000000E+00 0.  1.
          2   -1    0    0  501    0  0.00000000000E+00 -0.00000000000E+00 -0.46006724635E+03  0.46006724635E+03  0.00000000000E+00 0. -1.
         25    2    1    2    0    0  0.17901914848E+02 -0.10002694920E+03 -0.30146308998E+03  0.34183830277E+03  0.12509021343E+03 0.  0.
         23    2    1    2    0    0 -0.17901914848E+02  0.10002694920E+03 -0.10433532276E+03  0.17249777720E+03  0.92432431777E+02 0.  0.
          5    1    3    3  502    0  0.70495542568E+02 -0.53941288326E+02 -0.19631954976E+03  0.21549506288E+03  0.41800000000E+01 0.  1.
         -5    1    3    3    0  502 -0.52593627720E+02 -0.46085660870E+02 -0.10514354022E+03  0.12634323988E+03  0.41800000000E+01 0.  1.
        -11    1    4    4    0    0 -0.22051353690E+02  0.33818095730E+02 -0.97839401111E+02  0.10584174133E+03  0.00000000000E+00 0. -1.
         11    1    4    4    0    0  0.41494388426E+01  0.66208853467E+02 -0.64959216480E+01  0.66656035872E+02  0.00000000000E+00 0.  1.
</event>
<event>
 8    1  0.6615242E-009  0.1256294E+03  0.7561462E-02  0.1234089E+00
          2   -1    0    0  501    0  0.00000000000E+00  0.00000000000E+00  0.95675546785E+03  0.95675546785E+03  0.00000000000E+00 0. -1.
         -2   -1    0    0    0  501 -0.00000000000E+00 -0.00000000000E+00 -0.27188738497E+02  0.27188738497E+02  0.00000000000E+00 0.  1.
         25    2    1    2    0    0 -0.11617087872E+03  0.20058490559E+02  0.42502029925E+03  0.45846242683E+03  0.12509007126E+03 0.  0.
         23    2    1    2    0    0  0.11617087872E+03 -0.20058490559E+02  0.50454643010E+03  0.52548177952E+03  0.87555607333E+02 0.  0.
          5    1    3    3  502    0 -0.22733575540E+02 -0.29752578575E+01  0.66811009379E+00  0.23314939143E+02  0.41800000000E+01 0. -1.
         -5    1    3    3    0  502 -0.93437303185E+02  0.23033748416E+02  0.42435218916E+03  0.43514748768E+03  0.41800000000E+01 0. -1.
        -11    1    4    4    0    0  0.64958732559E+02  0.18478789480E+02  0.14112980583E+03  0.15645678218E+03  0.00000000000E+00 0.  1.
         11    1    4    4    0    0  0.51212146165E+02 -0.38537280038E+02  0.36341662427E+03  0.36902499734E+03  0.00000000000E+00 0. -1.
</event>
<event>
 8    1  0.6615242E-009  0.1129197E+03  0.7561462E-02  0.1255257E+00
         -2   -1    0    0    0  501 -0.00000000000E+00  0.00000000000E+00  0.18177241371E+02  0.18177241371E+02  0.00000000000E+00 0.  1.
          2   -1    0    0  501    0  0.00000000000E+00 -0.00000000000E+00 -0.10629902959E+04  0.10629902959E+04  0.00000000000E+00 0. -1.
         25    2    1    2    0    0  0.85222189551E+02  0.22580252077E+02 -0.54451731506E+03  0.56561403907E+03  0.12508974945E+03 0.  0.
         23    2    1    2    0    0 -0.85222189551E+02 -0.22580252077E+02 -0.50029573947E+03  0.51555349821E+03  0.87902748542E+02 0.  0.
          5    1    3    3  502    0 -0.67473989094E-01  0.15789494586E+02 -0.20926850955E+01  0.16467070867E+02  0.41800000000E+01 0.  1.
         -5    1    3    3    0  502  0.85289663540E+02  0.67907574907E+01 -0.54242462996E+03  0.54914696820E+03  0.41800000000E+01 0.  1.
        -11    1    4    4    0    0  0.18001513934E+02  0.74884060620E+00 -0.93333183431E+02  0.95056290668E+02  0.00000000000E+00 0.  1.
         11    1    4    4    0    0 -0.10322370349E+03 -0.23329092683E+02 -0.40696255604E+03  0.42049720754E+03  0.00000000000E+00 0. -1.
</event>
<event>
 8    1  0.6615242E-009  0.9938092E+02  0.7561462E-02  0.1281603E+00
         -3   -1    0    0    0  501 -0.00000000000E+00  0.00000000000E+00  0.44376547784E+03  0.44376547784E+03  0.00000000000E+00 0.  1.
          3   -1    0    0  501    0  0.00000000000E+00 -0.00000000000E+00 -0.32583647844E+02  0.32583647844E+02  0.00000000000E+00 0. -1.
         25    2    1    2    0    0 -0.24523107122E+02  0.38194032971E+02  0.28230749366E+03  0.31210041901E+03  0.12509589774E+03 0.  0.
         23    2    1    2    0    0  0.24523107122E+02 -0.38194032971E+02  0.12887433634E+03  0.16424870668E+03  0.91153036928E+02 0.  0.
          5    1    3    3  502    0  0.20515800085E+02 -0.23322641547E+02  0.16252370640E+02  0.35305178278E+02  0.41800000000E+01 0.  1.
         -5    1    3    3    0  502 -0.45038907206E+02  0.61516674517E+02  0.26605512302E+03  0.27679524073E+03  0.41800000000E+01 0.  1.
        -11    1    4    4    0    0 -0.18607100076E+02 -0.43783007636E+02  0.30026224815E+02  0.56256111735E+02  0.00000000000E+00 0. -1.
         11    1    4    4    0    0  0.43130207197E+02  0.55889746657E+01  0.98848111526E+02  0.10799259494E+03  0.00000000000E+00 0.  1.
</event>
<event>
 8    1  0.6615242E-009  0.2103230E+03  0.7561462E-02  0.1141310E+00
          2   -1    0    0  501    0  0.00000000000E+00  0.00000000000E+00  0.53726929920E+03  0.53726929920E+03  0.00000000000E+00 0. -1.
         -2   -1    0    0    0  501 -0.00000000000E+00 -0.00000000000E+00 -0.10099170929E+03  0.10099170929E+03  0.00000000000E+00 0.  1.
         25    2    1    2    0    0 -0.17088484329E+03 -0.10992675368E+03  0.18165097835E+03  0.29988397570E+03  0.12509116716E+03 0.  0.
         23    2    1    2    0    0  0.17088484329E+03  0.10992675368E+03  0.25462661156E+03  0.33837703280E+03  0.91535698901E+02 0.  0.
          5    1    3    3  502    0 -0.12244215125E+03 -0.11488846649E+03  0.77784629964E+02  0.18509284480E+03  0.41800000000E+01 0. -1.
         -5    1    3    3    0  502 -0.48442692036E+02  0.49617128091E+01  0.10386634839E+03  0.11479113090E+03  0.41800000000E+01 0. -1.
        -11    1    4    4    0    0  0.52864277210E+02  0.25410534753E+02  0.19055282622E+02  0.61671961840E+02  0.00000000000E+00 0.  1.
         11    1    4    4    0    0  0.11802056608E+03  0.84516218930E+02  0.23557132893E+03  0.27670507096E+03  0.00000000000E+00 0. -1.
</event>
<event>
 8    1  0.6615242E-009  0.8008960E+02  0.7561462E-02  0.1328797E+00
         -1   -1    0    0    0  501 -0.00000000000E+00  0.00000000000E+00  0.29333138692E+03  0.29333138692E+03  0.00000000000E+00 0.  1.
          1   -1    0    0  501    0  0.00000000000E+00 -0.00000000000E+00 -0.42448684504E+02  0.42448684504E+02  0.00000000000E+00 0. -1.
         25    2    1    2    0    0 -0.17790321981E+02 -0.23271172346E+01  0.13064882446E+03  0.18176244923E+03  0.12508621661E+03 0.  0.
         23    2    1    2    0    0  0.17790321981E+02  0.23271172346E+01  0.12023387795E+03  0.15401762219E+03  0.94569189001E+02 0.  0.
          5    1    3    3  502    0  0.19848349188E+02  0.35687527265E+02  0.12030562088E+03  0.12711597611E+03  0.41800000000E+01 0.  1.
         -5    1    3    3    0  502 -0.37638671168E+02 -0.38014644500E+02  0.10343203585E+02  0.54646473117E+02  0.41800000000E+01 0.  1.
        -11    1    4    4    0    0 -0.48283676764E+01  0.29627518701E+02  0.11416921574E+03  0.11804962017E+03  0.00000000000E+00 0.  1.
         11    1    4    4    0    0  0.22618689657E+02 -0.27300401466E+02  0.60646622096E+01  0.35968002026E+02  0.00000000000E+00 0. -1.
</event>
<event>
 8    1  0.6615242E-009  0.8905268E+02  0.7561462E-02  0.1305162E+00
          2   -1    0    0  501    0  0.00000000000E+00  0.00000000000E+00  0.75684807169E+03  0.75684807169E+03  0.00000000000E+00 0.  1.
         -2   -1    0    0    0  501 -0.00000000000E+00 -0.00000000000E+00 -0.15594918805E+02  0.15594918805E+02  0.00000000000E+00 0. -1.
         25    2    1    2    0    0  0.11117371582E+02 -0.30761928252E+02  0.44447950598E+03  0.46290312384E+03  0.12508948255E+03 0.  0.
         23    2    1    2    0    0 -0.11117371582E+02  0.30761928252E+02  0.29677364690E+03  0.30953986665E+03  0.81672757825E+02 0.  0.
          5    1    3    3  502    0 -0.12154736937E+02  0.27205506131E+02  0.25998294152E+02  0.39765071265E+02  0.41800000000E+01 0.  1.
         -5    1    3    3    0  502  0.23272108519E+02 -0.57967434383E+02  0.41848121183E+03  0.42313805258E+03  0.41800000000E+01 0.  1.
        -11    1    4    4    0    0  0.18730223729E+02  0.47593027872E+02  0.21245037514E+03  0.21852020383E+03  0.00000000000E+00 0.  1.
         11    1    4    4    0    0 -0.29847595311E+02 -0.16831099621E+02  0.84323271761E+02  0.91019662825E+02  0.00000000000E+00 0. -1.
</event>
<event>
 8    1  0.6615242E-009  0.1016803E+03  0.7561462E-02  0.1276802E+00
          1   -1    0    0  501    0  0.00000000000E+00  0.00000000000E+00  0.68371360589E+02  0.68371360589E+02  0.00000000000E+00 0. -1.
         -1   -1    0    0    0  501 -0.00000000000E+00 -0.00000000000E+00 -0.22017978486E+03  0.22017978486E+03  0.00000000000E+00 0.  1.
         25    2    1    2    0    0 -0.21718664643E+02  0.24075583806E+02 -0.13826832417E+03  0.18924546442E+03  0.12507750479E+03 0.  0.
         23    2    1    2    0    0  0.21718664643E+02 -0.24075583806E+02 -0.13540100102E+02  0.99305681032E+02  0.92881375124E+02 0.  0.
          5    1    3    3  502    0  0.14368447264E+02  0.67765098734E+02 -0.55552084904E+02  0.88893573561E+02  0.41800000000E+01 0.  1.
         -5    1    3    3    0  502 -0.36087111907E+02 -0.43689514928E+02 -0.82716239269E+02  0.10035189086E+03  0.41800000000E+01 0.  1.
        -11    1    4    4    0    0 -0.59750311686E+01 -0.43120519024E+02  0.23350868859E+02  0.49399830312E+02  0.00000000000E+00 0. -1.
         11    1    4    4    0    0  0.27693695812E+02  0.19044935218E+02 -0.36890968961E+02  0.49905850720E+02  0.00000000000E+00 0.  1.
</event>
<event>
 8    1  0.6615242E-009  0.1163409E+03  0.7561462E-02  0.1249258E+00
         -1   -1    0    0    0  501 -0.00000000000E+00  0.00000000000E+00  0.21504936538E+02  0.21504936538E+02  0.00000000000E+00 0.  1.
          1   -1    0    0  501    0  0.00000000000E+00 -0.00000000000E+00 -0.92000798587E+03  0.92000798587E+03  0.00000000000E+00 0. -1.
         25    2    1    2    0    0 -0.70953805916E+02 -0.41289262885E+02 -0.44191197206E+03  0.46655643397E+03  0.12509783859E+03 0.  0.
         23    2    1    2    0    0  0.70953805916E+02  0.41289262885E+02 -0.45659107727E+03  0.47495648844E+03  0.10182832743E+03 0.  0.
          5    1    3    3  502    0 -0.18275624926E+02 -0.49512803067E+02 -0.56412688039E+02  0.77365237063E+02  0.41800000000E+01 0.  1.
         -5    1    3    3    0  502 -0.52678180990E+02  0.82235401817E+01 -0.38549928403E+03  0.38919119691E+03  0.41800000000E+01 0.  1.
        -11    1    4    4    0    0  0.79993661223E+02 -0.39829773969E+01 -0.34535662541E+03  0.35452228232E+03  0.00000000000E+00 0.  1.
         11    1    4    4    0    0 -0.90398553073E+01  0.45272240282E+02 -0.11123445186E+03  0.12043420612E+03  0.00000000000E+00 0. -1.
</event>
<event>
 8    1  0.6615242E-009  0.1089017E+03  0.7561462E-02  0.1262617E+00
         -1   -1    0    0    0  501 -0.00000000000E+00  0.00000000000E+00  0.91324775156E+02  0.91324775156E+02  0.00000000000E+00 0.  1.
          1   -1    0    0  501    0  0.00000000000E+00 -0.00000000000E+00 -0.14446771700E+03  0.14446771700E+03  0.00000000000E+00 0. -1.
         25    2    1    2    0    0  0.35676488268E+02 -0.16522403519E+02 -0.27544779079E+02  0.13398369014E+03  0.12508841967E+03 0.  0.
         23    2    1    2    0    0 -0.35676488268E+02  0.16522403519E+02 -0.25598162769E+02  0.10180880202E+03  0.90354660083E+02 0.  0.
          5    1    3    3  502    0  0.24652433520E+02 -0.71054951423E+02 -0.15363061428E+02  0.76876814818E+02  0.41800000000E+01 0.  1.
         -5    1    3    3    0  502  0.11024054748E+02  0.54532547904E+02 -0.12181717651E+02  0.57106875321E+02  0.41800000000E+01 0.  1.
        -11    1    4    4    0    0  0.97812943997E+00  0.42021723975E+02 -0.36697054256E+02  0.55798349565E+02  0.00000000000E+00 0. -1.
         11    1    4    4    0    0 -0.36654617708E+02 -0.25499320456E+02  0.11098891487E+02  0.46010452457E+02  0.00000000000E+00 0.  1.
</event>
<event>
 8    1  0.6615242E-009  0.8379632E+02  0.7561462E-02  0.1318611E+00
         -2   -1    0    0    0  501 -0.00000000000E+00  0.00000000000E+00  0.31690936541E+02  0.31690936541E+02  0.00000000000E+00 0.  1.
          2   -1    0    0  501    0  0.00000000000E+00 -0.00000000000E+00 -0.47289088963E+03  0.47289088963E+03  0.00000000000E+00 0. -1.
         25    2    1    2    0    0  0.32047040502E+02  0.34475782146E+02 -0.31122310046E+03  0.33870485274E+03  0.12508223956E+03 0.  0.
         23    2    1    2    0    0 -0.32047040502E+02 -0.34475782146E+02 -0.12997685263E+03  0.16587697343E+03  0.91682036049E+02 0.  0.
          5    1    3    3  502    0 -0.39462481321E+02  0.16708293349E+02 -0.44342174177E+02  0.61807404973E+02  0.41800000000E+01 0. -1.
         -5    1    3    3    0  502  0.71509521823E+02  0.17767488797E+02 -0.26688092628E+03  0.27689744777E+03  0.41800000000E+01 0. -1.
        -11    1    4    4    0    0 -0.21746659260E+02 -0.34077416608E+02 -0.14337916434E+03  0.14896903127E+03  0.00000000000E+00 0. -1.
         11    1    4    4    0    0 -0.10300381242E+02 -0.39836553802E+00  0.13402311707E+02  0.16907942156E+02  0.00000000000E+00 0.  1.
</event>
<event>
 8    1  0.6615242E-009  0.9502046E+02  0.7561462E-02  0.1291130E+00
          2   -1    0    0  501    0  0.00000000000E+00  0.00000000000E+00  0.58686290490E+03  0.58686290490E+03  0.00000000000E+00 0. -1.
         -2   -1    0    0    0  501 -0.00000000000E+00 -0.00000000000E+00 -0.29503094446E+02  0.29503094446E+02  0.00000000000E+00 0.  1.
         25    2    1    2    0    0 -0.64668490428E+02 -0.16034723749E+02  0.38607961487E+03  0.41127067390E+03  0.12508785779E+03 0.  0.
         23    2    1    2    0    0  0.64668490428E+02  0.16034723749E+02  0.17128019558E+03  0.20509532545E+03  0.91038789000E+02 0.  0.
          5    1    3    3  502    0  0.43315801306E+01 -0.47019280735E+02  0.59781941113E+02  0.76295007901E+02  0.41800000000E+01 0.  1.
         -5    1    3    3    0  502 -0.69000070558E+02  0.30984556987E+02  0.32629767376E+03  0.33497566600E+03  0.41800000000E+01 0.  1.
        -11    1    4    4    0    0  0.27054094531E+02  0.97016074248E+01 -0.88566731772E+00  0.28754645261E+02  0.00000000000E+00 0.  1.
         11    1    4    4    0    0  0.37614395897E+02  0.63331163240E+01  0.17216586290E+03  0.17634068019E+03  0.00000000000E+00 0. -1.
</event>
<event>
 8    1  0.6615242E-009  0.1106695E+03  0.7561462E-02  0.1259335E+00
          2   -1    0    0  501    0  0.00000000000E+00  0.00000000000E+00  0.12680406291E+04  0.12680406291E+04  0.00000000000E+00 0. -1.
         -2   -1    0    0    0  501 -0.00000000000E+00 -0.00000000000E+00 -0.10536484935E+02  0.10536484935E+02  0.00000000000E+00 0.  1.
         25    2    1    2    0    0  0.25532396429E+02 -0.29410741908E+02  0.75708289744E+03  0.76833669592E+03  0.12509943922E+03 0.  0.
         23    2    1    2    0    0 -0.25532396429E+02  0.29410741908E+02  0.50042124668E+03  0.51024041807E+03  0.91689503746E+02 0.  0.
          5    1    3    3  502    0  0.54312316441E+02 -0.60224701495E+02  0.60629256167E+03  0.61170661687E+03  0.41800000000E+01 0.  1.
         -5    1    3    3    0  502 -0.28779920012E+02  0.30813959587E+02  0.15079033577E+03  0.15663007905E+03  0.41800000000E+01 0.  1.
        -11    1    4    4    0    0 -0.59053230477E+02  0.13118621678E+02  0.35511057437E+03  0.36022618213E+03  0.00000000000E+00 0. -1.
         11    1    4    4    0    0  0.33520834049E+02  0.16292120230E+02  0.14531067232E+03  0.15001423594E+03  0.00000000000E+00 0.  1.
</event>
<event>
 8    1  0.6615242E-009  0.1254062E+03  0.7561462E-02  0.1234436E+00
         -1   -1    0    0    0  501 -0.00000000000E+00  0.00000000000E+00  0.32862267216E+03  0.32862267216E+03  0.00000000000E+00 0.  1.
          1   -1    0    0  501    0  0.00000000000E+00 -0.00000000000E+00 -0.60956734094E+02  0.60956734094E+02  0.00000000000E+00 0. -1.
         25    2    1    2    0    0  0.55614062577E+02  0.52586790395E+02  0.78833119030E+02  0.16649456497E+03  0.12508990778E+03 0.  0.
         23    2    1    2    0    0 -0.55614062577E+02 -0.52586790395E+02  0.18883281904E+03  0.22308484129E+03  0.90833465118E+02 0.  0.
          5    1    3    3  502    0  0.52125299601E+02 -0.22503335049E+02  0.70697155505E+02  0.90768976767E+02  0.41800000000E+01 0. -1.
         -5    1    3    3    0  502  0.34887629761E+01  0.75090125444E+02  0.81359635250E+01  0.75725588204E+02  0.41800000000E+01 0. -1.
        -11    1    4    4    0    0  0.56458892751E+01 -0.56904656521E+02  0.97286383258E+02  0.11284793470E+03  0.00000000000E+00 0. -1.
         11    1    4    4    0    0 -0.61259951852E+02  0.43178661256E+01  0.91546435782E+02  0.11023690658E+03  0.00000000000E+00 0.  1.
</event>
<event>
 8    1  0.6615242E-009  0.1084248E+03  0.7561462E-02  0.1263515E+00
         -2   -1    0    0    0  501 -0.00000000000E+00  0.00000000000E+00  0.23551313022E+02  0.23551313022E+02  0.00000000000E+00 0.  1.
          2   -1    0    0  501    0  0.00000000000E+00 -0.00000000000E+00 -0.78157190382E+03  0.78157190382E+03  0.00000000000E+00 0. -1.
         25    2    1    2    0    0 -0.83753996925E+01  0.40673777313E+02 -0.62364918248E+03  0.63742433286E+03  0.12508786447E+03 0.  0.
         23    2    1    2    0    0  0.83753996925E+01 -0.40673777313E+02 -0.13437140832E+03  0.16769888398E+03  0.91338583485E+02 0.  0.
          5    1    3    3  502    0 -0.19725077163E+02  0.81640528215E+02 -0.48850798371E+03  0.49569322878E+03  0.41800000000E+01 0.  1.
         -5    1    3    3    0  502  0.11349677470E+02 -0.40966750902E+02 -0.13514119877E+03  0.14173110408E+03  0.41800000000E+01 0.  1.
        -11    1    4    4    0    0  0.18118704180E+02 -0.63068057940E+02 -0.58207695078E+02  0.87715466936E+02  0.00000000000E+00 0.  1.
         11    1    4    4    0    0 -0.97433044876E+01  0.22394280627E+02 -0.76163713240E+02  0.79983417041E+02  0.00000000000E+00 0. -1.
</event>
<event>
 8    1  0.6615242E-009  0.1129416E+03  0.7561462E-02  0.1255217E+00
         -1   -1    0    0    0  501 -0.00000000000E+00  0.00000000000E+00  0.41418796530E+02  0.41418796530E+02  0.00000000000E+00 0. -1.
          1   -1    0    0  501    0  0.00000000000E+00 -0.00000000000E+00 -0.51093962476E+03  0.51093962476E+03  0.00000000000E+00 0.  1.
         25    2    1    2    0    0 -0.44757974704E+02  0.74179019562E+02 -0.34916274627E+03  0.38087697300E+03  0.12508733723E+03 0.  0.
         23    2    1    2    0    0  0.44757974704E+02 -0.74179019562E+02 -0.12035808197E+03  0.17148144829E+03  0.86104680315E+02 0.  0.
          5    1    3    3  502    0 -0.67548206808E+02  0.76312944317E+02 -0.34145651755E+03  0.35636561491E+03  0.41800000000E+01 0. -1.
         -5    1    3    3    0  502  0.22790232104E+02 -0.21339247549E+01 -0.77062287176E+01  0.24511358087E+02  0.41800000000E+01 0. -1.
        -11    1    4    4    0    0  0.30298903177E+01 -0.54316859350E+02 -0.11200639965E+03  0.12451881387E+03  0.00000000000E+00 0.  1.
         11    1    4    4    0    0  0.41728084386E+02 -0.19862160212E+02 -0.83516823185E+01  0.46962634428E+02  0.00000000000E+00 0. -1.
</event>
<event>
 8    1  0.6615242E-009  0.1230413E+03  0.7561462E-02  0.1238162E+00
          2   -1    0    0  501    0  0.00000000000E+00  0.00000000000E+00  0.75654659004E+03  0.75654659004E+03  0.00000000000E+00 0.  1.
         -2   -1    0    0    0  501 -0.00000000000E+00 -0.00000000000E+00 -0.31642304109E+02  0.31642304109E+02  0.00000000000E+00 0. -1.
         25    2    1    2    0    0 -0.58632825364E+02 -0.94533461977E+02  0.41990249920E+03  0.45204182051E+03  0.12509722225E+03 0.  0.
         23    2    1    2    0    0  0.58632825364E+02  0.94533461977E+02  0.30500178673E+03  0.33614707363E+03  0.87145748956E+02 0.  0.
          5    1    3    3  502    0 -0.13280577361E+02 -0.15039695494E+02  0.30216118490E+03  0.30285544445E+03  0.41800000000E+01 0. -1.
         -5    1    3    3    0  502 -0.45352248002E+02 -0.79493766483E+02  0.11774131430E+03  0.14918637606E+03  0.41800000000E+01 0. -1.
        -11    1    4    4    0    0  0.40745908303E+02  0.10542805904E+03  0.20616360502E+03  0.23511430563E+03  0.00000000000E+00 0. -1.
         11    1    4    4    0    0  0.17886917060E+02 -0.10894597064E+02  0.98838181708E+02  0.10103276800E+03  0.00000000000E+00 0.  1.
</event>
<event>
 8    1  0.6615242E-009  0.1178066E+03  0.7561462E-02  0.1246760E+00
          1   -1    0    0  501    0  0.00000000000E+00  0.00000000000E+00  0.20654088891E+03  0.20654088891E+03  0.00000000000E+00 0. -1.
         -1   -1    0    0    0  501 -0.00000000000E+00 -0.00000000000E+00 -0.10060271592E+03  0.10060271592E+03  0.00000000000E+00 0.  1.
         25    2    1    2    0    0 -0.46318805178E+02 -0.13317022528E+02  0.14559536734E+03  0.19790897477E+03  0.12508867456E+03 0.  0.
         23    2    1    2    0    0  0.46318805178E+02  0.13317022528E+02 -0.39657194355E+02  0.10923463006E+03  0.89647847372E+02 0.  0.
          5    1    3    3  502    0 -0.63194359842E+02  0.41970401927E+02  0.78453419817E+02  0.10921288035E+03  0.41800000000E+01 0.  1.
         -5    1    3    3    0  502  0.16875554664E+02 -0.55287424455E+02  0.67141947524E+02  0.88696094420E+02  0.41800000000E+01 0.  1.
        -11    1    4    4    0    0  0.63167077838E+02 -0.18376687132E+02 -0.27984482689E+02  0.71490654102E+02  0.00000000000E+00 0. -1.
         11    1    4    4    0    0 -0.16848272660E+02  0.31693709660E+02 -0.11672711667E+02  0.37743975960E+02  0.00000000000E+00 0.  1.
</event>
<event>
 8    1  0.6615242E-009  0.6925714E+02  0.7561462E-02  0.1362638E+00
         -1   -1    0    0    0  501 -0.00000000000E+00  0.00000000000E+00  0.90353321480E+01  0.90353321480E+01  0.00000000000E+00 0.  1.
          1   -1    0    0  501    0  0.00000000000E+00 -0.00000000000E+00 -0.15400701942E+04  0.15400701942E+04  0.00000000000E+00 0. -1.
         25    2    1    2    0    0 -0.21807650134E+02  0.12852219883E+02 -0.11316450196E+04  0.11388189529E+04  0.12508958314E+03 0.  0.
         23    2    1    2    0    0  0.21807650134E+02 -0.12852219883E+02 -0.39938984239E+03  0.41028657345E+03  0.90454811826E+02 0.  0.
          5    1    3    3  502    0 -0.64500440020E+01  0.25819270897E+02 -0.11042825684E+04  0.11046111085E+04  0.41800000000E+01 0.  1.
         -5    1    3    3    0  502 -0.15357606132E+02 -0.12967051014E+02 -0.27362451291E+02  0.34207844404E+02  0.41800000000E+01 0.  1.
        -11    1    4    4    0    0 -0.23768439757E+02 -0.33447025677E+02 -0.23140402974E+03  0.23501375967E+03  0.00000000000E+00 0. -1.
         11    1    4    4    0    0  0.45576089891E+02  0.20594805794E+02 -0.16798581266E+03  0.17527281378E+03  0.00000000000E+00 0.  1.
</event>
<event>
 8    1  0.6615242E-009  0.1491711E+03  0.7561462E-02  0.1201495E+00
         -1   -1    0    0    0  501 -0.00000000000E+00  0.00000000000E+00  0.18590701562E+02  0.18590701562E+02  0.00000000000E+00 0.  1.
          1   -1    0    0  501    0  0.00000000000E+00 -0.00000000000E+00 -0.17262288952E+04  0.17262288952E+04  0.00000000000E+00 0. -1.
         25    2    1    2    0    0  0.11267873952E+03 -0.51056112065E+02 -0.12476394285E+04  0.12599821587E+04  0.12509065389E+03 0.  0.
         23    2    1    2    0    0 -0.11267873952E+03  0.51056112065E+02 -0.45999876513E+03  0.48483743809E+03  0.90361786895E+02 0.  0.
          5    1    3    3  502    0  0.13362553239E+03 -0.64628569712E+02 -0.98557732450E+03  0.99670094306E+03  0.41800000000E+01 0.  1.
         -5    1    3    3    0  502 -0.20946792868E+02  0.13572457647E+02 -0.26206210404E+03  0.26328121565E+03  0.41800000000E+01 0.  1.
        -11    1    4    4    0    0 -0.32365313457E+02  0.21999134956E+02 -0.38951090791E+02  0.55214698476E+02  0.00000000000E+00 0.  1.
         11    1    4    4    0    0 -0.80313426066E+02  0.29056977109E+02 -0.42104767434E+03  0.42962273961E+03  0.00000000000E+00 0. -1.
</event>
<event>
 8    1  0.6615242E-009  0.2859567E+03  0.7561462E-02  0.1092479E+00
         -2   -1    0    0    0  501 -0.00000000000E+00  0.00000000000E+00  0.67692343132E+02  0.67692343132E+02  0.00000000000E+00 0. -1.
          2   -1    0    0  501    0  0.00000000000E+00 -0.00000000000E+00 -0.15310488832E+04  0.15310488832E+04  0.00000000000E+00 0.  1.
         25    2    1    2    0    0  0.70921412635E+02  0.26231757498E+03 -0.41219836871E+03  0.50930687993E+03  0.12508255622E+03 0.  0.
         23    2    1    2    0    0 -0.70921412635E+02 -0.26231757498E+03 -0.10511581714E+04  0.10894343464E+04  0.89962975624E+02 0.  0.
          5    1    3    3  502    0 -0.29473096197E+02  0.65402981882E+02 -0.15018397688E+03  0.16648997793E+03  0.41800000000E+01 0. -1.
         -5    1    3    3    0  502  0.10039450883E+03  0.19691459310E+03 -0.26201439183E+03  0.34281690201E+03  0.41800000000E+01 0. -1.
        -11    1    4    4    0    0 -0.29988210631E+01 -0.13194967431E+03 -0.62040691512E+03  0.63429050900E+03  0.00000000000E+00 0.  1.
         11    1    4    4    0    0 -0.67922591572E+02 -0.13036790067E+03 -0.43075125628E+03  0.45514383744E+03  0.00000000000E+00 0. -1.
</event>
<event>
 8    1  0.6615242E-009  0.4397479E+03  0.7561462E-02  0.1030824E+00
          1   -1    0    0  501    0  0.00000000000E+00  0.00000000000E+00  0.33157378025E+03  0.33157378025E+03  0.00000000000E+00 0. -1.
         -1   -1    0    0    0  501 -0.00000000000E+00 -0.00000000000E+00 -0.59023365597E+03  0.59023365597E+03  0.00000000000E+00 0.  1.
         25    2    1    2    0    0 -0.20186133184E+03  0.37753567582E+03 -0.10168709520E+03  0.45745984767E+03  0.12509221835E+03 0.  0.
         23    2    1    2    0    0  0.20186133184E+03 -0.37753567582E+03 -0.15697278052E+03  0.46434758855E+03  0.87732806635E+02 0.  0.
          5    1    3    3  502    0 -0.31556498602E+02  0.19003058001E+03 -0.43755875934E+02  0.19758411632E+03  0.41800000000E+01 0.  1.
         -5    1    3    3    0  502 -0.17030483324E+03  0.18750509580E+03 -0.57931219263E+02  0.25987573135E+03  0.41800000000E+01 0.  1.
        -11    1    4    4    0    0  0.17708480882E+03 -0.36505416468E+03 -0.13104714008E+03  0.42637650685E+03  0.00000000000E+00 0. -1.
         11    1    4    4    0    0  0.24776523025E+02 -0.12481511133E+02 -0.25925640446E+02  0.37971081706E+02  0.00000000000E+00 0.  1.
</event>
<event>
 8    1  0.6615242E-009  0.2834610E+03  0.7561462E-02  0.1093813E+00
          1   -1    0    0  501    0  0.00000000000E+00  0.00000000000E+00  0.14159255734E+03  0.14159255734E+03  0.00000000000E+00 0. -1.
         -1   -1    0    0    0  501 -0.00000000000E+00 -0.00000000000E+00 -0.74128880427E+03  0.74128880427E+03  0.00000000000E+00 0.  1.
         25    2    1    2    0    0 -0.22667251802E+03  0.13999174916E+03 -0.50673578652E+03  0.58601173112E+03  0.12510184418E+03 0.  0.
         23    2    1    2    0    0  0.22667251802E+03 -0.13999174916E+03 -0.92960460416E+02  0.29686963048E+03  0.92259471298E+02 0.  0.
          5    1    3    3  502    0 -0.48399777218E+02  0.93897472182E+02 -0.13805804827E+03  0.17388723590E+03  0.41800000000E+01 0.  1.
         -5    1    3    3    0  502 -0.17827274080E+03  0.46094276977E+02 -0.36867773824E+03  0.41212449522E+03  0.41800000000E+01 0.  1.
        -11    1    4    4    0    0  0.39511897791E+02  0.55893877489E+01 -0.34268173466E+02  0.52599800713E+02  0.00000000000E+00 0.  1.
         11    1    4    4    0    0  0.18716062023E+03 -0.14558113691E+03 -0.58692286950E+02  0.24426982977E+03  0.00000000000E+00 0. -1.
</event>
<event>
 8    1  0.6615242E-009  0.1134846E+03  0.7561462E-02  0.1254250E+00
         -2   -1    0    0    0  501 -0.00000000000E+00  0.00000000000E+00  0.18432759804E+02  0.18432759804E+02  0.00000000000E+00 0.  1.
          2   -1    0    0  501    0  0.00000000000E+00 -0.00000000000E+00 -0.81189648690E+03  0.81189648690E+03  0.00000000000E+00 0. -1.
         25    2    1    2    0    0  0.26054400910E+02 -0.34122493380E+02 -0.31563669163E+03  0.34222358340E+03  0.12508910252E+03 0.  0.
         23    2    1    2    0    0 -0.26054400910E+02  0.34122493380E+02 -0.47782703547E+03  0.48810566331E+03  0.89918220450E+02 0.  0.
          5    1    3    3  502    0  0.39738290647E+02 -0.76560158411E+02 -0.18604605046E+03  0.20511263952E+03  0.41800000000E+01 0.  1.
         -5    1    3    3    0  502 -0.13683889737E+02  0.42437665031E+02 -0.12959064117E+03  0.13711094388E+03  0.41800000000E+01 0.  1.
        -11    1    4    4    0    0 -0.56996053256E+02  0.30577430211E+02 -0.37924555927E+03  0.38472161825E+03  0.00000000000E+00 0.  1.
         11    1    4    4    0    0  0.30941652346E+02  0.35450631686E+01 -0.98581476201E+02  0.10338404506E+03  0.00000000000E+00 0. -1.
</event>
<event>
 8    1  0.6615242E-009  0.9848000E+02  0.7561462E-02  0.1283525E+00
          1   -1    0    0  501    0  0.00000000000E+00  0.00000000000E+00  0.27465784086E+03  0.27465784086E+03  0.00000000000E+00 0. -1.
         -1   -1    0    0    0  501 -0.00000000000E+00 -0.00000000000E+00 -0.43133153422E+02  0.43133153422E+02  0.00000000000E+00 0.  1.
         25    2    1    2    0    0 -0.26082378773E+01  0.10399704783E+02  0.18731346613E+03  0.22549999039E+03  0.12509578054E+03 0.  0.
         23    2    1    2    0    0  0.26082378773E+01 -0.10399704783E+02  0.44211221305E+02  0.92291003886E+02  0.80299692058E+02 0.  0.
          5    1    3    3  502    0 -0.13928942928E+02  0.65059319968E+02  0.12550636051E+03  0.14211280552E+03  0.41800000000E+01 0.  1.
         -5    1    3    3    0  502  0.11320705051E+02 -0.54659615185E+02  0.61807105627E+02  0.83387184873E+02  0.41800000000E+01 0.  1.
        -11    1    4    4    0    0  0.36357001723E+02 -0.16663983278E+02  0.41845946136E+02  0.57884394451E+02  0.00000000000E+00 0. -1.
         11    1    4    4    0    0 -0.33748763846E+02  0.62642784956E+01  0.23652751693E+01  0.34406609435E+02  0.00000000000E+00 0.  1.
</event>
<event>
 8    1  0.6615242E-009  0.9717932E+02  0.7561462E-02  0.1286342E+00
         -2   -1    0    0    0  501 -0.00000000000E+00  0.00000000000E+00  0.98985769982E+03  0.98985769982E+03  0.00000000000E+00 0.  1.
          2   -1    0    0  501    0  0.00000000000E+00 -0.00000000000E+00 -0.11727213118E+02  0.11727213118E+02  0.00000000000E+00 0. -1.
         25    2    1    2    0    0 -0.33371079606E+02 -0.13131109886E+02  0.58888120025E+03  0.60308733591E+03  0.12508881537E+03 0.  0.
         23    2    1    2    0    0  0.33371079606E+02  0.13131109886E+02  0.38924928645E+03  0.39849757703E+03  0.77454870018E+02 0.  0.
          5    1    3    3  502    0 -0.59920954609E+02  0.23377337578E+02  0.17083114406E+03  0.18258634367E+03  0.41800000000E+01 0. -1.
         -5    1    3    3    0  502  0.26549875003E+02 -0.36508447464E+02  0.41805005619E+03  0.42050099224E+03  0.41800000000E+01 0. -1.
        -11    1    4    4    0    0  0.38044030723E+02 -0.25407232221E+02  0.18339530122E+03  0.18901511113E+03  0.00000000000E+00 0. -1.
         11    1    4    4    0    0 -0.46729511169E+01  0.38538342107E+02  0.20585398523E+03  0.20948246590E+03  0.00000000000E+00 0.  1.
</event>
<event>
 8    1  0.6615242E-009  0.1114800E+03  0.7561462E-02  0.1257853E+00
          1   -1    0    0  501    0  0.00000000000E+00  0.00000000000E+00  0.26446930027E+03  0.26446930027E+03  0.00000000000E+00 0. -1.
         -1   -1    0    0    0  501 -0.00000000000E+00 -0.00000000000E+00 -0.68310823554E+02  0.68310823554E+02  0.00000000000E+00 0.  1.
         25    2    1    2    0    0 -0.15648266135E+02  0.67723455870E+02  0.16502976779E+03  0.21843492562E+03  0.12509059823E+03 0.  0.
         23    2    1    2    0    0  0.15648266135E+02 -0.67723455870E+02  0.31128708926E+02  0.11434519820E+03  0.85290639138E+02 0.  0.
          5    1    3    3  502    0 -0.31495566445E+02  0.10033438154E+03  0.10859047941E+03  0.15122276100E+03  0.41800000000E+01 0.  1.
         -5    1    3    3    0  502  0.15847300310E+02 -0.32610925674E+02  0.56439288380E+02  0.67212164623E+02  0.41800000000E+01 0.  1.
        -11    1    4    4    0    0 -0.12421205052E+02 -0.39522357525E+02  0.54301001413E+02  0.68300086631E+02  0.00000000000E+00 0. -1.
         11    1    4    4    0    0  0.28069471186E+02 -0.28201098345E+02 -0.23172292487E+02  0.46045111572E+02  0.00000000000E+00 0.  1.
</event>
<event>
 8    1  0.6615242E-009  0.1556040E+03  0.7561462E-02  0.1193751E+00
         -1   -1    0    0    0  501 -0.00000000000E+00  0.00000000000E+00  0.74532634286E+02  0.74532634286E+02  0.00000000000E+00 0.  1.
          1   -1    0    0  501    0  0.00000000000E+00 -0.00000000000E+00 -0.34990259664E+03  0.34990259664E+03  0.00000000000E+00 0. -1.
         25    2    1    2    0    0  0.85237901821E+02 -0.74744107143E+02 -0.10144897276E+03  0.19695112870E+03  0.12508265892E+03 0.  0.
         23    2    1    2    0    0 -0.85237901821E+02  0.74744107143E+02 -0.17392098960E+03  0.22748410223E+03  0.92996369198E+02 0.  0.
          5    1    3    3  502    0  0.42218751344E+02  0.30465333899E+02 -0.49306287042E+02  0.71827166703E+02  0.41800000000E+01 0.  1.
         -5    1    3    3    0  502  0.43019150477E+02 -0.10520944104E+03 -0.52142685715E+02  0.12512396200E+03  0.41800000000E+01 0.  1.
        -11    1    4    4    0    0 -0.59853998948E+02  0.95324096046E+02 -0.12075886637E+03  0.16508145954E+03  0.00000000000E+00 0. -1.
         11    1    4    4    0    0 -0.25383902873E+02 -0.20579988902E+02 -0.53162123223E+02  0.62402642684E+02  0.00000000000E+00 0.  1.
</event>
<event>
 8    1  0.6615242E-009  0.1430759E+03  0.7561462E-02  0.1209249E+00
         -3   -1    0    0    0  501 -0.00000000000E+00  0.00000000000E+00  0.14660715088E+03  0.14660715088E+03  0.00000000000E+00 0.  1.
          3   -1    0    0  501    0  0.00000000000E+00 -0.00000000000E+00 -0.23606429388E+03  0.23606429388E+03  0.00000000000E+00 0. -1.
         25    2    1    2    0    0 -0.63672315940E+01  0.10129184244E+03 -0.16042010746E+03  0.22733592532E+03  0.12508570295E+03 0.  0.
         23    2    1    2    0    0  0.63672315940E+01 -0.10129184244E+03  0.70962964466E+02  0.15533551944E+03  0.93769943428E+02 0.  0.
          5    1    3    3  502    0  0.49672538059E+02  0.62198838807E+02 -0.40875842651E+02  0.89578811661E+02  0.41800000000E+01 0.  1.
         -5    1    3    3    0  502 -0.56039769653E+02  0.39093003633E+02 -0.11954426481E+03  0.13775711366E+03  0.41800000000E+01 0.  1.
        -11    1    4    4    0    0  0.34505428047E+02 -0.17556334248E+01  0.21362813566E+02  0.40621135101E+02  0.00000000000E+00 0. -1.
         11    1    4    4    0    0 -0.28138196453E+02 -0.99536209016E+02  0.49600150900E+02  0.11471438434E+03  0.00000000000E+00 0.  1.
</event>
<event>
 8    1  0.6615242E-009  0.7370403E+02  0.7561462E-02  0.1347932E+00
          1   -1    0    0  501    0  0.00000000000E+00  0.00000000000E+00  0.65586898025E+03  0.65586898025E+03  0.00000000000E+00 0. -1.
         -1   -1    0    0    0  501 -0.00000000000E+00 -0.00000000000E+00 -0.21636913352E+02  0.21636913352E+02  0.00000000000E+00 0.  1.
         25    2    1    2    0    0  0.31204570400E+02 -0.12786012053E+02  0.25928927042E+03  0.28985686746E+03  0.12509544573E+03 0.  0.
         23    2    1    2    0    0 -0.31204570400E+02  0.12786012053E+02  0.37494279648E+03  0.38764902614E+03  0.92479508634E+02 0.  0.
          5    1    3    3  502    0  0.21272946671E+02 -0.31809225075E+02  0.10217732147E+02  0.39827622452E+02  0.41800000000E+01 0.  1.
         -5    1    3    3    0  502  0.99316237285E+01  0.19023213022E+02  0.24907153827E+03  0.25002924501E+03  0.41800000000E+01 0.  1.
        -11    1    4    4    0    0 -0.50079443822E+02  0.32544624128E+02  0.32748583299E+03  0.33288747958E+03  0.00000000000E+00 0. -1.
         11    1    4    4    0    0  0.18874873423E+02 -0.19758612074E+02  0.47456963495E+02  0.54761546563E+02  0.00000000000E+00 0.  1.
</event>
<event>
 8    1  0.6615242E-009  0.1100583E+03  0.7561462E-02  0.1260462E+00
         -1   -1    0    0    0  501 -0.00000000000E+00  0.00000000000E+00  0.67561924524E+02  0.67561924524E+02  0.00000000000E+00 0.  1.
          1   -1    0    0  501    0  0.00000000000E+00 -0.00000000000E+00 -0.28734594141E+03  0.28734594141E+03  0.00000000000E+00 0. -1.
         25    2    1    2    0    0 -0.42980906187E+02  0.71127033830E+02 -0.13655830143E+03  0.20297939373E+03  0.12508417707E+03 0.  0.
         23    2    1    2    0    0  0.42980906187E+02 -0.71127033830E+02 -0.83225715455E+02  0.15192847220E+03  0.96173425197E+02 0.  0.
          5    1    3    3  502    0  0.21925779552E+01  0.35911699218E+02  0.16277193239E+02  0.39709910080E+02  0.41800000000E+01 0. -1.
         -5    1    3    3    0  502 -0.45173484142E+02  0.35215334612E+02 -0.15283549467E+03  0.16326948365E+03  0.41800000000E+01 0. -1.
        -11    1    4    4    0    0  0.16183097723E+01 -0.83326112143E+02 -0.61932344731E+02  0.10383388279E+03  0.00000000000E+00 0.  1.
         11    1    4    4    0    0  0.41362596415E+02  0.12199078312E+02 -0.21293370725E+02  0.48094589411E+02  0.00000000000E+00 0. -1.
</event>
<event>
 8    1  0.6615242E-009  0.1778072E+03  0.7561462E-02  0.1169942E+00
         -1   -1    0    0    0  501 -0.00000000000E+00  0.00000000000E+00  0.44371230348E+02  0.44371230348E+02  0.00000000000E+00 0.  1.
          1   -1    0    0  501    0  0.00000000000E+00 -0.00000000000E+00 -0.90315444591E+03  0.90315444591E+03  0.00000000000E+00 0. -1.
         25    2    1    2    0    0 -0.14855901287E+03  0.70308466019E+02 -0.52473659347E+03  0.56392332662E+03  0.12509182656E+03 0.  0.
         23    2    1    2    0    0  0.14855901287E+03 -0.70308466019E+02 -0.33404662209E+03  0.38360234965E+03  0.92469217706E+02 0.  0.
          5    1    3    3  502    0 -0.95380442012E+02  0.87213327356E+02 -0.46246856845E+03  0.48020645809E+03  0.41800000000E+01 0.  1.
         -5    1    3    3    0  502 -0.53178570860E+02 -0.16904861337E+02 -0.62268025026E+02  0.83716868528E+02  0.41800000000E+01 0.  1.
        -11    1    4    4    0    0  0.74117522689E+02 -0.59664483343E+02 -0.10116117202E+03  0.13887706962E+03  0.00000000000E+00 0.  1.
         11    1    4    4    0    0  0.74441490182E+02 -0.10643982676E+02 -0.23288545007E+03  0.24472528002E+03  0.00000000000E+00 0. -1.
</event>
<event>
 8    1  0.6615242E-009  0.1029000E+03  0.7561462E-02  0.1274313E+00
          2   -1    0    0  501    0  0.00000000000E+00  0.00000000000E+00  0.13714594190E+03  0.13714594190E+03  0.00000000000E+00 0. -1.
         -2   -1    0    0    0  501 -0.00000000000E+00 -0.00000000000E+00 -0.12499481323E+03  0.12499481323E+03  0.00000000000E+00 0.  1.
         25    2    1    2    0    0 -0.32983220907E+02  0.43191856959E+02 -0.41148308308E+02  0.14244989090E+03  0.12508140858E+03 0.  0.
         23    2    1    2    0    0  0.32983220907E+02 -0.43191856959E+02  0.53299436986E+02  0.11969086422E+03  0.92366896812E+02 0.  0.
          5    1    3    3  502    0  0.34326226728E+02 -0.15391109563E+00  0.21489155331E+02  0.40713262297E+02  0.41800000000E+01 0.  1.
         -5    1    3    3    0  502 -0.67309447635E+02  0.43345768054E+02 -0.62637463640E+02  0.10173662861E+03  0.41800000000E+01 0.  1.
        -11    1    4    4    0    0  0.52942525226E+02 -0.12429739562E+02 -0.73671137151E+00  0.54387058631E+02  0.00000000000E+00 0.  1.
         11    1    4    4    0    0 -0.19959304319E+02 -0.30762117397E+02  0.54036148357E+02  0.65303805593E+02  0.00000000000E+00 0. -1.
</event>
<event>
 8    1  0.6615242E-009  0.1299050E+03  0.7561462E-02  0.1227597E+00
         -1   -1    0    0    0  501 -0.00000000000E+00  0.00000000000E+00  0.18702513249E+03  0.18702513249E+03  0.00000000000E+00 0.  1.
          1   -1    0    0  501    0  0.00000000000E+00 -0.00000000000E+00 -0.11221198172E+03  0.11221198172E+03  0.00000000000E+00 0. -1.
         25    2    1    2    0    0 -0.72593290539E+02 -0.35918804055E+02 -0.11511107517E+02  0.14945903218E+03  0.12508217454E+03 0.  0.
         23    2    1    2    0    0  0.72593290539E+02  0.35918804055E+02  0.86324258289E+02  0.14977808203E+03  0.91769548172E+02 0.  0.
          5    1    3    3  502    0  0.40745839886E+00 -0.67747767620E+02  0.48486085239E+01  0.68050771079E+02  0.41800000000E+01 0.  1.
         -5    1    3    3    0  502 -0.73000748938E+02  0.31828963565E+02 -0.16359716041E+02  0.81408261105E+02  0.41800000000E+01 0.  1.
        -11    1    4    4    0    0 -0.35118293605E+01  0.35908182237E+02  0.19219618603E+01  0.36130657818E+02  0.00000000000E+00 0. -1.
         11    1    4    4    0    0  0.76105119900E+02  0.10621818609E-01  0.84402296429E+02  0.11364742421E+03  0.00000000000E+00 0.  1.
</event>
<event>
 8    1  0.6615242E-009  0.1626992E+03  0.7561462E-02  0.1185683E+00
         -2   -1    0    0    0  501 -0.00000000000E+00  0.00000000000E+00  0.39902328492E+02  0.39902328492E+02  0.00000000000E+00 0.  1.
          2   -1    0    0  501    0  0.00000000000E+00 -0.00000000000E+00 -0.75599916717E+03  0.75599916717E+03  0.00000000000E+00 0. -1.
         25    2    1    2    0    0  0.58421404770E+01 -0.12424521120E+03 -0.49713173906E+03  0.52750206295E+03  0.12508979705E+03 0.  0.
         23    2    1    2    0    0 -0.58421404770E+01  0.12424521120E+03 -0.21896509962E+03  0.26839943272E+03  0.92852234859E+02 0.  0.
          5    1    3    3  502    0 -0.17879006211E+02  0.19355085372E+02 -0.43050699564E+02  0.50646947843E+02  0.41800000000E+01 0.  1.
         -5    1    3    3    0  502  0.23721146688E+02 -0.14360029657E+03 -0.45408103949E+03  0.47685511511E+03  0.41800000000E+01 0.  1.
        -11    1    4    4    0    0  0.39986627325E+02  0.79874350065E+02 -0.14897215351E+03  0.17369958170E+03  0.00000000000E+00 0.  1.
         11    1    4    4    0    0 -0.45828767802E+02  0.44370861134E+02 -0.69992946115E+02  0.94699851013E+02  0.00000000000E+00 0. -1.
</event>
<event>
 8    1  0.6615242E-009  0.9624112E+02  0.7561462E-02  0.1288405E+00
         -2   -1    0    0    0  501 -0.00000000000E+00  0.00000000000E+00  0.23305203264E+03  0.23305203264E+03  0.00000000000E+00 0.  1.
          2   -1    0    0  501    0  0.00000000000E+00 -0.00000000000E+00 -0.95765982340E+02  0.95765982340E+02  0.00000000000E+00 0. -1.
         25    2    1    2    0    0  0.22732157018E+02  0.11372943088E+02 -0.33727660335E+02  0.13203224687E+03  0.12509542096E+03 0.  0.
         23    2    1    2    0    0 -0.22732157018E+02 -0.11372943088E+02  0.17101371063E+03  0.19678576810E+03  0.93983267168E+02 0.  0.
          5    1    3    3  502    0 -0.51714678048E+02  0.10104411554E+02 -0.17806364368E+02  0.55776752060E+02  0.41800000000E+01 0. -1.
         -5    1    3    3    0  502  0.74446835066E+02  0.12685315339E+01 -0.15921295967E+02  0.76255494811E+02  0.41800000000E+01 0. -1.
        -11    1    4    4    0    0 -0.42268439560E+02  0.34182583446E+00  0.16867022060E+03  0.17388611544E+03  0.00000000000E+00 0.  1.
         11    1    4    4    0    0  0.19536282541E+02 -0.11714768922E+02  0.23434900331E+01  0.22899652660E+02  0.00000000000E+00 0. -1.
</event>
<event>
 8    1  0.6615242E-009  0.8274573E+02  0.7561462E-02  0.1321435E+00
          1   -1    0    0  501    0  0.00000000000E+00  0.00000000000E+00  0.11852858382E+02  0.11852858382E+02  0.00000000000E+00 0. -1.
         -1   -1    0    0    0  501 -0.00000000000E+00 -0.00000000000E+00 -0.11920091697E+04  0.11920091697E+04  0.00000000000E+00 0.  1.
         25    2    1    2    0    0 -0.23896743724E+02  0.41979501181E+02 -0.68146477407E+03  0.69453165002E+03  0.12508653685E+03 0.  0.
         23    2    1    2    0    0  0.23896743724E+02 -0.41979501181E+02 -0.49869153723E+03  0.50933037804E+03  0.91601592858E+02 0.  0.
          5    1    3    3  502    0 -0.34316033230E+02  0.41669873758E+02 -0.68114797734E+03  0.68329642758E+03  0.41800000000E+01 0.  1.
         -5    1    3    3    0  502  0.10419289506E+02  0.30962742300E+00 -0.31679672707E+00  0.11235222433E+02  0.41800000000E+01 0.  1.
        -11    1    4    4    0    0  0.57381929787E+02 -0.27632599155E+02 -0.37559576461E+03  0.38095724798E+03  0.00000000000E+00 0.  1.
         11    1    4    4    0    0 -0.33485186063E+02 -0.14346902026E+02 -0.12309577262E+03  0.12837313006E+03  0.00000000000E+00 0. -1.
</event>
<event>
 8    1  0.6615242E-009  0.1001869E+03  0.7561462E-02  0.1279903E+00
         -3   -1    0    0    0  501 -0.00000000000E+00  0.00000000000E+00  0.28581271131E+02  0.28581271131E+02  0.00000000000E+00 0.  1.
          3   -1    0    0  501    0  0.00000000000E+00 -0.00000000000E+00 -0.54857163692E+03  0.54857163692E+03  0.00000000000E+00 0. -1.
         25    2    1    2    0    0 -0.24243599948E+02 -0.41069105865E+02 -0.38445582305E+03  0.40709769382E+03  0.12509128202E+03 0.  0.
         23    2    1    2    0    0  0.24243599948E+02  0.41069105865E+02 -0.13553454274E+03  0.17005521423E+03  0.90965597994E+02 0.  0.
          5    1    3    3  502    0 -0.66997490895E+02 -0.45412521689E+02 -0.31546963918E+03  0.32571387222E+03  0.41800000000E+01 0. -1.
         -5    1    3    3    0  502  0.42753890948E+02  0.43434158244E+01 -0.68986183869E+02  0.81383821592E+02  0.41800000000E+01 0. -1.
        -11    1    4    4    0    0  0.40014363970E+02  0.44673283208E+02 -0.14080137657E+03  0.15304208310E+03  0.00000000000E+00 0. -1.
         11    1    4    4    0    0 -0.15770764022E+02 -0.36041773428E+01  0.52668338360E+01  0.17013131129E+02  0.00000000000E+00 0.  1.
</event>
<event>
 8    1  0.6615242E-009  0.2159047E+03  0.7561462E-02  0.1136974E+00
          3   -1    0    0  501    0  0.00000000000E+00  0.00000000000E+00  0.13253414278E+03  0.13253414278E+03  0.00000000000E+00 0. -1.
         -3   -1    0    0    0  501 -0.00000000000E+00 -0.00000000000E+00 -0.42952202065E+03  0.42952202065E+03  0.00000000000E+00 0.  1.
         25    2    1    2    0    0  0.18776868674E+03  0.89063837237E+02 -0.10417379169E+03  0.26398441262E+03  0.12508454904E+03 0.  0.
         23    2    1    2    0    0 -0.18776868674E+03 -0.89063837237E+02 -0.19281408617E+03  0.29807175081E+03  0.92087186836E+02 0.  0.
          5    1    3    3  502    0  0.10080522036E+03  0.51237141213E+02 -0.12308216578E+03  0.16719338811E+03  0.41800000000E+01 0. -1.
         -5    1    3    3    0  502  0.86963466375E+02  0.37826696023E+02  0.18908374089E+02  0.96791024515E+02  0.41800000000E+01 0. -1.
        -11    1    4    4    0    0 -0.10177737619E+03 -0.26417420324E+01 -0.11426750813E+03  0.15304468798E+03  0.00000000000E+00 0.  1.
         11    1    4    4    0    0 -0.85991310552E+02 -0.86422095204E+02 -0.78546578041E+02  0.14502706283E+03  0.00000000000E+00 0. -1.
</event>
<event>
 8    1  0.6615242E-009  0.1366064E+03  0.7561462E-02  0.1217970E+00
          2   -1    0    0  501    0  0.00000000000E+00  0.00000000000E+00  0.87510442428E+03  0.87510442428E+03  0.00000000000E+00 0. -1.
         -2   -1    0    0    0  501 -0.00000000000E+00 -0.00000000000E+00 -0.30251494323E+02  0.30251494323E+02  0.00000000000E+00 0.  1.
         25    2    1    2    0    0  0.10665873315E+03 -0.56157285964E+02  0.42537541553E+03  0.45948227120E+03  0.12509990921E+03 0.  0.
         23    2    1    2    0    0 -0.10665873315E+03  0.56157285964E+02  0.41947751443E+03  0.44587364741E+03  0.91171257626E+02 0.  0.
          5    1    3    3  502    0  0.53269682243E+02 -0.17885349465E+02  0.36762064911E+03  0.37191391319E+03  0.41800000000E+01 0.  1.
         -5    1    3    3    0  502  0.53389050905E+02 -0.38271936500E+02  0.57754766420E+02  0.87568358008E+02  0.41800000000E+01 0.  1.
        -11    1    4    4    0    0 -0.80597363741E+00  0.44548215253E+02  0.13095863070E+03  0.13833060410E+03  0.00000000000E+00 0.  1.
         11    1    4    4    0    0 -0.10585275951E+03  0.11609070712E+02  0.28851888372E+03  0.30754304330E+03  0.00000000000E+00 0. -1.
</event>
<event>
 8    1  0.6615242E-009  0.1027261E+03  0.7561462E-02  0.1274666E+00
         -2   -1    0    0    0  501 -0.00000000000E+00  0.00000000000E+00  0.17556809379E+02  0.17556809379E+02  0.00000000000E+00 0.  1.
          2   -1    0    0  501    0  0.00000000000E+00 -0.00000000000E+00 -0.99013625213E+03  0.99013625213E+03  0.00000000000E+00 0. -1.
         25    2    1    2    0    0  0.30389881115E+02 -0.66323555872E+02 -0.45816418020E+03  0.48050538601E+03  0.12509456831E+03 0.  0.
         23    2    1    2    0    0 -0.30389881115E+02  0.66323555872E+02 -0.51441526255E+03  0.52718767550E+03  0.89338815318E+02 0.  0.
          5    1    3    3  502    0  0.73071629273E+01  0.87266763894E+01 -0.32945521647E+03  0.32967826978E+03  0.41800000000E+01 0.  1.
         -5    1    3    3    0  502  0.23082718187E+02 -0.75050232261E+02 -0.12870896374E+03  0.15082711622E+03  0.41800000000E+01 0.  1.
        -11    1    4    4    0    0 -0.57853012357E+02  0.65261129304E+02 -0.36582028055E+03  0.37607241816E+03  0.00000000000E+00 0. -1.
         11    1    4    4    0    0  0.27463131242E+02  0.10624265682E+01 -0.14859498200E+03  0.15111525734E+03  0.00000000000E+00 0.  1.
</event>
<event>
 8    1  0.6615242E-009  0.1123380E+03  0.7561462E-02  0.1256301E+00
          1   -1    0    0  501    0  0.00000000000E+00  0.00000000000E+00  0.19610254327E+03  0.19610254327E+03  0.00000000000E+00 0. -1.
         -1   -1    0    0    0  501 -0.00000000000E+00 -0.00000000000E+00 -0.13932952769E+03  0.13932952769E+03  0.00000000000E+00 0.  1.
         25    2    1    2    0    0 -0.43689976855E+02  0.55443668465E+02 -0.73632236499E+02  0.16140739703E+03  0.12509127512E+03 0.  0.
         23    2    1    2    0    0  0.43689976855E+02 -0.55443668465E+02  0.13040525208E+03  0.17402467393E+03  0.91083713774E+02 0.  0.
          5    1    3    3  502    0  0.44178770157E+02  0.17573607170E+02 -0.21261863353E+02  0.52250690281E+02  0.41800000000E+01 0. -1.
         -5    1    3    3    0  502 -0.87868747012E+02  0.37870061295E+02 -0.52370373145E+02  0.10915670674E+03  0.41800000000E+01 0. -1.
        -11    1    4    4    0    0  0.41358691075E+02 -0.20515047392E+02  0.81813899837E+01  0.46886497406E+02  0.00000000000E+00 0.  1.
         11    1    4    4    0    0  0.23312857800E+01 -0.34928621074E+02  0.12222386210E+03  0.12713817652E+03  0.00000000000E+00 0. -1.
</event>
<event>
 8    1  0.6615242E-009  0.1392177E+03  0.7561462E-02  0.1214386E+00
          2   -1    0    0  501    0  0.00000000000E+00  0.00000000000E+00  0.43625658320E+02  0.43625658320E+02  0.00000000000E+00 0.  1.
         -2   -1    0    0    0  501 -0.00000000000E+00 -0.00000000000E+00 -0.78655152269E+03  0.78655152269E+03  0.00000000000E+00 0. -1.
         25    2    1    2    0    0  0.91408485615E+02 -0.66251609225E+02 -0.60983339945E+03  0.63268454807E+03  0.12509266693E+03 0.  0.
         23    2    1    2    0    0 -0.91408485615E+02  0.66251609225E+02 -0.13309246493E+03  0.19749263294E+03  0.92438892673E+02 0.  0.
          5    1    3    3  502    0  0.88484533023E+02  0.81825020363E+01 -0.40583540419E+03  0.41547119469E+03  0.41800000000E+01 0. -1.
         -5    1    3    3    0  502  0.29239525919E+01 -0.74434111261E+02 -0.20399799526E+03  0.21721335338E+03  0.41800000000E+01 0. -1.
        -11    1    4    4    0    0 -0.26915211309E+02  0.32093328970E+02  0.41108932122E+01  0.42086931549E+02  0.00000000000E+00 0.  1.
         11    1    4    4    0    0 -0.64493274306E+02  0.34158280255E+02 -0.13720335814E+03  0.15540570139E+03  0.00000000000E+00 0. -1.
</event>
<event>
 8    1  0.6615242E-009  0.6266337E+02  0.7561462E-02  0.1386983E+00
          1   -1    0    0  501    0  0.00000000000E+00  0.00000000000E+00  0.10987549974E+03  0.10987549974E+03  0.00000000000E+00 0. -1.
         -1   -1    0    0    0  501 -0.00000000000E+00 -0.00000000000E+00 -0.24278723449E+03  0.24278723449E+03  0.00000000000E+00 0.  1.
         25    2    1    2    0    0 -0.23780288818E+02  0.38321998240E+01 -0.19751655901E+03  0.23503903964E+03  0.12510144355E+03 0.  0.
         23    2    1    2    0    0  0.23780288818E+02 -0.38321998240E+01  0.64604824265E+02  0.11762369460E+03  0.95296182088E+02 0.  0.
          5    1    3    3  502    0 -0.24167158118E+02  0.52392079950E+01  0.10345838311E+02  0.27129496904E+02  0.41800000000E+01 0.  1.
         -5    1    3    3    0  502  0.38686929976E+00 -0.14070081710E+01 -0.20786239732E+03  0.20790954274E+03  0.41800000000E+01 0.  1.
        -11    1    4    4    0    0  0.14957058934E+02  0.44366765672E+02  0.44710666166E+02  0.64739224410E+02  0.00000000000E+00 0. -1.
         11    1    4    4    0    0  0.88232298835E+01 -0.48198965496E+02  0.19894158099E+02  0.52884470187E+02  0.00000000000E+00 0.  1.
</event>
<event>
 8    1  0.6615242E-009  0.2023170E+03  0.7561462E-02  0.1147799E+00
         -1   -1    0    0    0  501 -0.00000000000E+00  0.00000000000E+00  0.58009841783E+03  0.58009841783E+03  0.00000000000E+00 0.  1.
          1   -1    0    0  501    0  0.00000000000E+00 -0.00000000000E+00 -0.80587802597E+02  0.80587802597E+02  0.00000000000E+00 0. -1.
         25    2    1    2    0    0  0.93575599353E+02 -0.15706348880E+03  0.31994004954E+03  0.38914596597E+03  0.12509042817E+03 0.  0.
         23    2    1    2    0    0 -0.93575599353E+02  0.15706348880E+03  0.17957056569E+03  0.27154025446E+03  0.89795263919E+02 0.  0.
          5    1    3    3  502    0  0.92744330533E+02 -0.36257209828E+02  0.12656267040E+03  0.16109524527E+03  0.41800000000E+01 0.  1.
         -5    1    3    3    0  502  0.83126882022E+00 -0.12080627897E+03  0.19337737914E+03  0.22805072069E+03  0.41800000000E+01 0.  1.
        -11    1    4    4    0    0 -0.64284495430E+02  0.87238469308E+02  0.45427903574E+02  0.11750209063E+03  0.00000000000E+00 0. -1.
         11    1    4    4    0    0 -0.29291103923E+02  0.69825019488E+02  0.13414266211E+03  0.15403816383E+03  0.00000000000E+00 0.  1.
</event>
<event>
 8    1  0.6615242E-009  0.1158198E+03  0.7561462E-02  0.1250157E+00
         -2   -1    0    0    0  501 -0.00000000000E+00  0.00000000000E+00  0.97941913686E+01  0.97941913686E+01  0.00000000000E+00 0.  1.
          2   -1    0    0  501    0  0.00000000000E+00 -0.00000000000E+00 -0.19397561355E+04  0.19397561355E+04  0.00000000000E+00 0. -1.
         25    2    1    2    0    0  0.35856710731E+02  0.31215384038E+02 -0.15539944548E+04  0.15597441597E+04  0.12507187654E+03 0.  0.
         23    2    1    2    0    0 -0.35856710731E+02 -0.31215384038E+02 -0.37596748927E+03  0.38980616710E+03  0.91308219852E+02 0.  0.
          5    1    3    3  502    0  0.20589123421E+02  0.77337419715E+02 -0.74926333471E+03  0.75353699686E+03  0.41800000000E+01 0.  1.
         -5    1    3    3    0  502  0.15267587310E+02 -0.46122035677E+02 -0.80473112013E+03  0.80620716289E+03  0.41800000000E+01 0.  1.
        -11    1    4    4    0    0 -0.49046578914E+02 -0.56133860877E+02 -0.28347281071E+03  0.29310989689E+03  0.00000000000E+00 0. -1.
         11    1    4    4    0    0  0.13189868183E+02  0.24918476839E+02 -0.92494678561E+02  0.96696270211E+02  0.00000000000E+00 0.  1.
</event>
<event>
 8    1  0.6615242E-009  0.2934196E+03  0.7561462E-02  0.1088577E+00
         -1   -1    0    0    0  501 -0.00000000000E+00  0.00000000000E+00  0.13635316935E+03  0.13635316935E+03  0.00000000000E+00 0.  1.
          1   -1    0    0  501    0  0.00000000000E+00 -0.00000000000E+00 -0.78573832080E+03  0.78573832080E+03  0.00000000000E+00 0. -1.
         25    2    1    2    0    0 -0.15211900720E+03  0.23914931508E+03 -0.15913208727E+03  0.34828569573E+03  0.12508923775E+03 0.  0.
         23    2    1    2    0    0  0.15211900720E+03 -0.23914931508E+03 -0.49025306418E+03  0.57380579443E+03  0.92587447967E+02 0.  0.
          5    1    3    3  502    0 -0.11582569001E+03  0.81764407077E+02 -0.10973799976E+03  0.17933463057E+03  0.41800000000E+01 0.  1.
         -5    1    3    3    0  502 -0.36293317192E+02  0.15738490800E+03 -0.49394087510E+02  0.16895106517E+03  0.41800000000E+01 0.  1.
        -11    1    4    4    0    0  0.15590763811E+02 -0.24597792923E+02 -0.10757494091E+02  0.31045885589E+02  0.00000000000E+00 0.  1.
         11    1    4    4    0    0  0.13652824339E+03 -0.21455152216E+03 -0.47949557009E+03  0.54275990884E+03  0.00000000000E+00 0. -1.
</event>
<event>
 8    1  0.6615242E-009  0.1587818E+03  0.7561462E-02  0.1190079E+00
         -2   -1    0    0    0  501 -0.00000000000E+00  0.00000000000E+00  0.13493990206E+03  0.13493990206E+03  0.00000000000E+00 0.  1.
          2   -1    0    0  501    0  0.00000000000E+00 -0.00000000000E+00 -0.20730260445E+03  0.20730260445E+03  0.00000000000E+00 0. -1.
         25    2    1    2    0    0 -0.67436021113E+02  0.97909078280E+02  0.87033406498E+01  0.17279666280E+03  0.12509649869E+03 0.  0.
         23    2    1    2    0    0  0.67436021113E+02 -0.97909078280E+02 -0.81066043038E+02  0.16944584371E+03  0.89478411163E+02 0.  0.
          5    1    3    3  502    0 -0.32201623525E+02 -0.24992632579E+02 -0.13124582725E+02  0.43026774369E+02  0.41800000000E+01 0. -1.
         -5    1    3    3    0  502 -0.35234397588E+02  0.12290171086E+03  0.21827923374E+02  0.12976988843E+03  0.41800000000E+01 0. -1.
        -11    1    4    4    0    0  0.88603766776E+02 -0.66468580899E+02 -0.57283565568E+02  0.12470006663E+03  0.00000000000E+00 0.  1.
         11    1    4    4    0    0 -0.21167745662E+02 -0.31440497381E+02 -0.23782477470E+02  0.44745777081E+02  0.00000000000E+00 0. -1.
</event>
<event>
 8    1  0.6615242E-009  0.1213206E+03  0.7561462E-02  0.1240934E+00
          1   -1    0    0  501    0  0.00000000000E+00  0.00000000000E+00  0.36162250756E+03  0.36162250756E+03  0.00000000000E+00 0. -1.
         -1   -1    0    0    0  501 -0.00000000000E+00 -0.00000000000E+00 -0.57257389682E+02  0.57257389682E+02  0.00000000000E+00 0.  1.
         25    2    1    2    0    0 -0.70910045521E+02  0.60824115575E+02  0.18195769399E+03  0.23974973301E+03  0.12507407600E+03 0.  0.
         23    2    1    2    0    0  0.70910045521E+02 -0.60824115575E+02  0.12240742389E+03  0.17913016423E+03  0.91521749994E+02 0.  0.
          5    1    3    3  502    0 -0.32471380735E+02 -0.22641613237E+02  0.12586542590E+03  0.13200988998E+03  0.41800000000E+01 0. -1.
         -5    1    3    3    0  502 -0.38438664786E+02  0.83465728812E+02  0.56092268090E+02  0.10773984303E+03  0.41800000000E+01 0. -1.
        -11    1    4    4    0    0  0.25316676795E+02  0.94980442694E+01 -0.41317754925E+01  0.27353583633E+02  0.00000000000E+00 0.  1.
         11    1    4    4    0    0  0.45593368726E+02 -0.70322159845E+02  0.12653919938E+03  0.15177658059E+03  0.00000000000E+00 0. -1.
</event>
<event>
 8    1  0.6615242E-009  0.8242835E+02  0.7561462E-02  0.1322298E+00
          2   -1    0    0  501    0  0.00000000000E+00  0.00000000000E+00  0.18765575897E+03  0.18765575897E+03  0.00000000000E+00 0. -1.
         -2   -1    0    0    0  501 -0.00000000000E+00 -0.00000000000E+00 -0.83793422724E+02  0.83793422724E+02  0.00000000000E+00 0.  1.
         25    2    1    2    0    0  0.16045170213E+02 -0.57598638247E+02  0.33254374762E+02  0.14257575142E+03  0.12508773256E+03 0.  0.
         23    2    1    2    0    0 -0.16045170213E+02  0.57598638247E+02  0.70607961479E+02  0.12887343026E+03  0.89709677231E+02 0.  0.
          5    1    3    3  502    0  0.30759756419E+02 -0.30022007919E+02  0.77216804180E+02  0.88472542759E+02  0.41800000000E+01 0.  1.
         -5    1    3    3    0  502 -0.14714586206E+02 -0.27576630328E+02 -0.43962429418E+02  0.54103208665E+02  0.41800000000E+01 0.  1.
        -11    1    4    4    0    0 -0.42633373640E+02  0.37931412666E+02  0.74083160631E+01  0.57543720436E+02  0.00000000000E+00 0.  1.
         11    1    4    4    0    0  0.26588203427E+02  0.19667225582E+02  0.63199645416E+02  0.71329709829E+02  0.00000000000E+00 0. -1.
</event>
<event>
 8    1  0.6615242E-009  0.1423835E+03  0.7561462E-02  0.1210157E+00
          2   -1    0    0  501    0  0.00000000000E+00  0.00000000000E+00  0.36479094829E+02  0.36479094829E+02  0.00000000000E+00 0. -1.
         -2   -1    0    0    0  501 -0.00000000000E+00 -0.00000000000E+00 -0.11627753438E+04  0.11627753438E+04  0.00000000000E+00 0.  1.
         25    2    1    2    0    0 -0.10769097338E+03 -0.64326722587E+02 -0.93936404199E+03  0.95592312643E+03  0.12509575240E+03 0.  0.
         23    2    1    2    0    0  0.10769097338E+03  0.64326722587E+02 -0.18693220698E+03  0.24333131220E+03  0.92364519727E+02 0.  0.
          5    1    3    3  502    0  0.95903646888E+00 -0.28857616221E+02 -0.41069302656E+02  0.50376996592E+02  0.41800000000E+01 0.  1.
         -5    1    3    3    0  502 -0.10865000985E+03 -0.35469106366E+02 -0.89829473934E+03  0.90554612984E+03  0.41800000000E+01 0.  1.
        -11    1    4    4    0    0  0.21712123256E+02  0.49396440907E+02 -0.12550995217E+03  0.13661688316E+03  0.00000000000E+00 0.  1.
         11    1    4    4    0    0  0.85978850124E+02  0.14930281680E+02 -0.61422254814E+02  0.10671442904E+03  0.00000000000E+00 0. -1.
</event>
<event>
 8    1  0.6615242E-009  0.1185990E+03  0.7561462E-02  0.1245426E+00
          2   -1    0    0  501    0  0.00000000000E+00  0.00000000000E+00  0.41962299451E+03  0.41962299451E+03  0.00000000000E+00 0. -1.
         -2   -1    0    0    0  501 -0.00000000000E+00 -0.00000000000E+00 -0.40887788820E+02  0.40887788820E+02  0.00000000000E+00 0.  1.
         25    2    1    2    0    0 -0.68456011021E+02 -0.20073033449E+02  0.18238649667E+03  0.23238357633E+03  0.12509252680E+03 0.  0.
         23    2    1    2    0    0  0.68456011021E+02  0.20073033449E+02  0.19634870901E+03  0.22812720700E+03  0.91651813539E+02 0.  0.
          5    1    3    3  502    0  0.13406576881E+02  0.24135905370E+02  0.11258930888E+03  0.11600044442E+03  0.41800000000E+01 0.  1.
         -5    1    3    3    0  502 -0.81862587902E+02 -0.44208938818E+02  0.69797187799E+02  0.11638313191E+03  0.41800000000E+01 0.  1.
        -11    1    4    4    0    0  0.83895008885E+02 -0.78235662531E+01  0.14228925472E+03  0.16536569388E+03  0.00000000000E+00 0.  1.
         11    1    4    4    0    0 -0.15438997865E+02  0.27896599702E+02  0.54059454293E+02  0.62761513115E+02  0.00000000000E+00 0. -1.
</event>
<event>
 8    1  0.6615242E-009  0.7839130E+02  0.7561462E-02  0.1333680E+00
         -1   -1    0    0    0  501 -0.00000000000E+00  0.00000000000E+00  0.11531030577E+03  0.11531030577E+03  0.00000000000E+00 0.  1.
          1   -1    0    0  501    0  0.00000000000E+00 -0.00000000000E+00 -0.13257881769E+03  0.13257881769E+03  0.00000000000E+00 0. -1.
         25    2    1    2    0    0  0.24093689480E+02  0.41124338695E+02 -0.39215167061E+02  0.13949134604E+03  0.12509312206E+03 0.  0.
         23    2    1    2    0    0 -0.24093689480E+02 -0.41124338695E+02  0.21946655142E+02  0.10839777741E+03  0.94850963988E+02 0.  0.
          5    1    3    3  502    0  0.37026454054E+02 -0.15017733018E+02 -0.64857349812E+02  0.76291800539E+02  0.41800000000E+01 0.  1.
         -5    1    3    3    0  502 -0.12932764575E+02  0.56142071713E+02  0.25642182751E+02  0.63199545505E+02  0.41800000000E+01 0.  1.
        -11    1    4    4    0    0 -0.32092720785E+02 -0.24431272436E+02 -0.31921819568E+02  0.51437655126E+02  0.00000000000E+00 0. -1.
         11    1    4    4    0    0  0.79990313059E+01 -0.16693066259E+02  0.53868474710E+02  0.56960122284E+02  0.00000000000E+00 0.  1.
</event>
<event>
 8    1  0.6615242E-009  0.9285315E+02  0.7561462E-02  0.1296086E+00
          2   -1    0    0  501    0  0.00000000000E+00  0.00000000000E+00  0.94471928962E+02  0.94471928962E+02  0.00000000000E+00 0. -1.
         -2   -1    0    0    0  501 -0.00000000000E+00 -0.00000000000E+00 -0.15929931041E+03  0.15929931041E+03  0.00000000000E+00 0.  1.
         25    2    1    2    0    0  0.36398759143E+02  0.40778743308E+02 -0.19524339182E+02  0.13790676743E+03  0.12509716667E+03 0.  0.
         23    2    1    2    0    0 -0.36398759143E+02 -0.40778743308E+02 -0.45303042272E+02  0.11586447195E+03  0.91566558570E+02 0.  0.
          5    1    3    3  502    0  0.44735394534E+02 -0.23222074788E+02  0.27848326369E+02  0.57736660478E+02  0.41800000000E+01 0. -1.
         -5    1    3    3    0  502 -0.83366353909E+01  0.64000818097E+02 -0.47372665551E+02  0.80170106948E+02  0.41800000000E+01 0. -1.
        -11    1    4    4    0    0 -0.43372041910E+02 -0.18579053729E+02  0.16373830680E+02  0.49944144683E+02  0.00000000000E+00 0. -1.
         11    1    4    4    0    0  0.69732827670E+01 -0.22199689580E+02 -0.61676872952E+02  0.65920327268E+02  0.00000000000E+00 0.  1.
</event>
<event>
 8    1  0.6615242E-009  0.1541516E+03  0.7561462E-02  0.1195462E+00
          1   -1    0    0  501    0  0.00000000000E+00  0.00000000000E+00  0.19314453933E+03  0.19314453933E+03  0.00000000000E+00 0. -1.
         -1   -1    0    0    0  501 -0.00000000000E+00 -0.00000000000E+00 -0.26302281741E+03  0.26302281741E+03  0.00000000000E+00 0.  1.
         25    2    1    2    0    0  0.43678477637E+02 -0.13811612565E+03  0.99108826519E+02  0.21553294941E+03  0.12509204297E+03 0.  0.
         23    2    1    2    0    0 -0.43678477637E+02  0.13811612565E+03 -0.16898710460E+03  0.24063440733E+03  0.91457109590E+02 0.  0.
          5    1    3    3  502    0  0.69178637789E+01 -0.32121546298E+02  0.97802660165E+02  0.10325930133E+03  0.41800000000E+01 0. -1.
         -5    1    3    3    0  502  0.36760613858E+02 -0.10599457935E+03  0.13061663542E+01  0.11227364808E+03  0.41800000000E+01 0. -1.
        -11    1    4    4    0    0 -0.63069453146E+02  0.81396015358E+02 -0.68656711168E+02  0.12376110546E+03  0.00000000000E+00 0.  1.
         11    1    4    4    0    0  0.19390975509E+02  0.56720110293E+02 -0.10033039343E+03  0.11687330186E+03  0.00000000000E+00 0. -1.
</event>
<event>
 8    1  0.6615242E-009  0.9846605E+02  0.7561462E-02  0.1283555E+00
          1   -1    0    0  501    0  0.00000000000E+00  0.00000000000E+00  0.84923304013E+03  0.84923304013E+03  0.00000000000E+00 0. -1.
         -1   -1    0    0    0  501 -0.00000000000E+00 -0.00000000000E+00 -0.16545777535E+02  0.16545777535E+02  0.00000000000E+00 0.  1.
         25    2    1    2    0    0 -0.15131350438E+02  0.41484743647E+02  0.53337845871E+03  0.54962695958E+03  0.12508905930E+03 0.  0.
         23    2    1    2    0    0  0.15131350438E+02 -0.41484743647E+02  0.29930880388E+03  0.31615185809E+03  0.91740370436E+02 0.  0.
          5    1    3    3  502    0 -0.70135375464E+01  0.82251648496E+02  0.43438757077E+03  0.44218158874E+03  0.41800000000E+01 0.  1.
         -5    1    3    3    0  502 -0.81178128918E+01 -0.40766904850E+02  0.98990887945E+02  0.10744537083E+03  0.41800000000E+01 0.  1.
        -11    1    4    4    0    0 -0.12311749807E+02  0.88547491624E+01  0.44988028102E+01  0.15818501597E+02  0.00000000000E+00 0.  1.
         11    1    4    4    0    0  0.27443100245E+02 -0.50339492809E+02  0.29481000107E+03  0.30033335649E+03  0.00000000000E+00 0. -1.
</event>
<event>
 8    1  0.6615242E-009  0.1032049E+03  0.7561462E-02  0.1273697E+00
         -2   -1    0    0    0  501 -0.00000000000E+00  0.00000000000E+00  0.14701442310E+02  0.14701442310E+02  0.00000000000E+00 0.  1.
          2   -1    0    0  501    0  0.00000000000E+00 -0.00000000000E+00 -0.13127028399E+04  0.13127028399E+04  0.00000000000E+00 0. -1.
         25    2    1    2    0    0 -0.66181857381E+01  0.25494272840E+02 -0.11063297315E+04  0.11136904409E+04  0.12508862884E+03 0.  0.
         23    2    1    2    0    0  0.66181857381E+01 -0.25494272840E+02 -0.19167166608E+03  0.21371384129E+03  0.90784470297E+02 0.  0.
          5    1    3    3  502    0  0.26700968793E+02 -0.42569196500E+02 -0.36057583537E+03  0.36408444581E+03  0.41800000000E+01 0.  1.
         -5    1    3    3    0  502 -0.33319154531E+02  0.68063469340E+02 -0.74575389611E+03  0.74960599509E+03  0.41800000000E+01 0.  1.
        -11    1    4    4    0    0  0.16391683692E+02 -0.50578682669E+02 -0.17291033811E+03  0.18090018093E+03  0.00000000000E+00 0. -1.
         11    1    4    4    0    0 -0.97734979537E+01  0.25084409829E+02 -0.18761327978E+02  0.32813660360E+02  0.00000000000E+00 0.  1.
</event>
<event>
 8    1  0.6615242E-009  0.1105848E+03  0.7561462E-02  0.1259491E+00
          1   -1    0    0  501    0  0.00000000000E+00  0.00000000000E+00  0.84669015481E+03  0.84669015481E+03  0.00000000000E+00 0. -1.
         -1   -1    0    0    0  501 -0.00000000000E+00 -0.00000000000E+00 -0.38286591546E+02  0.38286591546E+02  0.00000000000E+00 0.  1.
         25    2    1    2    0    0 -0.52216896461E+02  0.53070857892E+02  0.72783224663E+03  0.74224690862E+03  0.12509026295E+03 0.  0.
         23    2    1    2    0    0  0.52216896461E+02 -0.53070857892E+02  0.80571316627E+02  0.14272983773E+03  0.91306896139E+02 0.  0.
          5    1    3    3  502    0 -0.88605667166E+02  0.54831623861E+02  0.44546548107E+03  0.45750894904E+03  0.41800000000E+01 0.  1.
         -5    1    3    3    0  502  0.36388770705E+02 -0.17607659685E+01  0.28236676556E+03  0.28473795958E+03  0.41800000000E+01 0.  1.
        -11    1    4    4    0    0  0.51186721301E+02 -0.34753301187E+02  0.18484645388E+01  0.61897408686E+02  0.00000000000E+00 0.  1.
         11    1    4    4    0    0  0.10301751599E+01 -0.18317556705E+02  0.78722852088E+02  0.80832429045E+02  0.00000000000E+00 0. -1.
</event>
<event>
 8    1  0.6615242E-009  0.1243711E+03  0.7561462E-02  0.1236055E+00
          1   -1    0    0  501    0  0.00000000000E+00  0.00000000000E+00  0.85256813223E+02  0.85256813223E+02  0.00000000000E+00 0. -1.
         -1   -1    0    0    0  501 -0.00000000000E+00 -0.00000000000E+00 -0.25792041341E+03  0.25792041341E+03  0.00000000000E+00 0.  1.
         25    2    1    2    0    0  0.85870297797E+02  0.42906303283E+02 -0.13089514976E+03  0.20492101370E+03  0.12507766675E+03 0.  0.
         23    2    1    2    0    0 -0.85870297797E+02 -0.42906303283E+02 -0.41768450429E+02  0.13825621294E+03  0.90307906958E+02 0.  0.
          5    1    3    3  502    0  0.10021460659E+03  0.47042437904E+02 -0.48253850344E+02  0.12083817613E+03  0.41800000000E+01 0.  1.
         -5    1    3    3    0  502 -0.14344308792E+02 -0.41361346204E+01 -0.82641299414E+02  0.84082837566E+02  0.41800000000E+01 0.  1.
        -11    1    4    4    0    0 -0.87345033530E+02 -0.82142588253E+01 -0.52092347583E+02  0.10203059153E+03  0.00000000000E+00 0.  1.
         11    1    4    4    0    0  0.14747357330E+01 -0.34692044458E+02  0.10323897154E+02  0.36225621411E+02  0.00000000000E+00 0. -1.
</event>
<event>
 8    1  0.6615242E-009  0.9893407E+02  0.7561462E-02  0.1282554E+00
          1   -1    0    0  501    0  0.00000000000E+00  0.00000000000E+00  0.10705570655E+03  0.10705570655E+03  0.00000000000E+00 0. -1.
         -1   -1    0    0    0  501 -0.00000000000E+00 -0.00000000000E+00 -0.16668913230E+03  0.16668913230E+03  0.00000000000E+00 0.  1.
         25    2    1    2    0    0 -0.30858110049E+02 -0.54471324864E+02 -0.88446622417E+02  0.16550092182E+03  0.12509357265E+03 0.  0.
         23    2    1    2    0    0  0.30858110049E+02  0.54471324864E+02  0.28813196670E+02  0.10824391703E+03  0.83469737533E+02 0.  0.
          5    1    3    3  502    0 -0.37629955984E+02  0.12413369390E+02  0.14564553893E+02  0.42422917828E+02  0.41800000000E+01 0.  1.
         -5    1    3    3    0  502  0.67718459348E+01 -0.66884694254E+02 -0.10301117631E+03  0.12307800400E+03  0.41800000000E+01 0.  1.
        -11    1    4    4    0    0  0.51668845533E+02  0.39041192307E+02 -0.57884100073E+01  0.65018381908E+02  0.00000000000E+00 0.  1.
         11    1    4    4    0    0 -0.20810735484E+02  0.15430132557E+02  0.34601606677E+02  0.43225535124E+02  0.00000000000E+00 0. -1.
</event>
<event>
 8    1  0.6615242E-009  0.1090849E+03  0.7561462E-02  0.1262274E+00
         -2   -1    0    0    0  501 -0.00000000000E+00  0.00000000000E+00  0.16767303491E+03  0.16767303491E+03  0.00000000000E+00 0.  1.
          2   -1    0    0  501    0  0.00000000000E+00 -0.00000000000E+00 -0.15167283754E+03  0.15167283754E+03  0.00000000000E+00 0. -1.
         25    2    1    2    0    0  0.17520026299E+02  0.34057445816E+02 -0.10182126931E+03  0.16577440163E+03  0.12508685149E+03 0.  0.
         23    2    1    2    0    0 -0.17520026299E+02 -0.34057445816E+02  0.11782146668E+03  0.15357147082E+03  0.90749312400E+02 0.  0.
          5    1    3    3  502    0 -0.45127651142E+02  0.48351659948E+02 -0.55663755889E+02  0.86546600377E+02  0.41800000000E+01 0. -1.
         -5    1    3    3    0  502  0.62647677441E+02 -0.14294214131E+02 -0.46157513426E+02  0.79227801257E+02  0.41800000000E+01 0. -1.
        -11    1    4    4    0    0  0.15469184842E+02 -0.48930994074E+02  0.10178532877E+03  0.11399031105E+03  0.00000000000E+00 0.  1.
         11    1    4    4    0    0 -0.32989211141E+02  0.14873548257E+02  0.16036137913E+02  0.39581159769E+02  0.00000000000E+00 0. -1.
</event>
<event>
 8    1  0.6615242E-009  0.1670832E+03  0.7561462E-02  0.1180924E+00
         -2   -1    0    0    0  501 -0.00000000000E+00  0.00000000000E+00  0.43502750567E+02  0.43502750567E+02  0.00000000000E+00 0.  1.
          2   -1    0    0  501    0  0.00000000000E+00 -0.00000000000E+00 -0.80944422883E+03  0.80944422883E+03  0.00000000000E+00 0. -1.
         25    2    1    2    0    0 -0.94761175710E+02  0.10572328776E+03 -0.27613268446E+03  0.33474758828E+03  0.12509833905E+03 0.  0.
         23    2    1    2    0    0  0.94761175710E+02 -0.10572328776E+03 -0.48980879380E+03  0.51819939111E+03  0.91982935759E+02 0.  0.
          5    1    3    3  502    0  0.22053769002E+02  0.55574346594E+01 -0.91422488912E+02  0.94301631407E+02  0.41800000000E+01 0.  1.
         -5    1    3    3    0  502 -0.11681494471E+03  0.10016585310E+03 -0.18471019555E+03  0.24044595687E+03  0.41800000000E+01 0.  1.
        -11    1    4    4    0    0  0.47565419080E+02 -0.75278917953E+01 -0.25283985228E+03  0.25738517662E+03  0.00000000000E+00 0. -1.
         11    1    4    4    0    0  0.47195756630E+02 -0.98195395969E+02 -0.23696894152E+03  0.26081421449E+03  0.00000000000E+00 0.  1.
</event>
<event>
 8    1  0.6615242E-009  0.2251455E+03  0.7561462E-02  0.1130104E+00
          2   -1    0    0  501    0  0.00000000000E+00  0.00000000000E+00  0.92209946528E+03  0.92209946528E+03  0.00000000000E+00 0. -1.
         -2   -1    0    0    0  501 -0.00000000000E+00 -0.00000000000E+00 -0.65739327736E+02  0.65739327736E+02  0.00000000000E+00 0.  1.
         25    2    1    2    0    0 -0.33604496810E+02  0.20471724663E+03  0.59333707466E+03  0.64088556452E+03  0.12508800649E+03 0.  0.
         23    2    1    2    0    0  0.33604496810E+02 -0.20471724663E+03  0.26302306289E+03  0.34695322850E+03  0.90316099783E+02 0.  0.
          5    1    3    3  502    0 -0.80250679997E+02  0.14959461542E+03  0.42471342080E+03  0.45740319501E+03  0.41800000000E+01 0.  1.
         -5    1    3    3    0  502  0.46646183187E+02  0.55122631214E+02  0.16862365386E+03  0.18348236951E+03  0.41800000000E+01 0.  1.
        -11    1    4    4    0    0  0.24062064089E+02 -0.94411153625E+02  0.56506689918E+02  0.11262972460E+03  0.00000000000E+00 0.  1.
         11    1    4    4    0    0  0.95424327215E+01 -0.11030609301E+03  0.20651637297E+03  0.23432350390E+03  0.00000000000E+00 0. -1.
</event>
<event>
 8    1  0.6615242E-009  0.1217382E+03  0.7561462E-02  0.1240257E+00
          1   -1    0    0  501    0  0.00000000000E+00  0.00000000000E+00  0.37412332706E+02  0.37412332706E+02  0.00000000000E+00 0. -1.
         -1   -1    0    0    0  501 -0.00000000000E+00 -0.00000000000E+00 -0.43377627668E+03  0.43377627668E+03  0.00000000000E+00 0.  1.
         25    2    1    2    0    0 -0.11154382596E+02 -0.62893659730E+02 -0.25955701567E+03  0.29512273494E+03  0.12509017391E+03 0.  0.
         23    2    1    2    0    0  0.11154382596E+02  0.62893659730E+02 -0.13680692830E+03  0.17606587444E+03  0.90570546137E+02 0.  0.
          5    1    3    3  502    0  0.17621794395E+02  0.30677506522E+02 -0.34192871577E+02  0.49378759713E+02  0.41800000000E+01 0. -1.
         -5    1    3    3    0  502 -0.28776176991E+02 -0.93571166252E+02 -0.22536414410E+03  0.24574397523E+03  0.41800000000E+01 0. -1.
        -11    1    4    4    0    0  0.33294702093E+02  0.76810146145E+02 -0.93731869012E+02  0.12567417796E+03  0.00000000000E+00 0.  1.
         11    1    4    4    0    0 -0.22140319497E+02 -0.13916486415E+02 -0.43075059285E+02  0.50391696479E+02  0.00000000000E+00 0. -1.
</event>
<event>
 8    1  0.6615242E-009  0.1165114E+03  0.7561462E-02  0.1248966E+00
         -3   -1    0    0    0  501 -0.00000000000E+00  0.00000000000E+00  0.30767024210E+02  0.30767024210E+02  0.00000000000E+00 0.  1.
          3   -1    0    0  501    0  0.00000000000E+00 -0.00000000000E+00 -0.49639474120E+03  0.49639474120E+03  0.00000000000E+00 0. -1.
         25    2    1    2    0    0 -0.17835918101E+02  0.55450278131E+02 -0.23544097074E+03  0.27289813454E+03  0.12509231715E+03 0.  0.
         23    2    1    2    0    0  0.17835918101E+02 -0.55450278131E+02 -0.23018674625E+03  0.25426363088E+03  0.90946151745E+02 0.  0.
          5    1    3    3  502    0 -0.37903416669E+02 -0.22935896407E+02 -0.14403433426E+03  0.15075173692E+03  0.41800000000E+01 0. -1.
         -5    1    3    3    0  502  0.20067498569E+02  0.78386174538E+02 -0.91406636481E+02  0.12214639761E+03  0.41800000000E+01 0. -1.
        -11    1    4    4    0    0  0.54201386847E+02 -0.23433761343E+02 -0.11418904643E+03  0.12855376241E+03  0.00000000000E+00 0.  1.
         11    1    4    4    0    0 -0.36365468746E+02 -0.32016516788E+02 -0.11599769982E+03  0.12570986846E+03  0.00000000000E+00 0. -1.
</event>
<event>
 8    1  0.6615242E-009  0.9353869E+02  0.7561462E-02  0.1294502E+00
         -1   -1    0    0    0  501 -0.00000000000E+00  0.00000000000E+00  0.57726885144E+02  0.57726885144E+02  0.00000000000E+00 0.  1.
          1   -1    0    0  501    0  0.00000000000E+00 -0.00000000000E+00 -0.26116671100E+03  0.26116671100E+03  0.00000000000E+00 0. -1.
         25    2    1    2    0    0  0.17708382413E+02 -0.17589283248E+02 -0.47508014253E+02  0.13611596048E+03  0.12509026176E+03 0.  0.
         23    2    1    2    0    0 -0.17708382413E+02  0.17589283248E+02 -0.15593181160E+03  0.18277763566E+03  0.92032410247E+02 0.  0.
          5    1    3    3  502    0  0.62308455669E+02 -0.35105348808E+01 -0.60889385342E+02  0.87290647554E+02  0.41800000000E+01 0.  1.
         -5    1    3    3    0  502 -0.44600073257E+02 -0.14078748367E+02  0.13381371090E+02  0.48825312926E+02  0.41800000000E+01 0.  1.
        -11    1    4    4    0    0 -0.16475794421E+02  0.46141934099E+02 -0.14345954746E+03  0.15159542092E+03  0.00000000000E+00 0. -1.
         11    1    4    4    0    0 -0.12325879918E+01 -0.28552650852E+02 -0.12472264141E+02  0.31182214748E+02  0.00000000000E+00 0.  1.
</event>
<event>
 8    1  0.6615242E-009  0.1412866E+03  0.7561462E-02  0.1211608E+00
         -2   -1    0    0    0  501 -0.00000000000E+00  0.00000000000E+00  0.54997539079E+02  0.54997539079E+02  0.00000000000E+00 0. -1.
          2   -1    0    0  501    0  0.00000000000E+00 -0.00000000000E+00 -0.42932229779E+03  0.42932229779E+03  0.00000000000E+00 0.  1.
         25    2    1    2    0    0 -0.10683937311E+03  0.75360153820E+01 -0.23226456245E+03  0.28472768594E+03  0.12510629481E+03 0.  0.
         23    2    1    2    0    0  0.10683937311E+03 -0.75360153820E+01 -0.14206019627E+03  0.19959215093E+03  0.90468139001E+02 0.  0.
          5    1    3    3  502    0 -0.11013457148E+03  0.49163458624E+02 -0.15131789322E+03  0.19354908088E+03  0.41800000000E+01 0.  1.
         -5    1    3    3    0  502  0.32951983770E+01 -0.41627443242E+02 -0.80946669223E+02  0.91178605065E+02  0.41800000000E+01 0.  1.
        -11    1    4    4    0    0  0.15887690766E+02  0.19393256380E+02  0.40470397533E+01  0.25394795563E+02  0.00000000000E+00 0. -1.
         11    1    4    4    0    0  0.90951682342E+02 -0.26929271762E+02 -0.14610723602E+03  0.17419735536E+03  0.00000000000E+00 0.  1.
</event>
<event>
 8    1  0.6615242E-009  0.1146833E+03  0.7561462E-02  0.1252135E+00
         -2   -1    0    0    0  501 -0.00000000000E+00  0.00000000000E+00  0.29376378174E+02  0.29376378174E+02  0.00000000000E+00 0. -1.
          2   -1    0    0  501    0  0.00000000000E+00 -0.00000000000E+00 -0.46472588685E+03  0.46472588685E+03  0.00000000000E+00 0.  1.
         25    2    1    2    0    0  0.36636830253E+02 -0.41222456573E+01 -0.26345598842E+03  0.29396600137E+03  0.12509077459E+03 0.  0.
         23    2    1    2    0    0 -0.36636830253E+02  0.41222456573E+01 -0.17189352026E+03  0.20013626365E+03  0.95644610316E+02 0.  0.
          5    1    3    3  502    0  0.56568438430E+02 -0.52892281491E+02 -0.15760187707E+03  0.17565137552E+03  0.41800000000E+01 0.  1.
         -5    1    3    3    0  502 -0.19931608177E+02  0.48770035834E+02 -0.10585411135E+03  0.11831462584E+03  0.41800000000E+01 0.  1.
        -11    1    4    4    0    0  0.29660167547E+02  0.12397863837E+02 -0.82441842583E+02  0.88487795628E+02  0.00000000000E+00 0.  1.
         11    1    4    4    0    0 -0.66296997800E+02 -0.82756181799E+01 -0.89451677672E+02  0.11164846802E+03  0.00000000000E+00 0. -1.
</event>
<event>
 8    1  0.6615242E-009  0.7639326E+02  0.7561462E-02  0.1339610E+00
          1   -1    0    0  501    0  0.00000000000E+00  0.00000000000E+00  0.11876949797E+03  0.11876949797E+03  0.00000000000E+00 0. -1.
         -1   -1    0    0    0  501 -0.00000000000E+00 -0.00000000000E+00 -0.11589055391E+03  0.11589055391E+03  0.00000000000E+00 0.  1.
         25    2    1    2    0    0 -0.40466249760E+02 -0.43350177211E+01  0.27752611985E+02  0.13444586775E+03  0.12509665917E+03 0.  0.
         23    2    1    2    0    0  0.40466249760E+02  0.43350177211E+01 -0.24873667934E+02  0.10021418413E+03  0.88135541044E+02 0.  0.
          5    1    3    3  502    0 -0.33765528837E+02  0.17659560147E+02  0.73600932619E+02  0.82985183525E+02  0.41800000000E+01 0.  1.
         -5    1    3    3    0  502 -0.67007209231E+01 -0.21994577868E+02 -0.45848320634E+02  0.51460684230E+02  0.41800000000E+01 0.  1.
        -11    1    4    4    0    0  0.96579766758E+01 -0.37728237143E+02  0.63231286664E+01  0.39454763306E+02  0.00000000000E+00 0. -1.
         11    1    4    4    0    0  0.30808273084E+02  0.42063254864E+02 -0.31196796601E+02  0.60759420820E+02  0.00000000000E+00 0.  1.
</event>
<event>
 8    1  0.6615242E-009  0.8218121E+02  0.7561462E-02  0.1322973E+00
         -2   -1    0    0    0  501 -0.00000000000E+00  0.00000000000E+00  0.79952129897E+02  0.79952129897E+02  0.00000000000E+00 0.  1.
          2   -1    0    0  501    0  0.00000000000E+00 -0.00000000000E+00 -0.17048408687E+03  0.17048408687E+03  0.00000000000E+00 0. -1.
         25    2    1    2    0    0 -0.32090073682E+02 -0.83943432290E+01 -0.13440713375E+02  0.13011099721E+03  0.12509189019E+03 0.  0.
         23    2    1    2    0    0  0.32090073682E+02  0.83943432290E+01 -0.77091243601E+02  0.12032521956E+03  0.86225638850E+02 0.  0.
          5    1    3    3  502    0  0.76329240855E+01 -0.57896060684E+02 -0.27941569615E+02  0.64872329119E+02  0.41800000000E+01 0. -1.
         -5    1    3    3    0  502 -0.39722997767E+02  0.49501717455E+02  0.14500856241E+02  0.65238668091E+02  0.41800000000E+01 0. -1.
        -11    1    4    4    0    0  0.17295346357E+02  0.17687350744E+02 -0.93281327622E+02  0.96505841611E+02  0.00000000000E+00 0. -1.
         11    1    4    4    0    0  0.14794727324E+02 -0.92930075152E+01  0.16190084021E+02  0.23819377950E+02  0.00000000000E+00 0.  1.
</event>
<event>
 8    1  0.6615242E-009  0.1589806E+03  0.7561462E-02  0.1189852E+00
         -4   -1    0    0    0  501 -0.00000000000E+00  0.00000000000E+00  0.79037668118E+03  0.79037668118E+03  0.00000000000E+00 0. -1.
          4   -1    0    0  501    0  0.00000000000E+00 -0.00000000000E+00 -0.38597047874E+02  0.38597047874E+02  0.00000000000E+00 0.  1.
         25    2    1    2    0    0 -0.11033837025E+03  0.71499201841E+02  0.48432310617E+03  0.51720794496E+03  0.12509394606E+03 0.  0.
         23    2    1    2    0    0  0.11033837025E+03 -0.71499201841E+02  0.26745652713E+03  0.31176578409E+03  0.91532608459E+02 0.  0.
          5    1    3    3  502    0 -0.93803822997E+02 -0.12972644183E+02  0.23416678284E+03  0.25262422943E+03  0.41800000000E+01 0.  1.
         -5    1    3    3    0  502 -0.16534547258E+02  0.84471846024E+02  0.25015632333E+03  0.26458371553E+03  0.41800000000E+01 0.  1.
        -11    1    4    4    0    0  0.80950721499E+02 -0.70888606625E+02  0.11903005271E+03  0.16045674591E+03  0.00000000000E+00 0.  1.
         11    1    4    4    0    0  0.29387648756E+02 -0.61059521546E+00  0.14842647442E+03  0.15130903818E+03  0.00000000000E+00 0. -1.
</event>
<event>
 8    1  0.6615242E-009  0.1718953E+03  0.7561462E-02  0.1175886E+00
          1   -1    0    0  501    0  0.00000000000E+00  0.00000000000E+00  0.11630966725E+04  0.11630966725E+04  0.00000000000E+00 0. -1.
         -1   -1    0    0    0  501 -0.00000000000E+00 -0.00000000000E+00 -0.30611289437E+02  0.30611289437E+02  0.00000000000E+00 0.  1.
         25    2    1    2    0    0  0.13460782669E+03 -0.64067040570E+02  0.69197096818E+03  0.71881527217E+03  0.12509085502E+03 0.  0.
         23    2    1    2    0    0 -0.13460782669E+03  0.64067040570E+02  0.44051441490E+03  0.47489268979E+03  0.96157497777E+02 0.  0.
          5    1    3    3  502    0  0.48860997086E+02  0.28891347157E+02  0.34129586032E+03  0.34600931151E+03  0.41800000000E+01 0. -1.
         -5    1    3    3    0  502  0.85746829606E+02 -0.92958387727E+02  0.35067510785E+03  0.37280596066E+03  0.41800000000E+01 0. -1.
        -11    1    4    4    0    0 -0.84559804747E+01 -0.10743302059E+02  0.37738385706E+01  0.14183229621E+02  0.00000000000E+00 0.  1.
         11    1    4    4    0    0 -0.12615184622E+03  0.74810342630E+02  0.43674057633E+03  0.46070946016E+03  0.00000000000E+00 0. -1.
</event>
<event>
 8    1  0.6615242E-009  0.9734893E+02  0.7561462E-02  0.1285972E+00
         -2   -1    0    0    0  501 -0.00000000000E+00  0.00000000000E+00  0.20859560292E+02  0.20859560292E+02  0.00000000000E+00 0. -1.
          2   -1    0    0  501    0  0.00000000000E+00 -0.00000000000E+00 -0.14371112377E+04  0.14371112377E+04  0.00000000000E+00 0.  1.
         25    2    1    2    0    0 -0.27396511124E+02  0.54628108557E+02 -0.12558600022E+04  0.12635533276E+04  0.12509143607E+03 0.  0.
         23    2    1    2    0    0  0.27396511124E+02 -0.54628108557E+02 -0.16039167523E+03  0.19441747046E+03  0.91311906515E+02 0.  0.
          5    1    3    3  502    0 -0.69934798597E+02  0.10453899433E+02 -0.86431224256E+03  0.86721005824E+03  0.41800000000E+01 0.  1.
         -5    1    3    3    0  502  0.42538287473E+02  0.44174209124E+02 -0.39154775965E+03  0.39634326932E+03  0.41800000000E+01 0.  1.
        -11    1    4    4    0    0  0.12868074912E+02 -0.12948063118E+02  0.82952786179E+01  0.20051217863E+02  0.00000000000E+00 0. -1.
         11    1    4    4    0    0  0.14528436212E+02 -0.41680045438E+02 -0.16868695385E+03  0.17436625260E+03  0.00000000000E+00 0.  1.
</event>
<event>
 8    1  0.6615242E-009  0.8253671E+02  0.7561462E-02  0.1322003E+00
          1   -1    0    0  501    0  0.00000000000E+00  0.00000000000E+00  0.13759635764E+02  0.13759635764E+02  0.00000000000E+00 0. -1.
         -1   -1    0    0    0  501 -0.00000000000E+00 -0.00000000000E+00 -0.82767825209E+03  0.82767825209E+03  0.00000000000E+00 0.  1.
         25    2    1    2    0    0 -0.85509517255E+01 -0.18097702486E+02 -0.62449635631E+03  0.63721570382E+03  0.12509000177E+03 0.  0.
         23    2    1    2    0    0  0.85509517255E+01  0.18097702486E+02 -0.18942226002E+03  0.20422218403E+03  0.73656379563E+02 0.  0.
          5    1    3    3  502    0  0.48572608227E+02  0.12165610237E+02 -0.14711906283E+03  0.15546315123E+03  0.41800000000E+01 0.  1.
         -5    1    3    3    0  502 -0.57123559952E+02 -0.30263312722E+02 -0.47737729348E+03  0.48175255259E+03  0.41800000000E+01 0.  1.
        -11    1    4    4    0    0 -0.66144664165E+01  0.30029775170E+02 -0.18025432358E+03  0.18285830507E+03  0.00000000000E+00 0.  1.
         11    1    4    4    0    0  0.15165418142E+02 -0.11932072685E+02 -0.91679364390E+01  0.21363878967E+02  0.00000000000E+00 0. -1.
</event>
<event>
 8    1  0.6615242E-009  0.1912213E+03  0.7561462E-02  0.1157364E+00
         -2   -1    0    0    0  501 -0.00000000000E+00  0.00000000000E+00  0.34450981784E+02  0.34450981784E+02  0.00000000000E+00 0.  1.
          2   -1    0    0  501    0  0.00000000000E+00 -0.00000000000E+00 -0.12570286212E+04  0.12570286212E+04  0.00000000000E+00 0. -1.
         25    2    1    2    0    0 -0.15674582302E+03 -0.27281714990E+02 -0.40120516294E+03  0.44936129459E+03  0.12508575178E+03 0.  0.
         23    2    1    2    0    0  0.15674582302E+03  0.27281714990E+02 -0.82137247646E+03  0.84211830838E+03  0.95900757117E+02 0.  0.
          5    1    3    3  502    0 -0.22862712587E+02 -0.55670325983E+02 -0.80057281435E+02  0.10024235399E+03  0.41800000000E+01 0. -1.
         -5    1    3    3    0  502 -0.13388311043E+03  0.28388610993E+02 -0.32114788151E+03  0.34911894060E+03  0.41800000000E+01 0. -1.
        -11    1    4    4    0    0  0.18080003628E+02  0.42020477908E+02 -0.17552178648E+03  0.18138496251E+03  0.00000000000E+00 0.  1.
         11    1    4    4    0    0  0.13866581939E+03 -0.14738762918E+02 -0.64585068998E+03  0.66073334587E+03  0.00000000000E+00 0. -1.
</event>
<event>
 8    1  0.6615242E-009  0.9746502E+02  0.7561462E-02  0.1285719E+00
         -2   -1    0    0    0  501 -0.00000000000E+00  0.00000000000E+00  0.72991130422E+02  0.72991130422E+02  0.00000000000E+00 0.  1.
          2   -1    0    0  501    0  0.00000000000E+00 -0.00000000000E+00 -0.22933716453E+03  0.22933716453E+03  0.00000000000E+00 0. -1.
         25    2    1    2    0    0  0.50906352275E+02  0.46530543990E+02 -0.10088355089E+03  0.17487638713E+03  0.12509081385E+03 0.  0.
         23    2    1    2    0    0 -0.50906352275E+02 -0.46530543990E+02 -0.55462483217E+02  0.12745190782E+03  0.91713431601E+02 0.  0.
          5    1    3    3  502    0  0.35686369614E+02  0.62382374409E+02 -0.45984819097E+00  0.71991398608E+02  0.41800000000E+01 0.  1.
         -5    1    3    3    0  502  0.15219982660E+02 -0.15851830418E+02 -0.10042370270E+03  0.10288498852E+03  0.41800000000E+01 0.  1.
        -11    1    4    4    0    0 -0.64239891162E+02 -0.55173234684E+02 -0.66862766588E+02  0.10789568572E+03  0.00000000000E+00 0. -1.
         11    1    4    4    0    0  0.13333538887E+02  0.86426906934E+01  0.11400283371E+02  0.19556222095E+02  0.00000000000E+00 0.  1.
</event>
<event>
 8    1  0.6615242E-009  0.1256066E+03  0.7561462E-02  0.1234124E+00
         -4   -1    0    0    0  501 -0.00000000000E+00  0.00000000000E+00  0.28109750240E+02  0.28109750240E+02  0.00000000000E+00 0.  1.
          4   -1    0    0  501    0  0.00000000000E+00 -0.00000000000E+00 -0.61207570698E+03  0.61207570698E+03  0.00000000000E+00 0. -1.
         25    2    1    2    0    0  0.23796097155E+02  0.67111606381E+02 -0.35669546924E+03  0.38464158546E+03  0.12508904645E+03 0.  0.
         23    2    1    2    0    0 -0.23796097155E+02 -0.67111606381E+02 -0.22727048750E+03  0.25554387176E+03  0.92631387514E+02 0.  0.
          5    1    3    3  502    0  0.69901924626E+02  0.67928609327E+02 -0.23610145660E+03  0.25546417604E+03  0.41800000000E+01 0.  1.
         -5    1    3    3    0  502 -0.46105827471E+02 -0.81700294540E+00 -0.12059401264E+03  0.12917740942E+03  0.41800000000E+01 0.  1.
        -11    1    4    4    0    0 -0.53763282125E+02 -0.44961225301E+02 -0.19136612817E+03  0.20379646046E+03  0.00000000000E+00 0. -1.
         11    1    4    4    0    0  0.29967184969E+02 -0.22150381080E+02 -0.35904359332E+02  0.51747411298E+02  0.00000000000E+00 0.  1.
</event>
<event>
 8    1  0.6615242E-009  0.7173218E+02  0.7561462E-02  0.1354300E+00
         -2   -1    0    0    0  501 -0.00000000000E+00  0.00000000000E+00  0.56599684706E+02  0.56599684706E+02  0.00000000000E+00 0. -1.
          2   -1    0    0  501    0  0.00000000000E+00 -0.00000000000E+00 -0.24180361448E+03  0.24180361448E+03  0.00000000000E+00 0.  1.
         25    2    1    2    0    0 -0.35277638077E+02  0.15141443205E+02 -0.11406177239E+03  0.17358578551E+03  0.12509261353E+03 0.  0.
         23    2    1    2    0    0  0.35277638077E+02 -0.15141443205E+02 -0.71142157383E+02  0.12481751367E+03  0.95102208767E+02 0.  0.
          5    1    3    3  502    0 -0.60824709198E+01 -0.94928815490E+01 -0.13102862096E+03  0.13157918970E+03  0.41800000000E+01 0.  1.
         -5    1    3    3    0  502 -0.29195167157E+02  0.24634324754E+02  0.16966848565E+02  0.42006595811E+02  0.41800000000E+01 0.  1.
        -11    1    4    4    0    0  0.52384940303E+02  0.18267150812E+02 -0.67102670518E+02  0.87066866028E+02  0.00000000000E+00 0.  1.
         11    1    4    4    0    0 -0.17107302226E+02 -0.33408594017E+02 -0.40394868649E+01  0.37750647647E+02  0.00000000000E+00 0. -1.
</event>
<event>
 8    1  0.6615242E-009  0.1767681E+03  0.7561462E-02  0.1170968E+00
          1   -1    0    0  501    0  0.00000000000E+00  0.00000000000E+00  0.12692191413E+04  0.12692191413E+04  0.00000000000E+00 0. -1.
         -1   -1    0    0    0  501 -0.00000000000E+00 -0.00000000000E+00 -0.34044609246E+02  0.34044609246E+02  0.00000000000E+00 0.  1.
         25    2    1    2    0    0  0.39945242629E+02 -0.16708250062E+03  0.51312919544E+03  0.55539267770E+03  0.12508905153E+03 0.  0.
         23    2    1    2    0    0 -0.39945242629E+02  0.16708250062E+03  0.72204533658E+03  0.74787107281E+03  0.91921102287E+02 0.  0.
          5    1    3    3  502    0  0.49123558334E+01 -0.67631501738E+02  0.61634043254E+02  0.91729923989E+02  0.41800000000E+01 0.  1.
         -5    1    3    3    0  502  0.35032886796E+02 -0.99450998878E+02  0.45149515218E+03  0.46366275371E+03  0.41800000000E+01 0.  1.
        -11    1    4    4    0    0  0.39546406252E+01  0.98913616736E+02  0.53387688861E+03  0.54297704827E+03  0.00000000000E+00 0.  1.
         11    1    4    4    0    0 -0.43899883255E+02  0.68168883880E+02  0.18816844797E+03  0.20489402454E+03  0.00000000000E+00 0. -1.
</event>
<event>
 8    1  0.6615242E-009  0.1062241E+03  0.7561462E-02  0.1267726E+00
         -1   -1    0    0    0  501 -0.00000000000E+00  0.00000000000E+00  0.11237413497E+03  0.11237413497E+03  0.00000000000E+00 0.  1.
          1   -1    0    0  501    0  0.00000000000E+00 -0.00000000000E+00 -0.12756854921E+03  0.12756854921E+03  0.00000000000E+00 0. -1.
         25    2    1    2    0    0  0.11706229767E+02  0.50219517487E+02 -0.19661020329E+02  0.13673067518E+03  0.12509870528E+03 0.  0.
         23    2    1    2    0    0 -0.11706229767E+02 -0.50219517487E+02  0.44666060848E+01  0.10321200900E+03  0.89295758467E+02 0.  0.
          5    1    3    3  502    0 -0.22748582951E+02  0.77908026556E+02 -0.36704194037E+02  0.89173027806E+02  0.41800000000E+01 0. -1.
         -5    1    3    3    0  502  0.34454812719E+02 -0.27688509069E+02  0.17043173707E+02  0.47557647376E+02  0.41800000000E+01 0. -1.
        -11    1    4    4    0    0 -0.36767541885E+02 -0.49561414604E+02  0.28955660257E+02  0.68166092853E+02  0.00000000000E+00 0.  1.
         11    1    4    4    0    0  0.25061312118E+02 -0.65810288235E+00 -0.24489054172E+02  0.35045916149E+02  0.00000000000E+00 0. -1.
</event>
<event>
 8    1  0.6615242E-009  0.1843745E+03  0.7561462E-02  0.1163635E+00
         -2   -1    0    0    0  501 -0.00000000000E+00  0.00000000000E+00  0.44781061231E+02  0.44781061231E+02  0.00000000000E+00 0. -1.
          2   -1    0    0  501    0  0.00000000000E+00 -0.00000000000E+00 -0.79226701206E+03  0.79226701206E+03  0.00000000000E+00 0.  1.
         25    2    1    2    0    0  0.10224251488E+03 -0.11568321420E+03 -0.41736482678E+03  0.46225190605E+03  0.12508912071E+03 0.  0.
         23    2    1    2    0    0 -0.10224251488E+03  0.11568321420E+03 -0.33012112406E+03  0.37479616724E+03  0.87498985919E+02 0.  0.
          5    1    3    3  502    0  0.83145715290E+02 -0.47639110790E+01 -0.21586743223E+03  0.23141332183E+03  0.41800000000E+01 0.  1.
         -5    1    3    3    0  502  0.19096799589E+02 -0.11091930312E+03 -0.20149739454E+03  0.23083858422E+03  0.41800000000E+01 0.  1.
        -11    1    4    4    0    0 -0.90449693360E+02  0.44911997922E+02 -0.14915445219E+03  0.18012574829E+03  0.00000000000E+00 0. -1.
         11    1    4    4    0    0 -0.11792821519E+02  0.70771216274E+02 -0.18096667186E+03  0.19467041896E+03  0.00000000000E+00 0.  1.
</event>
<event>
 7    1  0.6615242E-009  0.7889127E+02  0.7561462E-02  0.1332228E+00
          1   -1    0    0  501    0  0.00000000000E+00  0.00000000000E+00  0.66755101327E+03  0.66755101327E+03  0.00000000000E+00 0. -1.
         -1   -1    0    0    0  501 -0.00000000000E+00 -0.00000000000E+00 -0.22516928906E+02  0.22516928906E+02  0.00000000000E+00 0.  1.
         23    2    1    2    0    0 -0.18349606537E+02 -0.45559599975E+02  0.36655761899E+03  0.38090459123E+03  0.91167068468E+02 0.  0.
          5    1    1    2  502    0  0.13700074203E+02  0.46161255456E+02  0.22853363894E+02  0.53463091752E+02  0.41800000000E+01 0. -1.
         -5    1    1    2    0  502  0.46495323342E+01 -0.60165548051E+00  0.25562310148E+03  0.25570025919E+03  0.41800000000E+01 0. -1.
        -11    1    3    3    0    0 -0.14180532336E+02 -0.73532366437E+02  0.25076741456E+03  0.26171051301E+03  0.00000000000E+00 0.  1.
         11    1    3    3    0    0 -0.41690742013E+01  0.27972766462E+02  0.11579020443E+03  0.11919407823E+03  0.00000000000E+00 0. -1.
</event>
<event>
 8    1  0.6615242E-009  0.1102558E+03  0.7561462E-02  0.1260097E+00
          1   -1    0    0  501    0  0.00000000000E+00  0.00000000000E+00  0.10438732730E+03  0.10438732730E+03  0.00000000000E+00 0. -1.
         -1   -1    0    0    0  501 -0.00000000000E+00 -0.00000000000E+00 -0.20029577122E+03  0.20029577122E+03  0.00000000000E+00 0.  1.
         25    2    1    2    0    0  0.77914955824E+02 -0.26831939920E+02 -0.10195978538E+03  0.18118931646E+03  0.12507228799E+03 0.  0.
         23    2    1    2    0    0 -0.77914955824E+02  0.26831939920E+02  0.60513414484E+01  0.12349378206E+03  0.91779094206E+02 0.  0.
          5    1    3    3  502    0  0.81091678238E+02 -0.54324371935E+02 -0.27274457407E+02  0.10143158331E+03  0.41800000000E+01 0.  1.
         -5    1    3    3    0  502 -0.31767224139E+01  0.27492432016E+02 -0.74685327969E+02  0.79757733151E+02  0.41800000000E+01 0.  1.
        -11    1    4    4    0    0 -0.23703061187E+02  0.32602606069E+02 -0.36466731438E+02  0.54356117723E+02  0.00000000000E+00 0.  1.
         11    1    4    4    0    0 -0.54211894637E+02 -0.57706661497E+01  0.42518072887E+02  0.69137664337E+02  0.00000000000E+00 0. -1.
</event>
<event>
 8    1  0.6615242E-009  0.9683507E+02  0.7561462E-02  0.1287096E+00
         -2   -1    0    0    0  501 -0.00000000000E+00  0.00000000000E+00  0.55196995991E+03  0.55196995991E+03  0.00000000000E+00 0.  1.
          2   -1    0    0  501    0  0.00000000000E+00 -0.00000000000E+00 -0.21778493804E+02  0.21778493804E+02  0.00000000000E+00 0. -1.
         25    2    1    2    0    0 -0.71902426008E+01  0.13745568542E+02  0.31184330546E+03  0.33635090457E+03  0.12508014871E+03 0.  0.
         23    2    1    2    0    0  0.71902426008E+01 -0.13745568542E+02  0.21834816065E+03  0.23739754915E+03  0.91875115446E+02 0.  0.
          5    1    3    3  502    0  0.43900992050E+02  0.20998509994E+02  0.25428773367E+03  0.25893620531E+03  0.41800000000E+01 0.  1.
         -5    1    3    3    0  502 -0.51091234651E+02 -0.72529414516E+01  0.57555571793E+02  0.77414699265E+02  0.41800000000E+01 0.  1.
        -11    1    4    4    0    0 -0.40910780567E+02  0.54340724968E+01  0.90848375954E+02  0.99783007191E+02  0.00000000000E+00 0. -1.
         11    1    4    4    0    0  0.48101023168E+02 -0.19179641039E+02  0.12749978469E+03  0.13761454195E+03  0.00000000000E+00 0.  1.
</event>
<event>
 8    1  0.6615242E-009  0.1069133E+03  0.7561462E-02  0.1266395E+00
          1   -1    0    0  501    0  0.00000000000E+00  0.00000000000E+00  0.96454782218E+03  0.96454782218E+03  0.00000000000E+00 0. -1.
         -1   -1    0    0    0  501 -0.00000000000E+00 -0.00000000000E+00 -0.15618237119E+02  0.15618237119E+02  0.00000000000E+00 0.  1.
         25    2    1    2    0    0 -0.40657218477E+02 -0.19988652366E+02  0.67877821091E+03  0.69169447358E+03  0.12509528182E+03 0.  0.
         23    2    1    2    0    0  0.40657218477E+02  0.19988652366E+02  0.27015137414E+03  0.28847158571E+03  0.90451838980E+02 0.  0.
          5    1    3    3  502    0  0.36893624039E+02 -0.28999424690E+02  0.37783954669E+03  0.38076541540E+03  0.41800000000E+01 0. -1.
         -5    1    3    3    0  502 -0.77550842516E+02  0.90107723236E+01  0.30093866423E+03  0.31092905818E+03  0.41800000000E+01 0. -1.
        -11    1    4    4    0    0  0.57121612148E+02 -0.63449663527E+01  0.98565760722E+02  0.11409796825E+03  0.00000000000E+00 0.  1.
         11    1    4    4    0    0 -0.16464393670E+02  0.26333618719E+02  0.17158561342E+03  0.17437361746E+03  0.00000000000E+00 0. -1.
</event>
<event>
 8    1  0.6615242E-009  0.1065716E+03  0.7561462E-02  0.1267054E+00
          2   -1    0    0  501    0  0.00000000000E+00  0.00000000000E+00  0.85864342270E+03  0.85864342270E+03  0.00000000000E+00 0. -1.
         -2   -1    0    0    0  501 -0.00000000000E+00 -0.00000000000E+00 -0.15130284390E+02  0.15130284390E+02  0.00000000000E+00 0.  1.
         25    2    1    2    0    0 -0.21692253980E+02  0.83686678429E+00  0.57855013127E+03  0.59231654437E+03  0.12508948841E+03 0.  0.
         23    2    1    2    0    0  0.21692253980E+02 -0.83686678429E+00  0.26496300704E+03  0.28145716272E+03  0.92420155371E+02 0.  0.
          5    1    3    3  502    0  0.96230514273E+01 -0.54837309834E+02  0.36921731094E+03  0.37341482130E+03  0.41800000000E+01 0.  1.
         -5    1    3    3    0  502 -0.31315305407E+02  0.55674176618E+02  0.20933282033E+03  0.21890172307E+03  0.41800000000E+01 0.  1.
        -11    1    4    4    0    0  0.19895316147E+02  0.44071148088E+02  0.11114791646E+03  0.12121035035E+03  0.00000000000E+00 0.  1.
         11    1    4    4    0    0  0.17969378330E+01 -0.44908014872E+02  0.15381509058E+03  0.16024681237E+03  0.00000000000E+00 0. -1.
</event>
<event>
 8    1  0.6615242E-009  0.1188860E+03  0.7561462E-02  0.1244946E+00
         -2   -1    0    0    0  501 -0.00000000000E+00  0.00000000000E+00  0.72863726100E+02  0.72863726100E+02  0.00000000000E+00 0.  1.
          2   -1    0    0  501    0  0.00000000000E+00 -0.00000000000E+00 -0.23243904930E+03  0.23243904930E+03  0.00000000000E+00 0. -1.
         25    2    1    2    0    0 -0.60989694289E+02 -0.36548033413E+02 -0.98925798146E+02  0.17461154688E+03  0.12508947681E+03 0.  0.
         23    2    1    2    0    0  0.60989694289E+02  0.36548033413E+02 -0.60649525059E+02  0.13069122852E+03  0.91358255058E+02 0.  0.
          5    1    3    3  502    0 -0.42927165462E+02 -0.82206035475E+02 -0.77273300910E+02  0.12078579899E+03  0.41800000000E+01 0.  1.
         -5    1    3    3    0  502 -0.18062528827E+02  0.45658002062E+02 -0.21652497236E+02  0.53825747895E+02  0.41800000000E+01 0.  1.
        -11    1    4    4    0    0  0.60940647766E+02  0.18569543392E+01 -0.71854685116E+02  0.94235378721E+02  0.00000000000E+00 0. -1.
         11    1    4    4    0    0  0.49046523003E-01  0.34691079074E+02  0.11205160058E+02  0.36455849802E+02  0.00000000000E+00 0.  1.
</event>
<event>
 8    1  0.6615242E-009  0.9688114E+02  0.7561462E-02  0.1286995E+00
          2   -1    0    0  501    0  0.00000000000E+00  0.00000000000E+00  0.10394009100E+03  0.10394009100E+03  0.00000000000E+00 0. -1.
         -2   -1    0    0    0  501 -0.00000000000E+00 -0.00000000000E+00 -0.18599164009E+03  0.18599164009E+03  0.00000000000E+00 0.  1.
         25    2    1    2    0    0 -0.70728528338E+00 -0.61824060721E+01 -0.13528791173E+03  0.18436085002E+03  0.12508949422E+03 0.  0.
         23    2    1    2    0    0  0.70728528338E+00  0.61824060721E+01  0.53236362643E+02  0.10557088107E+03  0.90952615278E+02 0.  0.
          5    1    3    3  502    0 -0.21546981377E+02 -0.53927994414E+02 -0.27122050526E+02  0.64230670343E+02  0.41800000000E+01 0.  1.
         -5    1    3    3    0  502  0.20839696094E+02  0.47745588342E+02 -0.10816586121E+03  0.12013017968E+03  0.41800000000E+01 0.  1.
        -11    1    4    4    0    0  0.10343953493E+02  0.43510937020E+02  0.49694548187E+02  0.66856167507E+02  0.00000000000E+00 0. -1.
         11    1    4    4    0    0 -0.96366682099E+01 -0.37328530948E+02  0.35418144564E+01  0.38714713567E+02  0.00000000000E+00 0.  1.
</event>
<event>
 8    1  0.6615242E-009  0.9342520E+02  0.7561462E-02  0.1294763E+00
         -3   -1    0    0    0  501 -0.00000000000E+00  0.00000000000E+00  0.10343419276E+03  0.10343419276E+03  0.00000000000E+00 0.  1.
          3   -1    0    0  501    0  0.00000000000E+00 -0.00000000000E+00 -0.18723340678E+03  0.18723340678E+03  0.00000000000E+00 0. -1.
         25    2    1    2    0    0  0.90540440051E+01  0.19556580407E+01  0.44613097195E+02  0.13312983088E+03  0.12508966032E+03 0.  0.
         23    2    1    2    0    0 -0.90540440051E+01 -0.19556580407E+01 -0.12841231121E+03  0.15753776866E+03  0.90788912167E+02 0.  0.
          5    1    3    3  502    0 -0.53994474252E+02  0.51703450506E+01 -0.21663628444E+01  0.54445396919E+02  0.41800000000E+01 0.  1.
         -5    1    3    3    0  502  0.63048518257E+02 -0.32146870099E+01  0.46779460039E+02  0.78684433966E+02  0.41800000000E+01 0.  1.
        -11    1    4    4    0    0 -0.27449300188E+02  0.24610285710E+02 -0.15325391684E+02  0.39924902928E+02  0.00000000000E+00 0.  1.
         11    1    4    4    0    0  0.18395256183E+02 -0.26565943750E+02 -0.11308691953E+03  0.11761286573E+03  0.00000000000E+00 0. -1.
</event>
<event>
 8    1  0.6615242E-009  0.7956915E+02  0.7561462E-02  0.1330279E+00
         -1   -1    0    0    0  501 -0.00000000000E+00  0.00000000000E+00  0.16777349344E+03  0.16777349344E+03  0.00000000000E+00 0.  1.
          1   -1    0    0  501    0  0.00000000000E+00 -0.00000000000E+00 -0.95541341149E+02  0.95541341149E+02  0.00000000000E+00 0. -1.
         25    2    1    2    0    0  0.39950576931E+02 -0.55804595889E+02  0.47938028277E+02  0.15051883886E+03  0.12509062625E+03 0.  0.
         23    2    1    2    0    0 -0.39950576931E+02  0.55804595889E+02  0.24294124018E+02  0.11279599574E+03  0.86154110018E+02 0.  0.
          5    1    3    3  502    0  0.28385246118E+02 -0.27708906435E+01 -0.38664137127E+02  0.48226423586E+02  0.41800000000E+01 0.  1.
         -5    1    3    3    0  502  0.11565330813E+02 -0.53033705245E+02  0.86602165404E+02  0.10229241527E+03  0.41800000000E+01 0.  1.
        -11    1    4    4    0    0 -0.26200110946E+02  0.99917543962E+01  0.50863041608E+02  0.58080375094E+02  0.00000000000E+00 0.  1.
         11    1    4    4    0    0 -0.13750465985E+02  0.45812841493E+02 -0.26568917590E+02  0.54715620643E+02  0.00000000000E+00 0. -1.
</event>
<event>
 8    1  0.6615242E-009  0.1290996E+03  0.7561462E-02  0.1228798E+00
          1   -1    0    0  501    0  0.00000000000E+00  0.00000000000E+00  0.33069035595E+03  0.33069035595E+03  0.00000000000E+00 0. -1.
         -1   -1    0    0    0  501 -0.00000000000E+00 -0.00000000000E+00 -0.65241309625E+02  0.65241309625E+02  0.00000000000E+00 0.  1.
         25    2    1    2    0    0 -0.11395230239E+02 -0.91093990882E+02  0.95184249538E+02  0.18203229331E+03  0.12509095891E+03 0.  0.
         23    2    1    2    0    0  0.11395230239E+02  0.91093990882E+02  0.17026479679E+03  0.21389937227E+03  0.91295531010E+02 0.  0.
          5    1    3    3  502    0 -0.50138548557E+02  0.58587210314E+01  0.32457079124E+02  0.60159230786E+02  0.41800000000E+01 0.  1.
         -5    1    3    3    0  502  0.38743318318E+02 -0.96952711913E+02  0.62727170415E+02  0.12187306253E+03  0.41800000000E+01 0.  1.
        -11    1    4    4    0    0 -0.16839589867E+02  0.53187008806E+02  0.24993393091E+02  0.61131819790E+02  0.00000000000E+00 0.  1.
         11    1    4    4    0    0  0.28234820106E+02  0.37906982075E+02  0.14527140370E+03  0.15276755248E+03  0.00000000000E+00 0. -1.
</event>
<event>
 8    1  0.6615242E-009  0.1690756E+03  0.7561462E-02  0.1178815E+00
         -4   -1    0    0    0  501 -0.00000000000E+00  0.00000000000E+00  0.71886372251E+02  0.71886372251E+02  0.00000000000E+00 0.  1.
          4   -1    0    0  501    0  0.00000000000E+00 -0.00000000000E+00 -0.54288004501E+03  0.54288004501E+03  0.00000000000E+00 0. -1.
         25    2    1    2    0    0 -0.23172739790E+02  0.14120319454E+03 -0.12038489757E+03  0.22497962899E+03  0.12509193373E+03 0.  0.
         23    2    1    2    0    0  0.23172739790E+02 -0.14120319454E+03 -0.35060877519E+03  0.38978678826E+03  0.92368333581E+02 0.  0.
          5    1    3    3  502    0  0.11768887435E+02  0.15059188317E+03 -0.81440540403E+02  0.17165796227E+03  0.41800000000E+01 0. -1.
         -5    1    3    3    0  502 -0.34941627225E+02 -0.93886886372E+01 -0.38944357165E+02  0.53321666726E+02  0.41800000000E+01 0. -1.
        -11    1    4    4    0    0  0.33898004890E+02 -0.61711617014E+02 -0.25720567147E+03  0.26666862554E+03  0.00000000000E+00 0. -1.
         11    1    4    4    0    0 -0.10725265100E+02 -0.79491577523E+02 -0.93403103719E+02  0.12311816273E+03  0.00000000000E+00 0.  1.
</event>
<event>
 8    1  0.6615242E-009  0.1022244E+03  0.7561462E-02  0.1275687E+00
          2   -1    0    0  501    0  0.00000000000E+00  0.00000000000E+00  0.39221701096E+02  0.39221701096E+02  0.00000000000E+00 0. -1.
         -2   -1    0    0    0  501 -0.00000000000E+00 -0.00000000000E+00 -0.40039636595E+03  0.40039636595E+03  0.00000000000E+00 0.  1.
         25    2    1    2    0    0  0.48526886759E+02 -0.40988597667E+02 -0.20363036664E+03  0.24727732220E+03  0.12508326819E+03 0.  0.
         23    2    1    2    0    0 -0.48526886759E+02  0.40988597667E+02 -0.15754429822E+03  0.19234074485E+03  0.90221019450E+02 0.  0.
          5    1    3    3  502    0  0.89993276813E+02 -0.15445518838E+02 -0.13331130074E+03  0.16163764793E+03  0.41800000000E+01 0.  1.
         -5    1    3    3    0  502 -0.41466390054E+02 -0.25543078829E+02 -0.70319065900E+02  0.85639674270E+02  0.41800000000E+01 0.  1.
        -11    1    4    4    0    0 -0.36113069877E+02  0.35326842924E+02 -0.16782075253E+03  0.17525964917E+03  0.00000000000E+00 0.  1.
         11    1    4    4    0    0 -0.12413816882E+02  0.56617547425E+01  0.10276454313E+02  0.17081095679E+02  0.00000000000E+00 0. -1.
</event>
<event>
 8    1  0.6615242E-009  0.1202843E+03  0.7561462E-02  0.1242629E+00
          2   -1    0    0  501    0  0.00000000000E+00  0.00000000000E+00  0.18682978220E+03  0.18682978220E+03  0.00000000000E+00 0. -1.
         -2   -1    0    0    0  501 -0.00000000000E+00 -0.00000000000E+00 -0.77923782443E+02  0.77923782443E+02  0.00000000000E+00 0.  1.
         25    2    1    2    0    0  0.31855384508E+02 -0.38683018241E+02  0.63383033269E+02  0.14891706910E+03  0.12509093949E+03 0.  0.
         23    2    1    2    0    0 -0.31855384508E+02  0.38683018241E+02  0.45522966490E+02  0.11583649554E+03  0.93992615664E+02 0.  0.
          5    1    3    3  502    0 -0.17340117529E+02  0.38499029377E+02  0.13117062174E+02  0.44411537454E+02  0.41800000000E+01 0.  1.
         -5    1    3    3    0  502  0.49195502037E+02 -0.77182047618E+02  0.50265971095E+02  0.10450553165E+03  0.41800000000E+01 0.  1.
        -11    1    4    4    0    0  0.11994630546E+02  0.57544308955E+02  0.24879178970E+02  0.63829399193E+02  0.00000000000E+00 0.  1.
         11    1    4    4    0    0 -0.43850015054E+02 -0.18861290715E+02  0.20643787520E+02  0.52007096350E+02  0.00000000000E+00 0. -1.
</event>
<event>
 8    1  0.6615242E-009  0.1136996E+03  0.7561462E-02  0.1253868E+00
          1   -1    0    0  501    0  0.00000000000E+00  0.00000000000E+00  0.36934519061E+03  0.36934519061E+03  0.00000000000E+00 0. -1.
         -1   -1    0    0    0  501 -0.00000000000E+00 -0.00000000000E+00 -0.52675490372E+02  0.52675490372E+02  0.00000000000E+00 0.  1.
         25    2    1    2    0    0  0.34553137446E+02 -0.29583925543E+02  0.27864980686E+03  0.30881514165E+03  0.12510774912E+03 0.  0.
         23    2    1    2    0    0 -0.34553137446E+02  0.29583925543E+02  0.38019893372E+02  0.11320553933E+03  0.96440934693E+02 0.  0.
          5    1    3    3  502    0 -0.18605338819E+02  0.34619745468E+02  0.15263335910E+03  0.15766768889E+03  0.41800000000E+01 0.  1.
         -5    1    3    3    0  502  0.53158476265E+02 -0.64203671011E+02  0.12601644776E+03  0.15114745276E+03  0.41800000000E+01 0.  1.
        -11    1    4    4    0    0  0.71392016688E+01  0.55083316593E+02  0.87224131029E+01  0.56224731726E+02  0.00000000000E+00 0.  1.
         11    1    4    4    0    0 -0.41692339115E+02 -0.25499391050E+02  0.29297480269E+02  0.56980807601E+02  0.00000000000E+00 0. -1.
</event>
<event>
 8    1  0.6615242E-009  0.1250462E+03  0.7561462E-02  0.1234997E+00
          2   -1    0    0  501    0  0.00000000000E+00  0.00000000000E+00  0.35943184027E+03  0.35943184027E+03  0.00000000000E+00 0. -1.
         -2   -1    0    0    0  501 -0.00000000000E+00 -0.00000000000E+00 -0.52533167204E+02  0.52533167204E+02  0.00000000000E+00 0.  1.
         25    2    1    2    0    0 -0.78858151715E+02  0.23892270307E+02  0.19722410490E+03  0.24765683671E+03  0.12508841890E+03 0.  0.
         23    2    1    2    0    0  0.78858151715E+02 -0.23892270307E+02  0.10967456817E+03  0.16430817077E+03  0.90439014842E+02 0.  0.
          5    1    3    3  502    0  0.81962234704E+01  0.47550151131E+02  0.11788916505E+03  0.12745007881E+03  0.41800000000E+01 0.  1.
         -5    1    3    3    0  502 -0.87054375186E+02 -0.23657880823E+02  0.79334939845E+02  0.12020675790E+03  0.41800000000E+01 0.  1.
        -11    1    4    4    0    0 -0.80946455831E+01  0.14259804496E+02 -0.33031930877E+01  0.16726517747E+02  0.00000000000E+00 0.  1.
         11    1    4    4    0    0  0.86952797299E+02 -0.38152074803E+02  0.11297776126E+03  0.14758165302E+03  0.00000000000E+00 0. -1.
</event>
<event>
 8    1  0.6615242E-009  0.9088349E+02  0.7561462E-02  0.1300726E+00
         -1   -1    0    0    0  501 -0.00000000000E+00  0.00000000000E+00  0.50894799288E+02  0.50894799288E+02  0.00000000000E+00 0.  1.
          1   -1    0    0  501    0  0.00000000000E+00 -0.00000000000E+00 -0.34060903659E+03  0.34060903659E+03  0.00000000000E+00 0. -1.
         25    2    1    2    0    0  0.11862241147E+02 -0.70503484035E+02 -0.13410992658E+03  0.19684088593E+03  0.12509759366E+03 0.  0.
         23    2    1    2    0    0 -0.11862241147E+02  0.70503484035E+02 -0.15560431072E+03  0.19466294995E+03  0.92571640046E+02 0.  0.
          5    1    3    3  502    0 -0.21711142621E+01 -0.37093494217E+02 -0.15177339708E+03  0.15631147594E+03  0.41800000000E+01 0. -1.
         -5    1    3    3    0  502  0.14033355409E+02 -0.33409989818E+02  0.17663470500E+02  0.40529409986E+02  0.41800000000E+01 0. -1.
        -11    1    4    4    0    0 -0.46635261402E+02  0.44683292252E+02 -0.12780587901E+03  0.14319841801E+03  0.00000000000E+00 0. -1.
         11    1    4    4    0    0  0.34773020256E+02  0.25820191784E+02 -0.27798431713E+02  0.51464531934E+02  0.00000000000E+00 0.  1.
</event>
<event>
 8    1  0.6615242E-009  0.1492701E+03  0.7561462E-02  0.1201373E+00
         -1   -1    0    0    0  501 -0.00000000000E+00  0.00000000000E+00  0.18652423736E+02  0.18652423736E+02  0.00000000000E+00 0.  1.
          1   -1    0    0  501    0  0.00000000000E+00 -0.00000000000E+00 -0.18686239354E+04  0.18686239354E+04  0.00000000000E+00 0. -1.
         25    2    1    2    0    0  0.85988942673E+02 -0.73754800092E+02 -0.14956274937E+04  0.15051191227E+04  0.12509238513E+03 0.  0.
         23    2    1    2    0    0 -0.85988942673E+02  0.73754800092E+02 -0.35434401794E+03  0.38215723641E+03  0.87467716852E+02 0.  0.
          5    1    3    3  502    0  0.70466824610E+02  0.15615160228E+02 -0.47638434574E+03  0.48183910579E+03  0.41800000000E+01 0. -1.
         -5    1    3    3    0  502  0.15522118064E+02 -0.89369960320E+02 -0.10192431480E+04  0.10232800169E+04  0.41800000000E+01 0. -1.
        -11    1    4    4    0    0 -0.10032937883E+02  0.56714165389E+02 -0.92301494667E+02  0.10879670177E+03  0.00000000000E+00 0.  1.
         11    1    4    4    0    0 -0.75956004790E+02  0.17040634703E+02 -0.26204252327E+03  0.27336053464E+03  0.00000000000E+00 0. -1.
</event>
<event>
 8    1  0.6615242E-009  0.1070439E+03  0.7561462E-02  0.1266144E+00
          1   -1    0    0  501    0  0.00000000000E+00  0.00000000000E+00  0.92341795516E+03  0.92341795516E+03  0.00000000000E+00 0. -1.
         -1   -1    0    0    0  501 -0.00000000000E+00 -0.00000000000E+00 -0.22439867368E+02  0.22439867368E+02  0.00000000000E+00 0.  1.
         25    2    1    2    0    0  0.11982718981E+02 -0.86476180753E+02  0.59918082927E+03  0.61829316391E+03  0.12508818885E+03 0.  0.
         23    2    1    2    0    0 -0.11982718981E+02  0.86476180753E+02  0.30179725853E+03  0.32756465862E+03  0.92710867368E+02 0.  0.
          5    1    3    3  502    0  0.74965704297E+01 -0.39527538826E+02  0.39242650772E+02  0.56356747009E+02  0.41800000000E+01 0.  1.
         -5    1    3    3    0  502  0.44861485508E+01 -0.46948641926E+02  0.55993817849E+03  0.56193641690E+03  0.41800000000E+01 0.  1.
        -11    1    4    4    0    0 -0.38611499936E+02  0.30648651504E+01  0.74096904727E+02  0.83609763879E+02  0.00000000000E+00 0. -1.
         11    1    4    4    0    0  0.26628780956E+02  0.83411315602E+02  0.22770035380E+03  0.24395489474E+03  0.00000000000E+00 0.  1.
</event>
<event>
 8    1  0.6615242E-009  0.1332121E+03  0.7561462E-02  0.1222766E+00
         -2   -1    0    0    0  501 -0.00000000000E+00  0.00000000000E+00  0.26608585977E+02  0.26608585977E+02  0.00000000000E+00 0. -1.
          2   -1    0    0  501    0  0.00000000000E+00 -0.00000000000E+00 -0.10827816093E+04  0.10827816093E+04  0.00000000000E+00 0.  1.
         25    2    1    2    0    0 -0.10299205518E+02  0.77890109907E+02 -0.90120615925E+03  0.91323242543E+03  0.12509188032E+03 0.  0.
         23    2    1    2    0    0  0.10299205518E+02 -0.77890109907E+02 -0.15496686404E+03  0.19615776982E+03  0.91050529129E+02 0.  0.
          5    1    3    3  502    0  0.50437599441E+02  0.68991319497E+02 -0.48213074937E+03  0.48966446215E+03  0.41800000000E+01 0.  1.
         -5    1    3    3    0  502 -0.60736804959E+02  0.88987904101E+01 -0.41907540988E+03  0.42356796328E+03  0.41800000000E+01 0.  1.
        -11    1    4    4    0    0  0.63747029117E+01 -0.98321391747E+02 -0.11788105336E+03  0.15363487773E+03  0.00000000000E+00 0. -1.
         11    1    4    4    0    0  0.39245026065E+01  0.20431281840E+02 -0.37085810681E+02  0.42522892096E+02  0.00000000000E+00 0.  1.
</event>
<event>
 8    1  0.6615242E-009  0.1242091E+03  0.7561462E-02  0.1236311E+00
         -1   -1    0    0    0  501 -0.00000000000E+00  0.00000000000E+00  0.96197252648E+02  0.96197252648E+02  0.00000000000E+00 0.  1.
          1   -1    0    0  501    0  0.00000000000E+00 -0.00000000000E+00 -0.16853360047E+03  0.16853360047E+03  0.00000000000E+00 0. -1.
         25    2    1    2    0    0 -0.65478655057E+02 -0.87464241710E+01 -0.17418494381E+02  0.14253140710E+03  0.12509134206E+03 0.  0.
         23    2    1    2    0    0  0.65478655057E+02  0.87464241710E+01 -0.54917853442E+02  0.12219944602E+03  0.86906730335E+02 0.  0.
          5    1    3    3  502    0 -0.10296959047E+03 -0.45311034213E+01 -0.82600500046E+01  0.10348414509E+03  0.41800000000E+01 0.  1.
         -5    1    3    3    0  502  0.37490935409E+02 -0.42153207498E+01 -0.91584443764E+01  0.39047262007E+02  0.41800000000E+01 0.  1.
        -11    1    4    4    0    0  0.81630150257E+02  0.24005414592E+02 -0.33827763059E+02  0.91564506848E+02  0.00000000000E+00 0.  1.
         11    1    4    4    0    0 -0.16151495200E+02 -0.15258990421E+02 -0.21090090383E+02  0.30634939174E+02  0.00000000000E+00 0. -1.
</event>
<event>
 8    1  0.6615242E-009  0.1165431E+03  0.7561462E-02  0.1248911E+00
          1   -1    0    0  501    0  0.00000000000E+00  0.00000000000E+00  0.12631386260E+03  0.12631386260E+03  0.00000000000E+00 0. -1.
         -1   -1    0    0    0  501 -0.00000000000E+00 -0.00000000000E+00 -0.11431717250E+03  0.11431717250E+03  0.00000000000E+00 0.  1.
         25    2    1    2    0    0  0.15990550081E+02 -0.45412527226E+02  0.35841606475E+02  0.13874836519E+03  0.12509393577E+03 0.  0.
         23    2    1    2    0    0 -0.15990550081E+02  0.45412527226E+02 -0.23844916373E+02  0.10188266990E+03  0.86565022202E+02 0.  0.
          5    1    3    3  502    0 -0.39796012848E+02  0.22610420056E+02  0.11685216281E+02  0.47423310863E+02  0.41800000000E+01 0. -1.
         -5    1    3    3    0  502  0.55786562929E+02 -0.68022947282E+02  0.24156390194E+02  0.91325054325E+02  0.41800000000E+01 0. -1.
        -11    1    4    4    0    0 -0.51049247871E+02  0.36860711586E+02 -0.15256509046E+02  0.64788107204E+02  0.00000000000E+00 0.  1.
         11    1    4    4    0    0  0.35058697790E+02  0.85518156403E+01 -0.85884073265E+01  0.37094562700E+02  0.00000000000E+00 0. -1.
</event>
<event>
 8    1  0.6615242E-009  0.1413776E+03  0.7561462E-02  0.1211487E+00
          2   -1    0    0  501    0  0.00000000000E+00  0.00000000000E+00  0.39793927002E+03  0.39793927002E+03  0.00000000000E+00 0. -1.
         -2   -1    0    0    0  501 -0.00000000000E+00 -0.00000000000E+00 -0.64837720500E+02  0.64837720500E+02  0.00000000000E+00 0.  1.
         25    2    1    2    0    0  0.83850894429E+02  0.66183886147E+02  0.25186429667E+03  0.30082305346E+03  0.12509039241E+03 0.  0.
         23    2    1    2    0    0 -0.83850894429E+02 -0.66183886147E+02  0.81237252850E+02  0.16195393706E+03  0.90654879606E+02 0.  0.
          5    1    3    3  502    0  0.87756821296E+02  0.93204837538E+02  0.23714740575E+03  0.26952692979E+03  0.41800000000E+01 0.  1.
         -5    1    3    3    0  502 -0.39059268665E+01 -0.27020951391E+02  0.14716890917E+02  0.31296123674E+02  0.41800000000E+01 0.  1.
        -11    1    4    4    0    0 -0.77248200342E+02 -0.80325584690E+02  0.40914212207E+02  0.11871586571E+03  0.00000000000E+00 0.  1.
         11    1    4    4    0    0 -0.66026940879E+01  0.14141698544E+02  0.40323040643E+02  0.43238071345E+02  0.00000000000E+00 0. -1.
</event>
<event>
 8    1  0.6615242E-009  0.1295210E+03  0.7561462E-02  0.1228168E+00
         -2   -1    0    0    0  501 -0.00000000000E+00  0.00000000000E+00  0.91977646358E+02  0.91977646358E+02  0.00000000000E+00 0.  1.
          2   -1    0    0  501    0  0.00000000000E+00 -0.00000000000E+00 -0.29392081440E+03  0.29392081440E+03  0.00000000000E+00 0. -1.
         25    2    1    2    0    0 -0.58643293598E+02  0.83288173245E+02 -0.18971803943E+03  0.24900041694E+03  0.12502926644E+03 0.  0.
         23    2    1    2    0    0  0.58643293598E+02 -0.83288173245E+02 -0.12225128613E+02  0.13689804381E+03  0.90640305293E+02 0.  0.
          5    1    3    3  502    0 -0.46671759394E+02 -0.15210443860E+02 -0.11376457976E+03  0.12397363725E+03  0.41800000000E+01 0.  1.
         -5    1    3    3    0  502 -0.11971534204E+02  0.98498617105E+02 -0.75953459672E+02  0.12502677969E+03  0.41800000000E+01 0.  1.
        -11    1    4    4    0    0  0.51052348559E+02 -0.35750973232E+02 -0.46536265162E+02  0.77782378182E+02  0.00000000000E+00 0. -1.
         11    1    4    4    0    0  0.75909450394E+01 -0.47537200013E+02  0.34311136549E+02  0.59115665631E+02  0.00000000000E+00 0.  1.
</event>
<event>
 8    1  0.6615242E-009  0.1042470E+03  0.7561462E-02  0.1271610E+00
          1   -1    0    0  501    0  0.00000000000E+00  0.00000000000E+00  0.21223618724E+03  0.21223618724E+03  0.00000000000E+00 0. -1.
         -1   -1    0    0    0  501 -0.00000000000E+00 -0.00000000000E+00 -0.92725566993E+02  0.92725566993E+02  0.00000000000E+00 0.  1.
         25    2    1    2    0    0  0.65785189197E+02 -0.50572630910E+02  0.99031321275E+02  0.17983448143E+03  0.12509179030E+03 0.  0.
         23    2    1    2    0    0 -0.65785189197E+02  0.50572630910E+02  0.20479298970E+02  0.12512727280E+03  0.91390101203E+02 0.  0.
          5    1    3    3  502    0  0.51204925689E+01 -0.31175483433E+02  0.11048353828E+03  0.11498788998E+03  0.41800000000E+01 0.  1.
         -5    1    3    3    0  502  0.60664696628E+02 -0.19397147478E+02 -0.11452217008E+02  0.64846591442E+02  0.41800000000E+01 0.  1.
        -11    1    4    4    0    0 -0.12835181409E-01  0.46924786493E+02 -0.16308032503E+02  0.49677838885E+02  0.00000000000E+00 0.  1.
         11    1    4    4    0    0 -0.65772354016E+02  0.36478444178E+01  0.36787331473E+02  0.75449433918E+02  0.00000000000E+00 0. -1.
</event>
<event>
 8    1  0.6615242E-009  0.8143246E+02  0.7561462E-02  0.1325035E+00
          3   -1    0    0  501    0  0.00000000000E+00  0.00000000000E+00  0.10173829348E+03  0.10173829348E+03  0.00000000000E+00 0. -1.
         -3   -1    0    0    0  501 -0.00000000000E+00 -0.00000000000E+00 -0.17142174403E+03  0.17142174403E+03  0.00000000000E+00 0.  1.
         25    2    1    2    0    0  0.97583260792E+01 -0.60210227307E+02  0.59950263659E+01  0.13929988034E+03  0.12509204579E+03 0.  0.
         23    2    1    2    0    0 -0.97583260792E+01  0.60210227307E+02 -0.75678476910E+02  0.13386015717E+03  0.92037021952E+02 0.  0.
          5    1    3    3  502    0  0.21932304555E+02 -0.20023398625E+02 -0.56456844814E+02  0.63928164387E+02  0.41800000000E+01 0. -1.
         -5    1    3    3    0  502 -0.12173978475E+02 -0.40186828682E+02  0.62451871179E+02  0.75371715950E+02  0.41800000000E+01 0. -1.
        -11    1    4    4    0    0 -0.35905010271E+02  0.15990109309E+02 -0.72403540583E+02  0.82384015726E+02  0.00000000000E+00 0.  1.
         11    1    4    4    0    0  0.26146684192E+02  0.44220117998E+02 -0.32749363274E+01  0.51476141444E+02  0.00000000000E+00 0. -1.
</event>
<event>
 8    1  0.6615242E-009  0.1556356E+03  0.7561462E-02  0.1193714E+00
          2   -1    0    0  501    0  0.00000000000E+00  0.00000000000E+00  0.96179201286E+03  0.96179201286E+03  0.00000000000E+00 0. -1.
         -2   -1    0    0    0  501 -0.00000000000E+00 -0.00000000000E+00 -0.26878299952E+02  0.26878299952E+02  0.00000000000E+00 0.  1.
         25    2    1    2    0    0  0.11461077637E+03 -0.17860091629E+02  0.42505014326E+03  0.45800615010E+03  0.12508955316E+03 0.  0.
         23    2    1    2    0    0 -0.11461077637E+03  0.17860091629E+02  0.50986356964E+03  0.53066416271E+03  0.90492988681E+02 0.  0.
          5    1    3    3  502    0  0.65248632066E+02 -0.68898041939E+02  0.29310940418E+03  0.30811510736E+03  0.41800000000E+01 0.  1.
         -5    1    3    3    0  502  0.49362144304E+02  0.51037950310E+02  0.13194073909E+03  0.14989104274E+03  0.41800000000E+01 0.  1.
        -11    1    4    4    0    0 -0.11151867401E+03 -0.14674909721E+02  0.42759914387E+03  0.44214567222E+03  0.00000000000E+00 0. -1.
         11    1    4    4    0    0 -0.30921023612E+01  0.32535001349E+02  0.82264425774E+02  0.88518490485E+02  0.00000000000E+00 0.  1.
</event>
<event>
 8    1  0.6615242E-009  0.9573174E+02  0.7561462E-02  0.1289536E+00
          2   -1    0    0  501    0  0.00000000000E+00  0.00000000000E+00  0.29773755555E+03  0.29773755555E+03  0.00000000000E+00 0. -1.
         -2   -1    0    0    0  501 -0.00000000000E+00 -0.00000000000E+00 -0.54078930998E+02  0.54078930998E+02  0.00000000000E+00 0.  1.
         25    2    1    2    0    0 -0.44261020111E+00  0.22959062693E+02  0.21970777980E+03  0.25386364141E+03  0.12509166823E+03 0.  0.
         23    2    1    2    0    0  0.44261020111E+00 -0.22959062693E+02  0.23950844756E+02  0.97952845145E+02  0.92161827477E+02 0.  0.
          5    1    3    3  502    0  0.48984336126E+02 -0.25883461018E+02  0.12023665913E+03  0.13245280419E+03  0.41800000000E+01 0. -1.
         -5    1    3    3    0  502 -0.49426946328E+02  0.48842523710E+02  0.99471120673E+02  0.12141083722E+03  0.41800000000E+01 0. -1.
        -11    1    4    4    0    0 -0.29193867494E+02 -0.22144214848E+02  0.47570560100E+02  0.60046701314E+02  0.00000000000E+00 0. -1.
         11    1    4    4    0    0  0.29636477695E+02 -0.81484784431E+00 -0.23619715344E+02  0.37906143831E+02  0.00000000000E+00 0.  1.
</event>
