<event>
 7    1  0.6684706E-006  0.9473955E+02  0.7561462E-02  0.1291764E+00
          4   -1    0    0  501    0  0.00000000000E+00  0.00000000000E+00  0.10118534270E+03  0.10118534270E+03  0.00000000000E+00 0.  1.
         -4   -1    0    0    0  501 -0.00000000000E+00 -0.00000000000E+00 -0.16915801275E+03  0.16915801275E+03  0.00000000000E+00 0. -1.
         23    2    1    2    0    0 -0.31085894251E+02  0.14576104476E+02 -0.97749859365E+02  0.13725190622E+03  0.90023636414E+02 0.  0.
          5    1    1    2  502    0 -0.24837304245E+02 -0.35789508479E+02 -0.26248682052E+02  0.51031816632E+02  0.41800000000E+01 0.  1.
         -5    1    1    2    0  502  0.55923198496E+02  0.21213404003E+02  0.56025871364E+02  0.82059632594E+02  0.41800000000E+01 0.  1.
        -11    1    3    3    0    0  0.13277986011E+02 -0.23698982397E+02 -0.51159654589E+01  0.27642716613E+02  0.00000000000E+00 0.  1.
         11    1    3    3    0    0 -0.44363880262E+02  0.38275086873E+02 -0.92633893906E+02  0.10960918961E+03  0.00000000000E+00 0. -1.
</event>
<event>
 7    1  0.6684706E-006  0.1244401E+03  0.7561462E-02  0.1235947E+00
          1   -1    0    0  501    0  0.00000000000E+00  0.00000000000E+00  0.33380889249E+03  0.33380889249E+03  0.00000000000E+00 0. -1.
         -1   -1    0    0    0  501 -0.00000000000E+00 -0.00000000000E+00 -0.66122471289E+02  0.66122471289E+02  0.00000000000E+00 0.  1.
         23    2    1    2    0    0 -0.68713926066E+02  0.67226261473E+02  0.70114995283E+02  0.14710179944E+03  0.86497704978E+02 0.  0.
          5    1    1    2  502    0  0.76075244537E+02  0.41934594380E+01  0.14463232218E+03  0.16352678360E+03  0.41800000000E+01 0.  1.
         -5    1    1    2    0  502 -0.73613184713E+01 -0.71419720911E+02  0.52939103731E+02  0.89302780744E+02  0.41800000000E+01 0.  1.
        -11    1    3    3    0    0 -0.16802123372E+02  0.36873159840E+02  0.76560995296E+02  0.86622902670E+02  0.00000000000E+00 0. -1.
         11    1    3    3    0    0 -0.51911802695E+02  0.30353101634E+02 -0.64460000126E+01  0.60478896765E+02  0.00000000000E+00 0.  1.
</event>
<event>
 7    1  0.6684706E-006  0.1754844E+03  0.7561462E-02  0.1172246E+00
          2   -1    0    0  501    0  0.00000000000E+00  0.00000000000E+00  0.24592609753E+03  0.24592609753E+03  0.00000000000E+00 0.  1.
         -2   -1    0    0    0  501 -0.00000000000E+00 -0.00000000000E+00 -0.15425256350E+03  0.15425256350E+03  0.00000000000E+00 0. -1.
         23    2    1    2    0    0  0.14073543493E+02  0.15512654140E+03 -0.16288570904E+01  0.17968962646E+03  0.89573434738E+02 0.  0.
          5    1    1    2  502    0 -0.46971226408E+02 -0.21204370556E+02 -0.36960421402E+01  0.51836807082E+02  0.41800000000E+01 0.  1.
         -5    1    1    2    0  502  0.32897682914E+02 -0.13392217084E+03  0.96998433259E+02  0.16865222749E+03  0.41800000000E+01 0.  1.
        -11    1    3    3    0    0 -0.11584193461E+02  0.97886378356E+02 -0.39754641061E+02  0.10628437369E+03  0.00000000000E+00 0. -1.
         11    1    3    3    0    0  0.25657736954E+02  0.57240163040E+02  0.38125783971E+02  0.73405252767E+02  0.00000000000E+00 0.  1.
</event>
<event>
 7    1  0.6684706E-006  0.1176935E+03  0.7561462E-02  0.1246951E+00
          3   -1    0    0  501    0  0.00000000000E+00  0.00000000000E+00  0.79590391766E+02  0.79590391766E+02  0.00000000000E+00 0. -1.
         -3   -1    0    0    0  501 -0.00000000000E+00 -0.00000000000E+00 -0.31991185716E+03  0.31991185716E+03  0.00000000000E+00 0.  1.
         23    2    1    2    0    0  0.99685876683E+02  0.15934680363E+02 -0.18482024008E+03  0.22944643284E+03  0.91082140678E+02 0.  0.
          5    1    1    2  502    0 -0.55416274865E+02 -0.27353903144E+02 -0.92342045528E+02  0.11119228979E+03  0.41800000000E+01 0.  1.
         -5    1    1    2    0  502 -0.44269601817E+02  0.11419222780E+02  0.36840820214E+02  0.58863526296E+02  0.41800000000E+01 0.  1.
        -11    1    3    3    0    0  0.24896666381E+02  0.41587581467E+02 -0.11165373350E+03  0.12172069312E+03  0.00000000000E+00 0.  1.
         11    1    3    3    0    0  0.74789210302E+02 -0.25652901104E+02 -0.73166506580E+02  0.10772573972E+03  0.00000000000E+00 0. -1.
</event>
<event>
 7    1  0.6684706E-006  0.2681873E+03  0.7561462E-02  0.1102322E+00
          2   -1    0    0  501    0  0.00000000000E+00  0.00000000000E+00  0.50394682266E+03  0.50394682266E+03  0.00000000000E+00 0. -1.
         -2   -1    0    0    0  501 -0.00000000000E+00 -0.00000000000E+00 -0.15460799312E+03  0.15460799312E+03  0.00000000000E+00 0.  1.
         23    2    1    2    0    0  0.25303954855E+03 -0.13677079633E+02  0.22060638572E+03  0.34801390137E+03  0.90721675950E+02 0.  0.
          5    1    1    2  502    0 -0.14243629561E+03 -0.54492972788E+02  0.66633101905E+02  0.16647830207E+03  0.41800000000E+01 0. -1.
         -5    1    1    2    0  502 -0.11060325294E+03  0.68170052421E+02  0.62099341925E+02  0.14406261235E+03  0.41800000000E+01 0. -1.
        -11    1    3    3    0    0  0.96317685756E+02 -0.12248597534E+02  0.14371712984E+03  0.17344087794E+03  0.00000000000E+00 0.  1.
         11    1    3    3    0    0  0.15672186279E+03 -0.14284820988E+01  0.76889255876E+02  0.17457302343E+03  0.00000000000E+00 0. -1.
</event>
<event>
 7    1  0.6684706E-006  0.1474401E+03  0.7561462E-02  0.1203654E+00
         -2   -1    0    0    0  501 -0.00000000000E+00  0.00000000000E+00  0.16734082788E+03  0.16734082788E+03  0.00000000000E+00 0. -1.
          2   -1    0    0  501    0  0.00000000000E+00 -0.00000000000E+00 -0.17163391368E+03  0.17163391368E+03  0.00000000000E+00 0.  1.
         23    2    1    2    0    0 -0.11425135795E+03  0.15109312927E+02  0.58278708643E+02  0.15774084309E+03  0.90576495672E+02 0.  0.
          5    1    1    2  502    0  0.40595600045E+02 -0.64863262951E+02 -0.84852428850E+01  0.77101993298E+02  0.41800000000E+01 0. -1.
         -5    1    1    2    0  502  0.73655757905E+02  0.49753950024E+02 -0.54086551556E+02  0.10413190517E+03  0.41800000000E+01 0. -1.
        -11    1    3    3    0    0 -0.65417422752E+02 -0.20803050194E+02 -0.65861910032E+01  0.68960742519E+02  0.00000000000E+00 0.  1.
         11    1    3    3    0    0 -0.48833935198E+02  0.35912363121E+02  0.64864899647E+02  0.88780100575E+02  0.00000000000E+00 0. -1.
</event>
<event>
 7    1  0.6684706E-006  0.2090684E+03  0.7561462E-02  0.1142306E+00
         -2   -1    0    0    0  501 -0.00000000000E+00  0.00000000000E+00  0.41422341036E+03  0.41422341036E+03  0.00000000000E+00 0.  1.
          2   -1    0    0  501    0  0.00000000000E+00 -0.00000000000E+00 -0.18357603473E+03  0.18357603473E+03  0.00000000000E+00 0. -1.
         23    2    1    2    0    0  0.19544117585E+03  0.58533977434E+02  0.27703025628E+03  0.35403320910E+03  0.83488145969E+02 0.  0.
          5    1    1    2  502    0 -0.11690190375E+03 -0.74418501563E+01 -0.82422911113E+02  0.14329146838E+03  0.41800000000E+01 0. -1.
         -5    1    1    2    0  502 -0.78539272098E+02 -0.51092127278E+02  0.36040030465E+02  0.10047476762E+03  0.41800000000E+01 0. -1.
        -11    1    3    3    0    0  0.85051110887E+02  0.44102857561E+02  0.18976575954E+03  0.21257891947E+03  0.00000000000E+00 0. -1.
         11    1    3    3    0    0  0.11039006496E+03  0.14431119874E+02  0.87264496738E+02  0.14145428963E+03  0.00000000000E+00 0.  1.
</event>
<event>
 7    1  0.6684706E-006  0.1401311E+03  0.7561462E-02  0.1213153E+00
         -1   -1    0    0    0  501 -0.00000000000E+00  0.00000000000E+00  0.96265442384E+02  0.96265442384E+02  0.00000000000E+00 0.  1.
          1   -1    0    0  501    0  0.00000000000E+00 -0.00000000000E+00 -0.25990393699E+03  0.25990393699E+03  0.00000000000E+00 0. -1.
         23    2    1    2    0    0 -0.59252402005E+02 -0.91287146087E+02 -0.34839948335E+02  0.14621534594E+03  0.91219050662E+02 0.  0.
          5    1    1    2  502    0  0.52707447038E+01  0.85361340474E+02 -0.19473558409E+02  0.87812476758E+02  0.41800000000E+01 0. -1.
         -5    1    1    2    0  502  0.53981657301E+02  0.59258056122E+01 -0.10932498786E+03  0.12214155668E+03  0.41800000000E+01 0. -1.
        -11    1    3    3    0    0 -0.73967964031E+02 -0.34704320936E+02 -0.86796316880E+01  0.82164381582E+02  0.00000000000E+00 0. -1.
         11    1    3    3    0    0  0.14715562026E+02 -0.56582825151E+02 -0.26160316647E+02  0.64050964356E+02  0.00000000000E+00 0.  1.
</event>
<event>
 7    1  0.6777272E-006  0.1392058E+03  0.7561462E-02  0.1214402E+00
          2   -1    0    0  501    0  0.00000000000E+00  0.00000000000E+00  0.19962984077E+03  0.19962984077E+03  0.00000000000E+00 0. -1.
         -2   -1    0    0    0  501 -0.00000000000E+00 -0.00000000000E+00 -0.13810702556E+03  0.13810702556E+03  0.00000000000E+00 0.  1.
         23    2    1    2    0    0  0.29165710050E+01 -0.12430487817E+03  0.13608913818E+02  0.15497079607E+03  0.91490633260E+02 0.  0.
          5    1    1    2  502    0 -0.34687819055E+02  0.10782082039E+03 -0.10822758019E+02  0.11385595545E+03  0.41800000000E+01 0. -1.
         -5    1    1    2    0  502  0.31771248050E+02  0.16484057787E+02  0.58736659416E+02  0.68910114810E+02  0.41800000000E+01 0. -1.
        -11    1    3    3    0    0 -0.14272183117E+02 -0.84210970221E+02  0.49289948018E+02  0.98613800719E+02  0.00000000000E+00 0. -1.
         11    1    3    3    0    0  0.17188754122E+02 -0.40093907953E+02 -0.35681034201E+02  0.56356995350E+02  0.00000000000E+00 0.  1.
</event>
<event>
 7    1  0.6684706E-006  0.1243393E+03  0.7561462E-02  0.1236105E+00
          1   -1    0    0  501    0  0.00000000000E+00  0.00000000000E+00  0.11416073457E+03  0.11416073457E+03  0.00000000000E+00 0. -1.
         -1   -1    0    0    0  501 -0.00000000000E+00 -0.00000000000E+00 -0.14370207457E+03  0.14370207457E+03  0.00000000000E+00 0.  1.
         23    2    1    2    0    0  0.29505592294E+02  0.48111999223E+02 -0.42057320731E+02  0.12006004073E+03  0.97263820135E+02 0.  0.
          5    1    1    2  502    0 -0.74016514930E+02 -0.54555486729E+02  0.94962765727E+01  0.92533222593E+02  0.41800000000E+01 0. -1.
         -5    1    1    2    0  502  0.44510922636E+02  0.64434875064E+01  0.30197041544E+01  0.45269545815E+02  0.41800000000E+01 0. -1.
        -11    1    3    3    0    0  0.61257935951E+02  0.50824974385E+02 -0.37062855255E+02  0.87803006656E+02  0.00000000000E+00 0.  1.
         11    1    3    3    0    0 -0.31752343657E+02 -0.27129751615E+01 -0.49944654760E+01  0.32257034075E+02  0.00000000000E+00 0. -1.
</event>
<event>
 7    1  0.6684706E-006  0.1693993E+03  0.7561462E-02  0.1178476E+00
          1   -1    0    0  501    0  0.00000000000E+00  0.00000000000E+00  0.19652164845E+04  0.19652164845E+04  0.00000000000E+00 0. -1.
         -1   -1    0    0    0  501 -0.00000000000E+00 -0.00000000000E+00 -0.20200900579E+02  0.20200900579E+02  0.00000000000E+00 0.  1.
         23    2    1    2    0    0 -0.52259742887E+02  0.14761685567E+03  0.64138592820E+03  0.66647158357E+03  0.91031016722E+02 0.  0.
          5    1    1    2  502    0 -0.62974013746E+00 -0.12829760439E+02  0.61959129067E+03  0.61973852486E+03  0.41800000000E+01 0.  1.
         -5    1    1    2    0  502  0.52889483024E+02 -0.13478709523E+03  0.68403836508E+03  0.69920727668E+03  0.41800000000E+01 0.  1.
        -11    1    3    3    0    0 -0.63912142601E+02  0.47463419621E+02  0.31219586496E+03  0.32218596535E+03  0.00000000000E+00 0.  1.
         11    1    3    3    0    0  0.11652399714E+02  0.10015343605E+03  0.32919006324E+03  0.34428561822E+03  0.00000000000E+00 0. -1.
</event>
<event>
 7    1  0.6684706E-006  0.7385333E+02  0.7561462E-02  0.1347459E+00
         -2   -1    0    0    0  501 -0.00000000000E+00  0.00000000000E+00  0.74930398502E+02  0.74930398502E+02  0.00000000000E+00 0.  1.
          2   -1    0    0  501    0  0.00000000000E+00 -0.00000000000E+00 -0.16055095058E+03  0.16055095058E+03  0.00000000000E+00 0. -1.
         23    2    1    2    0    0 -0.80577971369E+01 -0.45149107428E+01 -0.19770572204E+02  0.93815292639E+02  0.91242101543E+02 0.  0.
          5    1    1    2  502    0 -0.20102072224E+02 -0.40095005984E+02 -0.75458124265E+02  0.87881190991E+02  0.41800000000E+01 0. -1.
         -5    1    1    2    0  502  0.28159869361E+02  0.44609916727E+02  0.96081443931E+01  0.53784865450E+02  0.41800000000E+01 0. -1.
        -11    1    3    3    0    0 -0.12550124062E+02  0.20657201124E+02  0.29600670048E+02  0.38215510458E+02  0.00000000000E+00 0.  1.
         11    1    3    3    0    0  0.44923269246E+01 -0.25172111867E+02 -0.49371242253E+02  0.55599782181E+02  0.00000000000E+00 0. -1.
</event>
<event>
 7    1  0.6684706E-006  0.9906805E+02  0.7561462E-02  0.1282268E+00
          2   -1    0    0  501    0  0.00000000000E+00  0.00000000000E+00  0.76764866943E+03  0.76764866943E+03  0.00000000000E+00 0. -1.
         -2   -1    0    0    0  501 -0.00000000000E+00 -0.00000000000E+00 -0.25374192395E+02  0.25374192395E+02  0.00000000000E+00 0.  1.
         23    2    1    2    0    0 -0.85952344924E+02 -0.93434333468E+01  0.30170515891E+03  0.32694771338E+03  0.91617132821E+02 0.  0.
          5    1    1    2  502    0  0.47201067066E+02  0.27936511212E+02  0.40874968824E+03  0.41243444258E+03  0.41800000000E+01 0. -1.
         -5    1    1    2    0  502  0.38751277858E+02 -0.18593077866E+02  0.31819629898E+02  0.53640705877E+02  0.41800000000E+01 0. -1.
        -11    1    3    3    0    0 -0.69692171345E+02  0.14402636702E+02  0.28482947784E+03  0.29358519400E+03  0.00000000000E+00 0. -1.
         11    1    3    3    0    0 -0.16260173579E+02 -0.23746070049E+02  0.16875681069E+02  0.33362519376E+02  0.00000000000E+00 0.  1.
</event>
<event>
 7    1  0.6684706E-006  0.1392303E+03  0.7561462E-02  0.1214368E+00
          2   -1    0    0  501    0  0.00000000000E+00  0.00000000000E+00  0.30334080577E+03  0.30334080577E+03  0.00000000000E+00 0. -1.
         -2   -1    0    0    0  501 -0.00000000000E+00 -0.00000000000E+00 -0.11612552877E+03  0.11612552877E+03  0.00000000000E+00 0.  1.
         23    2    1    2    0    0 -0.97494535923E+01  0.11844230344E+03 -0.24356133704E+02  0.15270790897E+03  0.92751566681E+02 0.  0.
          5    1    1    2  502    0  0.34655528912E+02 -0.91580405804E+02  0.20773021419E+03  0.22968955287E+03  0.41800000000E+01 0. -1.
         -5    1    1    2    0  502 -0.24906075320E+02 -0.26861897637E+02  0.38411965137E+01  0.37068872699E+02  0.41800000000E+01 0.  1.
        -11    1    3    3    0    0 -0.30420081554E+02  0.11907920045E+03 -0.37143396133E+02  0.12839341579E+03  0.00000000000E+00 0.  1.
         11    1    3    3    0    0  0.20670627962E+02 -0.63689700564E+00  0.12787262429E+02  0.24314493180E+02  0.00000000000E+00 0. -1.
</event>
<event>
 7    1  0.6684706E-006  0.8034825E+02  0.7561462E-02  0.1328066E+00
          2   -1    0    0  501    0  0.00000000000E+00  0.00000000000E+00  0.91536033762E+03  0.91536033762E+03  0.00000000000E+00 0. -1.
         -2   -1    0    0    0  501 -0.00000000000E+00 -0.00000000000E+00 -0.54222144885E+02  0.54222144885E+02  0.00000000000E+00 0.  1.
         23    2    1    2    0    0  0.41090069065E+02 -0.50149774693E+02  0.15401895951E+02  0.11219043783E+03  0.90255649491E+02 0.  0.
          5    1    1    2  502    0  0.44610072072E+01  0.42161375847E+02  0.83475939561E+02  0.93718659211E+02  0.41800000000E+01 0. -1.
         -5    1    1    2    0  502 -0.45551076272E+02  0.79883988457E+01  0.76226035722E+03  0.76367338546E+03  0.41800000000E+01 0. -1.
        -11    1    3    3    0    0  0.28780803324E+02 -0.11322791891E+02  0.49970466712E+02  0.58767234064E+02  0.00000000000E+00 0. -1.
         11    1    3    3    0    0  0.12309265741E+02 -0.38826982802E+02 -0.34568570761E+02  0.53423203770E+02  0.00000000000E+00 0.  1.
</event>
<event>
 7    1  0.6684706E-006  0.1315227E+03  0.7561462E-02  0.1225214E+00
          2   -1    0    0  501    0  0.00000000000E+00  0.00000000000E+00  0.60845374213E+03  0.60845374213E+03  0.00000000000E+00 0. -1.
         -2   -1    0    0    0  501 -0.00000000000E+00 -0.00000000000E+00 -0.37134782712E+02  0.37134782712E+02  0.00000000000E+00 0.  1.
         23    2    1    2    0    0 -0.46564498352E+02  0.93200450617E+02  0.26392105021E+03  0.29775135058E+03  0.90260564640E+02 0.  0.
          5    1    1    2  502    0  0.28243855100E+02 -0.10549049447E+03  0.13364543924E+03  0.17263990154E+03  0.41800000000E+01 0.  1.
         -5    1    1    2    0  502  0.18320643252E+02  0.12290043853E+02  0.17375246998E+03  0.17519727272E+03  0.41800000000E+01 0.  1.
        -11    1    3    3    0    0 -0.55215769793E+02  0.21768711859E+02  0.16559320502E+03  0.17590840684E+03  0.00000000000E+00 0. -1.
         11    1    3    3    0    0  0.86512714412E+01  0.71431738758E+02  0.98327845187E+02  0.12184294374E+03  0.00000000000E+00 0.  1.
</event>
<event>
 7    1  0.6684706E-006  0.2404359E+03  0.7561462E-02  0.1119503E+00
          2   -1    0    0  501    0  0.00000000000E+00  0.00000000000E+00  0.20824123803E+03  0.20824123803E+03  0.00000000000E+00 0. -1.
         -2   -1    0    0    0  501 -0.00000000000E+00 -0.00000000000E+00 -0.31131745575E+03  0.31131745575E+03  0.00000000000E+00 0.  1.
         23    2    1    2    0    0 -0.78721197507E+02 -0.20953845521E+03 -0.14886648044E+02  0.24840151567E+03  0.10666915931E+03 0.  0.
          5    1    1    2  502    0  0.71916264745E+01 -0.28317728057E+01 -0.41233665678E+02  0.42159530522E+02  0.41800000000E+01 0.  1.
         -5    1    1    2    0  502  0.71529571033E+02  0.21237022802E+03 -0.46955903995E+02  0.22899764759E+03  0.41800000000E+01 0.  1.
        -11    1    3    3    0    0  0.33565211731E+01 -0.14094936058E+03 -0.89708306660E+01  0.14127442898E+03  0.00000000000E+00 0. -1.
         11    1    3    3    0    0 -0.82077718681E+02 -0.68589094635E+02 -0.59158173779E+01  0.10712708669E+03  0.00000000000E+00 0.  1.
</event>
<event>
 7    1  0.6684706E-006  0.1210057E+03  0.7561462E-02  0.1241447E+00
         -1   -1    0    0    0  501 -0.00000000000E+00  0.00000000000E+00  0.39057785226E+02  0.39057785226E+02  0.00000000000E+00 0.  1.
          1   -1    0    0  501    0  0.00000000000E+00 -0.00000000000E+00 -0.59064588461E+03  0.59064588461E+03  0.00000000000E+00 0. -1.
         23    2    1    2    0    0  0.73978660973E+02 -0.51787897706E+02 -0.13984056127E+03  0.19000085069E+03  0.91597554872E+02 0.  0.
          5    1    1    2  502    0 -0.79700731612E+02 -0.42445378420E+01 -0.33506972986E+03  0.34446976499E+03  0.41800000000E+01 0. -1.
         -5    1    1    2    0  502  0.57220706389E+01  0.56032435548E+02 -0.76677808252E+02  0.95233054157E+02  0.41800000000E+01 0. -1.
        -11    1    3    3    0    0  0.20221712369E+02 -0.47567334444E+02 -0.14699601641E+02  0.53736833230E+02  0.00000000000E+00 0.  1.
         11    1    3    3    0    0  0.53756948604E+02 -0.42205632622E+01 -0.12514095963E+03  0.13626401746E+03  0.00000000000E+00 0. -1.
</event>
<event>
 7    1  0.6684706E-006  0.9719445E+02  0.7561462E-02  0.1286309E+00
         -1   -1    0    0    0  501 -0.00000000000E+00  0.00000000000E+00  0.17220409015E+03  0.17220409015E+03  0.00000000000E+00 0.  1.
          1   -1    0    0  501    0  0.00000000000E+00 -0.00000000000E+00 -0.81548129387E+02  0.81548129387E+02  0.00000000000E+00 0. -1.
         23    2    1    2    0    0  0.13626934695E+02  0.39598608288E+02  0.66096011087E+02  0.11957426994E+03  0.90418915184E+02 0.  0.
          5    1    1    2  502    0 -0.33532518237E+02  0.32545084313E+02  0.34953108612E+02  0.58504739072E+02  0.41800000000E+01 0. -1.
         -5    1    1    2    0  502  0.19905583542E+02 -0.72143692601E+02 -0.10393158936E+02  0.75673210523E+02  0.41800000000E+01 0. -1.
        -11    1    3    3    0    0 -0.23286743425E+02  0.10652291440E+02  0.67963337875E+02  0.72627536289E+02  0.00000000000E+00 0.  1.
         11    1    3    3    0    0  0.36913678120E+02  0.28946316848E+02 -0.18673267876E+01  0.46946733653E+02  0.00000000000E+00 0. -1.
</event>
<event>
 7    1  0.6684706E-006  0.1277432E+03  0.7561462E-02  0.1230843E+00
         -1   -1    0    0    0  501 -0.00000000000E+00  0.00000000000E+00  0.15425228811E+02  0.15425228811E+02  0.00000000000E+00 0.  1.
          1   -1    0    0  501    0  0.00000000000E+00 -0.00000000000E+00 -0.10758940813E+04  0.10758940813E+04  0.00000000000E+00 0. -1.
         23    2    1    2    0    0  0.82323156835E+01 -0.37265924542E+02 -0.43199724223E+03  0.44321547462E+03  0.91442984921E+02 0.  0.
          5    1    1    2  502    0  0.34348152261E+02 -0.49230767627E+02 -0.28809877514E+03  0.29431588588E+03  0.41800000000E+01 0. -1.
         -5    1    1    2    0  502 -0.42580467944E+02  0.86496692169E+02 -0.34037283516E+03  0.35378794966E+03  0.41800000000E+01 0.  1.
        -11    1    3    3    0    0 -0.20595539117E+02 -0.59140800551E+02 -0.28937919425E+03  0.29607790965E+03  0.00000000000E+00 0. -1.
         11    1    3    3    0    0  0.28827854800E+02  0.21874876009E+02 -0.14261804799E+03  0.14713756497E+03  0.00000000000E+00 0.  1.
</event>
<event>
 7    1  0.6684706E-006  0.1071515E+03  0.7561462E-02  0.1265938E+00
          2   -1    0    0  501    0  0.00000000000E+00  0.00000000000E+00  0.12366913104E+04  0.12366913104E+04  0.00000000000E+00 0. -1.
         -2   -1    0    0    0  501 -0.00000000000E+00 -0.00000000000E+00 -0.14852205353E+02  0.14852205353E+02  0.00000000000E+00 0.  1.
         23    2    1    2    0    0  0.29444190137E+02 -0.73401126412E+02  0.46939143547E+03  0.48467958512E+03  0.91275926992E+02 0.  0.
          5    1    1    2  502    0 -0.24429021132E+02  0.52211423575E+01  0.59031175275E+03  0.59085486817E+03  0.41800000000E+01 0. -1.
         -5    1    1    2    0  502 -0.50151690053E+01  0.68179984054E+02  0.16213591685E+03  0.17600906249E+03  0.41800000000E+01 0. -1.
        -11    1    3    3    0    0  0.60293601087E+02 -0.30298835083E+02  0.27939939850E+03  0.28743236008E+03  0.00000000000E+00 0. -1.
         11    1    3    3    0    0 -0.30849410950E+02 -0.43102291328E+02  0.18999203697E+03  0.19724722504E+03  0.00000000000E+00 0.  1.
</event>
<event>
 7    1  0.6684706E-006  0.2549966E+03  0.7561462E-02  0.1110187E+00
         -1   -1    0    0    0  501 -0.00000000000E+00  0.00000000000E+00  0.82293547913E+03  0.82293547913E+03  0.00000000000E+00 0.  1.
          1   -1    0    0  501    0  0.00000000000E+00 -0.00000000000E+00 -0.79706224441E+02  0.79706224441E+02  0.00000000000E+00 0. -1.
         23    2    1    2    0    0 -0.15405053650E+03  0.17450342996E+03  0.36949902619E+03  0.44492299825E+03  0.85111275119E+02 0.  0.
          5    1    1    2  502    0  0.74610744908E+02 -0.36279059049E+01  0.89210343328E+02  0.11642973294E+03  0.41800000000E+01 0. -1.
         -5    1    1    2    0  502  0.79439791587E+02 -0.17087552406E+03  0.28451988517E+03  0.34128897238E+03  0.41800000000E+01 0. -1.
        -11    1    3    3    0    0 -0.98088324224E+02  0.49796574438E+02  0.18625221059E+03  0.21631205266E+03  0.00000000000E+00 0.  1.
         11    1    3    3    0    0 -0.55962212271E+02  0.12470685552E+03  0.18324681560E+03  0.22861094559E+03  0.00000000000E+00 0. -1.
</event>
<event>
 7    1  0.6684706E-006  0.1430604E+03  0.7561462E-02  0.1209269E+00
          1   -1    0    0  501    0  0.00000000000E+00  0.00000000000E+00  0.14368205993E+03  0.14368205993E+03  0.00000000000E+00 0. -1.
         -1   -1    0    0    0  501 -0.00000000000E+00 -0.00000000000E+00 -0.15042643545E+03  0.15042643545E+03  0.00000000000E+00 0.  1.
         23    2    1    2    0    0  0.80750077361E+02  0.51909930180E+02 -0.25277522178E+02  0.13534304640E+03  0.91997669738E+02 0.  0.
          5    1    1    2  502    0 -0.43367706170E+02 -0.90591879849E+02  0.27150057985E+02  0.10412609991E+03  0.41800000000E+01 0.  1.
         -5    1    1    2    0  502 -0.37382371191E+02  0.38681949669E+02 -0.86169113189E+01  0.54639349070E+02  0.41800000000E+01 0.  1.
        -11    1    3    3    0    0  0.40051127560E+02 -0.23147775584E+02  0.13575973273E+00  0.46259385686E+02  0.00000000000E+00 0. -1.
         11    1    3    3    0    0  0.40698949801E+02  0.75057705764E+02 -0.25413281910E+02  0.89083660718E+02  0.00000000000E+00 0.  1.
</event>
<event>
 7    1  0.6684706E-006  0.1355307E+03  0.7561462E-02  0.1219472E+00
          1   -1    0    0  501    0  0.00000000000E+00  0.00000000000E+00  0.29304837718E+03  0.29304837718E+03  0.00000000000E+00 0. -1.
         -1   -1    0    0    0  501 -0.00000000000E+00 -0.00000000000E+00 -0.80028301033E+02  0.80028301033E+02  0.00000000000E+00 0.  1.
         23    2    1    2    0    0  0.92935368130E+02  0.55007522655E+02  0.10559956421E+03  0.17597282760E+03  0.90290408640E+02 0.  0.
          5    1    1    2  502    0 -0.78976210137E+02  0.63981264177E+01  0.85454615126E+01  0.79803979235E+02  0.41800000000E+01 0.  1.
         -5    1    1    2    0  502 -0.13959157993E+02 -0.61405649073E+02  0.98875050424E+02  0.11729987138E+03  0.41800000000E+01 0.  1.
        -11    1    3    3    0    0 -0.42761576911E+01  0.27144978543E+02 -0.29255628114E+01  0.27635019495E+02  0.00000000000E+00 0.  1.
         11    1    3    3    0    0  0.97211525822E+02  0.27862544112E+02  0.10852512702E+03  0.14833780810E+03  0.00000000000E+00 0. -1.
</event>
<event>
 7    1  0.6684706E-006  0.1432662E+03  0.7561462E-02  0.1209000E+00
         -2   -1    0    0    0  501 -0.00000000000E+00  0.00000000000E+00  0.33753943723E+03  0.33753943723E+03  0.00000000000E+00 0.  1.
          2   -1    0    0  501    0  0.00000000000E+00 -0.00000000000E+00 -0.13434481687E+03  0.13434481687E+03  0.00000000000E+00 0. -1.
         23    2    1    2    0    0  0.14364758684E+02  0.78594027106E+01  0.15975144386E+03  0.18342902772E+03  0.88642923547E+02 0.  0.
          5    1    1    2  502    0 -0.72986960811E+02  0.69942574651E+02 -0.81535547493E+02  0.12994067147E+03  0.41800000000E+01 0. -1.
         -5    1    1    2    0  502  0.58622202127E+02 -0.77801977361E+02  0.12497872400E+03  0.15851455490E+03  0.41800000000E+01 0.  1.
        -11    1    3    3    0    0  0.12781118675E+02  0.46985996451E+02  0.10853863902E+03  0.11896082136E+03  0.00000000000E+00 0. -1.
         11    1    3    3    0    0  0.15836400097E+01 -0.39126593740E+02  0.51212804834E+02  0.64468206368E+02  0.00000000000E+00 0.  1.
</event>
<event>
 7    1  0.6684706E-006  0.9492342E+02  0.7561462E-02  0.1291349E+00
         -1   -1    0    0    0  501 -0.00000000000E+00  0.00000000000E+00  0.10818984701E+03  0.10818984701E+03  0.00000000000E+00 0.  1.
          1   -1    0    0  501    0  0.00000000000E+00 -0.00000000000E+00 -0.11671195289E+03  0.11671195289E+03  0.00000000000E+00 0. -1.
         23    2    1    2    0    0 -0.30138657466E+02  0.76588570926E+01 -0.84757744680E+01  0.96004157746E+02  0.90432089359E+02 0.  0.
          5    1    1    2  502    0  0.65394684023E+02 -0.27357701479E+02 -0.31357196347E+02  0.77625090606E+02  0.41800000000E+01 0. -1.
         -5    1    1    2    0  502 -0.35256026557E+02  0.19698844387E+02  0.31310864941E+02  0.51272551547E+02  0.41800000000E+01 0. -1.
        -11    1    3    3    0    0 -0.27386546256E+02 -0.29916784788E+02  0.23249158710E+02  0.46749976563E+02  0.00000000000E+00 0.  1.
         11    1    3    3    0    0 -0.27521112096E+01  0.37575641881E+02 -0.31724933178E+02  0.49254181183E+02  0.00000000000E+00 0. -1.
</event>
<event>
 7    1  0.6684706E-006  0.1339477E+03  0.7561462E-02  0.1221713E+00
          1   -1    0    0  501    0  0.00000000000E+00  0.00000000000E+00  0.20867537699E+03  0.20867537699E+03  0.00000000000E+00 0. -1.
         -1   -1    0    0    0  501 -0.00000000000E+00 -0.00000000000E+00 -0.13941517566E+03  0.13941517566E+03  0.00000000000E+00 0.  1.
         23    2    1    2    0    0  0.59118895349E+02  0.80351873015E+02 -0.54841268145E+02  0.14560534107E+03  0.90784819058E+02 0.  0.
          5    1    1    2  502    0 -0.30331224999E+02 -0.11228795779E+03  0.96812020837E+02  0.15138893108E+03  0.41800000000E+01 0.  1.
         -5    1    1    2    0  502 -0.28787670350E+02  0.31936084778E+02  0.27289448638E+02  0.51096280511E+02  0.41800000000E+01 0.  1.
        -11    1    3    3    0    0  0.64351573683E+02  0.62503054462E+02 -0.75899039738E+02  0.11750923830E+03  0.00000000000E+00 0.  1.
         11    1    3    3    0    0 -0.52326783343E+01  0.17848818553E+02  0.21057771593E+02  0.28096102768E+02  0.00000000000E+00 0. -1.
</event>
<event>
 7    1  0.6684706E-006  0.1374760E+03  0.7561462E-02  0.1216766E+00
          2   -1    0    0  501    0  0.00000000000E+00  0.00000000000E+00  0.98575381709E+03  0.98575381709E+03  0.00000000000E+00 0. -1.
         -2   -1    0    0    0  501 -0.00000000000E+00 -0.00000000000E+00 -0.23681843367E+02  0.23681843367E+02  0.00000000000E+00 0.  1.
         23    2    1    2    0    0 -0.95484430206E+02 -0.14878582833E+02  0.32237300133E+03  0.35049526692E+03  0.97897556196E+02 0.  0.
          5    1    1    2  502    0 -0.20062455472E+02 -0.24787796217E+02  0.19987191692E+03  0.20244305998E+03  0.41800000000E+01 0.  1.
         -5    1    1    2    0  502  0.11554688568E+03  0.39666379050E+02  0.43982705547E+03  0.45649733355E+03  0.41800000000E+01 0.  1.
        -11    1    3    3    0    0 -0.40570048735E+02  0.29323750651E+02  0.56730097510E+02  0.75657882405E+02  0.00000000000E+00 0.  1.
         11    1    3    3    0    0 -0.54914381471E+02 -0.44202333484E+02  0.26564290382E+03  0.27483738452E+03  0.00000000000E+00 0. -1.
</event>
<event>
 7    1  0.6684706E-006  0.1164519E+03  0.7561462E-02  0.1249068E+00
         -1   -1    0    0    0  501 -0.00000000000E+00  0.00000000000E+00  0.87009469920E+03  0.87009469920E+03  0.00000000000E+00 0.  1.
          1   -1    0    0  501    0  0.00000000000E+00 -0.00000000000E+00 -0.17219463780E+02  0.17219463780E+02  0.00000000000E+00 0. -1.
         23    2    1    2    0    0  0.47522803703E+02 -0.28173654892E+02  0.36538914391E+03  0.38101127325E+03  0.92780343568E+02 0.  0.
          5    1    1    2  502    0 -0.42541562866E+02 -0.39392866707E+02  0.32581933667E+03  0.33096419001E+03  0.41800000000E+01 0.  1.
         -5    1    1    2    0  502 -0.49812408369E+01  0.67566521599E+02  0.16166675484E+03  0.17533869973E+03  0.41800000000E+01 0.  1.
        -11    1    3    3    0    0 -0.13291552279E+02 -0.42404060113E+02  0.12592318882E+03  0.13353433701E+03  0.00000000000E+00 0. -1.
         11    1    3    3    0    0  0.60814355982E+02  0.14230405220E+02  0.23946595509E+03  0.24747693624E+03  0.00000000000E+00 0.  1.
</event>
<event>
 7    1  0.6684706E-006  0.1125477E+03  0.7561462E-02  0.1255923E+00
         -3   -1    0    0    0  501 -0.00000000000E+00  0.00000000000E+00  0.22402193669E+03  0.22402193669E+03  0.00000000000E+00 0.  1.
          3   -1    0    0  501    0  0.00000000000E+00 -0.00000000000E+00 -0.78835464451E+02  0.78835464451E+02  0.00000000000E+00 0. -1.
         23    2    1    2    0    0 -0.36619883171E+02  0.52506247971E+02  0.11461889541E+03  0.15905313765E+03  0.89791355324E+02 0.  0.
          5    1    1    2  502    0  0.50021201831E+02 -0.84178164478E+02  0.42961384763E+02  0.10701045271E+03  0.41800000000E+01 0.  1.
         -5    1    1    2    0  502 -0.13401318660E+02  0.31671916507E+02 -0.12393807935E+02  0.36793810786E+02  0.41800000000E+01 0.  1.
        -11    1    3    3    0    0  0.37212960925E+01  0.51965929466E+02  0.10554099530E+03  0.11769964978E+03  0.00000000000E+00 0.  1.
         11    1    3    3    0    0 -0.40341179264E+02  0.54031850583E+00  0.90779001149E+01  0.41353487870E+02  0.00000000000E+00 0. -1.
</event>
<event>
 7    1  0.6684706E-006  0.9199678E+02  0.7561462E-02  0.1298087E+00
          2   -1    0    0  501    0  0.00000000000E+00  0.00000000000E+00  0.34505765616E+02  0.34505765616E+02  0.00000000000E+00 0. -1.
         -2   -1    0    0    0  501 -0.00000000000E+00 -0.00000000000E+00 -0.34609849207E+03  0.34609849207E+03  0.00000000000E+00 0.  1.
         23    2    1    2    0    0 -0.89322536471E+01  0.11024061966E+02 -0.13793995836E+03  0.16611140763E+03  0.91456287570E+02 0.  0.
          5    1    1    2  502    0  0.54400617382E+02  0.45584385924E-01 -0.27750775743E+02  0.61212802614E+02  0.41800000000E+01 0.  1.
         -5    1    1    2    0  502 -0.45468363735E+02 -0.11069646352E+02 -0.14590199235E+03  0.15328004744E+03  0.41800000000E+01 0.  1.
        -11    1    3    3    0    0 -0.37691240012E+02 -0.17843532871E+02 -0.10733059263E+03  0.11514719864E+03  0.00000000000E+00 0. -1.
         11    1    3    3    0    0  0.28758986365E+02  0.28867594837E+02 -0.30609365726E+02  0.50964208996E+02  0.00000000000E+00 0.  1.
</event>
<event>
 7    1  0.6684706E-006  0.1268147E+03  0.7561462E-02  0.1232260E+00
          2   -1    0    0  501    0  0.00000000000E+00  0.00000000000E+00  0.28484675260E+02  0.28484675260E+02  0.00000000000E+00 0. -1.
         -2   -1    0    0    0  501 -0.00000000000E+00 -0.00000000000E+00 -0.79658532084E+03  0.79658532084E+03  0.00000000000E+00 0.  1.
         23    2    1    2    0    0  0.61002070796E+02  0.43067410911E+02 -0.54540985226E+03  0.55965143206E+03  0.10080557495E+03 0.  0.
          5    1    1    2  502    0 -0.63284378310E+02 -0.74568712909E+02 -0.10526849059E+03  0.14375094084E+03  0.41800000000E+01 0. -1.
         -5    1    1    2    0  502  0.22823075139E+01  0.31501301998E+02 -0.11742230274E+03  0.12166762320E+03  0.41800000000E+01 0.  1.
        -11    1    3    3    0    0  0.81787978796E+01  0.65846474638E+02 -0.24759539672E+03  0.25633207258E+03  0.00000000000E+00 0.  1.
         11    1    3    3    0    0  0.52823272917E+02 -0.22779063727E+02 -0.29781445554E+03  0.30331935948E+03  0.00000000000E+00 0. -1.
</event>
<event>
 7    1  0.6684706E-006  0.1256595E+03  0.7561462E-02  0.1234042E+00
         -1   -1    0    0    0  501 -0.00000000000E+00  0.00000000000E+00  0.54264171125E+02  0.54264171125E+02  0.00000000000E+00 0.  1.
          1   -1    0    0  501    0  0.00000000000E+00 -0.00000000000E+00 -0.12542646552E+04  0.12542646552E+04  0.00000000000E+00 0. -1.
         23    2    1    2    0    0  0.74460658444E+02 -0.93123275060E+02 -0.80309021753E+02  0.17557969413E+03  0.10080851156E+03 0.  0.
          5    1    1    2  502    0  0.78787382756E+01  0.33992487481E+01 -0.35616123849E+01  0.10187585172E+02  0.41800000000E+01 0. -1.
         -5    1    1    2    0  502 -0.82339396719E+02  0.89724026312E+02 -0.11161298499E+04  0.11227615470E+04  0.41800000000E+01 0. -1.
        -11    1    3    3    0    0  0.36817216315E+02 -0.56261275634E+02 -0.99002087962E+02  0.11967561144E+03  0.00000000000E+00 0. -1.
         11    1    3    3    0    0  0.37643442129E+02 -0.36861999426E+02  0.18693066209E+02  0.55904082689E+02  0.00000000000E+00 0.  1.
</event>
<event>
 7    1  0.6684706E-006  0.1711205E+03  0.7561462E-02  0.1176684E+00
          2   -1    0    0  501    0  0.00000000000E+00  0.00000000000E+00  0.79108890651E+02  0.79108890651E+02  0.00000000000E+00 0. -1.
         -2   -1    0    0    0  501 -0.00000000000E+00 -0.00000000000E+00 -0.53760463054E+03  0.53760463054E+03  0.00000000000E+00 0.  1.
         23    2    1    2    0    0  0.56158404945E+02 -0.15162753548E+03 -0.32323974556E+03  0.37158811730E+03  0.86308283769E+02 0.  0.
          5    1    1    2  502    0  0.48409832201E+01  0.10214525980E+02  0.21932045606E+02  0.25025161019E+02  0.41800000000E+01 0.  1.
         -5    1    1    2    0  502 -0.60999388166E+02  0.14141300950E+03 -0.15718803993E+03  0.22010024287E+03  0.41800000000E+01 0.  1.
        -11    1    3    3    0    0  0.49094809493E+02 -0.37499549591E+02 -0.67808518366E+02  0.91730647560E+02  0.00000000000E+00 0. -1.
         11    1    3    3    0    0  0.70635954527E+01 -0.11412798589E+03 -0.25543122720E+03  0.27985746975E+03  0.00000000000E+00 0.  1.
</event>
<event>
 7    1  0.6684706E-006  0.1849118E+03  0.7561462E-02  0.1163132E+00
         -1   -1    0    0    0  501 -0.00000000000E+00  0.00000000000E+00  0.57056887217E+02  0.57056887217E+02  0.00000000000E+00 0.  1.
          1   -1    0    0  501    0  0.00000000000E+00 -0.00000000000E+00 -0.79332950144E+03  0.79332950144E+03  0.00000000000E+00 0. -1.
         23    2    1    2    0    0 -0.62753529792E+02  0.15053267309E+03 -0.19022636742E+03  0.26693790128E+03  0.92041735678E+02 0.  0.
          5    1    1    2  502    0 -0.13609338901E+01  0.15269872735E+02 -0.13039144643E+03  0.13135609181E+03  0.41800000000E+01 0.  1.
         -5    1    1    2    0  502  0.64114463682E+02 -0.16580254583E+03 -0.41565480037E+03  0.45209239556E+03  0.41800000000E+01 0.  1.
        -11    1    3    3    0    0  0.13610076926E+02  0.35752155584E+02 -0.91154523273E+01  0.39326101942E+02  0.00000000000E+00 0. -1.
         11    1    3    3    0    0 -0.76363606718E+02  0.11478051751E+03 -0.18111091510E+03  0.22761179934E+03  0.00000000000E+00 0.  1.
</event>
<event>
 7    1  0.6684706E-006  0.1551049E+03  0.7561462E-02  0.1194337E+00
         -2   -1    0    0    0  501 -0.00000000000E+00  0.00000000000E+00  0.11194618905E+03  0.11194618905E+03  0.00000000000E+00 0.  1.
          2   -1    0    0  501    0  0.00000000000E+00 -0.00000000000E+00 -0.28141731129E+03  0.28141731129E+03  0.00000000000E+00 0. -1.
         23    2    1    2    0    0 -0.98716747943E+02 -0.59573369839E+02  0.79054549447E+00  0.15267440599E+03  0.10007430521E+03 0.  0.
          5    1    1    2  502    0  0.12388085021E+03  0.68851734525E+02 -0.13160177593E+03  0.19345161210E+03  0.41800000000E+01 0. -1.
         -5    1    1    2    0  502 -0.25164102271E+02 -0.92783646864E+01 -0.38659891806E+02  0.47237482245E+02  0.41800000000E+01 0. -1.
        -11    1    3    3    0    0 -0.76252902273E+02  0.14314301831E+01  0.29283627634E+02  0.81695072953E+02  0.00000000000E+00 0. -1.
         11    1    3    3    0    0 -0.22463845670E+02 -0.61004800022E+02 -0.28493082139E+02  0.70979333033E+02  0.00000000000E+00 0.  1.
</event>
<event>
 7    1  0.6684706E-006  0.1194779E+03  0.7561462E-02  0.1243961E+00
          3   -1    0    0  501    0  0.00000000000E+00  0.00000000000E+00  0.47911407503E+03  0.47911407503E+03  0.00000000000E+00 0. -1.
         -3   -1    0    0    0  501 -0.00000000000E+00 -0.00000000000E+00 -0.64201337116E+02  0.64201337116E+02  0.00000000000E+00 0.  1.
         23    2    1    2    0    0 -0.79578447580E+02  0.49094395033E+02  0.39761169714E+02  0.13695217374E+03  0.91825695386E+02 0.  0.
          5    1    1    2  502    0  0.29846039686E+02 -0.70245032006E+02  0.32012089980E+03  0.32912005939E+03  0.41800000000E+01 0. -1.
         -5    1    1    2    0  502  0.49732407894E+02  0.21150636973E+02  0.55030668408E+02  0.77243179017E+02  0.41800000000E+01 0. -1.
        -11    1    3    3    0    0 -0.43109848537E+02  0.56533065827E+02  0.61366432503E+02  0.93916375626E+02  0.00000000000E+00 0. -1.
         11    1    3    3    0    0 -0.36468599043E+02 -0.74386707940E+01 -0.21605262789E+02  0.43035798117E+02  0.00000000000E+00 0.  1.
</event>
<event>
 7    1  0.6684706E-006  0.8774698E+02  0.7561462E-02  0.1308401E+00
          1   -1    0    0  501    0  0.00000000000E+00  0.00000000000E+00  0.79450174427E+02  0.79450174427E+02  0.00000000000E+00 0. -1.
         -1   -1    0    0    0  501 -0.00000000000E+00 -0.00000000000E+00 -0.21783647612E+03  0.21783647612E+03  0.00000000000E+00 0.  1.
         23    2    1    2    0    0  0.16154330200E+02  0.26425137627E+02 -0.90818414288E+02  0.13476885913E+03  0.94633031946E+02 0.  0.
          5    1    1    2  502    0 -0.24447550160E+02 -0.47124374583E+02  0.43440858528E+02  0.68723867603E+02  0.41800000000E+01 0. -1.
         -5    1    1    2    0  502  0.82932199606E+01  0.20699236956E+02 -0.91008745932E+02  0.93793923811E+02  0.41800000000E+01 0.  1.
        -11    1    3    3    0    0  0.55428879101E+02  0.74219516714E+01 -0.49728076068E+02  0.74835336269E+02  0.00000000000E+00 0. -1.
         11    1    3    3    0    0 -0.39274548901E+02  0.19003185955E+02 -0.41090338220E+02  0.59933522864E+02  0.00000000000E+00 0.  1.
</event>
<event>
 7    1  0.6684706E-006  0.1151801E+03  0.7561462E-02  0.1251267E+00
          2   -1    0    0  501    0  0.00000000000E+00  0.00000000000E+00  0.36353776524E+03  0.36353776524E+03  0.00000000000E+00 0. -1.
         -2   -1    0    0    0  501 -0.00000000000E+00 -0.00000000000E+00 -0.42520606328E+02  0.42520606328E+02  0.00000000000E+00 0.  1.
         23    2    1    2    0    0 -0.38618386370E+02  0.46751646542E+02  0.13298684301E+03  0.17222090478E+03  0.91090303588E+02 0.  0.
          5    1    1    2  502    0  0.76206104193E+02 -0.46391661533E+02  0.16978904190E+03  0.19184719890E+03  0.41800000000E+01 0.  1.
         -5    1    1    2    0  502 -0.37587717823E+02 -0.35998500871E+00  0.18241273995E+02  0.41990267888E+02  0.41800000000E+01 0.  1.
        -11    1    3    3    0    0  0.15315132808E+02  0.46851497927E+02  0.92387826543E+02  0.10471450064E+03  0.00000000000E+00 0. -1.
         11    1    3    3    0    0 -0.53933519179E+02 -0.99851385574E-01  0.40599016471E+02  0.67506404138E+02  0.00000000000E+00 0.  1.
</event>
<event>
 7    1  0.6684706E-006  0.1069393E+03  0.7561462E-02  0.1266345E+00
          1   -1    0    0  501    0  0.00000000000E+00  0.00000000000E+00  0.40099805365E+03  0.40099805365E+03  0.00000000000E+00 0. -1.
         -1   -1    0    0    0  501 -0.00000000000E+00 -0.00000000000E+00 -0.42901687582E+02  0.42901687582E+02  0.00000000000E+00 0.  1.
         23    2    1    2    0    0 -0.48667649840E+02  0.58588765293E+02  0.12098134878E+03  0.16520168436E+03  0.82788442442E+02 0.  0.
          5    1    1    2  502    0  0.58001962107E+02 -0.67179678070E+02  0.75688808968E+02  0.11672019944E+03  0.41800000000E+01 0. -1.
         -5    1    1    2    0  502 -0.93343122665E+01  0.85909127766E+01  0.16142620832E+03  0.16197785744E+03  0.41800000000E+01 0. -1.
        -11    1    3    3    0    0  0.18489106779E+02  0.36598498756E+02  0.35020929948E+02  0.53923674903E+02  0.00000000000E+00 0.  1.
         11    1    3    3    0    0 -0.67156756619E+02  0.21990266538E+02  0.85960418834E+02  0.11127800945E+03  0.00000000000E+00 0. -1.
</event>
<event>
 7    1  0.6684706E-006  0.8688816E+02  0.7561462E-02  0.1310567E+00
          2   -1    0    0  501    0  0.00000000000E+00  0.00000000000E+00  0.64432332181E+03  0.64432332181E+03  0.00000000000E+00 0. -1.
         -2   -1    0    0    0  501 -0.00000000000E+00 -0.00000000000E+00 -0.24275522659E+02  0.24275522659E+02  0.00000000000E+00 0.  1.
         23    2    1    2    0    0  0.16051118085E+02  0.35925233949E+02  0.14570141260E+03  0.17646010097E+03  0.91438530037E+02 0.  0.
          5    1    1    2  502    0 -0.13389178882E+02 -0.64705269639E+02  0.44781508085E+03  0.45268295866E+03  0.41800000000E+01 0.  1.
         -5    1    1    2    0  502 -0.26619392036E+01  0.28780035690E+02  0.26531305708E+02  0.39455784838E+02  0.41800000000E+01 0.  1.
        -11    1    3    3    0    0  0.22966881298E+02 -0.14700508444E+02  0.62966407224E+01  0.27986251436E+02  0.00000000000E+00 0.  1.
         11    1    3    3    0    0 -0.69157632130E+01  0.50625742393E+02  0.13940477188E+03  0.14847384954E+03  0.00000000000E+00 0. -1.
</event>
<event>
 7    1  0.6684706E-006  0.1056635E+03  0.7561462E-02  0.1268818E+00
         -1   -1    0    0    0  501 -0.00000000000E+00  0.00000000000E+00  0.15174054229E+03  0.15174054229E+03  0.00000000000E+00 0.  1.
          1   -1    0    0  501    0  0.00000000000E+00 -0.00000000000E+00 -0.11357084712E+03  0.11357084712E+03  0.00000000000E+00 0. -1.
         23    2    1    2    0    0 -0.56738722011E+02 -0.15750073100E+02  0.66682117257E+02  0.12414400217E+03  0.86590306235E+02 0.  0.
          5    1    1    2  502    0  0.38028935081E+02  0.64779639785E+02 -0.42882951361E+02  0.86596891119E+02  0.41800000000E+01 0.  1.
         -5    1    1    2    0  502  0.18709786929E+02 -0.49029566684E+02  0.14370529271E+02  0.54570496129E+02  0.41800000000E+01 0.  1.
        -11    1    3    3    0    0 -0.56110754491E+02  0.10590274698E+02  0.76987748553E+02  0.95852407977E+02  0.00000000000E+00 0.  1.
         11    1    3    3    0    0 -0.62796751960E+00 -0.26340347798E+02 -0.10305631297E+02  0.28291594189E+02  0.00000000000E+00 0. -1.
</event>
<event>
 7    1  0.6684706E-006  0.8141429E+02  0.7561462E-02  0.1325085E+00
         -2   -1    0    0    0  501 -0.00000000000E+00  0.00000000000E+00  0.32314962580E+02  0.32314962580E+02  0.00000000000E+00 0.  1.
          2   -1    0    0  501    0  0.00000000000E+00 -0.00000000000E+00 -0.39431422292E+03  0.39431422292E+03  0.00000000000E+00 0. -1.
         23    2    1    2    0    0 -0.21658694888E+02  0.48414875239E+01 -0.10457047429E+03  0.13955856852E+03  0.89716614339E+02 0.  0.
          5    1    1    2  502    0 -0.42921997378E+02 -0.11068722610E+02 -0.39057365005E+02  0.59226384663E+02  0.41800000000E+01 0.  1.
         -5    1    1    2    0  502  0.64580692266E+02  0.62272350864E+01 -0.21837142104E+03  0.22784423231E+03  0.41800000000E+01 0.  1.
        -11    1    3    3    0    0  0.76111201751E+01  0.19225856603E+02 -0.10492520835E+03  0.10694326561E+03  0.00000000000E+00 0. -1.
         11    1    3    3    0    0 -0.29269815063E+02 -0.14384369079E+02  0.35473405802E+00  0.32615302910E+02  0.00000000000E+00 0.  1.
</event>
<event>
 7    1  0.6684706E-006  0.1324087E+03  0.7561462E-02  0.1223925E+00
          1   -1    0    0  501    0  0.00000000000E+00  0.00000000000E+00  0.10308955888E+04  0.10308955888E+04  0.00000000000E+00 0. -1.
         -1   -1    0    0    0  501 -0.00000000000E+00 -0.00000000000E+00 -0.22299824916E+02  0.22299824916E+02  0.00000000000E+00 0.  1.
         23    2    1    2    0    0 -0.61020410459E+02  0.84163064136E+02  0.39104032436E+03  0.41458054478E+03  0.90319327829E+02 0.  0.
          5    1    1    2  502    0 -0.17442918089E+01 -0.60111009761E+02  0.49600623888E+03  0.49965591906E+03  0.41800000000E+01 0.  1.
         -5    1    1    2    0  502  0.62764702268E+02 -0.24052054375E+02  0.12154920061E+03  0.13895894984E+03  0.41800000000E+01 0.  1.
        -11    1    3    3    0    0  0.19145775140E+02  0.43009558251E+02  0.11754312582E+03  0.12662057193E+03  0.00000000000E+00 0.  1.
         11    1    3    3    0    0 -0.80166185599E+02  0.41153505885E+02  0.27349719853E+03  0.28795997285E+03  0.00000000000E+00 0. -1.
</event>
<event>
 7    1  0.6684706E-006  0.1407120E+03  0.7561462E-02  0.1212374E+00
         -2   -1    0    0    0  501 -0.00000000000E+00  0.00000000000E+00  0.68552804166E+02  0.68552804166E+02  0.00000000000E+00 0.  1.
          2   -1    0    0  501    0  0.00000000000E+00 -0.00000000000E+00 -0.52195055613E+03  0.52195055613E+03  0.00000000000E+00 0. -1.
         23    2    1    2    0    0  0.85344147365E+02 -0.61268678392E+02 -0.39570893502E+02  0.14560876956E+03  0.92728548561E+02 0.  0.
          5    1    1    2  502    0 -0.43737074201E+02 -0.21419150920E+02 -0.51896309946E+02  0.71291030795E+02  0.41800000000E+01 0. -1.
         -5    1    1    2    0  502 -0.41607073164E+02  0.82687829311E+02 -0.36193054851E+03  0.37360355994E+03  0.41800000000E+01 0. -1.
        -11    1    3    3    0    0  0.11813189533E+02 -0.65187616958E+02 -0.14455414345E+02  0.67808081049E+02  0.00000000000E+00 0.  1.
         11    1    3    3    0    0  0.73530957832E+02  0.39189385666E+01 -0.25115479156E+02  0.77800688508E+02  0.00000000000E+00 0. -1.
</event>
<event>
 7    1  0.6684706E-006  0.9029068E+02  0.7561462E-02  0.1302149E+00
         -1   -1    0    0    0  501 -0.00000000000E+00  0.00000000000E+00  0.27130126582E+03  0.27130126582E+03  0.00000000000E+00 0.  1.
          1   -1    0    0  501    0  0.00000000000E+00 -0.00000000000E+00 -0.13605364285E+04  0.13605364285E+04  0.00000000000E+00 0. -1.
         23    2    1    2    0    0 -0.20806223943E+02  0.27240111872E+02  0.25633522467E+03  0.28030398975E+03  0.10810946590E+03 0.  0.
          5    1    1    2  502    0  0.47899417435E+02 -0.49449047285E+02 -0.11906809457E+04  0.11926768839E+04  0.41800000000E+01 0. -1.
         -5    1    1    2    0  502 -0.27093193492E+02  0.22208935413E+02 -0.15488944161E+03  0.15885682065E+03  0.41800000000E+01 0.  1.
        -11    1    3    3    0    0 -0.26144087167E+02  0.48127648951E+02  0.25254335447E+03  0.25841426000E+03  0.00000000000E+00 0.  1.
         11    1    3    3    0    0  0.53378632240E+01 -0.20887537079E+02  0.37918702033E+01  0.21889729753E+02  0.00000000000E+00 0. -1.
</event>
<event>
 7    1  0.6684706E-006  0.9807376E+02  0.7561462E-02  0.1284400E+00
          2   -1    0    0  501    0  0.00000000000E+00  0.00000000000E+00  0.24636187229E+03  0.24636187229E+03  0.00000000000E+00 0. -1.
         -2   -1    0    0    0  501 -0.00000000000E+00 -0.00000000000E+00 -0.88429493849E+02  0.88429493849E+02  0.00000000000E+00 0.  1.
         23    2    1    2    0    0 -0.45536726640E+02  0.19622278560E+02 -0.23085792708E+02  0.10604074821E+03  0.90846349227E+02 0.  0.
          5    1    1    2  502    0  0.72702254434E+02 -0.33874009819E+02  0.18074828387E+03  0.19778898064E+03  0.41800000000E+01 0. -1.
         -5    1    1    2    0  502 -0.27165527795E+02  0.14251731259E+02  0.26988727953E+00  0.30961637285E+02  0.41800000000E+01 0.  1.
        -11    1    3    3    0    0 -0.63923514947E+02  0.18022475760E+02  0.10960341396E+02  0.67313850575E+02  0.00000000000E+00 0.  1.
         11    1    3    3    0    0  0.18386788308E+02  0.15998028000E+01 -0.34046134105E+02  0.38726897639E+02  0.00000000000E+00 0. -1.
</event>
<event>
 7    1  0.6684706E-006  0.7800876E+02  0.7561462E-02  0.1334799E+00
         -2   -1    0    0    0  501 -0.00000000000E+00  0.00000000000E+00  0.44910893600E+02  0.44910893600E+02  0.00000000000E+00 0.  1.
          2   -1    0    0  501    0  0.00000000000E+00 -0.00000000000E+00 -0.35046055434E+03  0.35046055434E+03  0.00000000000E+00 0. -1.
         23    2    1    2    0    0  0.46209829695E+02  0.43420475048E+02 -0.13890801352E+03  0.17756574492E+03  0.90628204957E+02 0.  0.
          5    1    1    2  502    0 -0.31892936146E+02 -0.32446379773E+02 -0.18569729137E+03  0.19123515200E+03  0.41800000000E+01 0.  1.
         -5    1    1    2    0  502 -0.14316893549E+02 -0.10974095275E+02  0.19055644150E+02  0.26570551029E+02  0.41800000000E+01 0.  1.
        -11    1    3    3    0    0  0.52577329983E+02  0.49401141172E+01 -0.27526285631E+02  0.59552302695E+02  0.00000000000E+00 0.  1.
         11    1    3    3    0    0 -0.63675002881E+01  0.38480360931E+02 -0.11138172789E+03  0.11801344222E+03  0.00000000000E+00 0. -1.
</event>
<event>
 7    1  0.6684706E-006  0.1396441E+03  0.7561462E-02  0.1213809E+00
          2   -1    0    0  501    0  0.00000000000E+00  0.00000000000E+00  0.33477196547E+03  0.33477196547E+03  0.00000000000E+00 0. -1.
         -2   -1    0    0    0  501 -0.00000000000E+00 -0.00000000000E+00 -0.20568964981E+03  0.20568964981E+03  0.00000000000E+00 0.  1.
         23    2    1    2    0    0 -0.11893533684E+03  0.35181338877E+02 -0.14781952971E+03  0.21227663131E+03  0.88472673085E+02 0.  0.
          5    1    1    2  502    0  0.82596797545E+02 -0.63222408034E+02  0.25829054808E+03  0.27847941301E+03  0.41800000000E+01 0. -1.
         -5    1    1    2    0  502  0.36338539296E+02  0.28041069157E+02  0.18611297278E+02  0.49705570955E+02  0.41800000000E+01 0. -1.
        -11    1    3    3    0    0 -0.53010559290E+02 -0.26745591383E+01 -0.12019400650E+03  0.13139205403E+03  0.00000000000E+00 0.  1.
         11    1    3    3    0    0 -0.65924777551E+02  0.37855898015E+02 -0.27625523206E+02  0.80884577282E+02  0.00000000000E+00 0. -1.
</event>
<event>
 7    1  0.6684706E-006  0.1118770E+03  0.7561462E-02  0.1257133E+00
         -1   -1    0    0    0  501 -0.00000000000E+00  0.00000000000E+00  0.26255383336E+02  0.26255383336E+02  0.00000000000E+00 0.  1.
          1   -1    0    0  501    0  0.00000000000E+00 -0.00000000000E+00 -0.53932521350E+03  0.53932521350E+03  0.00000000000E+00 0. -1.
         23    2    1    2    0    0  0.20581923687E+02  0.32971457810E+02 -0.17206769317E+03  0.20028525628E+03  0.94848090315E+02 0.  0.
          5    1    1    2  502    0  0.34005890779E+02  0.27151441294E+02 -0.71616286789E+02  0.83904507063E+02  0.41800000000E+01 0.  1.
         -5    1    1    2    0  502 -0.54587814466E+02 -0.60122899104E+02 -0.26938585021E+03  0.28139083350E+03  0.41800000000E+01 0.  1.
        -11    1    3    3    0    0 -0.36146361750E+02  0.15842525172E+02 -0.43598550836E+02  0.58807981657E+02  0.00000000000E+00 0.  1.
         11    1    3    3    0    0  0.56728285437E+02  0.17128932638E+02 -0.12846914233E+03  0.14147727462E+03  0.00000000000E+00 0. -1.
</event>
<event>
 7    1  0.6684706E-006  0.6620986E+02  0.7561462E-02  0.1373477E+00
         -2   -1    0    0    0  501 -0.00000000000E+00  0.00000000000E+00  0.24461632505E+03  0.24461632505E+03  0.00000000000E+00 0.  1.
          2   -1    0    0  501    0  0.00000000000E+00 -0.00000000000E+00 -0.29846351813E+03  0.29846351813E+03  0.00000000000E+00 0. -1.
         23    2    1    2    0    0 -0.38358193651E+02  0.17143367562E+02  0.21922640032E+03  0.24197348175E+03  0.93411483225E+02 0.  0.
          5    1    1    2  502    0  0.28210648214E+02 -0.37381055234E+02 -0.27405941618E+03  0.27806333804E+03  0.41800000000E+01 0. -1.
         -5    1    1    2    0  502  0.10147545437E+02  0.20237687672E+02  0.98582277994E+00  0.23043023396E+02  0.41800000000E+01 0.  1.
        -11    1    3    3    0    0 -0.17423418413E+02  0.32187386230E+02  0.21208920357E+03  0.21522414737E+03  0.00000000000E+00 0.  1.
         11    1    3    3    0    0 -0.20934775238E+02 -0.15044018667E+02  0.71371967533E+01  0.26749334373E+02  0.00000000000E+00 0. -1.
</event>
<event>
 7    1  0.6684706E-006  0.9894248E+02  0.7561462E-02  0.1282536E+00
         -1   -1    0    0    0  501 -0.00000000000E+00  0.00000000000E+00  0.21842917106E+02  0.21842917106E+02  0.00000000000E+00 0.  1.
          1   -1    0    0  501    0  0.00000000000E+00 -0.00000000000E+00 -0.61586065050E+03  0.61586065050E+03  0.00000000000E+00 0. -1.
         23    2    1    2    0    0 -0.21531020829E+01 -0.27094795142E+02 -0.17309187651E+03  0.19774133860E+03  0.91662836011E+02 0.  0.
          5    1    1    2  502    0  0.75406628756E+01 -0.37010106019E+02 -0.46621391725E+02  0.60146788031E+02  0.41800000000E+01 0.  1.
         -5    1    1    2    0  502 -0.53875607927E+01  0.64104901160E+02 -0.37430446516E+03  0.37981544098E+03  0.41800000000E+01 0.  1.
        -11    1    3    3    0    0 -0.44731430288E+02  0.40002560363E+00 -0.87394479362E+02  0.98177675156E+02  0.00000000000E+00 0. -1.
         11    1    3    3    0    0  0.42578328206E+02 -0.27494820745E+02 -0.85697397148E+02  0.99563663445E+02  0.00000000000E+00 0.  1.
</event>
<event>
 7    1  0.6684706E-006  0.1018867E+03  0.7561462E-02  0.1276378E+00
          1   -1    0    0  501    0  0.00000000000E+00  0.00000000000E+00  0.14080900390E+03  0.14080900390E+03  0.00000000000E+00 0. -1.
         -1   -1    0    0    0  501 -0.00000000000E+00 -0.00000000000E+00 -0.14652417756E+03  0.14652417756E+03  0.00000000000E+00 0.  1.
         23    2    1    2    0    0 -0.79142559133E+02  0.21712623214E+02 -0.49611263208E+02  0.13141782404E+03  0.89857578224E+02 0.  0.
          5    1    1    2  502    0  0.59236332651E+02 -0.14322792604E+02 -0.37508704176E+02  0.71683057851E+02  0.41800000000E+01 0.  1.
         -5    1    1    2    0  502  0.19906226483E+02 -0.73898306105E+01  0.81404793726E+02  0.84232299570E+02  0.41800000000E+01 0.  1.
        -11    1    3    3    0    0 -0.26349223580E+02  0.53347458745E+02 -0.31161657914E+02  0.67166076718E+02  0.00000000000E+00 0.  1.
         11    1    3    3    0    0 -0.52793335553E+02 -0.31634835530E+02 -0.18449605294E+02  0.64251747318E+02  0.00000000000E+00 0. -1.
</event>
<event>
 7    1  0.6684706E-006  0.1153686E+03  0.7561462E-02  0.1250939E+00
          3   -1    0    0  501    0  0.00000000000E+00  0.00000000000E+00  0.25157333290E+03  0.25157333290E+03  0.00000000000E+00 0. -1.
         -3   -1    0    0    0  501 -0.00000000000E+00 -0.00000000000E+00 -0.95825999607E+02  0.95825999607E+02  0.00000000000E+00 0.  1.
         23    2    1    2    0    0 -0.32405346207E+02  0.35427511609E+02 -0.39591698301E+02  0.11094615242E+03  0.91849502565E+02 0.  0.
          5    1    1    2  502    0  0.72493621795E+02 -0.51502333872E+02  0.14323584629E+03  0.16864695567E+03  0.41800000000E+01 0. -1.
         -5    1    1    2    0  502 -0.40088275588E+02  0.16074822263E+02  0.52103185305E+02  0.67806224415E+02  0.41800000000E+01 0.  1.
        -11    1    3    3    0    0  0.25381982655E+02  0.31423935529E+02  0.67428772773E+00  0.40400042470E+02  0.00000000000E+00 0. -1.
         11    1    3    3    0    0 -0.57787328863E+02  0.40035760794E+01 -0.40265986028E+02  0.70546109952E+02  0.00000000000E+00 0.  1.
</event>
<event>
 7    1  0.6684706E-006  0.1080708E+03  0.7561462E-02  0.1264185E+00
         -1   -1    0    0    0  501 -0.00000000000E+00  0.00000000000E+00  0.33140905519E+03  0.33140905519E+03  0.00000000000E+00 0.  1.
          1   -1    0    0  501    0  0.00000000000E+00 -0.00000000000E+00 -0.60001370620E+02  0.60001370620E+02  0.00000000000E+00 0. -1.
         23    2    1    2    0    0  0.87888171018E+02  0.21786719410E+02  0.13488852120E+03  0.18529447927E+03  0.89107458433E+02 0.  0.
          5    1    1    2  502    0 -0.84870670822E+02 -0.35025733554E+02  0.15656340368E+03  0.18154725156E+03  0.41800000000E+01 0.  1.
         -5    1    1    2    0  502 -0.30175001960E+01  0.13239014144E+02 -0.20044240316E+02  0.24568694975E+02  0.41800000000E+01 0.  1.
        -11    1    3    3    0    0  0.96870862917E+02  0.13506180256E+02  0.72570526653E+02  0.12179023904E+03  0.00000000000E+00 0. -1.
         11    1    3    3    0    0 -0.89826918986E+01  0.82805391535E+01  0.62317994545E+02  0.63504240224E+02  0.00000000000E+00 0.  1.
</event>
<event>
 7    1  0.6684706E-006  0.8616767E+02  0.7561462E-02  0.1312407E+00
          2   -1    0    0  501    0  0.00000000000E+00  0.00000000000E+00  0.68557261843E+03  0.68557261843E+03  0.00000000000E+00 0. -1.
         -2   -1    0    0    0  501 -0.00000000000E+00 -0.00000000000E+00 -0.21329896385E+02  0.21329896385E+02  0.00000000000E+00 0.  1.
         23    2    1    2    0    0 -0.35738552950E+02  0.16596155410E+02  0.15425673720E+03  0.18032381200E+03  0.84669118691E+02 0.  0.
          5    1    1    2  502    0 -0.34935716979E+02 -0.66886965916E+01  0.34391430442E+03  0.34577415197E+03  0.41800000000E+01 0. -1.
         -5    1    1    2    0  502  0.70674269929E+02 -0.99074588187E+01  0.16607168042E+03  0.18080455085E+03  0.41800000000E+01 0. -1.
        -11    1    3    3    0    0 -0.40718012786E+02 -0.66515128520E+01  0.15074729723E+03  0.15629122435E+03  0.00000000000E+00 0. -1.
         11    1    3    3    0    0  0.49794598366E+01  0.23247668262E+02  0.35094399730E+01  0.24032587643E+02  0.00000000000E+00 0.  1.
</event>
<event>
 6    1  0.6684706E-006  0.1330371E+03  0.7561462E-02  0.1223018E+00
         -1   -1    0    0    0  501 -0.00000000000E+00  0.00000000000E+00  0.13057079581E+03  0.13057079581E+03  0.00000000000E+00 0.  1.
          1   -1    0    0  501    0  0.00000000000E+00 -0.00000000000E+00 -0.21186860562E+03  0.21186860562E+03  0.00000000000E+00 0. -1.
          5    1    1    2  502    0 -0.35451273334E+02  0.94133546799E+02 -0.97624674289E+01  0.10114690101E+03  0.41800000000E+01 0. -1.
         -5    1    1    2    0  502 -0.27410888605E+02 -0.20834999255E+02 -0.64991527992E+02  0.73666987985E+02  0.41800000000E+01 0. -1.
        -11    1    1    2    0    0  0.81639361380E+02 -0.76248745693E+02  0.38962847628E+02  0.11830874880E+03  0.00000000000E+00 0.  1.
         11    1    1    2    0    0 -0.18777199441E+02  0.29501981491E+01 -0.45506662012E+02  0.49316763635E+02  0.00000000000E+00 0. -1.
</event>
<event>
 7    1  0.6684706E-006  0.8230353E+02  0.7561462E-02  0.1322639E+00
          1   -1    0    0  501    0  0.00000000000E+00  0.00000000000E+00  0.62868930450E+03  0.62868930450E+03  0.00000000000E+00 0. -1.
         -1   -1    0    0    0  501 -0.00000000000E+00 -0.00000000000E+00 -0.18743389047E+02  0.18743389047E+02  0.00000000000E+00 0.  1.
         23    2    1    2    0    0  0.43449289683E+01  0.68543757621E+01  0.23726226767E+03  0.25423427125E+03  0.90971534801E+02 0.  0.
          5    1    1    2  502    0 -0.25009472322E+02  0.27988385958E+02  0.30347936178E+02  0.48448870830E+02  0.41800000000E+01 0.  1.
         -5    1    1    2    0  502  0.20664543354E+02 -0.34842761721E+02  0.34233571160E+03  0.34474955146E+03  0.41800000000E+01 0.  1.
        -11    1    3    3    0    0  0.13237772702E+02  0.45021035105E+02  0.85913072049E+02  0.97893759642E+02  0.00000000000E+00 0.  1.
         11    1    3    3    0    0 -0.88928437338E+01 -0.38166659343E+02  0.15134919562E+03  0.15634051161E+03  0.00000000000E+00 0. -1.
</event>
<event>
 7    1  0.6684706E-006  0.1304017E+03  0.7561462E-02  0.1226861E+00
         -1   -1    0    0    0  501 -0.00000000000E+00  0.00000000000E+00  0.13463872901E+02  0.13463872901E+02  0.00000000000E+00 0.  1.
          1   -1    0    0  501    0  0.00000000000E+00 -0.00000000000E+00 -0.26292733395E+04  0.26292733395E+04  0.00000000000E+00 0. -1.
         23    2    1    2    0    0  0.10572333591E+03  0.12715368465E+02 -0.42317052083E+03  0.44394742523E+03  0.81712436744E+02 0.  0.
          5    1    1    2  502    0  0.20878001552E+02  0.38012867377E+01 -0.10282070860E+03  0.10507098194E+03  0.41800000000E+01 0. -1.
         -5    1    1    2    0  502 -0.12660133747E+03 -0.16516655202E+02 -0.20898182372E+04  0.20937188053E+04  0.41800000000E+01 0. -1.
        -11    1    3    3    0    0  0.49040989436E+02 -0.10546039604E+02 -0.73728763423E+02  0.89174930065E+02  0.00000000000E+00 0.  1.
         11    1    3    3    0    0  0.56682346478E+02  0.23261408069E+02 -0.34944175740E+03  0.35477249516E+03  0.00000000000E+00 0. -1.
</event>
<event>
 7    1  0.6684706E-006  0.1106487E+03  0.7561462E-02  0.1259373E+00
          1   -1    0    0  501    0  0.00000000000E+00  0.00000000000E+00  0.16203756683E+03  0.16203756683E+03  0.00000000000E+00 0. -1.
         -1   -1    0    0    0  501 -0.00000000000E+00 -0.00000000000E+00 -0.88955628329E+02  0.88955628329E+02  0.00000000000E+00 0.  1.
         23    2    1    2    0    0 -0.18561766258E+02 -0.53454808679E+02  0.94624003506E+01  0.10824982765E+03  0.91796146049E+02 0.  0.
          5    1    1    2  502    0 -0.38973848590E+02  0.79650182119E+01 -0.72690028348E+01  0.40653575380E+02  0.41800000000E+01 0. -1.
         -5    1    1    2    0  502  0.57535614847E+02  0.45489790467E+02  0.70888540982E+02  0.10208979212E+03  0.41800000000E+01 0.  1.
        -11    1    3    3    0    0  0.36832281578E+02 -0.12324981956E+02  0.37113130658E+01  0.39016611733E+02  0.00000000000E+00 0.  1.
         11    1    3    3    0    0 -0.55394047836E+02 -0.41129826723E+02  0.57510872848E+01  0.69233215922E+02  0.00000000000E+00 0. -1.
</event>
<event>
 7    1  0.6684706E-006  0.1141269E+03  0.7561462E-02  0.1253113E+00
          2   -1    0    0  501    0  0.00000000000E+00  0.00000000000E+00  0.24382499376E+03  0.24382499376E+03  0.00000000000E+00 0. -1.
         -2   -1    0    0    0  501 -0.00000000000E+00 -0.00000000000E+00 -0.81246067938E+02  0.81246067938E+02  0.00000000000E+00 0.  1.
         23    2    1    2    0    0 -0.31169522459E+02 -0.64443892699E+02  0.13043735563E+02  0.11738730969E+03  0.92114531986E+02 0.  0.
          5    1    1    2  502    0 -0.60209644511E+01 -0.35983820217E+02  0.33193371584E+02  0.49501107538E+02  0.41800000000E+01 0. -1.
         -5    1    1    2    0  502  0.37190486910E+02  0.10042771292E+03  0.11634181868E+03  0.15818264447E+03  0.41800000000E+01 0. -1.
        -11    1    3    3    0    0 -0.42510024072E+02 -0.55523993000E+02 -0.26894995466E+02  0.74922337967E+02  0.00000000000E+00 0.  1.
         11    1    3    3    0    0  0.11340501614E+02 -0.89198996994E+01  0.39938731029E+02  0.42464971726E+02  0.00000000000E+00 0. -1.
</event>
<event>
 7    1  0.6684706E-006  0.1111037E+03  0.7561462E-02  0.1258540E+00
         -2   -1    0    0    0  501 -0.00000000000E+00  0.00000000000E+00  0.23082800847E+02  0.23082800847E+02  0.00000000000E+00 0.  1.
          2   -1    0    0  501    0  0.00000000000E+00 -0.00000000000E+00 -0.61925150916E+03  0.61925150916E+03  0.00000000000E+00 0. -1.
         23    2    1    2    0    0 -0.29044572200E+02  0.39079579818E+02 -0.23999541813E+03  0.26170979808E+03  0.92322353486E+02 0.  0.
          5    1    1    2  502    0 -0.22364770395E+02 -0.70193528273E+02 -0.18579592498E+03  0.19991226202E+03  0.41800000000E+01 0. -1.
         -5    1    1    2    0  502  0.51409342595E+02  0.31113948454E+02 -0.17037736520E+03  0.18071224991E+03  0.41800000000E+01 0. -1.
        -11    1    3    3    0    0 -0.52800815467E+02  0.36708752603E+02 -0.22381180671E+03  0.23286730868E+03  0.00000000000E+00 0. -1.
         11    1    3    3    0    0  0.23756243267E+02  0.23708272156E+01 -0.16183611424E+02  0.28842489396E+02  0.00000000000E+00 0.  1.
</event>
<event>
 7    1  0.6684706E-006  0.9924074E+02  0.7561462E-02  0.1281901E+00
          1   -1    0    0  501    0  0.00000000000E+00  0.00000000000E+00  0.57560604307E+02  0.57560604307E+02  0.00000000000E+00 0. -1.
         -1   -1    0    0    0  501 -0.00000000000E+00 -0.00000000000E+00 -0.24958626347E+03  0.24958626347E+03  0.00000000000E+00 0.  1.
         23    2    1    2    0    0  0.87279234185E+00  0.17705599821E+02 -0.15365316199E+03  0.17983867606E+03  0.91751867487E+02 0.  0.
          5    1    1    2  502    0  0.83790371953E+01  0.49101939120E+02 -0.80553594780E+00  0.49993299330E+02  0.41800000000E+01 0. -1.
         -5    1    1    2    0  502 -0.92518295372E+01 -0.66807538941E+02 -0.37566961232E+02  0.77314892390E+02  0.41800000000E+01 0.  1.
        -11    1    3    3    0    0 -0.36609799174E+02  0.22745432300E+02 -0.35683258742E+02  0.55954687386E+02  0.00000000000E+00 0.  1.
         11    1    3    3    0    0  0.37482591516E+02 -0.50398324792E+01 -0.11796990325E+03  0.12388398868E+03  0.00000000000E+00 0. -1.
</event>
<event>
 7    1  0.6684706E-006  0.3993622E+03  0.7561462E-02  0.1044001E+00
          1   -1    0    0  501    0  0.00000000000E+00  0.00000000000E+00  0.96980979579E+02  0.96980979579E+02  0.00000000000E+00 0. -1.
         -1   -1    0    0    0  501 -0.00000000000E+00 -0.00000000000E+00 -0.17825758210E+04  0.17825758210E+04  0.00000000000E+00 0.  1.
         23    2    1    2    0    0  0.32023964564E+03 -0.22890246879E+03 -0.10098930390E+04  0.10876178493E+04  0.89882506494E+02 0.  0.
          5    1    1    2  502    0 -0.23225724067E+03  0.18258837884E+03 -0.59304899239E+03  0.66257567244E+03  0.41800000000E+01 0.  1.
         -5    1    1    2    0  502 -0.87982404974E+02  0.46314089951E+02 -0.82652810020E+02  0.12936327886E+03  0.41800000000E+01 0.  1.
        -11    1    3    3    0    0  0.13579822432E+03 -0.44427850755E+02 -0.35174151206E+03  0.37965389890E+03  0.00000000000E+00 0. -1.
         11    1    3    3    0    0  0.18444142133E+03 -0.18447461803E+03 -0.65815152695E+03  0.70796395037E+03  0.00000000000E+00 0.  1.
</event>
<event>
 7    1  0.6684706E-006  0.1839628E+03  0.7561462E-02  0.1164022E+00
          1   -1    0    0  501    0  0.00000000000E+00  0.00000000000E+00  0.86167976923E+03  0.86167976923E+03  0.00000000000E+00 0. -1.
         -1   -1    0    0    0  501 -0.00000000000E+00 -0.00000000000E+00 -0.48602178378E+02  0.48602178378E+02  0.00000000000E+00 0.  1.
         23    2    1    2    0    0  0.96709602397E+02 -0.10534208843E+03  0.20024617350E+03  0.26357173297E+03  0.94455416095E+02 0.  0.
          5    1    1    2  502    0 -0.75147301946E+02  0.13872080155E+03  0.55045761220E+03  0.57263568960E+03  0.41800000000E+01 0. -1.
         -5    1    1    2    0  502 -0.21562300451E+02 -0.33378713123E+02  0.62373805150E+02  0.74074525036E+02  0.41800000000E+01 0.  1.
        -11    1    3    3    0    0  0.10308207593E+03 -0.50233978699E+02  0.11963462426E+03  0.16571605328E+03  0.00000000000E+00 0.  1.
         11    1    3    3    0    0 -0.63724735285E+01 -0.55108109730E+02  0.80611549238E+02  0.97855679689E+02  0.00000000000E+00 0. -1.
</event>
<event>
 7    1  0.6684706E-006  0.1749013E+03  0.7561462E-02  0.1172831E+00
         -1   -1    0    0    0  501 -0.00000000000E+00  0.00000000000E+00  0.54053537100E+02  0.54053537100E+02  0.00000000000E+00 0.  1.
          1   -1    0    0  501    0  0.00000000000E+00 -0.00000000000E+00 -0.69519021894E+03  0.69519021894E+03  0.00000000000E+00 0. -1.
         23    2    1    2    0    0 -0.10203319129E+03 -0.12773506545E+03 -0.24264271399E+03  0.30071467385E+03  0.69475242676E+02 0.  0.
          5    1    1    2  502    0  0.73936754236E+02  0.33625422568E+02 -0.75739514183E+02  0.11113621857E+03  0.41800000000E+01 0. -1.
         -5    1    1    2    0  502  0.28096437058E+02  0.94109642882E+02 -0.32275445367E+03  0.33739286362E+03  0.41800000000E+01 0. -1.
        -11    1    3    3    0    0 -0.92846926995E+02 -0.83120516258E+02 -0.13442956750E+03  0.18330543007E+03  0.00000000000E+00 0. -1.
         11    1    3    3    0    0 -0.91862642990E+01 -0.44614549192E+02 -0.10821314649E+03  0.11740924378E+03  0.00000000000E+00 0.  1.
</event>
<event>
 7    1  0.6684706E-006  0.1356288E+03  0.7561462E-02  0.1219335E+00
          1   -1    0    0  501    0  0.00000000000E+00  0.00000000000E+00  0.19348678030E+03  0.19348678030E+03  0.00000000000E+00 0. -1.
         -1   -1    0    0    0  501 -0.00000000000E+00 -0.00000000000E+00 -0.12180794059E+03  0.12180794059E+03  0.00000000000E+00 0.  1.
         23    2    1    2    0    0  0.10415311830E+03 -0.25048951884E+02  0.13079890836E+02  0.14049075782E+03  0.89951361553E+02 0.  0.
          5    1    1    2  502    0 -0.98478805146E+02  0.68451696143E+02  0.49975475369E+02  0.12999511647E+03  0.41800000000E+01 0. -1.
         -5    1    1    2    0  502 -0.56743131591E+01 -0.43402744259E+02  0.86234735042E+01  0.44808846608E+02  0.41800000000E+01 0. -1.
        -11    1    3    3    0    0  0.65004083656E+02 -0.18528240333E+02 -0.36630300309E+02  0.76880462294E+02  0.00000000000E+00 0.  1.
         11    1    3    3    0    0  0.39149034649E+02 -0.65207115509E+01  0.49710191145E+02  0.63610295525E+02  0.00000000000E+00 0. -1.
</event>
<event>
 7    1  0.6684706E-006  0.1145512E+03  0.7561462E-02  0.1252366E+00
         -2   -1    0    0    0  501 -0.00000000000E+00  0.00000000000E+00  0.21838321762E+02  0.21838321762E+02  0.00000000000E+00 0.  1.
          2   -1    0    0  501    0  0.00000000000E+00 -0.00000000000E+00 -0.10966656963E+04  0.10966656963E+04  0.00000000000E+00 0. -1.
         23    2    1    2    0    0 -0.95465659127E+02 -0.34412395914E+01 -0.28612026559E+03  0.31424538691E+03  0.88089855313E+02 0.  0.
          5    1    1    2  502    0 -0.38843881647E+01 -0.10947301054E+02 -0.37568467847E+01  0.12904191937E+02  0.41800000000E+01 0.  1.
         -5    1    1    2    0  502  0.99350047292E+02  0.14388540646E+02 -0.78495026214E+03  0.79135443920E+03  0.41800000000E+01 0.  1.
        -11    1    3    3    0    0 -0.60158688609E+02  0.30377335884E+02 -0.23070022725E+03  0.24034235000E+03  0.00000000000E+00 0. -1.
         11    1    3    3    0    0 -0.35306970518E+02 -0.33818575476E+02 -0.55420038336E+02  0.73903036903E+02  0.00000000000E+00 0.  1.
</event>
<event>
 7    1  0.6684706E-006  0.8075693E+02  0.7561462E-02  0.1326917E+00
         -2   -1    0    0    0  501 -0.00000000000E+00  0.00000000000E+00  0.39003917677E+02  0.39003917677E+02  0.00000000000E+00 0. -1.
          2   -1    0    0  501    0  0.00000000000E+00 -0.00000000000E+00 -0.34951159618E+03  0.34951159618E+03  0.00000000000E+00 0.  1.
         23    2    1    2    0    0  0.81705339605E+01  0.41866198469E+01 -0.65389429446E+02  0.11317065991E+03  0.91910474755E+02 0.  0.
          5    1    1    2  502    0 -0.73703082185E+01 -0.37251617796E+02 -0.23826713683E+03  0.24131039216E+03  0.41800000000E+01 0. -1.
         -5    1    1    2    0  502 -0.80022574194E+00  0.33064997949E+02 -0.68511122298E+01  0.34034461791E+02  0.41800000000E+01 0. -1.
        -11    1    3    3    0    0 -0.16096982890E+02  0.42035651766E+02 -0.19910877298E+02  0.49219426168E+02  0.00000000000E+00 0. -1.
         11    1    3    3    0    0  0.24267516850E+02 -0.37849031919E+02 -0.45478552148E+02  0.63951233740E+02  0.00000000000E+00 0.  1.
</event>
<event>
 7    1  0.6684706E-006  0.1181130E+03  0.7561462E-02  0.1246243E+00
          2   -1    0    0  501    0  0.00000000000E+00  0.00000000000E+00  0.28948695925E+03  0.28948695925E+03  0.00000000000E+00 0. -1.
         -2   -1    0    0    0  501 -0.00000000000E+00 -0.00000000000E+00 -0.83401166860E+02  0.83401166860E+02  0.00000000000E+00 0.  1.
         23    2    1    2    0    0 -0.42832514335E+02 -0.94017268181E+02  0.14446406178E+03  0.19934059621E+03  0.90514844912E+02 0.  0.
          5    1    1    2  502    0  0.51649906728E+02  0.70932483386E+02 -0.18350230167E+02  0.89740366678E+02  0.41800000000E+01 0.  1.
         -5    1    1    2    0  502 -0.88173923937E+01  0.23084784796E+02  0.79971960774E+02  0.83807163224E+02  0.41800000000E+01 0.  1.
        -11    1    3    3    0    0  0.17955717918E+02 -0.30556808103E+02  0.69056307483E+01  0.36108365560E+02  0.00000000000E+00 0.  1.
         11    1    3    3    0    0 -0.60788232252E+02 -0.63460460078E+02  0.13755843104E+03  0.16323223065E+03  0.00000000000E+00 0. -1.
</event>
<event>
 7    1  0.6684706E-006  0.1291954E+03  0.7561462E-02  0.1228654E+00
          2   -1    0    0  501    0  0.00000000000E+00  0.00000000000E+00  0.82605509562E+03  0.82605509562E+03  0.00000000000E+00 0.  1.
         -2   -1    0    0    0  501 -0.00000000000E+00 -0.00000000000E+00 -0.38879529588E+02  0.38879529588E+02  0.00000000000E+00 0. -1.
         23    2    1    2    0    0  0.78446291489E+02 -0.58238993935E+02  0.10831388761E+03  0.16776644547E+03  0.82873885599E+02 0.  0.
          5    1    1    2  502    0  0.34077794580E+02  0.16221625849E+02  0.18916730718E+03  0.19294087108E+03  0.41800000000E+01 0. -1.
         -5    1    1    2    0  502 -0.11252408607E+03  0.42017368086E+02  0.48969437125E+03  0.50422730866E+03  0.41800000000E+01 0. -1.
        -11    1    3    3    0    0  0.52933559230E+02 -0.25581242035E+02  0.11165805550E+03  0.12618986883E+03  0.00000000000E+00 0.  1.
         11    1    3    3    0    0  0.25512732259E+02 -0.32657751901E+02 -0.33441678896E+01  0.41576576643E+02  0.00000000000E+00 0. -1.
</event>
<event>
 7    1  0.6684706E-006  0.1374114E+03  0.7561462E-02  0.1216855E+00
         -2   -1    0    0    0  501 -0.00000000000E+00  0.00000000000E+00  0.39096769769E+02  0.39096769769E+02  0.00000000000E+00 0. -1.
          2   -1    0    0  501    0  0.00000000000E+00 -0.00000000000E+00 -0.65996781131E+03  0.65996781131E+03  0.00000000000E+00 0.  1.
         23    2    1    2    0    0 -0.22433043027E+02 -0.11412699534E+03 -0.26013702071E+03  0.29993505562E+03  0.93603181370E+02 0.  0.
          5    1    1    2  502    0 -0.26656276984E+02  0.88512740698E+02 -0.31138036681E+03  0.32483883327E+03  0.41800000000E+01 0. -1.
         -5    1    1    2    0  502  0.49089320011E+02  0.25614254641E+02 -0.49353654029E+02  0.74290692189E+02  0.41800000000E+01 0. -1.
        -11    1    3    3    0    0  0.16139692851E+02 -0.26632555867E+02 -0.10914307101E+02  0.32998557799E+02  0.00000000000E+00 0. -1.
         11    1    3    3    0    0 -0.38572735878E+02 -0.87494439472E+02 -0.24922271361E+03  0.26693649782E+03  0.00000000000E+00 0.  1.
</event>
<event>
 7    1  0.6684706E-006  0.1304065E+03  0.7561462E-02  0.1226854E+00
          2   -1    0    0  501    0  0.00000000000E+00  0.00000000000E+00  0.33629826051E+03  0.33629826051E+03  0.00000000000E+00 0. -1.
         -2   -1    0    0    0  501 -0.00000000000E+00 -0.00000000000E+00 -0.54097996235E+02  0.54097996235E+02  0.00000000000E+00 0.  1.
         23    2    1    2    0    0 -0.38171123883E+02 -0.63265026233E+02  0.10430125914E+03  0.15909677004E+03  0.94728724984E+02 0.  0.
          5    1    1    2  502    0 -0.41296007542E+02 -0.63953250803E+01  0.53713831096E+02  0.68182904549E+02  0.41800000000E+01 0. -1.
         -5    1    1    2    0  502  0.79467131425E+02  0.69660351313E+02  0.12418517404E+03  0.16311658215E+03  0.41800000000E+01 0.  1.
        -11    1    3    3    0    0 -0.37380330128E+02 -0.84190778812E+02  0.10290202048E+03  0.13810938468E+03  0.00000000000E+00 0. -1.
         11    1    3    3    0    0 -0.79079375543E+00  0.20925752579E+02  0.13992386657E+01  0.20987385369E+02  0.00000000000E+00 0.  1.
</event>
<event>
 7    1  0.7175253E-006  0.2284707E+03  0.7561462E-02  0.1127721E+00
          2   -1    0    0  501    0  0.00000000000E+00  0.00000000000E+00  0.80557625023E+03  0.80557625023E+03  0.00000000000E+00 0. -1.
         -2   -1    0    0    0  501 -0.00000000000E+00 -0.00000000000E+00 -0.77511862228E+02  0.77511862228E+02  0.00000000000E+00 0.  1.
         23    2    1    2    0    0  0.21719779340E+03  0.29158743004E+02  0.29284661921E+03  0.38001015719E+03  0.10307018693E+03 0.  0.
          5    1    1    2  502    0 -0.19885344905E+03 -0.82893371131E+01  0.43088424709E+03  0.47464735762E+03  0.41800000000E+01 0.  1.
         -5    1    1    2    0  502 -0.18344344354E+02 -0.20869405891E+02  0.43335216991E+01  0.28430597643E+02  0.41800000000E+01 0.  1.
        -11    1    3    3    0    0  0.10584545454E+03 -0.20562226974E+02  0.19824213421E+03  0.22566791797E+03  0.00000000000E+00 0.  1.
         11    1    3    3    0    0  0.11135233886E+03  0.49720969978E+02  0.94604485001E+02  0.15434223922E+03  0.00000000000E+00 0. -1.
</event>
<event>
 7    1  0.6684706E-006  0.1366066E+03  0.7561462E-02  0.1217969E+00
          1   -1    0    0  501    0  0.00000000000E+00  0.00000000000E+00  0.18125095151E+03  0.18125095151E+03  0.00000000000E+00 0. -1.
         -1   -1    0    0    0  501 -0.00000000000E+00 -0.00000000000E+00 -0.11002203802E+03  0.11002203802E+03  0.00000000000E+00 0.  1.
         23    2    1    2    0    0  0.70401486626E+02  0.35745068813E+02  0.25487542536E+02  0.12665345430E+03  0.95694322699E+02 0.  0.
          5    1    1    2  502    0 -0.30220178463E+02 -0.83852531354E+02  0.48842792246E+02  0.10172313874E+03  0.41800000000E+01 0. -1.
         -5    1    1    2    0  502 -0.40181308163E+02  0.48107462540E+02 -0.31014212906E+01  0.62896396493E+02  0.41800000000E+01 0.  1.
        -11    1    3    3    0    0  0.88570366928E+02  0.92706501661E+01  0.30547903437E+02  0.94147911590E+02  0.00000000000E+00 0. -1.
         11    1    3    3    0    0 -0.18168880302E+02  0.26474418647E+02 -0.50603609009E+01  0.32505542706E+02  0.00000000000E+00 0.  1.
</event>
<event>
 6    1  0.6684706E-006  0.1030076E+03  0.7561462E-02  0.1274096E+00
         -1   -1    0    0    0  501 -0.00000000000E+00  0.00000000000E+00  0.12927400807E+03  0.12927400807E+03  0.00000000000E+00 0.  1.
          1   -1    0    0  501    0  0.00000000000E+00 -0.00000000000E+00 -0.18774374198E+03  0.18774374198E+03  0.00000000000E+00 0. -1.
          5    1    1    2  502    0  0.26197134836E+02  0.23707680784E+02 -0.12383595641E+03  0.12884549081E+03  0.41800000000E+01 0.  1.
         -5    1    1    2    0  502 -0.15854799974E+02  0.14906182711E+02  0.26552468335E+02  0.34584316386E+02  0.41800000000E+01 0.  1.
        -11    1    1    2    0    0 -0.12175872286E+02 -0.93033479426E+02  0.19641100815E+02  0.95860591493E+02  0.00000000000E+00 0.  1.
         11    1    1    2    0    0  0.18335374242E+01  0.54419615931E+02  0.19172653352E+02  0.57727351352E+02  0.00000000000E+00 0. -1.
</event>
<event>
 7    1  0.6684706E-006  0.1134229E+03  0.7561462E-02  0.1254359E+00
         -1   -1    0    0    0  501 -0.00000000000E+00  0.00000000000E+00  0.26806299330E+03  0.26806299330E+03  0.00000000000E+00 0.  1.
          1   -1    0    0  501    0  0.00000000000E+00 -0.00000000000E+00 -0.16047733436E+03  0.16047733436E+03  0.00000000000E+00 0. -1.
         23    2    1    2    0    0  0.18061023293E+02  0.73989751937E+02  0.22175322672E+03  0.25203176307E+03  0.92438260919E+02 0.  0.
          5    1    1    2  502    0 -0.49872378200E+02 -0.73807175717E+02 -0.44185393724E+02  0.99521729854E+02  0.41800000000E+01 0. -1.
         -5    1    1    2    0  502  0.31811354907E+02 -0.18257621962E+00 -0.69982174061E+02  0.76986834728E+02  0.41800000000E+01 0.  1.
        -11    1    3    3    0    0  0.44596239888E+02  0.62232783006E+02  0.20427670905E+03  0.21815296870E+03  0.00000000000E+00 0.  1.
         11    1    3    3    0    0 -0.26535216595E+02  0.11756968930E+02  0.17476517673E+02  0.33878794373E+02  0.00000000000E+00 0. -1.
</event>
<event>
 7    1  0.6684706E-006  0.3025145E+03  0.7561462E-02  0.1083990E+00
          1   -1    0    0  501    0  0.00000000000E+00  0.00000000000E+00  0.21087149746E+03  0.21087149746E+03  0.00000000000E+00 0. -1.
         -1   -1    0    0    0  501 -0.00000000000E+00 -0.00000000000E+00 -0.62731645942E+03  0.62731645942E+03  0.00000000000E+00 0.  1.
         23    2    1    2    0    0  0.28394847820E+03 -0.71827429721E+02 -0.41897219805E+03  0.51969654214E+03  0.93599547234E+02 0.  0.
          5    1    1    2  502    0 -0.44069619464E+02 -0.79283288184E+01 -0.42281426783E+02  0.61726665295E+02  0.41800000000E+01 0.  1.
         -5    1    1    2    0  502 -0.23987885874E+03  0.79755758540E+02  0.44808662872E+02  0.25676474945E+03  0.41800000000E+01 0.  1.
        -11    1    3    3    0    0  0.65828126638E+02 -0.59550162485E+02 -0.13073484591E+03  0.15802266940E+03  0.00000000000E+00 0.  1.
         11    1    3    3    0    0  0.21812035156E+03 -0.12277267237E+02 -0.28823735214E+03  0.36167387274E+03  0.00000000000E+00 0. -1.
</event>
<event>
 7    1  0.6684706E-006  0.1139221E+03  0.7561462E-02  0.1253474E+00
         -2   -1    0    0    0  501 -0.00000000000E+00  0.00000000000E+00  0.58798364366E+02  0.58798364366E+02  0.00000000000E+00 0.  1.
          2   -1    0    0  501    0  0.00000000000E+00 -0.00000000000E+00 -0.28763590063E+03  0.28763590063E+03  0.00000000000E+00 0. -1.
         23    2    1    2    0    0  0.19551725475E+01 -0.33495473826E+02 -0.19618736606E+02  0.10039123192E+03  0.92562061096E+02 0.  0.
          5    1    1    2  502    0 -0.49833935826E+02  0.57120054764E+02 -0.12144659852E+03  0.14322314935E+03  0.41800000000E+01 0.  1.
         -5    1    1    2    0  502  0.47878763278E+02 -0.23624580937E+02 -0.87772201134E+02  0.10281988373E+03  0.41800000000E+01 0.  1.
        -11    1    3    3    0    0 -0.38535095430E+02  0.91085700437E+01 -0.58780865603E+01  0.40030882200E+02  0.00000000000E+00 0. -1.
         11    1    3    3    0    0  0.40490267978E+02 -0.42604043870E+02 -0.13740650045E+02  0.60360349723E+02  0.00000000000E+00 0.  1.
</event>
<event>
 7    1  0.6684706E-006  0.9705235E+02  0.7561462E-02  0.1286619E+00
          1   -1    0    0  501    0  0.00000000000E+00  0.00000000000E+00  0.12927904475E+03  0.12927904475E+03  0.00000000000E+00 0. -1.
         -1   -1    0    0    0  501 -0.00000000000E+00 -0.00000000000E+00 -0.11816203722E+03  0.11816203722E+03  0.00000000000E+00 0.  1.
         23    2    1    2    0    0  0.35160878789E+02  0.50202660034E+01 -0.42088243834E+02  0.10693514923E+03  0.91663599118E+02 0.  0.
          5    1    1    2  502    0 -0.66997895401E+02  0.24027406893E+02 -0.77822679246E+00  0.71302961419E+02  0.41800000000E+01 0. -1.
         -5    1    1    2    0  502  0.31837016612E+02 -0.29047672897E+02  0.53983478149E+02  0.69202971328E+02  0.41800000000E+01 0. -1.
        -11    1    3    3    0    0  0.18478220327E+02 -0.33092862436E+02  0.11019284139E+02  0.39471594769E+02  0.00000000000E+00 0. -1.
         11    1    3    3    0    0  0.16682658462E+02  0.38113128439E+02 -0.53107527972E+02  0.67463554458E+02  0.00000000000E+00 0.  1.
</event>
<event>
 7    1  0.6684706E-006  0.1071928E+03  0.7561462E-02  0.1265858E+00
         -1   -1    0    0    0  501 -0.00000000000E+00  0.00000000000E+00  0.27410828760E+02  0.27410828760E+02  0.00000000000E+00 0.  1.
          1   -1    0    0  501    0  0.00000000000E+00 -0.00000000000E+00 -0.11145489838E+04  0.11145489838E+04  0.00000000000E+00 0. -1.
         23    2    1    2    0    0  0.68339514555E+02  0.12628579987E+02 -0.12294572830E+03  0.16720651042E+03  0.89513098141E+02 0.  0.
          5    1    1    2  502    0 -0.84678860026E+02 -0.38362661388E+02 -0.88360922655E+03  0.88849588675E+03  0.41800000000E+01 0.  1.
         -5    1    1    2    0  502  0.16339345472E+02  0.25734081401E+02 -0.80583200159E+02  0.86257415356E+02  0.41800000000E+01 0.  1.
        -11    1    3    3    0    0  0.31219736539E+02  0.35252205526E+02 -0.12807438661E+02  0.48799799478E+02  0.00000000000E+00 0.  1.
         11    1    3    3    0    0  0.37119778016E+02 -0.22623625539E+02 -0.11013828964E+03  0.11840671094E+03  0.00000000000E+00 0. -1.
</event>
<event>
 7    1  0.6684706E-006  0.1891647E+03  0.7561462E-02  0.1159217E+00
         -2   -1    0    0    0  501 -0.00000000000E+00  0.00000000000E+00  0.14126973119E+02  0.14126973119E+02  0.00000000000E+00 0.  1.
          2   -1    0    0  501    0  0.00000000000E+00 -0.00000000000E+00 -0.28800298625E+04  0.28800298625E+04  0.00000000000E+00 0. -1.
         23    2    1    2    0    0  0.14585067569E+03 -0.44550955276E+02 -0.90470404110E+03  0.92306427389E+03  0.10149406160E+03 0.  0.
          5    1    1    2  502    0 -0.65658707581E+02  0.83274065373E+02 -0.92588621300E+03  0.93194870442E+03  0.41800000000E+01 0. -1.
         -5    1    1    2    0  502 -0.80191968111E+02 -0.38723110097E+02 -0.10353126353E+04  0.10391438573E+04  0.41800000000E+01 0. -1.
        -11    1    3    3    0    0  0.11717037830E+03 -0.76643436085E+02 -0.67645674930E+03  0.69079435979E+03  0.00000000000E+00 0. -1.
         11    1    3    3    0    0  0.28680297390E+02  0.32092480808E+02 -0.22824729180E+03  0.23226991410E+03  0.00000000000E+00 0.  1.
</event>
<event>
 7    1  0.6684706E-006  0.9137047E+02  0.7561462E-02  0.1299566E+00
         -1   -1    0    0    0  501 -0.00000000000E+00  0.00000000000E+00  0.61911897842E+02  0.61911897842E+02  0.00000000000E+00 0.  1.
          1   -1    0    0  501    0  0.00000000000E+00 -0.00000000000E+00 -0.25087048504E+03  0.25087048504E+03  0.00000000000E+00 0. -1.
         23    2    1    2    0    0 -0.12591507432E+02  0.49351397804E+02 -0.37681338316E+02  0.10998723213E+03  0.89906626287E+02 0.  0.
          5    1    1    2  502    0 -0.10740174624E+02 -0.61595348421E+02 -0.15677191136E+02  0.64595549537E+02  0.41800000000E+01 0. -1.
         -5    1    1    2    0  502  0.23331682057E+02  0.12243950617E+02 -0.13560005775E+03  0.13819960121E+03  0.41800000000E+01 0. -1.
        -11    1    3    3    0    0  0.33097231216E+02  0.25995768637E+02  0.61124898156E+01  0.42527276340E+02  0.00000000000E+00 0. -1.
         11    1    3    3    0    0 -0.45688738648E+02  0.23355629167E+02 -0.43793828131E+02  0.67459955792E+02  0.00000000000E+00 0.  1.
</event>
<event>
 7    1  0.6684706E-006  0.1006232E+03  0.7561462E-02  0.1278991E+00
          2   -1    0    0  501    0  0.00000000000E+00  0.00000000000E+00  0.48420995454E+03  0.48420995454E+03  0.00000000000E+00 0.  1.
         -2   -1    0    0    0  501 -0.00000000000E+00 -0.00000000000E+00 -0.22860995764E+02  0.22860995764E+02  0.00000000000E+00 0. -1.
         23    2    1    2    0    0 -0.13138979035E+02  0.11731279475E+02  0.16526983937E+03  0.18516859681E+03  0.81627408098E+02 0.  0.
          5    1    1    2  502    0 -0.15557908916E+02  0.52464851224E+02  0.10987907102E+03  0.12282301003E+03  0.41800000000E+01 0.  1.
         -5    1    1    2    0  502  0.28696887951E+02 -0.64196130698E+02  0.18620004838E+03  0.19907934346E+03  0.41800000000E+01 0.  1.
        -11    1    3    3    0    0 -0.83157319027E+01 -0.31419874891E+02  0.11103492910E+03  0.11569405955E+03  0.00000000000E+00 0.  1.
         11    1    3    3    0    0 -0.48232471326E+01  0.43151154366E+02  0.54234910271E+02  0.69474537264E+02  0.00000000000E+00 0. -1.
</event>
<event>
 7    1  0.6684706E-006  0.1433437E+03  0.7561462E-02  0.1208899E+00
          1   -1    0    0  501    0  0.00000000000E+00  0.00000000000E+00  0.22474988326E+04  0.22474988326E+04  0.00000000000E+00 0. -1.
         -1   -1    0    0    0  501 -0.00000000000E+00 -0.00000000000E+00 -0.13532830897E+02  0.13532830897E+02  0.00000000000E+00 0.  1.
         23    2    1    2    0    0 -0.57028403189E+02  0.10998307350E+03  0.71853744540E+03  0.73541036672E+03  0.95832310859E+02 0.  0.
          5    1    1    2  502    0  0.48144358856E+02 -0.49578190340E+02  0.12951675659E+04  0.12970167202E+04  0.41800000000E+01 0. -1.
         -5    1    1    2    0  502  0.88840443327E+01 -0.60404883162E+02  0.22026099043E+03  0.22860457663E+03  0.41800000000E+01 0. -1.
        -11    1    3    3    0    0 -0.14018381997E+02  0.11231133896E+03  0.54235801550E+03  0.55404202807E+03  0.00000000000E+00 0.  1.
         11    1    3    3    0    0 -0.43010021192E+02 -0.23282654554E+01  0.17617942990E+03  0.18136833865E+03  0.00000000000E+00 0. -1.
</event>
<event>
 7    1  0.6684706E-006  0.1033866E+03  0.7561462E-02  0.1273331E+00
          2   -1    0    0  501    0  0.00000000000E+00  0.00000000000E+00  0.66790452544E+03  0.66790452544E+03  0.00000000000E+00 0. -1.
         -2   -1    0    0    0  501 -0.00000000000E+00 -0.00000000000E+00 -0.18013185748E+02  0.18013185748E+02  0.00000000000E+00 0.  1.
         23    2    1    2    0    0  0.23129834071E+02 -0.85574426885E+01  0.31357470908E+03  0.32624484128E+03  0.86593182403E+02 0.  0.
          5    1    1    2  502    0  0.86056306016E+01 -0.52311095704E+02  0.96412577776E+02  0.11010615408E+03  0.41800000000E+01 0. -1.
         -5    1    1    2    0  502 -0.31735464673E+02  0.60868538393E+02  0.23990405283E+03  0.24956671583E+03  0.41800000000E+01 0. -1.
        -11    1    3    3    0    0  0.52554862960E+02 -0.15095519183E+02  0.14440667454E+03  0.15441235693E+03  0.00000000000E+00 0.  1.
         11    1    3    3    0    0 -0.29425028888E+02  0.65380764941E+01  0.16916803454E+03  0.17183248435E+03  0.00000000000E+00 0. -1.
</event>
<event>
 7    1  0.6684706E-006  0.1069444E+03  0.7561462E-02  0.1266335E+00
         -3   -1    0    0    0  501 -0.00000000000E+00  0.00000000000E+00  0.31299924394E+03  0.31299924394E+03  0.00000000000E+00 0.  1.
          3   -1    0    0  501    0  0.00000000000E+00 -0.00000000000E+00 -0.75785175898E+02  0.75785175898E+02  0.00000000000E+00 0. -1.
         23    2    1    2    0    0 -0.37636552685E+02 -0.78659793275E+02  0.19095340519E+03  0.22943775224E+03  0.92599168574E+02 0.  0.
          5    1    1    2  502    0 -0.22595445387E+02  0.46198325052E+02 -0.27651040146E+02  0.58539660155E+02  0.41800000000E+01 0.  1.
         -5    1    1    2    0  502  0.60231998072E+02  0.32461468223E+02  0.73911702999E+02  0.10080700745E+03  0.41800000000E+01 0.  1.
        -11    1    3    3    0    0 -0.23162772934E+02 -0.13116387914E+02 -0.43291423912E+00  0.26622191807E+02  0.00000000000E+00 0. -1.
         11    1    3    3    0    0 -0.14473779751E+02 -0.65543405361E+02  0.19138631943E+03  0.20281556043E+03  0.00000000000E+00 0.  1.
</event>
<event>
 7    1  0.6684706E-006  0.1082061E+03  0.7561462E-02  0.1263928E+00
          1   -1    0    0  501    0  0.00000000000E+00  0.00000000000E+00  0.12895518368E+04  0.12895518368E+04  0.00000000000E+00 0. -1.
         -1   -1    0    0    0  501 -0.00000000000E+00 -0.00000000000E+00 -0.15173374223E+02  0.15173374223E+02  0.00000000000E+00 0.  1.
         23    2    1    2    0    0  0.87100258387E+02 -0.31986171997E+01  0.53695302282E+03  0.55170422492E+03  0.91990852368E+02 0.  0.
          5    1    1    2  502    0 -0.11532371469E+02  0.11435251136E+02  0.62560876167E+01  0.17898927133E+02  0.41800000000E+01 0.  1.
         -5    1    1    2    0  502 -0.75567886918E+02 -0.82366339360E+01  0.73116935214E+03  0.73512205897E+03  0.41800000000E+01 0.  1.
        -11    1    3    3    0    0 -0.17289978508E+02  0.69393448012E+01  0.45163233599E+02  0.48855046128E+02  0.00000000000E+00 0. -1.
         11    1    3    3    0    0  0.10439023689E+03 -0.10137962001E+02  0.49178978922E+03  0.50284917880E+03  0.00000000000E+00 0.  1.
</event>
<event>
 7    1  0.6684706E-006  0.1137156E+03  0.7561462E-02  0.1253840E+00
          2   -1    0    0  501    0  0.00000000000E+00  0.00000000000E+00  0.57208505053E+02  0.57208505053E+02  0.00000000000E+00 0. -1.
         -2   -1    0    0    0  501 -0.00000000000E+00 -0.00000000000E+00 -0.36775483524E+03  0.36775483524E+03  0.00000000000E+00 0.  1.
         23    2    1    2    0    0  0.38578818450E+01  0.75363116884E+02 -0.22847183307E+03  0.25739891628E+03  0.91434900102E+02 0.  0.
          5    1    1    2  502    0 -0.40302932213E+02 -0.48048140572E+00 -0.73252642043E+02  0.83713673755E+02  0.41800000000E+01 0.  1.
         -5    1    1    2    0  502  0.36445050368E+02 -0.74882635478E+02 -0.88218550766E+01  0.83850750261E+02  0.41800000000E+01 0.  1.
        -11    1    3    3    0    0 -0.14307331134E+02  0.82703208613E+02 -0.11569571522E+03  0.14293361732E+03  0.00000000000E+00 0. -1.
         11    1    3    3    0    0  0.18165212979E+02 -0.73400917296E+01 -0.11277611785E+03  0.11446529896E+03  0.00000000000E+00 0.  1.
</event>
<event>
 7    1  0.6684706E-006  0.1222120E+03  0.7561462E-02  0.1239492E+00
          2   -1    0    0  501    0  0.00000000000E+00  0.00000000000E+00  0.16538533560E+04  0.16538533560E+04  0.00000000000E+00 0.  1.
         -2   -1    0    0    0  501 -0.00000000000E+00 -0.00000000000E+00 -0.20384659946E+02  0.20384659946E+02  0.00000000000E+00 0. -1.
         23    2    1    2    0    0  0.77879763701E+02 -0.66341181376E+02  0.28316181485E+03  0.31429559667E+03  0.90192564879E+02 0.  0.
          5    1    1    2  502    0  0.13446218792E+02  0.33297824302E+02  0.10908629334E+03  0.11492100634E+03  0.41800000000E+01 0. -1.
         -5    1    1    2    0  502 -0.91325982493E+02  0.33043357074E+02  0.12412205879E+04  0.12450214129E+04  0.41800000000E+01 0. -1.
        -11    1    3    3    0    0  0.40406376659E+02 -0.71931133498E+01  0.20621411932E+03  0.21025860068E+03  0.00000000000E+00 0.  1.
         11    1    3    3    0    0  0.37473387042E+02 -0.59148068026E+02  0.76947695530E+02  0.10403699599E+03  0.00000000000E+00 0. -1.
</event>
<event>
 7    1  0.6684706E-006  0.1744960E+03  0.7561462E-02  0.1173239E+00
         -2   -1    0    0    0  501 -0.00000000000E+00  0.00000000000E+00  0.13694652625E+03  0.13694652625E+03  0.00000000000E+00 0. -1.
          2   -1    0    0  501    0  0.00000000000E+00 -0.00000000000E+00 -0.76592259916E+03  0.76592259916E+03  0.00000000000E+00 0.  1.
         23    2    1    2    0    0  0.16925202198E+03 -0.84280796112E+01  0.44239331733E+02  0.19747323206E+03  0.91221047113E+02 0.  0.
          5    1    1    2  502    0 -0.14848583967E+03 -0.35456586191E+01 -0.66223633639E+03  0.67870100480E+03  0.41800000000E+01 0. -1.
         -5    1    1    2    0  502 -0.20766182318E+02  0.11973738230E+02 -0.10979068247E+02  0.26694888553E+02  0.41800000000E+01 0. -1.
        -11    1    3    3    0    0  0.10082957223E+03 -0.28475742997E+02  0.64894443980E+02  0.12324268512E+03  0.00000000000E+00 0. -1.
         11    1    3    3    0    0  0.68422449754E+02  0.20047663386E+02 -0.20655112247E+02  0.74230546943E+02  0.00000000000E+00 0.  1.
</event>
<event>
 7    1  0.6684706E-006  0.1137865E+03  0.7561462E-02  0.1253714E+00
          1   -1    0    0  501    0  0.00000000000E+00  0.00000000000E+00  0.58461601498E+03  0.58461601498E+03  0.00000000000E+00 0. -1.
         -1   -1    0    0    0  501 -0.00000000000E+00 -0.00000000000E+00 -0.33625013981E+02  0.33625013981E+02  0.00000000000E+00 0.  1.
         23    2    1    2    0    0  0.45072199047E+02 -0.34237784036E+01  0.78637843685E+02  0.12751832199E+03  0.89631392929E+02 0.  0.
          5    1    1    2  502    0  0.20240121237E+02  0.45359399320E+02  0.25656163382E+03  0.26135891407E+03  0.41800000000E+01 0. -1.
         -5    1    1    2    0  502 -0.65312320284E+02 -0.41935620916E+02  0.21579152349E+03  0.22936379290E+03  0.41800000000E+01 0. -1.
        -11    1    3    3    0    0  0.59854211019E+02  0.27389160497E+02  0.56967826291E+02  0.87051857659E+02  0.00000000000E+00 0.  1.
         11    1    3    3    0    0 -0.14782011973E+02 -0.30812938901E+02  0.21670017394E+02  0.40466464332E+02  0.00000000000E+00 0. -1.
</event>
<event>
 7    1  0.6684706E-006  0.1055580E+03  0.7561462E-02  0.1269024E+00
          2   -1    0    0  501    0  0.00000000000E+00  0.00000000000E+00  0.22996147616E+03  0.22996147616E+03  0.00000000000E+00 0. -1.
         -2   -1    0    0    0  501 -0.00000000000E+00 -0.00000000000E+00 -0.10137328322E+03  0.10137328322E+03  0.00000000000E+00 0.  1.
         23    2    1    2    0    0 -0.18204246846E+02  0.17839775999E+02 -0.53398651527E+02  0.10903677912E+03  0.91585757659E+02 0.  0.
          5    1    1    2  502    0 -0.43989241502E+02 -0.40205909401E+02  0.68409830347E+02  0.90823707295E+02  0.41800000000E+01 0. -1.
         -5    1    1    2    0  502  0.62193488348E+02  0.22366133402E+02  0.11357701411E+03  0.13147427296E+03  0.41800000000E+01 0. -1.
        -11    1    3    3    0    0  0.22811666023E+02 -0.19251644658E+02 -0.43656028762E+02  0.52885222662E+02  0.00000000000E+00 0.  1.
         11    1    3    3    0    0 -0.41015912869E+02  0.37091420657E+02 -0.97426227659E+01  0.56151556463E+02  0.00000000000E+00 0. -1.
</event>
<event>
 7    1  0.6684706E-006  0.1089061E+03  0.7561462E-02  0.1262609E+00
          2   -1    0    0  501    0  0.00000000000E+00  0.00000000000E+00  0.16905828984E+03  0.16905828984E+03  0.00000000000E+00 0. -1.
         -2   -1    0    0    0  501 -0.00000000000E+00 -0.00000000000E+00 -0.72373893602E+02  0.72373893602E+02  0.00000000000E+00 0.  1.
         23    2    1    2    0    0 -0.17556373945E+02 -0.25109845816E+01  0.21065703940E+02  0.94190179865E+02  0.90074939860E+02 0.  0.
          5    1    1    2  502    0 -0.36735064007E+02  0.44060771338E+02  0.29241672356E+02  0.64524137349E+02  0.41800000000E+01 0.  1.
         -5    1    1    2    0  502  0.54291437952E+02 -0.41549786756E+02  0.46377019940E+02  0.82717866226E+02  0.41800000000E+01 0.  1.
        -11    1    3    3    0    0  0.20035598917E+02 -0.36165648754E+02  0.90617534774E+01  0.42326052850E+02  0.00000000000E+00 0.  1.
         11    1    3    3    0    0 -0.37591972863E+02  0.33654664173E+02  0.12003950463E+02  0.51864127015E+02  0.00000000000E+00 0. -1.
</event>
<event>
 7    1  0.6684706E-006  0.1181468E+03  0.7561462E-02  0.1246186E+00
          1   -1    0    0  501    0  0.00000000000E+00  0.00000000000E+00  0.57413843203E+03  0.57413843203E+03  0.00000000000E+00 0. -1.
         -1   -1    0    0    0  501 -0.00000000000E+00 -0.00000000000E+00 -0.39402462311E+02  0.39402462311E+02  0.00000000000E+00 0.  1.
         23    2    1    2    0    0 -0.92930828571E+02 -0.36713068200E+02  0.18962145285E+03  0.23309959449E+03  0.91624981841E+02 0.  0.
          5    1    1    2  502    0  0.82594244452E+02  0.35154339626E+02  0.97590094777E+02  0.13266098074E+03  0.41800000000E+01 0.  1.
         -5    1    1    2    0  502  0.10336584119E+02  0.15587285742E+01  0.24752442210E+03  0.24778031912E+03  0.41800000000E+01 0.  1.
        -11    1    3    3    0    0 -0.49059021477E+02 -0.66138744679E+02  0.10670935987E+03  0.13478875554E+03  0.00000000000E+00 0.  1.
         11    1    3    3    0    0 -0.43871807094E+02  0.29425676479E+02  0.82912092971E+02  0.98310838949E+02  0.00000000000E+00 0. -1.
</event>
<event>
 7    1  0.6684706E-006  0.5537659E+02  0.7561462E-02  0.1418326E+00
         -2   -1    0    0    0  501 -0.00000000000E+00  0.00000000000E+00  0.84646499359E+02  0.84646499359E+02  0.00000000000E+00 0.  1.
          2   -1    0    0  501    0  0.00000000000E+00 -0.00000000000E+00 -0.15225734170E+03  0.15225734170E+03  0.00000000000E+00 0. -1.
         23    2    1    2    0    0  0.17254110327E+02  0.10389810542E+02  0.14280973426E+01  0.92610173251E+02  0.90382256230E+02 0.  0.
          5    1    1    2  502    0  0.23071682116E+02  0.64899113998E+01  0.28411804589E+02  0.37404872752E+02  0.41800000000E+01 0.  1.
         -5    1    1    2    0  502 -0.40325792443E+02 -0.16879721942E+02 -0.97450744272E+02  0.10688879505E+03  0.41800000000E+01 0.  1.
        -11    1    3    3    0    0  0.19826066280E+02 -0.98278591794E+01  0.41850515368E+02  0.47340525523E+02  0.00000000000E+00 0.  1.
         11    1    3    3    0    0 -0.25719559524E+01  0.20217669721E+02 -0.40422418026E+02  0.45269647728E+02  0.00000000000E+00 0. -1.
</event>
<event>
 7    1  0.6684706E-006  0.1972116E+03  0.7561462E-02  0.1152113E+00
          3   -1    0    0  501    0  0.00000000000E+00  0.00000000000E+00  0.20460927602E+03  0.20460927602E+03  0.00000000000E+00 0. -1.
         -3   -1    0    0    0  501 -0.00000000000E+00 -0.00000000000E+00 -0.23643226937E+03  0.23643226937E+03  0.00000000000E+00 0.  1.
         23    2    1    2    0    0  0.16876864859E+03  0.81252524118E+02  0.21806227192E+02  0.20950680704E+03  0.91283959321E+02 0.  0.
          5    1    1    2  502    0 -0.99644876568E+02 -0.78921935075E+02  0.21882248475E+02  0.12905068175E+03  0.41800000000E+01 0.  1.
         -5    1    1    2    0  502 -0.69123772019E+02 -0.23305890431E+01 -0.75511469016E+02  0.10248405660E+03  0.41800000000E+01 0.  1.
        -11    1    3    3    0    0  0.96793392362E+02  0.11071943434E+02  0.43452178887E+02  0.10667539822E+03  0.00000000000E+00 0. -1.
         11    1    3    3    0    0  0.71975256226E+02  0.70180580684E+02 -0.21645951694E+02  0.10283140881E+03  0.00000000000E+00 0.  1.
</event>
<event>
 7    1  0.6684706E-006  0.1458413E+03  0.7561462E-02  0.1205678E+00
          1   -1    0    0  501    0  0.00000000000E+00  0.00000000000E+00  0.18290361138E+03  0.18290361138E+03  0.00000000000E+00 0. -1.
         -1   -1    0    0    0  501 -0.00000000000E+00 -0.00000000000E+00 -0.28153377668E+03  0.28153377668E+03  0.00000000000E+00 0.  1.
         23    2    1    2    0    0 -0.98776481154E+02  0.66735175697E+02 -0.20710653211E+03  0.25624695383E+03  0.92514911251E+02 0.  0.
          5    1    1    2  502    0  0.35763908077E+02  0.16299714532E+02  0.95136345271E+02  0.10302006798E+03  0.41800000000E+01 0. -1.
         -5    1    1    2    0  502  0.63012573077E+02 -0.83034890230E+02  0.13340021531E+02  0.10517036624E+03  0.41800000000E+01 0.  1.
        -11    1    3    3    0    0 -0.11370256526E+03  0.46857892089E+02 -0.18902338115E+03  0.22550781365E+03  0.00000000000E+00 0.  1.
         11    1    3    3    0    0  0.14926084109E+02  0.19877283609E+02 -0.18083150959E+02  0.30739140182E+02  0.00000000000E+00 0. -1.
</event>
<event>
 7    1  0.6684706E-006  0.1678983E+03  0.7561462E-02  0.1180058E+00
          2   -1    0    0  501    0  0.00000000000E+00  0.00000000000E+00  0.87488554628E+03  0.87488554628E+03  0.00000000000E+00 0. -1.
         -2   -1    0    0    0  501 -0.00000000000E+00 -0.00000000000E+00 -0.44306759101E+02  0.44306759101E+02  0.00000000000E+00 0.  1.
         23    2    1    2    0    0  0.13631469865E+03  0.76034411593E+02  0.27349345621E+03  0.32728492166E+03  0.89184194461E+02 0.  0.
          5    1    1    2  502    0 -0.14502587467E+03 -0.70292561993E+02  0.55781428347E+03  0.58064429373E+03  0.41800000000E+01 0. -1.
         -5    1    1    2    0  502  0.87111760165E+01 -0.57418496005E+01 -0.72895250166E+00  0.11263089992E+02  0.41800000000E+01 0. -1.
        -11    1    3    3    0    0  0.38651993303E+02  0.48208636035E+02  0.42615056046E+02  0.75060590036E+02  0.00000000000E+00 0.  1.
         11    1    3    3    0    0  0.97662705348E+02  0.27825775558E+02  0.23087840016E+03  0.25222433162E+03  0.00000000000E+00 0. -1.
</event>
<event>
 7    1  0.6684706E-006  0.1125243E+03  0.7561462E-02  0.1255965E+00
         -1   -1    0    0    0  501 -0.00000000000E+00  0.00000000000E+00  0.32157440480E+02  0.32157440480E+02  0.00000000000E+00 0.  1.
          1   -1    0    0  501    0  0.00000000000E+00 -0.00000000000E+00 -0.54154206987E+03  0.54154206987E+03  0.00000000000E+00 0. -1.
         23    2    1    2    0    0  0.60287828008E+02 -0.17127103557E+02 -0.13712626903E+03  0.17601602448E+03  0.90829881284E+02 0.  0.
          5    1    1    2  502    0 -0.91335668622E+02  0.39131333536E+02 -0.29766249151E+03  0.31383737330E+03  0.41800000000E+01 0.  1.
         -5    1    1    2    0  502  0.31047840614E+02 -0.22004229979E+02 -0.74595868850E+02  0.83846112570E+02  0.41800000000E+01 0.  1.
        -11    1    3    3    0    0  0.65708934187E+02  0.36782523796E+01 -0.41052892851E+02  0.77566317329E+02  0.00000000000E+00 0.  1.
         11    1    3    3    0    0 -0.54211061786E+01 -0.20805355937E+02 -0.96073376183E+02  0.98449707155E+02  0.00000000000E+00 0. -1.
</event>
<event>
 7    1  0.6684706E-006  0.8823074E+02  0.7561462E-02  0.1307194E+00
         -1   -1    0    0    0  501 -0.00000000000E+00  0.00000000000E+00  0.16002505710E+03  0.16002505710E+03  0.00000000000E+00 0.  1.
          1   -1    0    0  501    0  0.00000000000E+00 -0.00000000000E+00 -0.92912619565E+02  0.92912619565E+02  0.00000000000E+00 0. -1.
         23    2    1    2    0    0  0.17402068773E+02 -0.44204553652E+02  0.53969768951E+02  0.11849403865E+03  0.94187189545E+02 0.  0.
          5    1    1    2  502    0  0.38705247039E+02  0.89600045124E+01 -0.34454790232E+02  0.52753983728E+02  0.41800000000E+01 0.  1.
         -5    1    1    2    0  502 -0.56107315812E+02  0.35244549140E+02  0.47597458821E+02  0.81689654289E+02  0.41800000000E+01 0.  1.
        -11    1    3    3    0    0  0.69688496818E+01  0.11501678873E+02  0.60009851428E+02  0.61498258115E+02  0.00000000000E+00 0.  1.
         11    1    3    3    0    0  0.10433219092E+02 -0.55706232525E+02 -0.60400824768E+01  0.56995780537E+02  0.00000000000E+00 0. -1.
</event>
<event>
 7    1  0.6684706E-006  0.5866626E+02  0.7561462E-02  0.1403516E+00
          1   -1    0    0  501    0  0.00000000000E+00  0.00000000000E+00  0.86683558076E+03  0.86683558076E+03  0.00000000000E+00 0. -1.
         -1   -1    0    0    0  501 -0.00000000000E+00 -0.00000000000E+00 -0.14623124182E+02  0.14623124182E+02  0.00000000000E+00 0.  1.
         23    2    1    2    0    0 -0.12593716805E+02 -0.22213543147E+02  0.31022654128E+03  0.32463787114E+03  0.92180243322E+02 0.  0.
          5    1    1    2  502    0  0.70536444857E+01  0.28922348835E+01 -0.46090467717E+01  0.98404590999E+01  0.41800000000E+01 0. -1.
         -5    1    1    2    0  502  0.55400723188E+01  0.19321308264E+02  0.54659496207E+03  0.54698037470E+03  0.41800000000E+01 0. -1.
        -11    1    3    3    0    0 -0.65557882161E+01  0.32453377683E+02  0.60910163369E+02  0.69327109300E+02  0.00000000000E+00 0.  1.
         11    1    3    3    0    0 -0.60379285884E+01 -0.54666920830E+02  0.24931637791E+03  0.25531076184E+03  0.00000000000E+00 0. -1.
</event>
<event>
 7    1  0.6684706E-006  0.6749201E+02  0.7561462E-02  0.1368835E+00
         -1   -1    0    0    0  501 -0.00000000000E+00  0.00000000000E+00  0.11091199403E+03  0.11091199403E+03  0.00000000000E+00 0.  1.
          1   -1    0    0  501    0  0.00000000000E+00 -0.00000000000E+00 -0.12343743004E+03  0.12343743004E+03  0.00000000000E+00 0. -1.
         23    2    1    2    0    0 -0.88850073366E+01 -0.42276676696E+01  0.38615880642E+02  0.98854714027E+02  0.90466854253E+02 0.  0.
          5    1    1    2  502    0 -0.29780629899E+02 -0.13956317962E+02  0.29344455861E+02  0.44274532387E+02  0.41800000000E+01 0.  1.
         -5    1    1    2    0  502  0.38665637236E+02  0.18183985632E+02 -0.80485772510E+02  0.91220177663E+02  0.41800000000E+01 0.  1.
        -11    1    3    3    0    0 -0.31442260987E+02  0.90564311307E+01  0.57786842566E+02  0.66407483724E+02  0.00000000000E+00 0.  1.
         11    1    3    3    0    0  0.22557253651E+02 -0.13284098800E+02 -0.19170961925E+02  0.32447230303E+02  0.00000000000E+00 0. -1.
</event>
<event>
 7    1  0.6684706E-006  0.1255949E+03  0.7561462E-02  0.1234142E+00
          1   -1    0    0  501    0  0.00000000000E+00  0.00000000000E+00  0.10196522669E+04  0.10196522669E+04  0.00000000000E+00 0. -1.
         -1   -1    0    0    0  501 -0.00000000000E+00 -0.00000000000E+00 -0.16816819084E+02  0.16816819084E+02  0.00000000000E+00 0.  1.
         23    2    1    2    0    0  0.77798091157E+02 -0.42843133081E+02  0.29680726714E+03  0.31619539162E+03  0.63220999782E+02 0.  0.
          5    1    1    2  502    0 -0.10230969495E+03  0.53148115056E+02  0.58870797366E+03  0.59990544794E+03  0.41800000000E+01 0. -1.
         -5    1    1    2    0  502  0.24511603789E+02 -0.10304981975E+02  0.11732020698E+03  0.12036824639E+03  0.41800000000E+01 0.  1.
        -11    1    3    3    0    0  0.36819809826E+02 -0.54978992972E+02  0.17329384067E+03  0.18549701690E+03  0.00000000000E+00 0.  1.
         11    1    3    3    0    0  0.40978281331E+02  0.12135859891E+02  0.12351342647E+03  0.13069837472E+03  0.00000000000E+00 0. -1.
</event>
<event>
 7    1  0.6684706E-006  0.8290148E+02  0.7561462E-02  0.1321013E+00
          2   -1    0    0  501    0  0.00000000000E+00  0.00000000000E+00  0.23578738662E+03  0.23578738662E+03  0.00000000000E+00 0. -1.
         -2   -1    0    0    0  501 -0.00000000000E+00 -0.00000000000E+00 -0.54539725497E+02  0.54539725497E+02  0.00000000000E+00 0.  1.
         23    2    1    2    0    0  0.20993983736E+01  0.11105809820E+02  0.32009352809E+02  0.95269426471E+02  0.89016394375E+02 0.  0.
          5    1    1    2  502    0 -0.71075508360E+01 -0.64945075153E+02  0.11040350460E+03  0.12835414404E+03  0.41800000000E+01 0.  1.
         -5    1    1    2    0  502  0.50081524624E+01  0.53839265332E+02  0.38834803713E+02  0.66703541600E+02  0.41800000000E+01 0.  1.
        -11    1    3    3    0    0 -0.17820518696E+02  0.17703503894E+02  0.57206617902E+02  0.62478652902E+02  0.00000000000E+00 0. -1.
         11    1    3    3    0    0  0.19919917069E+02 -0.65976940738E+01 -0.25197265092E+02  0.32790773569E+02  0.00000000000E+00 0.  1.
</event>
<event>
 7    1  0.6684706E-006  0.1266087E+03  0.7561462E-02  0.1232576E+00
         -3   -1    0    0    0  501 -0.00000000000E+00  0.00000000000E+00  0.10833113799E+02  0.10833113799E+02  0.00000000000E+00 0.  1.
          3   -1    0    0  501    0  0.00000000000E+00 -0.00000000000E+00 -0.21499253642E+04  0.21499253642E+04  0.00000000000E+00 0. -1.
         23    2    1    2    0    0  0.66834699007E+02  0.33469054796E+02 -0.44912982413E+03  0.46452518287E+03  0.92081442082E+02 0.  0.
          5    1    1    2  502    0 -0.59213124365E+02 -0.75687306385E+02 -0.90722514681E+03  0.91231009084E+03  0.41800000000E+01 0.  1.
         -5    1    1    2    0  502 -0.76215746419E+01  0.42218251589E+02 -0.78273727942E+03  0.78392320425E+03  0.41800000000E+01 0.  1.
        -11    1    3    3    0    0 -0.11129329422E+02  0.34191928733E+02 -0.87772473297E+02  0.94852290603E+02  0.00000000000E+00 0.  1.
         11    1    3    3    0    0  0.77964028428E+02 -0.72287393668E+00 -0.36135735083E+03  0.36967289226E+03  0.00000000000E+00 0. -1.
</event>
<event>
 7    1  0.6684706E-006  0.1343338E+03  0.7561462E-02  0.1221163E+00
          3   -1    0    0  501    0  0.00000000000E+00  0.00000000000E+00  0.61500205994E+02  0.61500205994E+02  0.00000000000E+00 0. -1.
         -3   -1    0    0    0  501 -0.00000000000E+00 -0.00000000000E+00 -0.39323968720E+03  0.39323968720E+03  0.00000000000E+00 0.  1.
         23    2    1    2    0    0  0.80763989063E+02  0.73435979869E+02 -0.18499089523E+03  0.23315796869E+03  0.90693671094E+02 0.  0.
          5    1    1    2  502    0 -0.10276931229E+02 -0.86380870521E+02 -0.47832584309E+02  0.99361454444E+02  0.41800000000E+01 0. -1.
         -5    1    1    2    0  502 -0.70487057834E+02  0.12944890652E+02 -0.98916001665E+02  0.12222047006E+03  0.41800000000E+01 0. -1.
        -11    1    3    3    0    0  0.33644810382E+02  0.22923991339E+02 -0.15057541748E+03  0.15598217525E+03  0.00000000000E+00 0.  1.
         11    1    3    3    0    0  0.47119178681E+02  0.50511988531E+02 -0.34415477747E+02  0.77175793442E+02  0.00000000000E+00 0. -1.
</event>
<event>
 7    1  0.6684706E-006  0.2306123E+03  0.7561462E-02  0.1126210E+00
          1   -1    0    0  501    0  0.00000000000E+00  0.00000000000E+00  0.18839939595E+04  0.18839939595E+04  0.00000000000E+00 0. -1.
         -1   -1    0    0    0  501 -0.00000000000E+00 -0.00000000000E+00 -0.29492806641E+02  0.29492806641E+02  0.00000000000E+00 0.  1.
         23    2    1    2    0    0 -0.20700266702E+03  0.25317339998E+02  0.89282914472E+03  0.92154336934E+03  0.92775147856E+02 0.  0.
          5    1    1    2  502    0  0.24821931967E+02 -0.43476629234E+02  0.34549528672E+03  0.34912864555E+03  0.41800000000E+01 0.  1.
         -5    1    1    2    0  502  0.18218073505E+03  0.18159289236E+02  0.61617672144E+03  0.64281475128E+03  0.41800000000E+01 0.  1.
        -11    1    3    3    0    0 -0.88770673922E+02  0.56946315658E+02  0.44038798715E+03  0.45284069455E+03  0.00000000000E+00 0.  1.
         11    1    3    3    0    0 -0.11823199310E+03 -0.31628975660E+02  0.45244115757E+03  0.46870267479E+03  0.00000000000E+00 0. -1.
</event>
<event>
 7    1  0.6684706E-006  0.1632192E+03  0.7561462E-02  0.1185109E+00
          1   -1    0    0  501    0  0.00000000000E+00  0.00000000000E+00  0.11890197001E+03  0.11890197001E+03  0.00000000000E+00 0. -1.
         -1   -1    0    0    0  501 -0.00000000000E+00 -0.00000000000E+00 -0.23514052753E+03  0.23514052753E+03  0.00000000000E+00 0.  1.
         23    2    1    2    0    0 -0.12199972662E+03 -0.45126726821E+02 -0.68508259407E+02  0.16737334845E+03  0.80000633717E+02 0.  0.
          5    1    1    2  502    0  0.67948580943E+02 -0.38799670117E+02 -0.35452257569E+02  0.86004412795E+02  0.41800000000E+01 0. -1.
         -5    1    1    2    0  502  0.54051145680E+02  0.83926396939E+02 -0.12278040543E+02  0.10066473629E+03  0.41800000000E+01 0. -1.
        -11    1    3    3    0    0 -0.11746720176E+03 -0.15837644559E+02 -0.70073880213E+02  0.13769431056E+03  0.00000000000E+00 0. -1.
         11    1    3    3    0    0 -0.45325248674E+01 -0.29289082262E+02  0.15656208055E+01  0.29679037888E+02  0.00000000000E+00 0.  1.
</event>
<event>
 7    1  0.6684706E-006  0.8241037E+02  0.7561462E-02  0.1322347E+00
          1   -1    0    0  501    0  0.00000000000E+00  0.00000000000E+00  0.29615152547E+03  0.29615152547E+03  0.00000000000E+00 0. -1.
         -1   -1    0    0    0  501 -0.00000000000E+00 -0.00000000000E+00 -0.55280226500E+02  0.55280226500E+02  0.00000000000E+00 0.  1.
         23    2    1    2    0    0  0.12048592046E+02  0.45546987081E+02  0.31910049540E+02  0.10838579697E+03  0.92247130687E+02 0.  0.
          5    1    1    2  502    0  0.78361466327E+00 -0.56052591278E+02  0.21698945255E+03  0.22415263095E+03  0.41800000000E+01 0. -1.
         -5    1    1    2    0  502 -0.12832206710E+02  0.10505604197E+02 -0.80282031214E+01  0.18893324058E+02  0.41800000000E+01 0.  1.
        -11    1    3    3    0    0  0.17841632080E+02 -0.19366832317E+02  0.34213117055E+02  0.43173318240E+02  0.00000000000E+00 0. -1.
         11    1    3    3    0    0 -0.57930400337E+01  0.64913819398E+02 -0.23030675150E+01  0.65212478726E+02  0.00000000000E+00 0.  1.
</event>
<event>
 7    1  0.6684706E-006  0.1454395E+03  0.7561462E-02  0.1206192E+00
         -2   -1    0    0    0  501 -0.00000000000E+00  0.00000000000E+00  0.18385554254E+03  0.18385554254E+03  0.00000000000E+00 0.  1.
          2   -1    0    0  501    0  0.00000000000E+00 -0.00000000000E+00 -0.13684812715E+03  0.13684812715E+03  0.00000000000E+00 0. -1.
         23    2    1    2    0    0 -0.42253222284E+02  0.97962620074E+02  0.67194176295E+02  0.15506547937E+03  0.90267579119E+02 0.  0.
          5    1    1    2  502    0  0.62676190603E+02 -0.11031116976E+03  0.95256374735E+01  0.12729913280E+03  0.41800000000E+01 0. -1.
         -5    1    1    2    0  502 -0.20422968319E+02  0.12348549685E+02 -0.29712398376E+02  0.38339057520E+02  0.41800000000E+01 0. -1.
        -11    1    3    3    0    0  0.10379590119E+02  0.84827992783E+02  0.42974438402E+02  0.95657339533E+02  0.00000000000E+00 0.  1.
         11    1    3    3    0    0 -0.52632812403E+02  0.13134627291E+02  0.24219737893E+02  0.59408139839E+02  0.00000000000E+00 0. -1.
</event>
<event>
 7    1  0.6684706E-006  0.1036743E+03  0.7561462E-02  0.1272754E+00
          2   -1    0    0  501    0  0.00000000000E+00  0.00000000000E+00  0.89754326494E+02  0.89754326494E+02  0.00000000000E+00 0. -1.
         -2   -1    0    0    0  501 -0.00000000000E+00 -0.00000000000E+00 -0.18532175879E+03  0.18532175879E+03  0.00000000000E+00 0.  1.
         23    2    1    2    0    0 -0.12492234291E+02  0.54767919872E+02 -0.88374457566E+02  0.13776409866E+03  0.89517155706E+02 0.  0.
          5    1    1    2  502    0  0.38266312748E+02 -0.76205101559E+02 -0.36248828886E+02  0.92752240892E+02  0.41800000000E+01 0. -1.
         -5    1    1    2    0  502 -0.25774078456E+02  0.21437181687E+02  0.29055854154E+02  0.44559745731E+02  0.41800000000E+01 0. -1.
        -11    1    3    3    0    0  0.14658671427E+02 -0.10145091406E+02 -0.58793031167E+02  0.61436308820E+02  0.00000000000E+00 0.  1.
         11    1    3    3    0    0 -0.27150905718E+02  0.64913011278E+02 -0.29581426399E+02  0.76327789843E+02  0.00000000000E+00 0. -1.
</event>
<event>
 7    1  0.6684706E-006  0.8592654E+02  0.7561462E-02  0.1313027E+00
          1   -1    0    0  501    0  0.00000000000E+00  0.00000000000E+00  0.60587692146E+03  0.60587692146E+03  0.00000000000E+00 0. -1.
         -1   -1    0    0    0  501 -0.00000000000E+00 -0.00000000000E+00 -0.24632488266E+02  0.24632488266E+02  0.00000000000E+00 0.  1.
         23    2    1    2    0    0  0.41992932441E+02  0.22469816488E+02  0.15347966759E+03  0.18229254817E+03  0.86059663758E+02 0.  0.
          5    1    1    2  502    0 -0.55062618019E+02 -0.12168647040E+02  0.69751212803E+02  0.89792382536E+02  0.41800000000E+01 0. -1.
         -5    1    1    2    0  502  0.13069685578E+02 -0.10301169448E+02  0.35801355280E+03  0.35842447902E+03  0.41800000000E+01 0. -1.
        -11    1    3    3    0    0 -0.15677698750E+02  0.35690761110E+02  0.55194284942E+02  0.67572403812E+02  0.00000000000E+00 0. -1.
         11    1    3    3    0    0  0.57670631192E+02 -0.13220944622E+02  0.98285382651E+02  0.11472014436E+03  0.00000000000E+00 0.  1.
</event>
<event>
 7    1  0.6684706E-006  0.1768075E+03  0.7561462E-02  0.1170929E+00
          2   -1    0    0  501    0  0.00000000000E+00  0.00000000000E+00  0.58522620792E+03  0.58522620792E+03  0.00000000000E+00 0. -1.
         -2   -1    0    0    0  501 -0.00000000000E+00 -0.00000000000E+00 -0.58644882219E+02  0.58644882219E+02  0.00000000000E+00 0.  1.
         23    2    1    2    0    0  0.14740366480E+03  0.18133907525E+02  0.27301115055E+03  0.32449338506E+03  0.93296246555E+02 0.  0.
          5    1    1    2  502    0 -0.28304423498E+02 -0.55480785041E+02  0.47593929751E+02  0.78497849954E+02  0.41800000000E+01 0.  1.
         -5    1    1    2    0  502 -0.11909924130E+03  0.37346877515E+02  0.20597624539E+03  0.24087985512E+03  0.41800000000E+01 0.  1.
        -11    1    3    3    0    0  0.56213700257E+02 -0.29433172363E+02  0.15765223981E+03  0.16994269755E+03  0.00000000000E+00 0. -1.
         11    1    3    3    0    0  0.91189964542E+02  0.47567079888E+02  0.11535891074E+03  0.15455068751E+03  0.00000000000E+00 0.  1.
</event>
<event>
 7    1  0.6684706E-006  0.1224064E+03  0.7561462E-02  0.1239179E+00
         -1   -1    0    0    0  501 -0.00000000000E+00  0.00000000000E+00  0.39027477642E+02  0.39027477642E+02  0.00000000000E+00 0.  1.
          1   -1    0    0  501    0  0.00000000000E+00 -0.00000000000E+00 -0.63241976536E+03  0.63241976536E+03  0.00000000000E+00 0. -1.
         23    2    1    2    0    0 -0.45482960919E+02 -0.70192181058E+02 -0.88054123753E+02  0.14418063805E+03  0.77710267431E+02 0.  0.
          5    1    1    2  502    0 -0.32206793537E+02  0.72796742280E+01 -0.43817818027E+02  0.55024946919E+02  0.41800000000E+01 0.  1.
         -5    1    1    2    0  502  0.77689754456E+02  0.62912506830E+02 -0.46152034593E+03  0.47224165803E+03  0.41800000000E+01 0.  1.
        -11    1    3    3    0    0 -0.54746522814E+02 -0.16773809686E+02 -0.60737393355E+02  0.83471991728E+02  0.00000000000E+00 0.  1.
         11    1    3    3    0    0  0.92635618951E+01 -0.53418371373E+02 -0.27316730399E+02  0.60708646326E+02  0.00000000000E+00 0. -1.
</event>
<event>
 7    1  0.6684706E-006  0.6059282E+02  0.7561462E-02  0.1395361E+00
          1   -1    0    0  501    0  0.00000000000E+00  0.00000000000E+00  0.15245528320E+03  0.15245528320E+03  0.00000000000E+00 0. -1.
         -1   -1    0    0    0  501 -0.00000000000E+00 -0.00000000000E+00 -0.10261336035E+03  0.10261336035E+03  0.00000000000E+00 0.  1.
         23    2    1    2    0    0 -0.30283299822E+02  0.31734704190E+02 -0.36381242042E+02  0.10708435160E+03  0.90660321463E+02 0.  0.
          5    1    1    2  502    0  0.14539188397E+02  0.17086317206E+02  0.93284343381E+02  0.96035260998E+02  0.41800000000E+01 0. -1.
         -5    1    1    2    0  502  0.15744111425E+02 -0.48821021396E+02 -0.70611784939E+01  0.51949030948E+02  0.41800000000E+01 0.  1.
        -11    1    3    3    0    0 -0.18103739604E+02  0.71559708576E+01 -0.64755640816E+02  0.67618387470E+02  0.00000000000E+00 0.  1.
         11    1    3    3    0    0 -0.12179560217E+02  0.24578733332E+02  0.28374398773E+02  0.39465964134E+02  0.00000000000E+00 0. -1.
</event>
<event>
 7    1  0.6684706E-006  0.9120428E+02  0.7561462E-02  0.1299961E+00
         -2   -1    0    0    0  501 -0.00000000000E+00  0.00000000000E+00  0.31515646008E+02  0.31515646008E+02  0.00000000000E+00 0.  1.
          2   -1    0    0  501    0  0.00000000000E+00 -0.00000000000E+00 -0.42597199530E+03  0.42597199530E+03  0.00000000000E+00 0. -1.
         23    2    1    2    0    0  0.16370692345E+01  0.32766074235E+02 -0.11608974272E+03  0.15054704002E+03  0.90062685267E+02 0.  0.
          5    1    1    2  502    0  0.27705082032E+02 -0.67821353607E+02 -0.10853201153E+03  0.13101136402E+03  0.41800000000E+01 0.  1.
         -5    1    1    2    0  502 -0.29342151266E+02  0.35055279372E+02 -0.16983459504E+03  0.17592923727E+03  0.41800000000E+01 0.  1.
        -11    1    3    3    0    0  0.24133054560E+02  0.32681234633E+02 -0.96504534874E+01  0.41756420729E+02  0.00000000000E+00 0.  1.
         11    1    3    3    0    0 -0.22495985326E+02  0.84839602369E-01 -0.10643928923E+03  0.10879061929E+03  0.00000000000E+00 0. -1.
</event>
<event>
 7    1  0.6684706E-006  0.8932079E+02  0.7561462E-02  0.1304505E+00
          4   -1    0    0  501    0  0.00000000000E+00  0.00000000000E+00  0.20973581544E+02  0.20973581544E+02  0.00000000000E+00 0. -1.
         -4   -1    0    0    0  501 -0.00000000000E+00 -0.00000000000E+00 -0.61429069307E+03  0.61429069307E+03  0.00000000000E+00 0.  1.
         23    2    1    2    0    0 -0.10446181358E+01  0.31797118799E+02 -0.29548732719E+03  0.31066826433E+03  0.90497855989E+02 0.  0.
          5    1    1    2  502    0  0.25040614015E+02 -0.56859575410E+02 -0.68317384269E+02  0.92437984938E+02  0.41800000000E+01 0.  1.
         -5    1    1    2    0  502 -0.23995995879E+02  0.25062456611E+02 -0.22951240006E+03  0.23215802535E+03  0.41800000000E+01 0.  1.
        -11    1    3    3    0    0  0.35250249599E+02  0.27830384875E+02 -0.76915661369E+02  0.89068116534E+02  0.00000000000E+00 0. -1.
         11    1    3    3    0    0 -0.36294867734E+02  0.39667339236E+01 -0.21857166582E+03  0.22160014779E+03  0.00000000000E+00 0.  1.
</event>
<event>
 7    1  0.6684706E-006  0.8859094E+02  0.7561462E-02  0.1306300E+00
         -2   -1    0    0    0  501 -0.00000000000E+00  0.00000000000E+00  0.21682759011E+02  0.21682759011E+02  0.00000000000E+00 0.  1.
          2   -1    0    0  501    0  0.00000000000E+00 -0.00000000000E+00 -0.60055771489E+03  0.60055771489E+03  0.00000000000E+00 0. -1.
         23    2    1    2    0    0 -0.65243336818E+01  0.29495639700E+02 -0.28423334470E+03  0.30072306618E+03  0.93451637762E+02 0.  0.
          5    1    1    2  502    0  0.18621089053E+02 -0.54894279168E+02 -0.54422184506E+02  0.79620182173E+02  0.41800000000E+01 0. -1.
         -5    1    1    2    0  502 -0.12096755371E+02  0.25398639469E+02 -0.24021942667E+03  0.24189722555E+03  0.41800000000E+01 0. -1.
        -11    1    3    3    0    0  0.38914458110E+02  0.56952271697E+01 -0.68614296075E+02  0.79086612574E+02  0.00000000000E+00 0.  1.
         11    1    3    3    0    0 -0.45438791792E+02  0.23800412530E+02 -0.21561904862E+03  0.22163645360E+03  0.00000000000E+00 0. -1.
</event>
<event>
 7    1  0.6684706E-006  0.1606144E+03  0.7561462E-02  0.1188005E+00
         -2   -1    0    0    0  501 -0.00000000000E+00  0.00000000000E+00  0.37504919674E+03  0.37504919674E+03  0.00000000000E+00 0.  1.
          2   -1    0    0  501    0  0.00000000000E+00 -0.00000000000E+00 -0.85025908207E+02  0.85025908207E+02  0.00000000000E+00 0. -1.
         23    2    1    2    0    0 -0.86109650013E+02 -0.11251757325E+03  0.15388619423E+03  0.22715823040E+03  0.88571015281E+02 0.  0.
          5    1    1    2  502    0  0.11203893227E+03  0.10081956107E+03  0.82041745802E+02  0.17165554664E+03  0.41800000000E+01 0.  1.
         -5    1    1    2    0  502 -0.25929282261E+02  0.11698012184E+02  0.54095348501E+02  0.61261327908E+02  0.41800000000E+01 0.  1.
        -11    1    3    3    0    0 -0.35439572700E+02 -0.47692051181E+02  0.12764394333E+03  0.14079584982E+03  0.00000000000E+00 0.  1.
         11    1    3    3    0    0 -0.50670077313E+02 -0.64825522068E+02  0.26242250903E+02  0.86362380576E+02  0.00000000000E+00 0. -1.
</event>
<event>
 7    1  0.6684706E-006  0.8336481E+02  0.7561462E-02  0.1319765E+00
         -2   -1    0    0    0  501 -0.00000000000E+00  0.00000000000E+00  0.30833692169E+02  0.30833692169E+02  0.00000000000E+00 0. -1.
          2   -1    0    0  501    0  0.00000000000E+00 -0.00000000000E+00 -0.47509968738E+03  0.47509968738E+03  0.00000000000E+00 0.  1.
         23    2    1    2    0    0  0.39032182916E+02  0.35848396613E+02 -0.15634759698E+03  0.18757707969E+03  0.89061612948E+02 0.  0.
          5    1    1    2  502    0 -0.54765315061E+02 -0.35947593026E+02 -0.57209961150E+02  0.87074228293E+02  0.41800000000E+01 0. -1.
         -5    1    1    2    0  502  0.15733132145E+02  0.99196412805E-01 -0.23070843708E+03  0.23128207156E+03  0.41800000000E+01 0. -1.
        -11    1    3    3    0    0  0.45669295010E+02 -0.26455998696E+01 -0.13609373725E+03  0.14357642224E+03  0.00000000000E+00 0.  1.
         11    1    3    3    0    0 -0.66371120942E+01  0.38493996483E+02 -0.20253859738E+02  0.44000657455E+02  0.00000000000E+00 0. -1.
</event>
<event>
 7    1  0.6684706E-006  0.7971431E+02  0.7561462E-02  0.1329864E+00
         -4   -1    0    0    0  501 -0.00000000000E+00  0.00000000000E+00  0.10676836155E+03  0.10676836155E+03  0.00000000000E+00 0.  1.
          4   -1    0    0  501    0  0.00000000000E+00 -0.00000000000E+00 -0.17017284861E+03  0.17017284861E+03  0.00000000000E+00 0. -1.
         23    2    1    2    0    0  0.91515145988E+01 -0.18976168734E+01  0.52881364291E+02  0.10589505876E+03  0.91268689106E+02 0.  0.
          5    1    1    2  502    0 -0.36108294384E+02  0.39125933329E+02 -0.11274943618E+03  0.12475798709E+03  0.41800000000E+01 0. -1.
         -5    1    1    2    0  502  0.26956779785E+02 -0.37228316455E+02 -0.35364151675E+01  0.46288164305E+02  0.41800000000E+01 0. -1.
        -11    1    3    3    0    0  0.22730335532E+02  0.22478174275E+02 -0.12875369278E+02  0.34463192049E+02  0.00000000000E+00 0. -1.
         11    1    3    3    0    0 -0.13578820934E+02 -0.24375791148E+02  0.65756733570E+02  0.71431866711E+02  0.00000000000E+00 0.  1.
</event>
<event>
 7    1  0.6684706E-006  0.1665192E+03  0.7561462E-02  0.1181527E+00
          2   -1    0    0  501    0  0.00000000000E+00  0.00000000000E+00  0.10107573639E+04  0.10107573639E+04  0.00000000000E+00 0. -1.
         -2   -1    0    0    0  501 -0.00000000000E+00 -0.00000000000E+00 -0.30265749912E+02  0.30265749912E+02  0.00000000000E+00 0.  1.
         23    2    1    2    0    0  0.67203139074E+02  0.12047351276E+03  0.44031970628E+03  0.46965382511E+03  0.87539376994E+02 0.  0.
          5    1    1    2  502    0  0.29286936398E+02 -0.46595964720E+02  0.94805255020E+02  0.10970149202E+03  0.41800000000E+01 0. -1.
         -5    1    1    2    0  502 -0.96490075471E+02 -0.73877548041E+02  0.44536665272E+03  0.46166779672E+03  0.41800000000E+01 0. -1.
        -11    1    3    3    0    0  0.77916987916E+02  0.70300799122E+02  0.22446214352E+03  0.24778319805E+03  0.00000000000E+00 0.  1.
         11    1    3    3    0    0 -0.10713848843E+02  0.50172713638E+02  0.21585756276E+03  0.22187062706E+03  0.00000000000E+00 0. -1.
</event>
<event>
 7    1  0.6684706E-006  0.1541548E+03  0.7561462E-02  0.1195459E+00
          2   -1    0    0  501    0  0.00000000000E+00  0.00000000000E+00  0.19362813569E+03  0.19362813569E+03  0.00000000000E+00 0. -1.
         -2   -1    0    0    0  501 -0.00000000000E+00 -0.00000000000E+00 -0.13921494753E+03  0.13921494753E+03  0.00000000000E+00 0.  1.
         23    2    1    2    0    0  0.40478652437E+02  0.52623599504E+02  0.61731270740E+01  0.93259603140E+02  0.65203386047E+02 0.  0.
          5    1    1    2  502    0  0.84347816859E+02 -0.14497266608E+02 -0.25776252583E+02  0.89479676716E+02  0.41800000000E+01 0. -1.
         -5    1    1    2    0  502 -0.12482646930E+03 -0.38126332896E+02  0.74016313663E+02  0.15010380337E+03  0.41800000000E+01 0.  1.
        -11    1    3    3    0    0  0.22674600302E+02 -0.11544719562E+02 -0.44333521168E+01  0.25827749798E+02  0.00000000000E+00 0. -1.
         11    1    3    3    0    0  0.17804052135E+02  0.64168319066E+02  0.10606479191E+02  0.67431853341E+02  0.00000000000E+00 0.  1.
</event>
<event>
 7    1  0.6684706E-006  0.9859141E+02  0.7561462E-02  0.1283286E+00
         -2   -1    0    0    0  501 -0.00000000000E+00  0.00000000000E+00  0.10915376393E+02  0.10915376393E+02  0.00000000000E+00 0.  1.
          2   -1    0    0  501    0  0.00000000000E+00 -0.00000000000E+00 -0.16008614240E+04  0.16008614240E+04  0.00000000000E+00 0. -1.
         23    2    1    2    0    0 -0.56299015937E+02 -0.47268614601E+02 -0.67294221092E+03  0.68336700220E+03  0.93463037269E+02 0.  0.
          5    1    1    2  502    0  0.20703342465E+02  0.24410957596E+01 -0.18821394371E+02  0.28395503584E+02  0.41800000000E+01 0. -1.
         -5    1    1    2    0  502  0.35595673471E+02  0.44827518841E+02 -0.89818244231E+03  0.90001429461E+03  0.41800000000E+01 0. -1.
        -11    1    3    3    0    0  0.19379016253E+02 -0.37513470425E+02 -0.21415667401E+03  0.21827938006E+03  0.00000000000E+00 0.  1.
         11    1    3    3    0    0 -0.75678032190E+02 -0.97551441756E+01 -0.45878553691E+03  0.46508762214E+03  0.00000000000E+00 0. -1.
</event>
<event>
 7    1  0.6684706E-006  0.1291879E+03  0.7561462E-02  0.1228666E+00
          2   -1    0    0  501    0  0.00000000000E+00  0.00000000000E+00  0.99219157114E+03  0.99219157114E+03  0.00000000000E+00 0. -1.
         -2   -1    0    0    0  501 -0.00000000000E+00 -0.00000000000E+00 -0.24499955713E+02  0.24499955713E+02  0.00000000000E+00 0.  1.
         23    2    1    2    0    0 -0.10324217521E+03 -0.34823517756E+02  0.34264570260E+03  0.37000643935E+03  0.87333060864E+02 0.  0.
          5    1    1    2  502    0  0.12289916922E+03  0.25544765677E+02  0.60107850615E+03  0.61405991874E+03  0.41800000000E+01 0.  1.
         -5    1    1    2    0  502 -0.19656994013E+02  0.92787520787E+01  0.23967406675E+02  0.32625168758E+02  0.41800000000E+01 0.  1.
        -11    1    3    3    0    0 -0.65794663976E+02 -0.12265773565E+02  0.30517690022E+03  0.31242971599E+03  0.00000000000E+00 0.  1.
         11    1    3    3    0    0 -0.37447511235E+02 -0.22557744191E+02  0.37468802381E+02  0.57576723357E+02  0.00000000000E+00 0. -1.
</event>
<event>
 7    1  0.6684706E-006  0.1794671E+03  0.7561462E-02  0.1168320E+00
          1   -1    0    0  501    0  0.00000000000E+00  0.00000000000E+00  0.10694885030E+03  0.10694885030E+03  0.00000000000E+00 0. -1.
         -1   -1    0    0    0  501 -0.00000000000E+00 -0.00000000000E+00 -0.31378066949E+03  0.31378066949E+03  0.00000000000E+00 0.  1.
         23    2    1    2    0    0 -0.83595872226E+02  0.11766690742E+03 -0.10600913417E+03  0.20475137035E+03  0.99254300549E+02 0.  0.
          5    1    1    2  502    0  0.66684724560E+00 -0.10283861646E+03 -0.34089877411E+02  0.10842424942E+03  0.41800000000E+01 0.  1.
         -5    1    1    2    0  502  0.82929024980E+02 -0.14828290960E+02 -0.66732807617E+02  0.10755390002E+03  0.41800000000E+01 0.  1.
        -11    1    3    3    0    0 -0.66938982188E+02  0.16247788316E+02 -0.22944054602E+02  0.72603358071E+02  0.00000000000E+00 0.  1.
         11    1    3    3    0    0 -0.16656890037E+02  0.10141911911E+03 -0.83065079563E+02  0.13214801228E+03  0.00000000000E+00 0. -1.
</event>
<event>
 7    1  0.6684706E-006  0.8974787E+02  0.7561462E-02  0.1303463E+00
         -3   -1    0    0    0  501 -0.00000000000E+00  0.00000000000E+00  0.13889069741E+03  0.13889069741E+03  0.00000000000E+00 0.  1.
          3   -1    0    0  501    0  0.00000000000E+00 -0.00000000000E+00 -0.22184169674E+03  0.22184169674E+03  0.00000000000E+00 0. -1.
         23    2    1    2    0    0 -0.63300804040E+02  0.88550652576E+01  0.86583243379E+02  0.14056375721E+03  0.90421832728E+02 0.  0.
          5    1    1    2  502    0  0.33734938135E+02 -0.44231365984E+02 -0.13476706914E+02  0.57389492218E+02  0.41800000000E+01 0.  1.
         -5    1    1    2    0  502  0.29565865905E+02  0.35376300726E+02 -0.15605753579E+03  0.16277914472E+03  0.41800000000E+01 0.  1.
        -11    1    3    3    0    0 -0.32610666776E+02  0.26496640177E+02  0.95261123545E+02  0.10411632527E+03  0.00000000000E+00 0.  1.
         11    1    3    3    0    0 -0.30690137264E+02 -0.17641574919E+02 -0.86778801660E+01  0.36447431941E+02  0.00000000000E+00 0. -1.
</event>
<event>
 7    1  0.6684706E-006  0.1284236E+03  0.7561462E-02  0.1229814E+00
          1   -1    0    0  501    0  0.00000000000E+00  0.00000000000E+00  0.13094925283E+03  0.13094925283E+03  0.00000000000E+00 0. -1.
         -1   -1    0    0    0  501 -0.00000000000E+00 -0.00000000000E+00 -0.17519676461E+03  0.17519676461E+03  0.00000000000E+00 0.  1.
         23    2    1    2    0    0  0.11567393283E+02 -0.93566237493E+02 -0.67097128894E+02  0.14784639293E+03  0.92022202820E+02 0.  0.
          5    1    1    2  502    0 -0.61079818356E+02  0.65746776622E+02 -0.13345815404E+02  0.90823818657E+02  0.41800000000E+01 0. -1.
         -5    1    1    2    0  502  0.49512425074E+02  0.27819460871E+02  0.36195432512E+02  0.67475805846E+02  0.41800000000E+01 0. -1.
        -11    1    3    3    0    0 -0.23001908963E+02 -0.43734422249E+02  0.93214184184E+01  0.50285945817E+02  0.00000000000E+00 0. -1.
         11    1    3    3    0    0  0.34569302246E+02 -0.49831815244E+02 -0.76418547313E+02  0.97560447117E+02  0.00000000000E+00 0.  1.
</event>
<event>
 7    1  0.6684706E-006  0.9827173E+02  0.7561462E-02  0.1283973E+00
         -3   -1    0    0    0  501 -0.00000000000E+00  0.00000000000E+00  0.30172333046E+03  0.30172333046E+03  0.00000000000E+00 0.  1.
          3   -1    0    0  501    0  0.00000000000E+00 -0.00000000000E+00 -0.71226783443E+02  0.71226783443E+02  0.00000000000E+00 0. -1.
         23    2    1    2    0    0  0.87548558234E+01  0.10471535728E+02  0.23804740088E+03  0.25602484318E+03  0.93251566741E+02 0.  0.
          5    1    1    2  502    0 -0.43350382909E+02 -0.39074473525E+02  0.22562242611E+02  0.62710424741E+02  0.41800000000E+01 0. -1.
         -5    1    1    2    0  502  0.34595527085E+02  0.28602937797E+02 -0.30113096477E+02  0.54214845977E+02  0.41800000000E+01 0.  1.
        -11    1    3    3    0    0  0.49539568484E+02  0.15376613623E+02  0.15347944278E+03  0.16200786539E+03  0.00000000000E+00 0.  1.
         11    1    3    3    0    0 -0.40784712660E+02 -0.49050778941E+01  0.84567958097E+02  0.94016977790E+02  0.00000000000E+00 0. -1.
</event>
<event>
 7    1  0.6684706E-006  0.1750235E+03  0.7561462E-02  0.1172708E+00
         -2   -1    0    0    0  501 -0.00000000000E+00  0.00000000000E+00  0.11168331848E+03  0.11168331848E+03  0.00000000000E+00 0.  1.
          2   -1    0    0  501    0  0.00000000000E+00 -0.00000000000E+00 -0.28757857841E+03  0.28757857841E+03  0.00000000000E+00 0. -1.
         23    2    1    2    0    0  0.10403444894E+03  0.94353463595E+02 -0.10956579760E+03  0.19983007753E+03  0.90562979329E+02 0.  0.
          5    1    1    2  502    0 -0.12896599237E+03 -0.92436367409E+02 -0.70604923575E+02  0.17372172242E+03  0.41800000000E+01 0.  1.
         -5    1    1    2    0  502  0.24931543427E+02 -0.19170961858E+01  0.42754612395E+01  0.25710096932E+02  0.41800000000E+01 0.  1.
        -11    1    3    3    0    0  0.11364468685E+03  0.56501917984E+02 -0.93327904869E+02  0.15753627967E+03  0.00000000000E+00 0. -1.
         11    1    3    3    0    0 -0.96102379043E+01  0.37851545611E+02 -0.16237892730E+02  0.42293797867E+02  0.00000000000E+00 0.  1.
</event>
<event>
 7    1  0.6684706E-006  0.1196038E+03  0.7561462E-02  0.1243752E+00
          1   -1    0    0  501    0  0.00000000000E+00  0.00000000000E+00  0.11709049353E+03  0.11709049353E+03  0.00000000000E+00 0. -1.
         -1   -1    0    0    0  501 -0.00000000000E+00 -0.00000000000E+00 -0.17485868160E+03  0.17485868160E+03  0.00000000000E+00 0.  1.
         23    2    1    2    0    0 -0.47779064275E+02  0.42299870558E+02 -0.41722375267E+02  0.11793171652E+03  0.89972302018E+02 0.  0.
          5    1    1    2  502    0  0.10349961326E+03 -0.97694177214E+01  0.95450926084E+01  0.10448058509E+03  0.41800000000E+01 0. -1.
         -5    1    1    2    0  502 -0.55720548982E+02 -0.32530452837E+02 -0.25590905409E+02  0.69536873530E+02  0.41800000000E+01 0.  1.
        -11    1    3    3    0    0 -0.30157242221E+02  0.43402519636E+02  0.17860820897E+02  0.55787515560E+02  0.00000000000E+00 0. -1.
         11    1    3    3    0    0 -0.17621822053E+02 -0.11026490785E+01 -0.59583196164E+02  0.62144200957E+02  0.00000000000E+00 0.  1.
</event>
<event>
 7    1  0.6684706E-006  0.1015811E+03  0.7561462E-02  0.1277006E+00
         -2   -1    0    0    0  501 -0.00000000000E+00  0.00000000000E+00  0.97551523536E+02  0.97551523536E+02  0.00000000000E+00 0.  1.
          2   -1    0    0  501    0  0.00000000000E+00 -0.00000000000E+00 -0.37768763611E+03  0.37768763611E+03  0.00000000000E+00 0. -1.
         23    2    1    2    0    0 -0.39519634822E+02  0.92694362904E+02  0.12461685639E+02  0.14144311643E+03  0.98472407936E+02 0.  0.
          5    1    1    2  502    0  0.35285988053E+02 -0.84461458100E+02 -0.30459328194E+03  0.31807762993E+03  0.41800000000E+01 0. -1.
         -5    1    1    2    0  502  0.42336467692E+01 -0.82329048036E+01  0.11995483730E+02  0.15718413291E+02  0.41800000000E+01 0. -1.
        -11    1    3    3    0    0 -0.99775941335E+01  0.37087594560E+02  0.53812536313E+02  0.66112261491E+02  0.00000000000E+00 0.  1.
         11    1    3    3    0    0 -0.29542040689E+02  0.55606768343E+02 -0.41350850675E+02  0.75330854935E+02  0.00000000000E+00 0. -1.
</event>
<event>
 7    1  0.6684706E-006  0.1017614E+03  0.7561462E-02  0.1276635E+00
         -2   -1    0    0    0  501 -0.00000000000E+00  0.00000000000E+00  0.14640667592E+02  0.14640667592E+02  0.00000000000E+00 0.  1.
          2   -1    0    0  501    0  0.00000000000E+00 -0.00000000000E+00 -0.11850381428E+04  0.11850381428E+04  0.00000000000E+00 0. -1.
         23    2    1    2    0    0 -0.26221456516E+02  0.32222615798E+02 -0.23879453051E+03  0.25879793903E+03  0.90706580229E+02 0.  0.
          5    1    1    2  502    0 -0.31451391415E+02 -0.45983535911E+02 -0.22693792382E+03  0.23371343407E+03  0.41800000000E+01 0. -1.
         -5    1    1    2    0  502  0.57672847930E+02  0.13760920113E+02 -0.70466502090E+03  0.70716743731E+03  0.41800000000E+01 0. -1.
        -11    1    3    3    0    0 -0.23768724944E+02  0.57813335225E+02 -0.10216380799E+03  0.11976968597E+03  0.00000000000E+00 0.  1.
         11    1    3    3    0    0 -0.24527315713E+01 -0.25590719427E+02 -0.13663072252E+03  0.13902825306E+03  0.00000000000E+00 0. -1.
</event>
<event>
 7    1  0.6684706E-006  0.1643745E+03  0.7561462E-02  0.1183845E+00
          2   -1    0    0  501    0  0.00000000000E+00  0.00000000000E+00  0.93905869211E+03  0.93905869211E+03  0.00000000000E+00 0. -1.
         -2   -1    0    0    0  501 -0.00000000000E+00 -0.00000000000E+00 -0.33550994782E+02  0.33550994782E+02  0.00000000000E+00 0.  1.
         23    2    1    2    0    0 -0.12172175317E+03  0.47363469551E+02  0.28224060688E+03  0.32363464917E+03  0.89555248480E+02 0.  0.
          5    1    1    2  502    0  0.10794833876E+02  0.35182786160E+02  0.20803557455E+03  0.21130695577E+03  0.41800000000E+01 0.  1.
         -5    1    1    2    0  502  0.11092691930E+03 -0.82546255711E+02  0.41523151589E+03  0.43766808194E+03  0.41800000000E+01 0.  1.
        -11    1    3    3    0    0 -0.96156697401E+02 -0.37470601488E+01  0.21389641844E+03  0.23454600558E+03  0.00000000000E+00 0. -1.
         11    1    3    3    0    0 -0.25565055772E+02  0.51110529700E+02  0.68344188443E+02  0.89088643590E+02  0.00000000000E+00 0.  1.
</event>
<event>
 7    1  0.6684706E-006  0.1000051E+03  0.7561462E-02  0.1280285E+00
         -3   -1    0    0    0  501 -0.00000000000E+00  0.00000000000E+00  0.55490436084E+02  0.55490436084E+02  0.00000000000E+00 0.  1.
          3   -1    0    0  501    0  0.00000000000E+00 -0.00000000000E+00 -0.27607255041E+03  0.27607255041E+03  0.00000000000E+00 0. -1.
         23    2    1    2    0    0 -0.66226784423E+01 -0.29432708359E+02 -0.27430760611E+02  0.99475243975E+02  0.90734411031E+02 0.  0.
          5    1    1    2  502    0 -0.15021380348E+02  0.67844578949E+02 -0.16633352396E+03  0.18031317853E+03  0.41800000000E+01 0.  1.
         -5    1    1    2    0  502  0.21644058790E+02 -0.38411870591E+02 -0.26817829758E+02  0.51774563988E+02  0.41800000000E+01 0.  1.
        -11    1    3    3    0    0 -0.41515595578E+02 -0.29985342589E+02 -0.37129165123E+02  0.63255358264E+02  0.00000000000E+00 0. -1.
         11    1    3    3    0    0  0.34892917136E+02  0.55263422977E+00  0.96984045119E+01  0.36219885711E+02  0.00000000000E+00 0.  1.
</event>
<event>
 7    1  0.6684706E-006  0.9445649E+02  0.7561462E-02  0.1292405E+00
         -1   -1    0    0    0  501 -0.00000000000E+00  0.00000000000E+00  0.32960422153E+02  0.32960422153E+02  0.00000000000E+00 0.  1.
          1   -1    0    0  501    0  0.00000000000E+00 -0.00000000000E+00 -0.71775725332E+03  0.71775725332E+03  0.00000000000E+00 0. -1.
         23    2    1    2    0    0  0.10407655637E+02 -0.49026788754E+02 -0.77843156706E+02  0.12898441367E+03  0.89807998604E+02 0.  0.
          5    1    1    2  502    0  0.44112737142E+01  0.81199050226E+02 -0.53774223540E+03  0.54387216258E+03  0.41800000000E+01 0.  1.
         -5    1    1    2    0  502 -0.14818929351E+02 -0.32172261472E+02 -0.69211439061E+02  0.77861099223E+02  0.41800000000E+01 0.  1.
        -11    1    3    3    0    0  0.29420021774E+02 -0.15440261992E+02 -0.83602336396E+02  0.89962714623E+02  0.00000000000E+00 0. -1.
         11    1    3    3    0    0 -0.19012366137E+02 -0.33586526762E+02  0.57591796894E+01  0.39021699050E+02  0.00000000000E+00 0.  1.
</event>
<event>
 7    1  0.6684706E-006  0.4124545E+03  0.7561462E-02  0.1039550E+00
          2   -1    0    0  501    0  0.00000000000E+00  0.00000000000E+00  0.19892946102E+04  0.19892946102E+04  0.00000000000E+00 0. -1.
         -2   -1    0    0    0  501 -0.00000000000E+00 -0.00000000000E+00 -0.12724864874E+03  0.12724864874E+03  0.00000000000E+00 0.  1.
         23    2    1    2    0    0  0.12190920282E+03 -0.37074551472E+03  0.33799040803E+03  0.52902640923E+03  0.11540075964E+03 0.  0.
          5    1    1    2  502    0  0.32966865383E+02  0.11010393139E+03  0.70129166035E+03  0.71065966200E+03  0.41800000000E+01 0. -1.
         -5    1    1    2    0  502 -0.15487606821E+03  0.26064158332E+03  0.82276389304E+03  0.87685718766E+03  0.41800000000E+01 0.  1.
        -11    1    3    3    0    0  0.12411120214E+02 -0.22010455509E+03  0.17321678598E+03  0.28036423813E+03  0.00000000000E+00 0.  1.
         11    1    3    3    0    0  0.10949808261E+03 -0.15064095963E+03  0.16477362206E+03  0.24866217111E+03  0.00000000000E+00 0. -1.
</event>
<event>
 7    1  0.6684706E-006  0.1688066E+03  0.7561462E-02  0.1179098E+00
         -2   -1    0    0    0  501 -0.00000000000E+00  0.00000000000E+00  0.21845857812E+02  0.21845857812E+02  0.00000000000E+00 0.  1.
          2   -1    0    0  501    0  0.00000000000E+00 -0.00000000000E+00 -0.16962926954E+04  0.16962926954E+04  0.00000000000E+00 0. -1.
         23    2    1    2    0    0  0.13598805997E+03 -0.51421279069E+02 -0.50498130245E+03  0.53305000427E+03  0.89438754693E+02 0.  0.
          5    1    1    2  502    0 -0.15165778244E+03  0.18627273992E+02 -0.10084806940E+04  0.10199989416E+04  0.41800000000E+01 0. -1.
         -5    1    1    2    0  502  0.15669722474E+02  0.32794005077E+02 -0.16098484120E+03  0.16508960739E+03  0.41800000000E+01 0. -1.
        -11    1    3    3    0    0  0.49852709258E+02 -0.33865420611E+02 -0.34756915231E+03  0.35275554563E+03  0.00000000000E+00 0.  1.
         11    1    3    3    0    0  0.86135350710E+02 -0.17555858459E+02 -0.15741215014E+03  0.18029445865E+03  0.00000000000E+00 0. -1.
</event>
<event>
 7    1  0.6684706E-006  0.1349887E+03  0.7561462E-02  0.1220236E+00
         -4   -1    0    0    0  501 -0.00000000000E+00  0.00000000000E+00  0.62580856127E+02  0.62580856127E+02  0.00000000000E+00 0.  1.
          4   -1    0    0  501    0  0.00000000000E+00 -0.00000000000E+00 -0.42792455072E+03  0.42792455072E+03  0.00000000000E+00 0. -1.
         23    2    1    2    0    0  0.60740355281E+02  0.78201216765E+02 -0.61932264573E+02  0.14770702284E+03  0.90426423887E+02 0.  0.
          5    1    1    2  502    0  0.18755462577E+02  0.22998148962E+02 -0.71801191584E+02  0.77804664032E+02  0.41800000000E+01 0. -1.
         -5    1    1    2    0  502 -0.79495817858E+02 -0.10119936573E+03 -0.23161023844E+03  0.26499371998E+03  0.41800000000E+01 0. -1.
        -11    1    3    3    0    0  0.41605302883E+02  0.13440235713E+02 -0.66982849252E+02  0.79989644692E+02  0.00000000000E+00 0. -1.
         11    1    3    3    0    0  0.19135052397E+02  0.64760981052E+02  0.50505846797E+01  0.67717378144E+02  0.00000000000E+00 0.  1.
</event>
<event>
 7    1  0.6684706E-006  0.7684451E+02  0.7561462E-02  0.1338252E+00
          1   -1    0    0  501    0  0.00000000000E+00  0.00000000000E+00  0.41120597521E+03  0.41120597521E+03  0.00000000000E+00 0. -1.
         -1   -1    0    0    0  501 -0.00000000000E+00 -0.00000000000E+00 -0.44679734217E+02  0.44679734217E+02  0.00000000000E+00 0.  1.
         23    2    1    2    0    0  0.40459896389E+02 -0.31380690107E+02  0.58479140938E+02  0.11948971291E+03  0.90753681134E+02 0.  0.
          5    1    1    2  502    0 -0.42549034217E+02 -0.19851046006E+02  0.26545632556E+03  0.26960900861E+03  0.41800000000E+01 0.  1.
         -5    1    1    2    0  502  0.20891378273E+01  0.51231736114E+02  0.42590774493E+02  0.66786987910E+02  0.41800000000E+01 0.  1.
        -11    1    3    3    0    0  0.81071632162E+01 -0.18656748831E+02 -0.23119076706E+02  0.30794351432E+02  0.00000000000E+00 0.  1.
         11    1    3    3    0    0  0.32352733173E+02 -0.12723941276E+02  0.81598217644E+02  0.88695361480E+02  0.00000000000E+00 0. -1.
</event>
<event>
 7    1  0.6684706E-006  0.1073823E+03  0.7561462E-02  0.1265496E+00
          1   -1    0    0  501    0  0.00000000000E+00  0.00000000000E+00  0.96328285254E+02  0.96328285254E+02  0.00000000000E+00 0. -1.
         -1   -1    0    0    0  501 -0.00000000000E+00 -0.00000000000E+00 -0.12969608710E+03  0.12969608710E+03  0.00000000000E+00 0.  1.
         23    2    1    2    0    0  0.23160141071E+02  0.97423640170E+00 -0.29605619343E+02  0.98744762237E+02  0.91305498748E+02 0.  0.
          5    1    1    2  502    0  0.49135617742E+02 -0.39837134794E+01  0.16274966058E+02  0.52081914559E+02  0.41800000000E+01 0. -1.
         -5    1    1    2    0  502 -0.72295758813E+02  0.30094770777E+01 -0.20037148561E+02  0.75197695557E+02  0.41800000000E+01 0. -1.
        -11    1    3    3    0    0 -0.10670597065E+02 -0.39005732169E+02 -0.21338197698E+02  0.45723379848E+02  0.00000000000E+00 0. -1.
         11    1    3    3    0    0  0.33830738137E+02  0.39979968571E+02 -0.82674216448E+01  0.53021382389E+02  0.00000000000E+00 0.  1.
</event>
<event>
 7    1  0.6684706E-006  0.8790490E+02  0.7561462E-02  0.1308006E+00
         -4   -1    0    0    0  501 -0.00000000000E+00  0.00000000000E+00  0.22032826857E+03  0.22032826857E+03  0.00000000000E+00 0.  1.
          4   -1    0    0  501    0  0.00000000000E+00 -0.00000000000E+00 -0.55675702835E+02  0.55675702835E+02  0.00000000000E+00 0. -1.
         23    2    1    2    0    0  0.37064181941E+01 -0.74418766569E+01  0.80787474340E+02  0.12202012035E+03  0.91066869360E+02 0.  0.
          5    1    1    2  502    0  0.76352472429E+01  0.45486168286E+02 -0.13925282450E+02  0.48359842815E+02  0.41800000000E+01 0. -1.
         -5    1    1    2    0  502 -0.11341665437E+02 -0.38044291629E+02  0.97790373841E+02  0.10562400824E+03  0.41800000000E+01 0.  1.
        -11    1    3    3    0    0 -0.39727371921E+02 -0.19847307346E+02  0.52324882600E+02  0.68629971789E+02  0.00000000000E+00 0. -1.
         11    1    3    3    0    0  0.43433790115E+02  0.12405430689E+02  0.28462591740E+02  0.53390148557E+02  0.00000000000E+00 0.  1.
</event>
<event>
 7    1  0.6684706E-006  0.2158621E+03  0.7561462E-02  0.1137006E+00
          3   -1    0    0  501    0  0.00000000000E+00  0.00000000000E+00  0.99187415271E+02  0.99187415271E+02  0.00000000000E+00 0. -1.
         -3   -1    0    0    0  501 -0.00000000000E+00 -0.00000000000E+00 -0.55549906577E+03  0.55549906577E+03  0.00000000000E+00 0.  1.
         23    2    1    2    0    0 -0.81889706075E+02 -0.17980815650E+03 -0.31023586191E+03  0.37896474562E+03  0.91274811994E+02 0.  0.
          5    1    1    2  502    0  0.24730229933E+02 -0.15394353878E+02 -0.10508927329E+02  0.31248685692E+02  0.41800000000E+01 0. -1.
         -5    1    1    2    0  502  0.57159476142E+02  0.19520251038E+03 -0.13556686125E+03  0.24447304972E+03  0.41800000000E+01 0. -1.
        -11    1    3    3    0    0 -0.63084579326E+02 -0.15757604766E+03 -0.18790333660E+03  0.25321441280E+03  0.00000000000E+00 0. -1.
         11    1    3    3    0    0 -0.18805126749E+02 -0.22232108837E+02 -0.12233252531E+03  0.12575033282E+03  0.00000000000E+00 0.  1.
</event>
<event>
 7    1  0.6684706E-006  0.9481645E+02  0.7561462E-02  0.1291590E+00
         -2   -1    0    0    0  501 -0.00000000000E+00  0.00000000000E+00  0.67807814950E+02  0.67807814950E+02  0.00000000000E+00 0. -1.
          2   -1    0    0  501    0  0.00000000000E+00 -0.00000000000E+00 -0.23560356459E+03  0.23560356459E+03  0.00000000000E+00 0.  1.
         23    2    1    2    0    0 -0.42360923801E+02 -0.24250513122E+01 -0.20760921072E+02  0.10575815547E+03  0.94622634006E+02 0.  0.
          5    1    1    2  502    0 -0.53138784576E+00 -0.38029594832E+02  0.97760277143E+00  0.38274803243E+02  0.41800000000E+01 0. -1.
         -5    1    1    2    0  502  0.42892311647E+02  0.40454646144E+02 -0.14801243134E+03  0.15937842082E+03  0.41800000000E+01 0. -1.
        -11    1    3    3    0    0 -0.67232514987E+02  0.37438679218E+00 -0.36191078968E+02  0.76355389030E+02  0.00000000000E+00 0.  1.
         11    1    3    3    0    0  0.24871591186E+02 -0.27994381044E+01  0.15430157897E+02  0.29402766444E+02  0.00000000000E+00 0. -1.
</event>
<event>
 7    1  0.6684706E-006  0.5569547E+02  0.7561462E-02  0.1416838E+00
         -1   -1    0    0    0  501 -0.00000000000E+00  0.00000000000E+00  0.36219039508E+02  0.36219039508E+02  0.00000000000E+00 0.  1.
          1   -1    0    0  501    0  0.00000000000E+00 -0.00000000000E+00 -0.52268399159E+03  0.52268399159E+03  0.00000000000E+00 0. -1.
         23    2    1    2    0    0  0.36593116074E+02 -0.22634634111E+02 -0.75210585564E+02  0.12689694585E+03  0.92708251411E+02 0.  0.
          5    1    1    2  502    0 -0.12963686320E+02  0.23052529967E+01  0.49053557292E+01  0.14659681757E+02  0.41800000000E+01 0.  1.
         -5    1    1    2    0  502 -0.23629429754E+02  0.20329381115E+02 -0.41615972225E+03  0.41734640349E+03  0.41800000000E+01 0.  1.
        -11    1    3    3    0    0  0.34481258733E+02  0.80178086867E+01  0.96105069905E+01  0.36682479531E+02  0.00000000000E+00 0.  1.
         11    1    3    3    0    0  0.21118573413E+01 -0.30652442798E+02 -0.84821092555E+02  0.90214466318E+02  0.00000000000E+00 0. -1.
</event>
<event>
 7    1  0.6684706E-006  0.7282405E+02  0.7561462E-02  0.1350745E+00
          1   -1    0    0  501    0  0.00000000000E+00  0.00000000000E+00  0.85484653308E+02  0.85484653308E+02  0.00000000000E+00 0. -1.
         -1   -1    0    0    0  501 -0.00000000000E+00 -0.00000000000E+00 -0.16022444504E+03  0.16022444504E+03  0.00000000000E+00 0.  1.
         23    2    1    2    0    0 -0.14718009987E+02  0.39219671748E+02 -0.49920711997E+02  0.11147699684E+03  0.90444684020E+02 0.  0.
          5    1    1    2  502    0  0.13638024200E+02  0.66985041838E+01 -0.68752524586E+02  0.70535435771E+02  0.41800000000E+01 0. -1.
         -5    1    1    2    0  502  0.10799857861E+01 -0.45918175932E+02  0.43933444850E+02  0.63696665742E+02  0.41800000000E+01 0. -1.
        -11    1    3    3    0    0  0.48911391543E+01  0.57053485735E+02 -0.27007795259E+01  0.57326413517E+02  0.00000000000E+00 0. -1.
         11    1    3    3    0    0 -0.19609149141E+02 -0.17833813986E+02 -0.47219932471E+02  0.54150583320E+02  0.00000000000E+00 0.  1.
</event>
<event>
 7    1  0.6684706E-006  0.1193072E+03  0.7561462E-02  0.1244244E+00
         -2   -1    0    0    0  501 -0.00000000000E+00  0.00000000000E+00  0.22819868246E+02  0.22819868246E+02  0.00000000000E+00 0.  1.
          2   -1    0    0  501    0  0.00000000000E+00 -0.00000000000E+00 -0.77458480209E+03  0.77458480209E+03  0.00000000000E+00 0. -1.
         23    2    1    2    0    0  0.14792541501E+02 -0.48319621737E+02 -0.16708840005E+03  0.19736620770E+03  0.92093872659E+02 0.  0.
          5    1    1    2  502    0 -0.52805267256E+02  0.72132775366E+02 -0.40913796954E+03  0.41881127498E+03  0.41800000000E+01 0. -1.
         -5    1    1    2    0  502  0.38012725755E+02 -0.23813153629E+02 -0.17553856425E+03  0.18122718765E+03  0.41800000000E+01 0. -1.
        -11    1    3    3    0    0  0.53361720327E+02 -0.24299087244E+02 -0.80628661198E+02  0.99694031134E+02  0.00000000000E+00 0.  1.
         11    1    3    3    0    0 -0.38569178825E+02 -0.24020534493E+02 -0.86459738853E+02  0.97672176565E+02  0.00000000000E+00 0. -1.
</event>
<event>
 7    1  0.6684706E-006  0.9173136E+02  0.7561462E-02  0.1298712E+00
         -2   -1    0    0    0  501 -0.00000000000E+00  0.00000000000E+00  0.54833404421E+02  0.54833404421E+02  0.00000000000E+00 0.  1.
          2   -1    0    0  501    0  0.00000000000E+00 -0.00000000000E+00 -0.36709264258E+03  0.36709264258E+03  0.00000000000E+00 0. -1.
         23    2    1    2    0    0  0.18582033022E+02 -0.17626712526E+02 -0.14265746441E+02  0.97730206837E+02  0.93229227505E+02 0.  0.
          5    1    1    2  502    0  0.31585115863E+02 -0.21239475316E+02 -0.22118295024E+03  0.22447294877E+03  0.41800000000E+01 0. -1.
         -5    1    1    2    0  502 -0.50167148885E+02  0.38866187843E+02 -0.76810541478E+02  0.99722891388E+02  0.41800000000E+01 0. -1.
        -11    1    3    3    0    0 -0.23376359440E+02 -0.29808992019E+02  0.19411960900E+02  0.42565883191E+02  0.00000000000E+00 0.  1.
         11    1    3    3    0    0  0.41958392461E+02  0.12182279492E+02 -0.33677707342E+02  0.55164323646E+02  0.00000000000E+00 0. -1.
</event>
<event>
 7    1  0.6684706E-006  0.6667570E+02  0.7561462E-02  0.1371777E+00
         -2   -1    0    0    0  501 -0.00000000000E+00  0.00000000000E+00  0.26329157819E+02  0.26329157819E+02  0.00000000000E+00 0.  1.
          2   -1    0    0  501    0  0.00000000000E+00 -0.00000000000E+00 -0.43169848407E+03  0.43169848407E+03  0.00000000000E+00 0. -1.
         23    2    1    2    0    0  0.31890890267E+02 -0.28792711347E+01 -0.13970006753E+03  0.16708442276E+03  0.85882340321E+02 0.  0.
          5    1    1    2  502    0 -0.22876515168E+02 -0.18127477956E+02 -0.26607269482E+03  0.26770149744E+03  0.41800000000E+01 0. -1.
         -5    1    1    2    0  502 -0.90143750995E+01  0.21006749091E+02  0.40343610373E+00  0.23241721677E+02  0.41800000000E+01 0.  1.
        -11    1    3    3    0    0 -0.23376836187E+02 -0.89407463049E+01 -0.86814122783E+02  0.90349904976E+02  0.00000000000E+00 0.  1.
         11    1    3    3    0    0  0.55267726455E+02  0.60614751702E+01 -0.52885944745E+02  0.76734517789E+02  0.00000000000E+00 0. -1.
</event>
<event>
 7    1  0.6684706E-006  0.1086181E+03  0.7561462E-02  0.1263151E+00
         -4   -1    0    0    0  501 -0.00000000000E+00  0.00000000000E+00  0.57482980649E+02  0.57482980649E+02  0.00000000000E+00 0.  1.
          4   -1    0    0  501    0  0.00000000000E+00 -0.00000000000E+00 -0.39739299987E+03  0.39739299987E+03  0.00000000000E+00 0. -1.
         23    2    1    2    0    0  0.88189317756E+02 -0.49242498210E+02 -0.97717331185E+02  0.16417528889E+03  0.84868541114E+02 0.  0.
          5    1    1    2  502    0 -0.57246352621E+02  0.13104658850E+01 -0.22313743509E+03  0.23040540260E+03  0.41800000000E+01 0.  1.
         -5    1    1    2    0  502 -0.30942965135E+02  0.47932032325E+02 -0.19055252940E+02  0.60295289026E+02  0.41800000000E+01 0.  1.
        -11    1    3    3    0    0  0.79270157910E+02 -0.37025024304E+02 -0.11284067583E+03  0.14278525302E+03  0.00000000000E+00 0. -1.
         11    1    3    3    0    0  0.89191598453E+01 -0.12217473906E+02  0.15123344643E+02  0.21390035862E+02  0.00000000000E+00 0.  1.
</event>
<event>
 7    1  0.6684706E-006  0.1347862E+03  0.7561462E-02  0.1220522E+00
         -2   -1    0    0    0  501 -0.00000000000E+00  0.00000000000E+00  0.93751235355E+02  0.93751235355E+02  0.00000000000E+00 0.  1.
          2   -1    0    0  501    0  0.00000000000E+00 -0.00000000000E+00 -0.24411941861E+03  0.24411941861E+03  0.00000000000E+00 0. -1.
         23    2    1    2    0    0  0.51891527683E+02  0.89330510351E+02 -0.67328479096E+02  0.15562264636E+03  0.94934784135E+02 0.  0.
          5    1    1    2  502    0  0.26610894053E+01  0.18423379763E+02 -0.54964241928E+02  0.58181119011E+02  0.41800000000E+01 0.  1.
         -5    1    1    2    0  502 -0.54552617089E+02 -0.10775389011E+03 -0.28075462236E+02  0.12406688860E+03  0.41800000000E+01 0.  1.
        -11    1    3    3    0    0  0.87330146608E+00  0.77200375274E+02 -0.68436058572E+02  0.10317051280E+03  0.00000000000E+00 0. -1.
         11    1    3    3    0    0  0.51018226217E+02  0.12130135077E+02  0.11075794759E+01  0.52452133566E+02  0.00000000000E+00 0.  1.
</event>
<event>
 7    1  0.6684706E-006  0.1559334E+03  0.7561462E-02  0.1193366E+00
         -1   -1    0    0    0  501 -0.00000000000E+00  0.00000000000E+00  0.27040730991E+03  0.27040730991E+03  0.00000000000E+00 0.  1.
          1   -1    0    0  501    0  0.00000000000E+00 -0.00000000000E+00 -0.10592330610E+03  0.10592330610E+03  0.00000000000E+00 0. -1.
         23    2    1    2    0    0 -0.45694377884E+02  0.11890742149E+03  0.10333836554E+03  0.18761373843E+03  0.91066711807E+02 0.  0.
          5    1    1    2  502    0 -0.10730331541E+02 -0.93204571448E+02  0.80432340042E+02  0.12364896230E+03  0.41800000000E+01 0. -1.
         -5    1    1    2    0  502  0.56424709425E+02 -0.25702850042E+02 -0.19286701766E+02  0.65067915280E+02  0.41800000000E+01 0. -1.
        -11    1    3    3    0    0  0.27140860311E+02  0.40890414387E+02  0.41431019112E+02  0.64227576880E+02  0.00000000000E+00 0. -1.
         11    1    3    3    0    0 -0.72835238195E+02  0.78017007102E+02  0.61907346427E+02  0.12338616155E+03  0.00000000000E+00 0.  1.
</event>
<event>
 7    1  0.6684706E-006  0.1008825E+03  0.7561462E-02  0.1278451E+00
         -1   -1    0    0    0  501 -0.00000000000E+00  0.00000000000E+00  0.10587297874E+02  0.10587297874E+02  0.00000000000E+00 0.  1.
          1   -1    0    0  501    0  0.00000000000E+00 -0.00000000000E+00 -0.20001686018E+04  0.20001686018E+04  0.00000000000E+00 0. -1.
         23    2    1    2    0    0 -0.57617912891E+02 -0.52364037953E+02 -0.47557444373E+03  0.49021909284E+03  0.89899338748E+02 0.  0.
          5    1    1    2  502    0  0.32640634820E+02  0.11489842642E+02 -0.13266624519E+04  0.13271202512E+04  0.41800000000E+01 0. -1.
         -5    1    1    2    0  502  0.24977278070E+02  0.40874195311E+02 -0.18734440835E+03  0.19341655566E+03  0.41800000000E+01 0.  1.
        -11    1    3    3    0    0 -0.41064185559E+02 -0.78093225796E+02 -0.34408340793E+03  0.35521572440E+03  0.00000000000E+00 0.  1.
         11    1    3    3    0    0 -0.16553727331E+02  0.25729187843E+02 -0.13149103580E+03  0.13500336844E+03  0.00000000000E+00 0. -1.
</event>
<event>
 7    1  0.6684706E-006  0.2289772E+03  0.7561462E-02  0.1127362E+00
          1   -1    0    0  501    0  0.00000000000E+00  0.00000000000E+00  0.14447064551E+04  0.14447064551E+04  0.00000000000E+00 0. -1.
         -1   -1    0    0    0  501 -0.00000000000E+00 -0.00000000000E+00 -0.43121575344E+02  0.43121575344E+02  0.00000000000E+00 0.  1.
         23    2    1    2    0    0  0.21402509725E+03 -0.39010536331E+02  0.52085407460E+03  0.57204309130E+03  0.92821156452E+02 0.  0.
          5    1    1    2  502    0 -0.40552327608E+02 -0.24972358973E+02  0.73803507521E+02  0.87934862879E+02  0.41800000000E+01 0. -1.
         -5    1    1    2    0  502 -0.17347276964E+03  0.63982895304E+02  0.80692729767E+03  0.82785007630E+03  0.41800000000E+01 0. -1.
        -11    1    3    3    0    0  0.26695299365E+02  0.14501907042E+02  0.15087972801E+03  0.15390788362E+03  0.00000000000E+00 0. -1.
         11    1    3    3    0    0  0.18732979788E+03 -0.53512443373E+02  0.36997434659E+03  0.41813520768E+03  0.00000000000E+00 0.  1.
</event>
<event>
 7    1  0.6684707E-006  0.9613378E+02  0.7561462E-02  0.1288643E+00
          2   -1    0    0  501    0  0.00000000000E+00  0.00000000000E+00  0.34747834013E+03  0.34747834013E+03  0.00000000000E+00 0. -1.
         -2   -1    0    0    0  501 -0.00000000000E+00 -0.00000000000E+00 -0.37653116306E+02  0.37653116306E+02  0.00000000000E+00 0.  1.
         23    2    1    2    0    0  0.50350763696E+02 -0.68051786449E+01  0.10443125217E+03  0.13933681879E+03  0.76989303020E+02 0.  0.
          5    1    1    2  502    0  0.13125162277E+02 -0.25735614826E+02  0.92997814049E+00  0.29204948460E+02  0.41800000000E+01 0.  1.
         -5    1    1    2    0  502 -0.63475925973E+02  0.32540793470E+02  0.20446399352E+03  0.21658968919E+03  0.41800000000E+01 0.  1.
        -11    1    3    3    0    0  0.13872350223E+02  0.34101488404E+02  0.50003148754E+02  0.62094029483E+02  0.00000000000E+00 0.  1.
         11    1    3    3    0    0  0.36478413473E+02 -0.40906667048E+02  0.54428103413E+02  0.77242789305E+02  0.00000000000E+00 0. -1.
</event>
<event>
 7    1  0.6684706E-006  0.1948094E+03  0.7561462E-02  0.1154194E+00
          4   -1    0    0  501    0  0.00000000000E+00  0.00000000000E+00  0.51386650749E+03  0.51386650749E+03  0.00000000000E+00 0. -1.
         -4   -1    0    0    0  501 -0.00000000000E+00 -0.00000000000E+00 -0.16017650584E+03  0.16017650584E+03  0.00000000000E+00 0.  1.
         23    2    1    2    0    0  0.55151130960E+01  0.71732383540E+02 -0.61906694231E+02  0.13237625199E+03  0.92277201838E+02 0.  0.
          5    1    1    2  502    0  0.14025098227E+03 -0.40389078693E+02  0.34901175445E+03  0.37832300069E+03  0.41800000000E+01 0. -1.
         -5    1    1    2    0  502 -0.14576609536E+03 -0.31343304847E+02  0.66584941428E+02  0.16334376064E+03  0.41800000000E+01 0.  1.
        -11    1    3    3    0    0 -0.13928284480E+02 -0.53759965131E+01 -0.49735757397E+02  0.51928258308E+02  0.00000000000E+00 0. -1.
         11    1    3    3    0    0  0.19443397576E+02  0.77108380053E+02 -0.12170936833E+02  0.80447993680E+02  0.00000000000E+00 0.  1.
</event>
<event>
 7    1  0.6684706E-006  0.1191409E+03  0.7561462E-02  0.1244521E+00
         -2   -1    0    0    0  501 -0.00000000000E+00  0.00000000000E+00  0.56615366008E+02  0.56615366008E+02  0.00000000000E+00 0.  1.
          2   -1    0    0  501    0  0.00000000000E+00 -0.00000000000E+00 -0.30845748725E+03  0.30845748725E+03  0.00000000000E+00 0. -1.
         23    2    1    2    0    0  0.55769655071E+02  0.10690161593E+02 -0.46475883053E+02  0.11799505197E+03  0.92402871178E+02 0.  0.
          5    1    1    2  502    0 -0.12382802969E+02 -0.64585375302E+02 -0.78320343162E+02  0.10235308039E+03  0.41800000000E+01 0. -1.
         -5    1    1    2    0  502 -0.43386852102E+02  0.53895213709E+02 -0.12704589503E+03  0.14472472090E+03  0.41800000000E+01 0. -1.
        -11    1    3    3    0    0  0.55500079124E+02  0.43342333220E+02 -0.48137235100E+02  0.85299531270E+02  0.00000000000E+00 0.  1.
         11    1    3    3    0    0  0.26957594654E+00 -0.32652171627E+02  0.16613520476E+01  0.32695520699E+02  0.00000000000E+00 0. -1.
</event>
<event>
 7    1  0.6684706E-006  0.1153157E+03  0.7561462E-02  0.1251031E+00
         -2   -1    0    0    0  501 -0.00000000000E+00  0.00000000000E+00  0.21135913883E+03  0.21135913883E+03  0.00000000000E+00 0.  1.
          2   -1    0    0  501    0  0.00000000000E+00 -0.00000000000E+00 -0.78794908237E+02  0.78794908237E+02  0.00000000000E+00 0. -1.
         23    2    1    2    0    0  0.18825228044E+02 -0.64635681222E+02  0.71013127617E+02  0.13533938770E+03  0.93497192854E+02 0.  0.
          5    1    1    2  502    0  0.38619692457E+02  0.84954800061E+01 -0.16209646021E+02  0.42940410456E+02  0.41800000000E+01 0. -1.
         -5    1    1    2    0  502 -0.57444920501E+02  0.56140201216E+02  0.77760748993E+02  0.11187424890E+03  0.41800000000E+01 0. -1.
        -11    1    3    3    0    0  0.45100240499E+02 -0.51329780723E+01  0.48697930837E+02  0.66572273694E+02  0.00000000000E+00 0.  1.
         11    1    3    3    0    0 -0.26275012455E+02 -0.59502703150E+02  0.22315196780E+02  0.68767114008E+02  0.00000000000E+00 0. -1.
</event>
<event>
 7    1  0.6684706E-006  0.1040849E+03  0.7561462E-02  0.1271933E+00
         -1   -1    0    0    0  501 -0.00000000000E+00  0.00000000000E+00  0.39326539329E+02  0.39326539329E+02  0.00000000000E+00 0.  1.
          1   -1    0    0  501    0  0.00000000000E+00 -0.00000000000E+00 -0.44677306185E+03  0.44677306185E+03  0.00000000000E+00 0. -1.
         23    2    1    2    0    0  0.10657835245E+01 -0.66380097973E+02 -0.11707086877E+03  0.16302306493E+03  0.91997163448E+02 0.  0.
          5    1    1    2  502    0  0.21475165012E+02  0.99147247731E+02 -0.20244487874E+03  0.22647905151E+03  0.41800000000E+01 0. -1.
         -5    1    1    2    0  502 -0.22540948536E+02 -0.32767149758E+02 -0.87930775012E+02  0.96597484741E+02  0.41800000000E+01 0. -1.
        -11    1    3    3    0    0  0.29963454309E+01 -0.19683333428E+02  0.13688875034E+02  0.24161891492E+02  0.00000000000E+00 0.  1.
         11    1    3    3    0    0 -0.19305619064E+01 -0.46696764545E+02 -0.13075974380E+03  0.13886117343E+03  0.00000000000E+00 0. -1.
</event>
<event>
 7    1  0.6684706E-006  0.5730294E+02  0.7561462E-02  0.1409512E+00
          3   -1    0    0  501    0  0.00000000000E+00  0.00000000000E+00  0.24525623123E+02  0.24525623123E+02  0.00000000000E+00 0. -1.
         -3   -1    0    0    0  501 -0.00000000000E+00 -0.00000000000E+00 -0.48856686783E+03  0.48856686783E+03  0.00000000000E+00 0.  1.
         23    2    1    2    0    0  0.14680164645E+02 -0.69226225285E+01 -0.19347684936E+03  0.21456970478E+03  0.91342416391E+02 0.  0.
          5    1    1    2  502    0 -0.29452287793E+02  0.78958049844E+01 -0.34549970054E+01  0.30970799101E+02  0.41800000000E+01 0. -1.
         -5    1    1    2    0  502  0.14772123149E+02 -0.97318245588E+00 -0.26710939834E+03  0.26755198707E+03  0.41800000000E+01 0. -1.
        -11    1    3    3    0    0  0.11786191089E+02  0.29573059196E+02 -0.20738287205E+02  0.37994166484E+02  0.00000000000E+00 0. -1.
         11    1    3    3    0    0  0.28939735556E+01 -0.36495681724E+02 -0.17273856216E+03  0.17657553829E+03  0.00000000000E+00 0.  1.
</event>
<event>
 7    1  0.6684706E-006  0.2235715E+03  0.7561462E-02  0.1131248E+00
         -2   -1    0    0    0  501 -0.00000000000E+00  0.00000000000E+00  0.19870214150E+02  0.19870214150E+02  0.00000000000E+00 0.  1.
          2   -1    0    0  501    0  0.00000000000E+00 -0.00000000000E+00 -0.30710715704E+04  0.30710715704E+04  0.00000000000E+00 0. -1.
         23    2    1    2    0    0  0.32056229889E+02  0.19832746147E+03 -0.88898583729E+03  0.91581297586E+03  0.89756359127E+02 0.  0.
          5    1    1    2  502    0 -0.31339907118E+02  0.60895267859E+01 -0.29013188770E+03  0.29191309798E+03  0.41800000000E+01 0.  1.
         -5    1    1    2    0  502 -0.71632277109E+00 -0.20441698826E+03 -0.18720836312E+04  0.18832157107E+04  0.41800000000E+01 0.  1.
        -11    1    3    3    0    0  0.47066940432E+02  0.18328837603E+03 -0.85531095599E+03  0.87599472436E+03  0.00000000000E+00 0. -1.
         11    1    3    3    0    0 -0.15010710543E+02  0.15039085446E+02 -0.33674881297E+02  0.39818251499E+02  0.00000000000E+00 0.  1.
</event>
<event>
 7    1  0.6684706E-006  0.1035679E+03  0.7561462E-02  0.1272967E+00
         -2   -1    0    0    0  501 -0.00000000000E+00  0.00000000000E+00  0.30489501421E+03  0.30489501421E+03  0.00000000000E+00 0.  1.
          2   -1    0    0  501    0  0.00000000000E+00 -0.00000000000E+00 -0.47857494348E+02  0.47857494348E+02  0.00000000000E+00 0. -1.
         23    2    1    2    0    0 -0.42208911950E+02 -0.25094686458E+00  0.15998134189E+03  0.18889531228E+03  0.91135909653E+02 0.  0.
          5    1    1    2  502    0  0.76076572837E+02 -0.27842063524E+02  0.36669171739E+02  0.89022053402E+02  0.41800000000E+01 0.  1.
         -5    1    1    2    0  502 -0.33867660887E+02  0.28093010389E+02  0.60387006242E+02  0.74835142878E+02  0.41800000000E+01 0.  1.
        -11    1    3    3    0    0  0.19797725450E+02 -0.64033261854E+00  0.29014885145E+01  0.20019455399E+02  0.00000000000E+00 0. -1.
         11    1    3    3    0    0 -0.62006637400E+02  0.38938575395E+00  0.15707985337E+03  0.16887585688E+03  0.00000000000E+00 0.  1.
</event>
<event>
 7    1  0.6684706E-006  0.1282219E+03  0.7561462E-02  0.1230118E+00
         -4   -1    0    0    0  501 -0.00000000000E+00  0.00000000000E+00  0.85946910030E+02  0.85946910030E+02  0.00000000000E+00 0.  1.
          4   -1    0    0  501    0  0.00000000000E+00 -0.00000000000E+00 -0.22345099037E+03  0.22345099037E+03  0.00000000000E+00 0. -1.
         23    2    1    2    0    0  0.60012517260E+02 -0.62035515295E+02 -0.59785000860E+02  0.13870596462E+03  0.90637690329E+02 0.  0.
          5    1    1    2  502    0  0.61423897702E+01  0.79491486441E+02 -0.23295438989E+02  0.83167152449E+02  0.41800000000E+01 0. -1.
         -5    1    1    2    0  502 -0.66154907030E+02 -0.17455971146E+02 -0.54423640496E+02  0.87524783334E+02  0.41800000000E+01 0. -1.
        -11    1    3    3    0    0  0.63686846157E+02 -0.21294152298E+02 -0.10884950741E+01  0.67161299251E+02  0.00000000000E+00 0.  1.
         11    1    3    3    0    0 -0.36743288973E+01 -0.40741362997E+02 -0.58696505785E+02  0.71544665372E+02  0.00000000000E+00 0. -1.
</event>
<event>
 7    1  0.6684706E-006  0.1870243E+03  0.7561462E-02  0.1161173E+00
          2   -1    0    0  501    0  0.00000000000E+00  0.00000000000E+00  0.12688206333E+04  0.12688206333E+04  0.00000000000E+00 0. -1.
         -2   -1    0    0    0  501 -0.00000000000E+00 -0.00000000000E+00 -0.29512599612E+02  0.29512599612E+02  0.00000000000E+00 0.  1.
         23    2    1    2    0    0 -0.59364454519E+02 -0.14776483978E+03  0.53542438939E+03  0.56590067637E+03  0.90585387467E+02 0.  0.
          5    1    1    2  502    0  0.26151162277E+02  0.16335258202E+03  0.58350800400E+03  0.60652041389E+03  0.41800000000E+01 0. -1.
         -5    1    1    2    0  502  0.33213292243E+02 -0.15587742237E+02  0.12037564035E+03  0.12591214270E+03  0.41800000000E+01 0. -1.
        -11    1    3    3    0    0  0.73910837268E+01 -0.64470466482E+02  0.11408010386E+03  0.13124533997E+03  0.00000000000E+00 0. -1.
         11    1    3    3    0    0 -0.66755538246E+02 -0.83294373303E+02  0.42134428553E+03  0.43465533640E+03  0.00000000000E+00 0.  1.
</event>
<event>
 7    1  0.6684706E-006  0.1119624E+03  0.7561462E-02  0.1256978E+00
          3   -1    0    0  501    0  0.00000000000E+00  0.00000000000E+00  0.32307866216E+02  0.32307866216E+02  0.00000000000E+00 0. -1.
         -3   -1    0    0    0  501 -0.00000000000E+00 -0.00000000000E+00 -0.44260867135E+03  0.44260867135E+03  0.00000000000E+00 0.  1.
         23    2    1    2    0    0  0.17968859162E+02 -0.46373093124E+02 -0.16569939694E+03  0.19572009618E+03  0.91524435186E+02 0.  0.
          5    1    1    2  502    0 -0.34916265760E+01 -0.42524321265E+02 -0.99779261280E+02  0.10859964428E+03  0.41800000000E+01 0. -1.
         -5    1    1    2    0  502 -0.14477232585E+02  0.88897414389E+02 -0.14482214691E+03  0.17059679711E+03  0.41800000000E+01 0. -1.
        -11    1    3    3    0    0  0.34852187308E+02  0.64394012883E+01 -0.11588507332E+03  0.12118370793E+03  0.00000000000E+00 0.  1.
         11    1    3    3    0    0 -0.16883328146E+02 -0.52812494413E+02 -0.49814323620E+02  0.74536388248E+02  0.00000000000E+00 0. -1.
</event>
<event>
 7    1  0.6684706E-006  0.8319618E+02  0.7561462E-02  0.1320218E+00
          1   -1    0    0  501    0  0.00000000000E+00  0.00000000000E+00  0.11230628474E+03  0.11230628474E+03  0.00000000000E+00 0. -1.
         -1   -1    0    0    0  501 -0.00000000000E+00 -0.00000000000E+00 -0.15663452918E+03  0.15663452918E+03  0.00000000000E+00 0.  1.
         23    2    1    2    0    0  0.22674496807E+02 -0.52312901655E+02 -0.68882362295E+02  0.12929644935E+03  0.93391752818E+02 0.  0.
          5    1    1    2  502    0 -0.10640954343E+02  0.54453446594E+01 -0.49494668721E+02  0.51088906032E+02  0.41800000000E+01 0.  1.
         -5    1    1    2    0  502 -0.12033542464E+02  0.46867556995E+02  0.74048786578E+02  0.88555458537E+02  0.41800000000E+01 0.  1.
        -11    1    3    3    0    0 -0.31534158164E+02 -0.37437614747E+02 -0.50065448587E+02  0.70018049610E+02  0.00000000000E+00 0.  1.
         11    1    3    3    0    0  0.54208654971E+02 -0.14875286908E+02 -0.18816913709E+02  0.59278399741E+02  0.00000000000E+00 0. -1.
</event>
<event>
 6    1  0.6684706E-006  0.1293044E+03  0.7561462E-02  0.1228491E+00
          2   -1    0    0  501    0  0.00000000000E+00  0.00000000000E+00  0.18152011917E+03  0.18152011917E+03  0.00000000000E+00 0. -1.
         -2   -1    0    0    0  501 -0.00000000000E+00 -0.00000000000E+00 -0.12753593538E+03  0.12753593538E+03  0.00000000000E+00 0.  1.
          5    1    1    2  502    0 -0.46068086008E+02  0.24806435298E+02  0.49639730028E+02  0.72244051506E+02  0.41800000000E+01 0.  1.
         -5    1    1    2    0  502  0.48631405421E+02 -0.52427249313E+02  0.24036848480E+02  0.75557081393E+02  0.41800000000E+01 0.  1.
        -11    1    1    2    0    0  0.60857108296E+02  0.35699431848E+02 -0.53861179903E+02  0.88764090516E+02  0.00000000000E+00 0.  1.
         11    1    1    2    0    0 -0.63420427709E+02 -0.80786178339E+01  0.34168785189E+02  0.72490831132E+02  0.00000000000E+00 0. -1.
</event>
<event>
 7    1  0.6684706E-006  0.1031471E+03  0.7561462E-02  0.1273814E+00
         -1   -1    0    0    0  501 -0.00000000000E+00  0.00000000000E+00  0.29009542259E+03  0.29009542259E+03  0.00000000000E+00 0.  1.
          1   -1    0    0  501    0  0.00000000000E+00 -0.00000000000E+00 -0.59418397531E+02  0.59418397531E+02  0.00000000000E+00 0. -1.
         23    2    1    2    0    0  0.15705764348E+02 -0.40640424470E+02  0.18291790597E+03  0.20870432832E+03  0.90555072768E+02 0.  0.
          5    1    1    2  502    0  0.37856834208E+02 -0.19559393880E+02  0.41905102195E+02  0.59910097439E+02  0.41800000000E+01 0. -1.
         -5    1    1    2    0  502 -0.53562598556E+02  0.60199818349E+02  0.58540168969E+01  0.80899394356E+02  0.41800000000E+01 0. -1.
        -11    1    3    3    0    0 -0.30359673943E+01  0.19532592783E+02  0.11240979393E+03  0.11413457430E+03  0.00000000000E+00 0.  1.
         11    1    3    3    0    0  0.18741731742E+02 -0.60173017253E+02  0.70508112037E+02  0.94569754029E+02  0.00000000000E+00 0. -1.
</event>
<event>
 7    1  0.6684706E-006  0.1051900E+03  0.7561462E-02  0.1269746E+00
          1   -1    0    0  501    0  0.00000000000E+00  0.00000000000E+00  0.33406091640E+03  0.33406091640E+03  0.00000000000E+00 0. -1.
         -1   -1    0    0    0  501 -0.00000000000E+00 -0.00000000000E+00 -0.14374851563E+03  0.14374851563E+03  0.00000000000E+00 0.  1.
         23    2    1    2    0    0 -0.19701136533E+02  0.10035660631E+03 -0.85153149331E+02  0.15845567908E+03  0.86009070336E+02 0.  0.
          5    1    1    2  502    0  0.21343427954E+02 -0.78911449078E+02  0.56888181219E+02  0.99680972481E+02  0.41800000000E+01 0. -1.
         -5    1    1    2    0  502 -0.16422914209E+01 -0.21445157234E+02  0.21857736889E+03  0.21967278047E+03  0.41800000000E+01 0. -1.
        -11    1    3    3    0    0 -0.48463677400E+01  0.85395322013E+02 -0.10080143568E+03  0.13219976451E+03  0.00000000000E+00 0.  1.
         11    1    3    3    0    0 -0.14854768793E+02  0.14961284299E+02  0.15648286353E+02  0.26255914564E+02  0.00000000000E+00 0. -1.
</event>
<event>
 7    1  0.6684706E-006  0.8439999E+02  0.7561462E-02  0.1317009E+00
          3   -1    0    0  501    0  0.00000000000E+00  0.00000000000E+00  0.51774186993E+02  0.51774186993E+02  0.00000000000E+00 0. -1.
         -3   -1    0    0    0  501 -0.00000000000E+00 -0.00000000000E+00 -0.22707141579E+03  0.22707141579E+03  0.00000000000E+00 0.  1.
         23    2    1    2    0    0  0.27059905897E+02 -0.29914424216E+01 -0.62308056238E+02  0.10810089309E+03  0.84037622401E+02 0.  0.
          5    1    1    2  502    0  0.71979580533E+01 -0.33998123307E+02  0.11115710212E+02  0.36724847202E+02  0.41800000000E+01 0.  1.
         -5    1    1    2    0  502 -0.34257863950E+02  0.36989565728E+02 -0.12410488277E+03  0.13401986249E+03  0.41800000000E+01 0.  1.
        -11    1    3    3    0    0  0.55000817814E+02  0.83067657583E+00 -0.57352769315E+02  0.79467730129E+02  0.00000000000E+00 0.  1.
         11    1    3    3    0    0 -0.27940911917E+02 -0.38221189974E+01 -0.49552869223E+01  0.28633162956E+02  0.00000000000E+00 0. -1.
</event>
<event>
 7    1  0.8753338E-006  0.7197242E+02  0.7561462E-02  0.1353511E+00
         -2   -1    0    0    0  501 -0.00000000000E+00  0.00000000000E+00  0.43099546679E+03  0.43099546679E+03  0.00000000000E+00 0.  1.
          2   -1    0    0  501    0  0.00000000000E+00 -0.00000000000E+00 -0.27375356520E+02  0.27375356520E+02  0.00000000000E+00 0. -1.
         23    2    1    2    0    0 -0.20847526193E+02  0.18376825632E+02  0.23069126942E+03  0.24313961860E+03  0.71596684827E+02 0.  0.
          5    1    1    2  502    0  0.34728464621E+02 -0.34277661213E+02  0.18443794709E+03  0.19082938202E+03  0.41800000000E+01 0. -1.
         -5    1    1    2    0  502 -0.13880938428E+02  0.15900835581E+02 -0.11509106248E+02  0.24401822687E+02  0.41800000000E+01 0. -1.
        -11    1    3    3    0    0 -0.37941592940E+02 -0.10965779033E+02  0.87886989517E+02  0.96353182153E+02  0.00000000000E+00 0. -1.
         11    1    3    3    0    0  0.17094066747E+02  0.29342604665E+02  0.14280427991E+03  0.14678643645E+03  0.00000000000E+00 0.  1.
</event>
<event>
 7    1  0.6684706E-006  0.2179015E+03  0.7561462E-02  0.1135457E+00
          1   -1    0    0  501    0  0.00000000000E+00  0.00000000000E+00  0.98988140079E+02  0.98988140079E+02  0.00000000000E+00 0. -1.
         -1   -1    0    0    0  501 -0.00000000000E+00 -0.00000000000E+00 -0.56508907882E+03  0.56508907882E+03  0.00000000000E+00 0.  1.
         23    2    1    2    0    0 -0.88620659737E+02 -0.17932463789E+03 -0.31242399897E+03  0.38251629625E+03  0.93268508490E+02 0.  0.
          5    1    1    2  502    0  0.77260597973E+02  0.19690299312E+03 -0.15128195263E+03  0.26008400622E+03  0.41800000000E+01 0.  1.
         -5    1    1    2    0  502  0.11360061764E+02 -0.17578355230E+02 -0.23949871325E+01  0.21476916427E+02  0.41800000000E+01 0.  1.
        -11    1    3    3    0    0 -0.90396557299E+02 -0.16224118600E+03 -0.31447007631E+03  0.36521934354E+03  0.00000000000E+00 0.  1.
         11    1    3    3    0    0  0.17758975621E+01 -0.17083451887E+02  0.20460773307E+01  0.17296952707E+02  0.00000000000E+00 0. -1.
</event>
<event>
 7    1  0.6684706E-006  0.1088148E+03  0.7561462E-02  0.1262781E+00
          2   -1    0    0  501    0  0.00000000000E+00  0.00000000000E+00  0.28693888793E+03  0.28693888793E+03  0.00000000000E+00 0. -1.
         -2   -1    0    0    0  501 -0.00000000000E+00 -0.00000000000E+00 -0.58739459013E+02  0.58739459013E+02  0.00000000000E+00 0.  1.
         23    2    1    2    0    0 -0.18944107256E+02  0.61027050197E+02  0.54526792944E+02  0.12231047009E+03  0.88901630403E+02 0.  0.
          5    1    1    2  502    0  0.17464801822E+02  0.37293420121E+02  0.41901948205E+02  0.58898761875E+02  0.41800000000E+01 0.  1.
         -5    1    1    2    0  502  0.14793054340E+01 -0.98320470318E+02  0.13177068777E+03  0.16446911498E+03  0.41800000000E+01 0.  1.
        -11    1    3    3    0    0  0.14316430871E+02  0.24813328509E+02  0.65886776671E+02  0.71845172452E+02  0.00000000000E+00 0. -1.
         11    1    3    3    0    0 -0.33260538127E+02  0.36213721688E+02 -0.11359983727E+02  0.50465297634E+02  0.00000000000E+00 0.  1.
</event>
<event>
 7    1  0.6684706E-006  0.1268221E+03  0.7561462E-02  0.1232249E+00
          1   -1    0    0  501    0  0.00000000000E+00  0.00000000000E+00  0.23364017984E+03  0.23364017984E+03  0.00000000000E+00 0. -1.
         -1   -1    0    0    0  501 -0.00000000000E+00 -0.00000000000E+00 -0.10212776428E+03  0.10212776428E+03  0.00000000000E+00 0.  1.
         23    2    1    2    0    0 -0.26707423360E+02  0.82410104520E+02 -0.71079306329E+01  0.12992956908E+03  0.96573590877E+02 0.  0.
          5    1    1    2  502    0  0.76933631095E+02 -0.55247044652E+02  0.90065902945E+02  0.13076834024E+03  0.41800000000E+01 0. -1.
         -5    1    1    2    0  502 -0.50226207735E+02 -0.27163059868E+02  0.48554443247E+02  0.75070034793E+02  0.41800000000E+01 0. -1.
        -11    1    3    3    0    0 -0.33540356369E+02  0.20525738586E+02  0.36710632541E+02  0.53795278523E+02  0.00000000000E+00 0. -1.
         11    1    3    3    0    0  0.68329330090E+01  0.61884365934E+02 -0.43818563173E+02  0.76134290561E+02  0.00000000000E+00 0.  1.
</event>
<event>
 7    1  0.6684706E-006  0.9987196E+02  0.7561462E-02  0.1280565E+00
         -1   -1    0    0    0  501 -0.00000000000E+00  0.00000000000E+00  0.37551954823E+02  0.37551954823E+02  0.00000000000E+00 0.  1.
          1   -1    0    0  501    0  0.00000000000E+00 -0.00000000000E+00 -0.52024135217E+03  0.52024135217E+03  0.00000000000E+00 0. -1.
         23    2    1    2    0    0  0.62595081568E+02 -0.49509195299E+02 -0.14607859611E+03  0.18993385473E+03  0.91469165710E+02 0.  0.
          5    1    1    2  502    0 -0.54690054205E+02  0.49727279934E+02 -0.34661841257E+03  0.35443701942E+03  0.41800000000E+01 0. -1.
         -5    1    1    2    0  502 -0.79050273628E+01 -0.21808463475E+00  0.10007611344E+02  0.13422432839E+02  0.41800000000E+01 0. -1.
        -11    1    3    3    0    0 -0.18296613772E+02 -0.27324963659E+02 -0.67096909940E+02  0.74722252630E+02  0.00000000000E+00 0.  1.
         11    1    3    3    0    0  0.80891695341E+02 -0.22184231641E+02 -0.78981686174E+02  0.11521160210E+03  0.00000000000E+00 0. -1.
</event>
<event>
 7    1  0.6684706E-006  0.2220384E+03  0.7561462E-02  0.1132372E+00
         -2   -1    0    0    0  501 -0.00000000000E+00  0.00000000000E+00  0.43127527711E+02  0.43127527711E+02  0.00000000000E+00 0.  1.
          2   -1    0    0  501    0  0.00000000000E+00 -0.00000000000E+00 -0.12452098893E+04  0.12452098893E+04  0.00000000000E+00 0. -1.
         23    2    1    2    0    0  0.11128791430E+03  0.16742898157E+03 -0.46676448252E+03  0.51583719586E+03  0.88325912099E+02 0.  0.
          5    1    1    2  502    0 -0.13573393785E+03 -0.15460541361E+03 -0.59922427266E+03  0.63357220358E+03  0.41800000000E+01 0.  1.
         -5    1    1    2    0  502  0.24446023544E+02 -0.12823567964E+02 -0.13609360642E+03  0.13892801758E+03  0.41800000000E+01 0.  1.
        -11    1    3    3    0    0  0.71907233843E+02  0.52899439767E+02 -0.12783573270E+03  0.15591977284E+03  0.00000000000E+00 0.  1.
         11    1    3    3    0    0  0.39380680461E+02  0.11452954180E+03 -0.33892874982E+03  0.35991742302E+03  0.00000000000E+00 0. -1.
</event>
<event>
 7    1  0.6684706E-006  0.1255271E+03  0.7561462E-02  0.1234248E+00
         -2   -1    0    0    0  501 -0.00000000000E+00  0.00000000000E+00  0.56971587923E+03  0.56971587923E+03  0.00000000000E+00 0. -1.
          2   -1    0    0  501    0  0.00000000000E+00 -0.00000000000E+00 -0.28794483787E+02  0.28794483787E+02  0.00000000000E+00 0.  1.
         23    2    1    2    0    0  0.43557697228E+02  0.45784499359E+02  0.22887477631E+03  0.25643754521E+03  0.96866186032E+02 0.  0.
          5    1    1    2  502    0  0.20129342635E+02 -0.65643168759E+02  0.11505469541E+03  0.13404951091E+03  0.41800000000E+01 0.  1.
         -5    1    1    2    0  502 -0.63687039863E+02  0.19858669400E+02  0.19699192373E+03  0.20802330689E+03  0.41800000000E+01 0.  1.
        -11    1    3    3    0    0 -0.17401740412E+02  0.51343534998E+02  0.99417425573E+02  0.11323781905E+03  0.00000000000E+00 0.  1.
         11    1    3    3    0    0  0.60959437640E+02 -0.55590356391E+01  0.12945735073E+03  0.14319972616E+03  0.00000000000E+00 0. -1.
</event>
<event>
 7    1  0.6684706E-006  0.1325278E+03  0.7561462E-02  0.1223752E+00
          2   -1    0    0  501    0  0.00000000000E+00  0.00000000000E+00  0.33671972378E+03  0.33671972378E+03  0.00000000000E+00 0. -1.
         -2   -1    0    0    0  501 -0.00000000000E+00 -0.00000000000E+00 -0.67172506925E+02  0.67172506925E+02  0.00000000000E+00 0.  1.
         23    2    1    2    0    0  0.39857355021E+02  0.66903223348E+02  0.32295917060E+02  0.12460749891E+03  0.91757029602E+02 0.  0.
          5    1    1    2  502    0 -0.55018746746E+02  0.20227185732E+02  0.97962222683E+02  0.11423778276E+03  0.41800000000E+01 0.  1.
         -5    1    1    2    0  502  0.15161391725E+02 -0.87130409080E+02  0.13928907711E+03  0.16504694904E+03  0.41800000000E+01 0.  1.
        -11    1    3    3    0    0  0.87470988204E+01 -0.21938441527E+02 -0.35475973130E+01  0.23882889296E+02  0.00000000000E+00 0. -1.
         11    1    3    3    0    0  0.31110256201E+02  0.88841664875E+02  0.35843514373E+02  0.10072460961E+03  0.00000000000E+00 0.  1.
</event>
<event>
 7    1  0.6684706E-006  0.9434049E+02  0.7561462E-02  0.1292668E+00
          2   -1    0    0  501    0  0.00000000000E+00  0.00000000000E+00  0.14189560957E+04  0.14189560957E+04  0.00000000000E+00 0. -1.
         -2   -1    0    0    0  501 -0.00000000000E+00 -0.00000000000E+00 -0.17214132340E+02  0.17214132340E+02  0.00000000000E+00 0.  1.
         23    2    1    2    0    0  0.68972517473E+01  0.72750502877E+02  0.26125176846E+03  0.28651574933E+03  0.92187745060E+02 0.  0.
          5    1    1    2  502    0  0.28735199305E+02  0.48659722882E+01  0.72550720509E+02  0.78297310374E+02  0.41800000000E+01 0. -1.
         -5    1    1    2    0  502 -0.35632451052E+02 -0.77616475165E+02  0.10679394744E+04  0.10713571683E+04  0.41800000000E+01 0. -1.
        -11    1    3    3    0    0  0.47593839154E+01  0.11531583475E+02 -0.49020613977E+01  0.13403706900E+02  0.00000000000E+00 0.  1.
         11    1    3    3    0    0  0.21378678319E+01  0.61218919401E+02  0.26615382986E+03  0.27311204243E+03  0.00000000000E+00 0. -1.
</event>
<event>
 7    1  0.6684706E-006  0.1779219E+03  0.7561462E-02  0.1169829E+00
          2   -1    0    0  501    0  0.00000000000E+00  0.00000000000E+00  0.93638294450E+02  0.93638294450E+02  0.00000000000E+00 0. -1.
         -2   -1    0    0    0  501 -0.00000000000E+00 -0.00000000000E+00 -0.39450347032E+03  0.39450347032E+03  0.00000000000E+00 0.  1.
         23    2    1    2    0    0  0.11264254133E+03 -0.10614480086E+03 -0.18364452558E+03  0.25717946300E+03  0.91983169903E+02 0.  0.
          5    1    1    2  502    0 -0.32197455563E+02  0.87959900001E+02 -0.80915454512E+01  0.94109328235E+02  0.41800000000E+01 0. -1.
         -5    1    1    2    0  502 -0.80445085770E+02  0.18184900854E+02 -0.10912910484E+03  0.13685297354E+03  0.41800000000E+01 0. -1.
        -11    1    3    3    0    0 -0.14916965348E+02 -0.24593359182E+01 -0.10351187202E+02  0.18322425190E+02  0.00000000000E+00 0. -1.
         11    1    3    3    0    0  0.12755950668E+03 -0.10368546494E+03 -0.17329333838E+03  0.23885703781E+03  0.00000000000E+00 0.  1.
</event>
<event>
 7    1  0.6684706E-006  0.1476196E+03  0.7561462E-02  0.1203429E+00
          1   -1    0    0  501    0  0.00000000000E+00  0.00000000000E+00  0.86623437035E+03  0.86623437035E+03  0.00000000000E+00 0. -1.
         -1   -1    0    0    0  501 -0.00000000000E+00 -0.00000000000E+00 -0.37336118744E+02  0.37336118744E+02  0.00000000000E+00 0.  1.
         23    2    1    2    0    0  0.12159519651E+03  0.63264873373E+02  0.26975827389E+03  0.31444108347E+03  0.85532640686E+02 0.  0.
          5    1    1    2  502    0 -0.49508222036E+02 -0.37015350878E+02  0.45771470313E+03  0.46188897162E+03  0.41800000000E+01 0.  1.
         -5    1    1    2    0  502 -0.72086974471E+02 -0.26249522496E+02  0.10142527459E+03  0.12724043400E+03  0.41800000000E+01 0.  1.
        -11    1    3    3    0    0  0.12196971114E+02  0.43632430292E+02  0.45812715025E+02  0.64431047916E+02  0.00000000000E+00 0.  1.
         11    1    3    3    0    0  0.10939822539E+03  0.19632443081E+02  0.22394555887E+03  0.25001003555E+03  0.00000000000E+00 0. -1.
</event>
<event>
 7    1  0.6684706E-006  0.6755893E+02  0.7561462E-02  0.1368596E+00
         -1   -1    0    0    0  501 -0.00000000000E+00  0.00000000000E+00  0.35783983539E+02  0.35783983539E+02  0.00000000000E+00 0.  1.
          1   -1    0    0  501    0  0.00000000000E+00 -0.00000000000E+00 -0.40245355345E+03  0.40245355345E+03  0.00000000000E+00 0. -1.
         23    2    1    2    0    0  0.31037781036E+02 -0.29200992160E+02 -0.10924028269E+03  0.14887059045E+03  0.91722252170E+02 0.  0.
          5    1    1    2  502    0  0.24902509721E+02  0.34618114129E+01 -0.88457684569E+00  0.25502431352E+02  0.41800000000E+01 0.  1.
         -5    1    1    2    0  502 -0.55940290757E+02  0.25739180747E+02 -0.25654471037E+03  0.26386451518E+03  0.41800000000E+01 0.  1.
        -11    1    3    3    0    0  0.14947632368E+02 -0.43839203113E+00  0.14492124777E+02  0.20824158603E+02  0.00000000000E+00 0.  1.
         11    1    3    3    0    0  0.16090148669E+02 -0.28762600129E+02 -0.12373240747E+03  0.12804643185E+03  0.00000000000E+00 0. -1.
</event>
<event>
 7    1  0.6684706E-006  0.1356642E+03  0.7561462E-02  0.1219285E+00
         -2   -1    0    0    0  501 -0.00000000000E+00  0.00000000000E+00  0.15934447448E+02  0.15934447448E+02  0.00000000000E+00 0.  1.
          2   -1    0    0  501    0  0.00000000000E+00 -0.00000000000E+00 -0.12344967601E+04  0.12344967601E+04  0.00000000000E+00 0. -1.
         23    2    1    2    0    0 -0.76494429228E+02 -0.33768834459E+02 -0.45993222642E+03  0.47702375841E+03  0.94985689999E+02 0.  0.
          5    1    1    2  502    0  0.88701145386E+02  0.66203197169E+02 -0.64809331680E+03  0.65749005786E+03  0.41800000000E+01 0.  1.
         -5    1    1    2    0  502 -0.12206716158E+02 -0.32434362710E+02 -0.11053676946E+03  0.11591739130E+03  0.41800000000E+01 0.  1.
        -11    1    3    3    0    0 -0.49405301326E+02 -0.66708770394E+02 -0.32951579754E+03  0.33981113089E+03  0.00000000000E+00 0.  1.
         11    1    3    3    0    0 -0.27089127903E+02  0.32939935935E+02 -0.13041642888E+03  0.13721262752E+03  0.00000000000E+00 0. -1.
</event>
<event>
 7    1  0.6684706E-006  0.1116429E+03  0.7561462E-02  0.1257557E+00
         -3   -1    0    0    0  501 -0.00000000000E+00  0.00000000000E+00  0.27621384177E+03  0.27621384177E+03  0.00000000000E+00 0.  1.
          3   -1    0    0  501    0  0.00000000000E+00 -0.00000000000E+00 -0.51912554403E+02  0.51912554403E+02  0.00000000000E+00 0. -1.
         23    2    1    2    0    0  0.77936476602E+01  0.32687378555E+02  0.14871394024E+03  0.17816058223E+03  0.92174570119E+02 0.  0.
          5    1    1    2  502    0 -0.63501127137E+02 -0.48464504795E+01  0.54968363242E+02  0.84231078512E+02  0.41800000000E+01 0. -1.
         -5    1    1    2    0  502  0.55707479477E+02 -0.27840928076E+02  0.20618983880E+02  0.65734735430E+02  0.41800000000E+01 0. -1.
        -11    1    3    3    0    0  0.44164141849E+02  0.40412953309E+02  0.10408542763E+03  0.12007270491E+03  0.00000000000E+00 0. -1.
         11    1    3    3    0    0 -0.36370494189E+02 -0.77255747542E+01  0.44628512614E+02  0.58087877315E+02  0.00000000000E+00 0.  1.
</event>
<event>
 7    1  0.6684706E-006  0.1357544E+03  0.7561462E-02  0.1219159E+00
         -2   -1    0    0    0  501 -0.00000000000E+00  0.00000000000E+00  0.29540082878E+02  0.29540082878E+02  0.00000000000E+00 0.  1.
          2   -1    0    0  501    0  0.00000000000E+00 -0.00000000000E+00 -0.12004850334E+04  0.12004850334E+04  0.00000000000E+00 0. -1.
         23    2    1    2    0    0  0.51173176410E+02  0.68652102388E+02 -0.13817604424E+03  0.18619031950E+03  0.90787723443E+02 0.  0.
          5    1    1    2  502    0  0.23351151407E+02 -0.73062334384E+02 -0.52131514581E+03  0.52694433732E+03  0.41800000000E+01 0. -1.
         -5    1    1    2    0  502 -0.74524327817E+02  0.44102319958E+01 -0.51145376051E+03  0.51689045950E+03  0.41800000000E+01 0. -1.
        -11    1    3    3    0    0  0.28815079530E+02  0.86588132330E+02 -0.80092037742E+02  0.12141889465E+03  0.00000000000E+00 0.  1.
         11    1    3    3    0    0  0.22358096879E+02 -0.17936029942E+02 -0.58084006500E+02  0.64771424851E+02  0.00000000000E+00 0. -1.
</event>
<event>
 7    1  0.6684706E-006  0.2154981E+03  0.7561462E-02  0.1137285E+00
          2   -1    0    0  501    0  0.00000000000E+00  0.00000000000E+00  0.51434647170E+03  0.51434647170E+03  0.00000000000E+00 0. -1.
         -2   -1    0    0    0  501 -0.00000000000E+00 -0.00000000000E+00 -0.13333943793E+03  0.13333943793E+03  0.00000000000E+00 0.  1.
         23    2    1    2    0    0  0.13646762830E+03 -0.12941547287E+03  0.47755260321E+01  0.20885812062E+03  0.90703531951E+02 0.  0.
          5    1    1    2  502    0 -0.36643627674E+02  0.11992357451E+03  0.21348331231E+03  0.24762272959E+03  0.41800000000E+01 0.  1.
         -5    1    1    2    0  502 -0.99824000629E+02  0.94918983654E+01  0.16274819542E+03  0.19120505942E+03  0.41800000000E+01 0.  1.
        -11    1    3    3    0    0  0.79766454259E+02 -0.12501679596E+03  0.20858213683E+02  0.14975630730E+03  0.00000000000E+00 0.  1.
         11    1    3    3    0    0  0.56701174044E+02 -0.43986769127E+01 -0.16082687651E+02  0.59101813328E+02  0.00000000000E+00 0. -1.
</event>
<event>
 7    1  0.6684706E-006  0.1149002E+03  0.7561462E-02  0.1251755E+00
          2   -1    0    0  501    0  0.00000000000E+00  0.00000000000E+00  0.65784092051E+03  0.65784092051E+03  0.00000000000E+00 0.  1.
         -2   -1    0    0    0  501 -0.00000000000E+00 -0.00000000000E+00 -0.26563258758E+02  0.26563258758E+02  0.00000000000E+00 0. -1.
         23    2    1    2    0    0 -0.63430934190E+02 -0.14697105181E+02  0.18081191475E+03  0.21238017723E+03  0.90404108600E+02 0.  0.
          5    1    1    2  502    0  0.21761774804E+02  0.64258839417E+02  0.30899574146E+03  0.31638364990E+03  0.41800000000E+01 0.  1.
         -5    1    1    2    0  502  0.41669159387E+02 -0.49561734236E+02  0.14147000555E+03  0.15564035214E+03  0.41800000000E+01 0.  1.
        -11    1    3    3    0    0 -0.25470841071E+02 -0.42735229771E+02  0.39893342474E+02  0.63769447090E+02  0.00000000000E+00 0. -1.
         11    1    3    3    0    0 -0.37960093119E+02  0.28038124591E+02  0.14091857228E+03  0.14861073014E+03  0.00000000000E+00 0.  1.
</event>
<event>
 7    1  0.6684706E-006  0.1208906E+03  0.7561462E-02  0.1241635E+00
         -1   -1    0    0    0  501 -0.00000000000E+00  0.00000000000E+00  0.17613433551E+02  0.17613433551E+02  0.00000000000E+00 0.  1.
          1   -1    0    0  501    0  0.00000000000E+00 -0.00000000000E+00 -0.99731412597E+03  0.99731412597E+03  0.00000000000E+00 0. -1.
         23    2    1    2    0    0 -0.20945486108E+02  0.33753221552E+02 -0.24788862209E+03  0.26726841416E+03  0.91682293247E+02 0.  0.
          5    1    1    2  502    0 -0.44160083450E+02 -0.66598847035E+02 -0.39289345380E+03  0.40095917228E+03  0.41800000000E+01 0. -1.
         -5    1    1    2    0  502  0.65105569558E+02  0.32845625483E+02 -0.33891861653E+03  0.34669997307E+03  0.41800000000E+01 0.  1.
        -11    1    3    3    0    0  0.24730785270E+02  0.35203189526E+02 -0.18244002807E+03  0.18744396532E+03  0.00000000000E+00 0.  1.
         11    1    3    3    0    0 -0.45676271377E+02 -0.14499679741E+01 -0.65448594016E+02  0.79824448841E+02  0.00000000000E+00 0. -1.
</event>
<event>
 7    1  0.6684706E-006  0.1691652E+03  0.7561462E-02  0.1178721E+00
         -1   -1    0    0    0  501 -0.00000000000E+00  0.00000000000E+00  0.32254337054E+02  0.32254337054E+02  0.00000000000E+00 0.  1.
          1   -1    0    0  501    0  0.00000000000E+00 -0.00000000000E+00 -0.10603972619E+04  0.10603972619E+04  0.00000000000E+00 0. -1.
         23    2    1    2    0    0  0.12396245463E+03  0.75337957974E+02 -0.59024329483E+03  0.61469152582E+03  0.91738905327E+02 0.  0.
          5    1    1    2  502    0 -0.10908262197E+03  0.54435721804E+01 -0.25043547056E+03  0.27324722910E+03  0.41800000000E+01 0.  1.
         -5    1    1    2    0  502 -0.14879832655E+02 -0.80781530154E+02 -0.18746415946E+03  0.20471284404E+03  0.41800000000E+01 0.  1.
        -11    1    3    3    0    0  0.79060458956E+02  0.60301276700E+02 -0.52348359995E+03  0.53284320354E+03  0.00000000000E+00 0. -1.
         11    1    3    3    0    0  0.44901995672E+02  0.15036681274E+02 -0.66759694878E+02  0.81848322276E+02  0.00000000000E+00 0.  1.
</event>
<event>
 7    1  0.6684706E-006  0.1173025E+03  0.7561462E-02  0.1247615E+00
         -1   -1    0    0    0  501 -0.00000000000E+00  0.00000000000E+00  0.12793624198E+02  0.12793624198E+02  0.00000000000E+00 0.  1.
          1   -1    0    0  501    0  0.00000000000E+00 -0.00000000000E+00 -0.15596115796E+04  0.15596115796E+04  0.00000000000E+00 0. -1.
         23    2    1    2    0    0  0.84082987140E+02  0.24434517574E+02 -0.70868415958E+03  0.72047649623E+03  0.95844400987E+02 0.  0.
          5    1    1    2  502    0 -0.68708005823E+01 -0.26234191539E+02 -0.32257889448E+02  0.42349551804E+02  0.41800000000E+01 0.  1.
         -5    1    1    2    0  502 -0.77212186558E+02  0.17996739647E+01 -0.80587590636E+03  0.80957915575E+03  0.41800000000E+01 0.  1.
        -11    1    3    3    0    0  0.78066847363E+02  0.57026461347E+02 -0.52807754895E+03  0.53685412139E+03  0.00000000000E+00 0.  1.
         11    1    3    3    0    0  0.60161397767E+01 -0.32591943772E+02 -0.18060661063E+03  0.18362237483E+03  0.00000000000E+00 0. -1.
</event>
<event>
 7    1  0.6684706E-006  0.7084422E+02  0.7561462E-02  0.1357246E+00
         -1   -1    0    0    0  501 -0.00000000000E+00  0.00000000000E+00  0.25553890386E+02  0.25553890386E+02  0.00000000000E+00 0.  1.
          1   -1    0    0  501    0  0.00000000000E+00 -0.00000000000E+00 -0.57945786741E+03  0.57945786741E+03  0.00000000000E+00 0. -1.
         23    2    1    2    0    0  0.26918071909E+02  0.42519914004E+02 -0.19681137140E+03  0.22332790840E+03  0.92779917415E+02 0.  0.
          5    1    1    2  502    0 -0.60594772434E+01  0.80005144794E+01 -0.30771518211E+03  0.30790717951E+03  0.41800000000E+01 0.  1.
         -5    1    1    2    0  502 -0.20858594666E+02 -0.50520428483E+02 -0.49377423507E+02  0.73776669874E+02  0.41800000000E+01 0.  1.
        -11    1    3    3    0    0  0.18797015522E+02  0.56658370760E+02 -0.19817072787E+03  0.20696650974E+03  0.00000000000E+00 0. -1.
         11    1    3    3    0    0  0.81210563877E+01 -0.14138456756E+02  0.13593564624E+01  0.16361398666E+02  0.00000000000E+00 0.  1.
</event>
<event>
 7    1  0.6684706E-006  0.1577312E+03  0.7561462E-02  0.1191282E+00
         -1   -1    0    0    0  501 -0.00000000000E+00  0.00000000000E+00  0.70540109827E+02  0.70540109827E+02  0.00000000000E+00 0.  1.
          1   -1    0    0  501    0  0.00000000000E+00 -0.00000000000E+00 -0.42298826637E+03  0.42298826637E+03  0.00000000000E+00 0. -1.
         23    2    1    2    0    0  0.11571110134E+03 -0.65140641265E+02 -0.17126458635E+03  0.23641609892E+03  0.94491540216E+02 0.  0.
          5    1    1    2  502    0 -0.62002652389E+02  0.98455485589E+02 -0.13749270672E+03  0.18016528064E+03  0.41800000000E+01 0.  1.
         -5    1    1    2    0  502 -0.53708448951E+02 -0.33314844323E+02 -0.43690863472E+02  0.76946996640E+02  0.41800000000E+01 0.  1.
        -11    1    3    3    0    0  0.31791758653E+02 -0.43872359689E+01  0.44830654668E+01  0.32404654506E+02  0.00000000000E+00 0.  1.
         11    1    3    3    0    0  0.83919342688E+02 -0.60753405296E+02 -0.17574765182E+03  0.20401144441E+03  0.00000000000E+00 0. -1.
</event>
<event>
 7    1  0.6684706E-006  0.1197162E+03  0.7561462E-02  0.1243566E+00
         -2   -1    0    0    0  501 -0.00000000000E+00  0.00000000000E+00  0.43089993620E+02  0.43089993620E+02  0.00000000000E+00 0.  1.
          2   -1    0    0  501    0  0.00000000000E+00 -0.00000000000E+00 -0.35722914280E+03  0.35722914280E+03  0.00000000000E+00 0. -1.
         23    2    1    2    0    0  0.31224055706E+02  0.52625455627E+02 -0.14304086504E+03  0.17971779467E+03  0.89963417082E+02 0.  0.
          5    1    1    2  502    0 -0.70871849777E+02 -0.20992847395E+01 -0.11529895808E+03  0.13541989596E+03  0.41800000000E+01 0. -1.
         -5    1    1    2    0  502  0.39647794071E+02 -0.50526170887E+02 -0.55799326061E+02  0.85181445797E+02  0.41800000000E+01 0. -1.
        -11    1    3    3    0    0  0.83457883859E+01  0.72960483586E+02 -0.74285797746E+02  0.10445699639E+03  0.00000000000E+00 0.  1.
         11    1    3    3    0    0  0.22878267320E+02 -0.20335027959E+02 -0.68755067296E+02  0.75260798272E+02  0.00000000000E+00 0. -1.
</event>
<event>
 7    1  0.6684706E-006  0.9338851E+02  0.7561462E-02  0.1294847E+00
          1   -1    0    0  501    0  0.00000000000E+00  0.00000000000E+00  0.10395793153E+04  0.10395793153E+04  0.00000000000E+00 0. -1.
         -1   -1    0    0    0  501 -0.00000000000E+00 -0.00000000000E+00 -0.12447181143E+02  0.12447181143E+02  0.00000000000E+00 0.  1.
         23    2    1    2    0    0 -0.38266222447E+02 -0.15578510090E+02  0.34154393646E+03  0.35389650473E+03  0.82966751008E+02 0.  0.
          5    1    1    2  502    0 -0.25473303728E+02  0.17350346015E+02  0.51544871051E+03  0.51638625977E+03  0.41800000000E+01 0. -1.
         -5    1    1    2    0  502  0.63739526175E+02 -0.17718359247E+01  0.17013948715E+03  0.18174373190E+03  0.41800000000E+01 0. -1.
        -11    1    3    3    0    0 -0.62161616430E+02  0.18626388590E+01  0.20708110643E+03  0.21621776204E+03  0.00000000000E+00 0. -1.
         11    1    3    3    0    0  0.23895393983E+02 -0.17441148949E+02  0.13446283003E+03  0.13767874270E+03  0.00000000000E+00 0.  1.
</event>
<event>
 7    1  0.6684706E-006  0.1463779E+03  0.7561462E-02  0.1204996E+00
          2   -1    0    0  501    0  0.00000000000E+00  0.00000000000E+00  0.17617723848E+03  0.17617723848E+03  0.00000000000E+00 0. -1.
         -2   -1    0    0    0  501 -0.00000000000E+00 -0.00000000000E+00 -0.18960497608E+03  0.18960497608E+03  0.00000000000E+00 0.  1.
         23    2    1    2    0    0 -0.66446580484E+02 -0.10487128527E+03 -0.98681154111E+02  0.17000864117E+03  0.61252211098E+02 0.  0.
          5    1    1    2  502    0  0.40465140306E+02  0.12308224787E+03  0.96764763776E+02  0.16176389964E+03  0.41800000000E+01 0. -1.
         -5    1    1    2    0  502  0.25981440178E+02 -0.18210962595E+02 -0.11511347262E+02  0.34009673743E+02  0.41800000000E+01 0. -1.
        -11    1    3    3    0    0  0.80776032181E+00 -0.31807525399E+02 -0.50365063403E+02  0.59573574346E+02  0.00000000000E+00 0.  1.
         11    1    3    3    0    0 -0.67254340806E+02 -0.73063759871E+02 -0.48316090708E+02  0.11043506683E+03  0.00000000000E+00 0. -1.
</event>
<event>
 7    1  0.6684706E-006  0.1266581E+03  0.7561462E-02  0.1232501E+00
          1   -1    0    0  501    0  0.00000000000E+00  0.00000000000E+00  0.52984419466E+02  0.52984419466E+02  0.00000000000E+00 0. -1.
         -1   -1    0    0    0  501 -0.00000000000E+00 -0.00000000000E+00 -0.48339614160E+03  0.48339614160E+03  0.00000000000E+00 0.  1.
         23    2    1    2    0    0  0.54196372132E+02  0.72543104021E+02 -0.32218710652E+03  0.34780666277E+03  0.94684710318E+02 0.  0.
          5    1    1    2  502    0 -0.79126645461E+02 -0.28165052253E+02 -0.10878426787E+03  0.13749831099E+03  0.41800000000E+01 0. -1.
         -5    1    1    2    0  502  0.24930273328E+02 -0.44378051768E+02  0.55965226003E+00  0.51075587296E+02  0.41800000000E+01 0. -1.
        -11    1    3    3    0    0  0.66165949696E+02  0.27688746219E+02 -0.26288626101E+03  0.27249547848E+03  0.00000000000E+00 0.  1.
         11    1    3    3    0    0 -0.11969577564E+02  0.44854357802E+02 -0.59300845513E+02  0.75311184291E+02  0.00000000000E+00 0. -1.
</event>
<event>
 7    1  0.6684706E-006  0.8425047E+02  0.7561462E-02  0.1317404E+00
          2   -1    0    0  501    0  0.00000000000E+00  0.00000000000E+00  0.38359487429E+03  0.38359487429E+03  0.00000000000E+00 0. -1.
         -2   -1    0    0    0  501 -0.00000000000E+00 -0.00000000000E+00 -0.36913096059E+02  0.36913096059E+02  0.00000000000E+00 0.  1.
         23    2    1    2    0    0 -0.33131254662E+02 -0.16908646734E+02  0.98924961857E+02  0.14048277962E+03  0.92550963920E+02 0.  0.
          5    1    1    2  502    0  0.45773824256E+02  0.34407315958E+02  0.37400685962E+02  0.68522916523E+02  0.41800000000E+01 0. -1.
         -5    1    1    2    0  502 -0.12642569594E+02 -0.17498669224E+02  0.21035613041E+03  0.21150227420E+03  0.41800000000E+01 0. -1.
        -11    1    3    3    0    0 -0.60059528924E+02 -0.72839926700E+01  0.93515061808E+02  0.11137894931E+03  0.00000000000E+00 0. -1.
         11    1    3    3    0    0  0.26928274261E+02 -0.96246540644E+01  0.54099000490E+01  0.29103830317E+02  0.00000000000E+00 0.  1.
</event>
<event>
 7    1  0.6684706E-006  0.1153443E+03  0.7561462E-02  0.1250981E+00
         -1   -1    0    0    0  501 -0.00000000000E+00  0.00000000000E+00  0.59091198505E+02  0.59091198505E+02  0.00000000000E+00 0.  1.
          1   -1    0    0  501    0  0.00000000000E+00 -0.00000000000E+00 -0.32376548034E+03  0.32376548034E+03  0.00000000000E+00 0. -1.
         23    2    1    2    0    0 -0.52567521619E+02  0.63193489629E+02 -0.96041109531E+02  0.15737846120E+03  0.93740726841E+02 0.  0.
          5    1    1    2  502    0  0.68494769375E+02 -0.55118732278E+02 -0.18241336615E+03  0.20253818561E+03  0.41800000000E+01 0. -1.
         -5    1    1    2    0  502 -0.15927247756E+02 -0.80747573510E+01  0.13780193847E+02  0.22940032036E+02  0.41800000000E+01 0. -1.
        -11    1    3    3    0    0  0.14826702670E+02 -0.15007764957E+02 -0.20869807123E+02  0.29675123764E+02  0.00000000000E+00 0. -1.
         11    1    3    3    0    0 -0.67394224289E+02  0.78201254586E+02 -0.75171302407E+02  0.12770333743E+03  0.00000000000E+00 0.  1.
</event>
<event>
 7    1  0.6684706E-006  0.9178620E+02  0.7561462E-02  0.1298583E+00
         -1   -1    0    0    0  501 -0.00000000000E+00  0.00000000000E+00  0.66676443541E+02  0.66676443541E+02  0.00000000000E+00 0.  1.
          1   -1    0    0  501    0  0.00000000000E+00 -0.00000000000E+00 -0.23676970915E+03  0.23676970915E+03  0.00000000000E+00 0. -1.
         23    2    1    2    0    0  0.34288595525E+02 -0.23291325777E+02 -0.20128289185E+02  0.10380700651E+03  0.93019099839E+02 0.  0.
          5    1    1    2  502    0 -0.17402541841E+02  0.49540400625E+02 -0.68701321452E+01  0.53120343300E+02  0.41800000000E+01 0. -1.
         -5    1    1    2    0  502 -0.16886053684E+02 -0.26249074848E+02 -0.14309484428E+03  0.14651880288E+03  0.41800000000E+01 0. -1.
        -11    1    3    3    0    0  0.47226851122E+02 -0.50584342096E+02 -0.34174201617E+01  0.69288021279E+02  0.00000000000E+00 0.  1.
         11    1    3    3    0    0 -0.12938255597E+02  0.27293016319E+02 -0.16710869023E+02  0.34518985228E+02  0.00000000000E+00 0. -1.
</event>
<event>
 7    1  0.6684706E-006  0.1231298E+03  0.7561462E-02  0.1238021E+00
         -3   -1    0    0    0  501 -0.00000000000E+00  0.00000000000E+00  0.53074247692E+03  0.53074247692E+03  0.00000000000E+00 0.  1.
          3   -1    0    0  501    0  0.00000000000E+00 -0.00000000000E+00 -0.29000387728E+02  0.29000387728E+02  0.00000000000E+00 0. -1.
         23    2    1    2    0    0  0.36287679712E+01  0.60239381933E+02  0.23304762957E+03  0.25726783654E+03  0.90739136980E+02 0.  0.
          5    1    1    2  502    0  0.31447678360E+02 -0.87915121872E+02  0.16838014154E+03  0.19258081315E+03  0.41800000000E+01 0.  1.
         -5    1    1    2    0  502 -0.35076446331E+02  0.27675739939E+02  0.10031431808E+03  0.10989421495E+03  0.41800000000E+01 0.  1.
        -11    1    3    3    0    0 -0.32806277604E+02 -0.50111410585E+01  0.89030702271E+02  0.95014890053E+02  0.00000000000E+00 0.  1.
         11    1    3    3    0    0  0.36435045575E+02  0.65250522991E+02  0.14401692730E+03  0.16225294649E+03  0.00000000000E+00 0. -1.
</event>
<event>
 7    1  0.6684706E-006  0.9583063E+02  0.7561462E-02  0.1289316E+00
          1   -1    0    0  501    0  0.00000000000E+00  0.00000000000E+00  0.25297583074E+03  0.25297583074E+03  0.00000000000E+00 0. -1.
         -1   -1    0    0    0  501 -0.00000000000E+00 -0.00000000000E+00 -0.92945045098E+02  0.92945045098E+02  0.00000000000E+00 0.  1.
         23    2    1    2    0    0  0.35113327247E+02  0.53458624212E+02 -0.23455482362E+02  0.11482885216E+03  0.92437737877E+02 0.  0.
          5    1    1    2  502    0  0.16810711329E+02 -0.40784262134E+02  0.17017943896E+03  0.17585354673E+03  0.41800000000E+01 0. -1.
         -5    1    1    2    0  502 -0.51924038576E+02 -0.12674362077E+02  0.13306829049E+02  0.55238476947E+02  0.41800000000E+01 0. -1.
        -11    1    3    3    0    0  0.44825832875E+02  0.59161929938E+01 -0.43112321843E+02  0.62474226103E+02  0.00000000000E+00 0.  1.
         11    1    3    3    0    0 -0.97125056285E+01  0.47542431218E+02  0.19656839481E+02  0.52354626062E+02  0.00000000000E+00 0. -1.
</event>
<event>
 7    1  0.6684706E-006  0.1045496E+03  0.7561462E-02  0.1271010E+00
         -1   -1    0    0    0  501 -0.00000000000E+00  0.00000000000E+00  0.15516724846E+02  0.15516724846E+02  0.00000000000E+00 0.  1.
          1   -1    0    0  501    0  0.00000000000E+00 -0.00000000000E+00 -0.85886261254E+03  0.85886261254E+03  0.00000000000E+00 0. -1.
         23    2    1    2    0    0  0.14349278138E+02  0.19684648130E+02 -0.24581589444E+03  0.26340682139E+03  0.91456615077E+02 0.  0.
          5    1    1    2  502    0  0.19408903492E+01 -0.72152860068E+02 -0.32981655642E+03  0.33764809427E+03  0.41800000000E+01 0. -1.
         -5    1    1    2    0  502 -0.16290168487E+02  0.52468211937E+02 -0.26771343683E+03  0.27332442173E+03  0.41800000000E+01 0. -1.
        -11    1    3    3    0    0 -0.27818422628E+02  0.27157748899E+02 -0.52057390762E+02  0.64972147077E+02  0.00000000000E+00 0.  1.
         11    1    3    3    0    0  0.42167700766E+02 -0.74731007687E+01 -0.19375850368E+03  0.19843467431E+03  0.00000000000E+00 0. -1.
</event>
<event>
 7    1  0.6684706E-006  0.2047625E+03  0.7561462E-02  0.1145782E+00
         -4   -1    0    0    0  501 -0.00000000000E+00  0.00000000000E+00  0.20270926119E+03  0.20270926119E+03  0.00000000000E+00 0.  1.
          4   -1    0    0  501    0  0.00000000000E+00 -0.00000000000E+00 -0.14914166312E+04  0.14914166312E+04  0.00000000000E+00 0. -1.
         23    2    1    2    0    0 -0.10148577542E+03  0.12417491286E+03  0.14910674629E+03  0.23536403362E+03  0.86282297923E+02 0.  0.
          5    1    1    2  502    0 -0.36169516118E+02 -0.73655705450E+02 -0.80430441935E+03  0.80849024003E+03  0.41800000000E+01 0. -1.
         -5    1    1    2    0  502  0.13765529154E+03 -0.50519207409E+02 -0.63350969699E+03  0.65027161878E+03  0.41800000000E+01 0.  1.
        -11    1    3    3    0    0 -0.87996687064E+02  0.42201071724E+02  0.65730380838E+02  0.11766405719E+03  0.00000000000E+00 0.  1.
         11    1    3    3    0    0 -0.13489088356E+02  0.81973841135E+02  0.83376365455E+02  0.11769997643E+03  0.00000000000E+00 0. -1.
</event>
<event>
 7    1  0.6684706E-006  0.1804833E+03  0.7561462E-02  0.1167336E+00
          1   -1    0    0  501    0  0.00000000000E+00  0.00000000000E+00  0.12854536974E+04  0.12854536974E+04  0.00000000000E+00 0. -1.
         -1   -1    0    0    0  501 -0.00000000000E+00 -0.00000000000E+00 -0.37658289426E+02  0.37658289426E+02  0.00000000000E+00 0.  1.
         23    2    1    2    0    0 -0.17153592867E+03 -0.40926377359E+02  0.39031285895E+03  0.43879095616E+03  0.95361586401E+02 0.  0.
          5    1    1    2  502    0  0.12024753329E+03  0.21331883040E+02  0.77854465672E+03  0.78807599468E+03  0.41800000000E+01 0.  1.
         -5    1    1    2    0  502  0.51288395380E+02  0.19594494319E+02  0.78937892296E+02  0.96245035968E+02  0.41800000000E+01 0.  1.
        -11    1    3    3    0    0 -0.44046552982E+02  0.12025343197E+02  0.19071574645E+03  0.19610508319E+03  0.00000000000E+00 0.  1.
         11    1    3    3    0    0 -0.12748937568E+03 -0.52951720556E+02  0.19959711249E+03  0.24268587297E+03  0.00000000000E+00 0. -1.
</event>
<event>
 7    1  0.6684706E-006  0.1416256E+03  0.7561462E-02  0.1211158E+00
         -2   -1    0    0    0  501 -0.00000000000E+00  0.00000000000E+00  0.19497085500E+03  0.19497085500E+03  0.00000000000E+00 0.  1.
          2   -1    0    0  501    0  0.00000000000E+00 -0.00000000000E+00 -0.14324871935E+03  0.14324871935E+03  0.00000000000E+00 0. -1.
         23    2    1    2    0    0  0.93288760382E+02  0.56620126447E+02  0.87733230021E+02  0.16835565389E+03  0.93476601436E+02 0.  0.
          5    1    1    2  502    0 -0.12047902061E+03 -0.37833696761E+02 -0.46967354572E+02  0.13479609718E+03  0.41800000000E+01 0. -1.
         -5    1    1    2    0  502  0.27190260231E+02 -0.18786429686E+02  0.10956260196E+02  0.35067823275E+02  0.41800000000E+01 0. -1.
        -11    1    3    3    0    0  0.65853533104E+02  0.67290587643E+02  0.22523115738E+02  0.96809099521E+02  0.00000000000E+00 0.  1.
         11    1    3    3    0    0  0.27435227278E+02 -0.10670461196E+02  0.65210114283E+02  0.71546554373E+02  0.00000000000E+00 0. -1.
</event>
<event>
 7    1  0.6684706E-006  0.7484808E+02  0.7561462E-02  0.1344342E+00
          3   -1    0    0  501    0  0.00000000000E+00  0.00000000000E+00  0.73838499307E+02  0.73838499307E+02  0.00000000000E+00 0. -1.
         -3   -1    0    0    0  501 -0.00000000000E+00 -0.00000000000E+00 -0.22517160563E+03  0.22517160563E+03  0.00000000000E+00 0.  1.
         23    2    1    2    0    0 -0.21010690781E+02 -0.61724679747E+02 -0.10196703173E+03  0.14955863988E+03  0.87858556700E+02 0.  0.
          5    1    1    2  502    0  0.37655825112E+02  0.44432749926E+02 -0.86904596363E+02  0.10470010363E+03  0.41800000000E+01 0. -1.
         -5    1    1    2    0  502 -0.16645134331E+02  0.17291929821E+02  0.37538521766E+02  0.44751361434E+02  0.41800000000E+01 0. -1.
        -11    1    3    3    0    0 -0.27675830802E+00 -0.23109948492E+02  0.13002442800E+02  0.26518103877E+02  0.00000000000E+00 0. -1.
         11    1    3    3    0    0 -0.20733932473E+02 -0.38614731255E+02 -0.11496947453E+03  0.12304053600E+03  0.00000000000E+00 0.  1.
</event>
<event>
 7    1  0.6684706E-006  0.1024142E+03  0.7561462E-02  0.1275300E+00
          1   -1    0    0  501    0  0.00000000000E+00  0.00000000000E+00  0.38067211243E+03  0.38067211243E+03  0.00000000000E+00 0. -1.
         -1   -1    0    0    0  501 -0.00000000000E+00 -0.00000000000E+00 -0.33767132120E+02  0.33767132120E+02  0.00000000000E+00 0.  1.
         23    2    1    2    0    0  0.30048189911E+02  0.17641074346E+02  0.12623111234E+03  0.15839419517E+03  0.89108507572E+02 0.  0.
          5    1    1    2  502    0  0.37586368556E+02 -0.18952272396E+02  0.15858044220E+03  0.16412541784E+03  0.41800000000E+01 0. -1.
         -5    1    1    2    0  502 -0.67634558467E+02  0.13111980495E+01  0.62093425774E+02  0.91919631547E+02  0.41800000000E+01 0. -1.
        -11    1    3    3    0    0 -0.21110594134E+02  0.34875401596E+02  0.43583409861E+02  0.59678006303E+02  0.00000000000E+00 0. -1.
         11    1    3    3    0    0  0.51158784044E+02 -0.17234327249E+02  0.82647702475E+02  0.98716188870E+02  0.00000000000E+00 0.  1.
</event>
<event>
 7    1  0.6684706E-006  0.1380318E+03  0.7561462E-02  0.1216002E+00
         -1   -1    0    0    0  501 -0.00000000000E+00  0.00000000000E+00  0.85433280132E+02  0.85433280132E+02  0.00000000000E+00 0.  1.
          1   -1    0    0  501    0  0.00000000000E+00 -0.00000000000E+00 -0.25219650777E+03  0.25219650777E+03  0.00000000000E+00 0. -1.
         23    2    1    2    0    0  0.41428185355E+02 -0.71775865778E+02 -0.23566748704E+02  0.13021376634E+03  0.97632801102E+02 0.  0.
          5    1    1    2  502    0  0.42245669567E+02  0.90416517690E+01 -0.27401193114E+02  0.51329775451E+02  0.41800000000E+01 0. -1.
         -5    1    1    2    0  502 -0.83673854922E+02  0.62734214009E+02 -0.11579528582E+03  0.15608624610E+03  0.41800000000E+01 0. -1.
        -11    1    3    3    0    0 -0.60226521444E+01 -0.79666615206E+02 -0.12667169201E+02  0.80891897572E+02  0.00000000000E+00 0.  1.
         11    1    3    3    0    0  0.47450837499E+02  0.78907494273E+01 -0.10899579504E+02  0.49321868773E+02  0.00000000000E+00 0. -1.
</event>
<event>
 7    1  0.6684706E-006  0.9823601E+02  0.7561462E-02  0.1284050E+00
         -1   -1    0    0    0  501 -0.00000000000E+00  0.00000000000E+00  0.52789448511E+02  0.52789448511E+02  0.00000000000E+00 0.  1.
          1   -1    0    0  501    0  0.00000000000E+00 -0.00000000000E+00 -0.23187623506E+03  0.23187623506E+03  0.00000000000E+00 0. -1.
         23    2    1    2    0    0 -0.86577873963E+01  0.23134630946E+02 -0.63156624414E+02  0.11233467288E+03  0.89555296277E+02 0.  0.
          5    1    1    2  502    0 -0.52322152184E+02 -0.19039240796E+02 -0.89773050776E+02  0.10572025986E+03  0.41800000000E+01 0.  1.
         -5    1    1    2    0  502  0.60979939580E+02 -0.40953901500E+01 -0.26157111354E+02  0.66610750830E+02  0.41800000000E+01 0.  1.
        -11    1    3    3    0    0 -0.37465225971E+02 -0.65257468527E+01 -0.14511303684E+01  0.38056987642E+02  0.00000000000E+00 0.  1.
         11    1    3    3    0    0  0.28807438575E+02  0.29660377799E+02 -0.61705494046E+02  0.74277685234E+02  0.00000000000E+00 0. -1.
</event>
<event>
 7    1  0.6684706E-006  0.1067950E+03  0.7561462E-02  0.1266623E+00
          1   -1    0    0  501    0  0.00000000000E+00  0.00000000000E+00  0.38340595311E+02  0.38340595311E+02  0.00000000000E+00 0. -1.
         -1   -1    0    0    0  501 -0.00000000000E+00 -0.00000000000E+00 -0.45316288898E+03  0.45316288898E+03  0.00000000000E+00 0.  1.
         23    2    1    2    0    0  0.57330325261E+02  0.27362153162E+02 -0.25992679993E+03  0.28251651523E+03  0.90654213542E+02 0.  0.
          5    1    1    2  502    0  0.38202650474E+02  0.28537380828E+01 -0.30150354229E+02  0.48929567589E+02  0.41800000000E+01 0.  1.
         -5    1    1    2    0  502 -0.95532975735E+02 -0.30215891245E+02 -0.12474513951E+03  0.16005740148E+03  0.41800000000E+01 0.  1.
        -11    1    3    3    0    0 -0.40001324764E+01  0.10389772662E+02  0.33753892286E+01  0.11633644667E+02  0.00000000000E+00 0.  1.
         11    1    3    3    0    0  0.61330457737E+02  0.16972380501E+02 -0.26330218916E+03  0.27088287056E+03  0.00000000000E+00 0. -1.
</event>
<event>
 7    1  0.6684706E-006  0.9254447E+02  0.7561462E-02  0.1296804E+00
         -2   -1    0    0    0  501 -0.00000000000E+00  0.00000000000E+00  0.51089147068E+02  0.51089147068E+02  0.00000000000E+00 0.  1.
          2   -1    0    0  501    0  0.00000000000E+00 -0.00000000000E+00 -0.28512792128E+03  0.28512792128E+03  0.00000000000E+00 0. -1.
         23    2    1    2    0    0 -0.51053329019E+02 -0.84776707360E+00 -0.89797830353E+02  0.13858056799E+03  0.92378365307E+02 0.  0.
          5    1    1    2  502    0 -0.34293172390E+02  0.11159259915E+02 -0.87000976920E+02  0.94271910660E+02  0.41800000000E+01 0.  1.
         -5    1    1    2    0  502  0.85346501410E+02 -0.10311492841E+02 -0.57239966943E+02  0.10336458970E+03  0.41800000000E+01 0.  1.
        -11    1    3    3    0    0 -0.43147741601E+02 -0.15679667456E+02  0.13182683023E+01  0.45927305691E+02  0.00000000000E+00 0.  1.
         11    1    3    3    0    0 -0.79055874186E+01  0.14831900382E+02 -0.91116098655E+02  0.92653262303E+02  0.00000000000E+00 0. -1.
</event>
<event>
 7    1  0.6684706E-006  0.1105733E+03  0.7561462E-02  0.1259512E+00
         -2   -1    0    0    0  501 -0.00000000000E+00  0.00000000000E+00  0.51350140226E+02  0.51350140226E+02  0.00000000000E+00 0.  1.
          2   -1    0    0  501    0  0.00000000000E+00 -0.00000000000E+00 -0.34326750131E+03  0.34326750131E+03  0.00000000000E+00 0. -1.
         23    2    1    2    0    0  0.74021658915E+01 -0.74192730313E+02 -0.14679665957E+03  0.18902851148E+03  0.92861001514E+02 0.  0.
          5    1    1    2  502    0 -0.25665908490E+02  0.79671119781E+02 -0.30293480159E+02  0.89114496721E+02  0.41800000000E+01 0. -1.
         -5    1    1    2    0  502  0.18263742599E+02 -0.54783894685E+01 -0.11482722136E+03  0.11647463333E+03  0.41800000000E+01 0. -1.
        -11    1    3    3    0    0  0.35277106421E+02 -0.81665756165E+02 -0.98151292751E+02  0.13246677408E+03  0.00000000000E+00 0.  1.
         11    1    3    3    0    0 -0.27874940530E+02  0.74730258521E+01 -0.48645366818E+02  0.56561737401E+02  0.00000000000E+00 0. -1.
</event>
<event>
 7    1  0.6684706E-006  0.9387256E+02  0.7561462E-02  0.1293736E+00
         -1   -1    0    0    0  501 -0.00000000000E+00  0.00000000000E+00  0.24168049080E+02  0.24168049080E+02  0.00000000000E+00 0.  1.
          1   -1    0    0  501    0  0.00000000000E+00 -0.00000000000E+00 -0.63652207940E+03  0.63652207940E+03  0.00000000000E+00 0. -1.
         23    2    1    2    0    0  0.38536742582E+01  0.55097946593E+02 -0.33109718305E+03  0.34794448267E+03  0.91593579875E+02 0.  0.
          5    1    1    2  502    0 -0.27425583564E+02 -0.66759520300E+02 -0.72810446836E+02  0.10260521309E+03  0.41800000000E+01 0. -1.
         -5    1    1    2    0  502  0.23571909306E+02  0.11661573707E+02 -0.20844640044E+03  0.21014043272E+03  0.41800000000E+01 0. -1.
        -11    1    3    3    0    0 -0.31665438015E+02  0.14346865603E+02 -0.45417022978E+02  0.57194741834E+02  0.00000000000E+00 0. -1.
         11    1    3    3    0    0  0.35519112273E+02  0.40751080990E+02 -0.28568016007E+03  0.29074974084E+03  0.00000000000E+00 0.  1.
</event>
<event>
 7    1  0.6684706E-006  0.8457631E+02  0.7561462E-02  0.1316544E+00
          2   -1    0    0  501    0  0.00000000000E+00  0.00000000000E+00  0.88805102464E+02  0.88805102464E+02  0.00000000000E+00 0.  1.
         -2   -1    0    0    0  501 -0.00000000000E+00 -0.00000000000E+00 -0.13493205874E+03  0.13493205874E+03  0.00000000000E+00 0. -1.
         23    2    1    2    0    0  0.16902189893E+02 -0.35424835136E+01 -0.39783638617E+02  0.97302697121E+02  0.87102489934E+02 0.  0.
          5    1    1    2  502    0  0.31045778493E+02 -0.15075078510E+02  0.42822741653E+02  0.55157573886E+02  0.41800000000E+01 0. -1.
         -5    1    1    2    0  502 -0.47947968386E+02  0.18617562024E+02 -0.49166059315E+02  0.71276890200E+02  0.41800000000E+01 0. -1.
        -11    1    3    3    0    0  0.19541933268E+02  0.37165210001E+02 -0.37741392560E+02  0.56458415693E+02  0.00000000000E+00 0. -1.
         11    1    3    3    0    0 -0.26397433748E+01 -0.40707693514E+02 -0.20422460574E+01  0.40844281427E+02  0.00000000000E+00 0.  1.
</event>
<event>
 7    1  0.6684706E-006  0.2328670E+03  0.7561462E-02  0.1124638E+00
          2   -1    0    0  501    0  0.00000000000E+00  0.00000000000E+00  0.12284295579E+04  0.12284295579E+04  0.00000000000E+00 0. -1.
         -2   -1    0    0    0  501 -0.00000000000E+00 -0.00000000000E+00 -0.48608908940E+02  0.48608908940E+02  0.00000000000E+00 0.  1.
         23    2    1    2    0    0  0.14484641557E+03  0.14994120812E+03  0.74085140758E+03  0.77523748120E+03  0.93110118344E+02 0.  0.
          5    1    1    2  502    0 -0.37980158376E+02  0.15184002679E+02  0.12198981237E+03  0.12873240885E+03  0.41800000000E+01 0. -1.
         -5    1    1    2    0  502 -0.10686625720E+03 -0.16512521080E+03  0.31697942898E+03  0.37306857676E+03  0.41800000000E+01 0. -1.
        -11    1    3    3    0    0  0.12218977612E+03  0.61899390164E+02  0.42143474932E+03  0.44313555919E+03  0.00000000000E+00 0.  1.
         11    1    3    3    0    0  0.22656639459E+02  0.88041817959E+02  0.31941665827E+03  0.33210192200E+03  0.00000000000E+00 0. -1.
</event>
<event>
 7    1  0.6684706E-006  0.1106892E+03  0.7561462E-02  0.1259299E+00
         -1   -1    0    0    0  501 -0.00000000000E+00  0.00000000000E+00  0.26176387300E+03  0.26176387300E+03  0.00000000000E+00 0.  1.
          1   -1    0    0  501    0  0.00000000000E+00 -0.00000000000E+00 -0.56332863755E+02  0.56332863755E+02  0.00000000000E+00 0. -1.
         23    2    1    2    0    0  0.74371757729E+01  0.13845200505E+02  0.12161648507E+03  0.16670595124E+03  0.11293052544E+03 0.  0.
          5    1    1    2  502    0 -0.23197300730E+02 -0.66167532979E+02  0.56571052297E+02  0.90188766151E+02  0.41800000000E+01 0. -1.
         -5    1    1    2    0  502  0.15760124957E+02  0.52322332475E+02  0.27243471876E+02  0.61202019363E+02  0.41800000000E+01 0. -1.
        -11    1    3    3    0    0 -0.80915385269E+01  0.53311704707E+02  0.21634404687E+02  0.58100415839E+02  0.00000000000E+00 0. -1.
         11    1    3    3    0    0  0.15528714300E+02 -0.39466504202E+02  0.99982080381E+02  0.10860553540E+03  0.00000000000E+00 0.  1.
</event>
<event>
 7    1  0.6684706E-006  0.9034574E+02  0.7561462E-02  0.1302017E+00
          1   -1    0    0  501    0  0.00000000000E+00  0.00000000000E+00  0.18738542478E+03  0.18738542478E+03  0.00000000000E+00 0. -1.
         -1   -1    0    0    0  501 -0.00000000000E+00 -0.00000000000E+00 -0.29471877115E+03  0.29471877115E+03  0.00000000000E+00 0.  1.
         23    2    1    2    0    0 -0.17701161457E+02 -0.15127696981E+02 -0.26001128271E+03  0.27540767234E+03  0.87757281842E+02 0.  0.
          5    1    1    2  502    0  0.20630636537E+02  0.54840169677E+02  0.11377729198E+02  0.59833038498E+02  0.41800000000E+01 0. -1.
         -5    1    1    2    0  502 -0.29294750804E+01 -0.39712472697E+02  0.14130020714E+03  0.14686348508E+03  0.41800000000E+01 0.  1.
        -11    1    3    3    0    0  0.19811045810E+02  0.21671802229E+02 -0.15748810015E+03  0.16020189212E+03  0.00000000000E+00 0.  1.
         11    1    3    3    0    0 -0.37512207266E+02 -0.36799499209E+02 -0.10252318256E+03  0.11520578023E+03  0.00000000000E+00 0. -1.
</event>
<event>
 7    1  0.6684706E-006  0.9442441E+02  0.7561462E-02  0.1292478E+00
         -1   -1    0    0    0  501 -0.00000000000E+00  0.00000000000E+00  0.10723892602E+02  0.10723892602E+02  0.00000000000E+00 0.  1.
          1   -1    0    0  501    0  0.00000000000E+00 -0.00000000000E+00 -0.12635117284E+04  0.12635117284E+04  0.00000000000E+00 0. -1.
         23    2    1    2    0    0  0.23276368690E+02 -0.23618338593E+02 -0.41405995610E+03  0.42558287988E+03  0.92604131361E+02 0.  0.
          5    1    1    2  502    0  0.21113940725E+02 -0.19072681737E+02 -0.63799393149E+03  0.63864175771E+03  0.41800000000E+01 0.  1.
         -5    1    1    2    0  502 -0.44390309415E+02  0.42691020329E+02 -0.20073394818E+03  0.21001098338E+03  0.41800000000E+01 0.  1.
        -11    1    3    3    0    0 -0.21929590671E+02 -0.43701494039E+02 -0.20676530299E+03  0.21246792240E+03  0.00000000000E+00 0. -1.
         11    1    3    3    0    0  0.45205959361E+02  0.20083155446E+02 -0.20729465311E+03  0.21311495749E+03  0.00000000000E+00 0.  1.
</event>
<event>
 7    1  0.6684706E-006  0.1017291E+03  0.7561462E-02  0.1276701E+00
         -2   -1    0    0    0  501 -0.00000000000E+00  0.00000000000E+00  0.42215735063E+03  0.42215735063E+03  0.00000000000E+00 0.  1.
          2   -1    0    0  501    0  0.00000000000E+00 -0.00000000000E+00 -0.70935894053E+02  0.70935894053E+02  0.00000000000E+00 0. -1.
         23    2    1    2    0    0 -0.25246574927E+02  0.56943625336E+02  0.19584691314E+03  0.22574635237E+03  0.93410043418E+02 0.  0.
          5    1    1    2  502    0 -0.32143245378E+02  0.73742890467E+01 -0.41036992333E+02  0.52811698535E+02  0.41800000000E+01 0. -1.
         -5    1    1    2    0  502  0.57389820305E+02 -0.64317914382E+02  0.19641153577E+03  0.21453519378E+03  0.41800000000E+01 0.  1.
        -11    1    3    3    0    0 -0.42465016804E+02  0.30202999539E+02  0.37408965092E+02  0.64147716270E+02  0.00000000000E+00 0. -1.
         11    1    3    3    0    0  0.17218441878E+02  0.26740625796E+02  0.15843794805E+03  0.16159863610E+03  0.00000000000E+00 0.  1.
</event>
<event>
 7    1  0.6684706E-006  0.1085317E+03  0.7561462E-02  0.1263313E+00
         -4   -1    0    0    0  501 -0.00000000000E+00  0.00000000000E+00  0.71692802187E+03  0.71692802187E+03  0.00000000000E+00 0.  1.
          4   -1    0    0  501    0  0.00000000000E+00 -0.00000000000E+00 -0.19260416391E+02  0.19260416391E+02  0.00000000000E+00 0. -1.
         23    2    1    2    0    0  0.51313425787E+01 -0.42878008459E+02  0.36586927442E+03  0.37897332606E+03  0.88857197872E+02 0.  0.
          5    1    1    2  502    0 -0.52707815329E+02  0.50708605024E+02  0.12551606269E+03  0.14533145156E+03  0.41800000000E+01 0. -1.
         -5    1    1    2    0  502  0.47576472751E+02 -0.78305965646E+01  0.20628226837E+03  0.21188366064E+03  0.41800000000E+01 0. -1.
        -11    1    3    3    0    0  0.14237568563E+02 -0.67588355439E+02  0.21499504543E+03  0.22581798801E+03  0.00000000000E+00 0. -1.
         11    1    3    3    0    0 -0.91062259842E+01  0.24710346980E+02  0.15087422900E+03  0.15315533805E+03  0.00000000000E+00 0.  1.
</event>
<event>
 7    1  0.6684706E-006  0.9095477E+02  0.7561462E-02  0.1300556E+00
          2   -1    0    0  501    0  0.00000000000E+00  0.00000000000E+00  0.33422353164E+03  0.33422353164E+03  0.00000000000E+00 0.  1.
         -2   -1    0    0    0  501 -0.00000000000E+00 -0.00000000000E+00 -0.45640325216E+02  0.45640325216E+02  0.00000000000E+00 0. -1.
         23    2    1    2    0    0 -0.42134579902E+02  0.16936767749E+02  0.78341633678E+02  0.13104331278E+03  0.94724660634E+02 0.  0.
          5    1    1    2  502    0  0.52598975077E+02 -0.57257916861E+02  0.18298933170E+03  0.19886600801E+03  0.41800000000E+01 0. -1.
         -5    1    1    2    0  502 -0.10464395175E+02  0.40321149113E+02  0.27252241043E+02  0.49954536070E+02  0.41800000000E+01 0. -1.
        -11    1    3    3    0    0 -0.44584552828E+02  0.26798900761E+02  0.96845988467E+02  0.10993229241E+03  0.00000000000E+00 0.  1.
         11    1    3    3    0    0  0.24499729259E+01 -0.98621330127E+01 -0.18504354789E+02  0.21111020370E+02  0.00000000000E+00 0. -1.
</event>
<event>
 7    1  0.6684706E-006  0.1372789E+03  0.7561462E-02  0.1217038E+00
          2   -1    0    0  501    0  0.00000000000E+00  0.00000000000E+00  0.10508039153E+04  0.10508039153E+04  0.00000000000E+00 0.  1.
         -2   -1    0    0    0  501 -0.00000000000E+00 -0.00000000000E+00 -0.22739971127E+02  0.22739971127E+02  0.00000000000E+00 0. -1.
         23    2    1    2    0    0 -0.25564252992E+01  0.96913972692E+02  0.34216964033E+03  0.36714449734E+03  0.91193013712E+02 0.  0.
          5    1    1    2  502    0  0.34911567836E+02 -0.10352386824E+03  0.30409989941E+03  0.32315666492E+03  0.41800000000E+01 0. -1.
         -5    1    1    2    0  502 -0.32355142537E+02  0.66098955468E+01  0.38179440441E+03  0.38324272414E+03  0.41800000000E+01 0.  1.
        -11    1    3    3    0    0  0.18976536092E+01 -0.17417609174E+02  0.31045808890E+02  0.35648512566E+02  0.00000000000E+00 0.  1.
         11    1    3    3    0    0 -0.44540789084E+01  0.11433158187E+03  0.31112383144E+03  0.33149598478E+03  0.00000000000E+00 0. -1.
</event>
<event>
 7    1  0.6684706E-006  0.1013092E+03  0.7561462E-02  0.1277567E+00
         -4   -1    0    0    0  501 -0.00000000000E+00  0.00000000000E+00  0.39779795873E+02  0.39779795873E+02  0.00000000000E+00 0.  1.
          4   -1    0    0  501    0  0.00000000000E+00 -0.00000000000E+00 -0.31252292634E+03  0.31252292634E+03  0.00000000000E+00 0. -1.
         23    2    1    2    0    0  0.11421823763E+02 -0.23844651622E+02 -0.10625038474E+03  0.14238300920E+03  0.91020610762E+02 0.  0.
          5    1    1    2  502    0  0.43153290337E+02 -0.19862142227E+02 -0.29545472257E+02  0.56099184411E+02  0.41800000000E+01 0.  1.
         -5    1    1    2    0  502 -0.54575114099E+02  0.43706793848E+02 -0.13694727348E+03  0.15382052860E+03  0.41800000000E+01 0.  1.
        -11    1    3    3    0    0  0.38451772843E+02 -0.38267194998E+02 -0.95651913867E+02  0.10996456554E+03  0.00000000000E+00 0.  1.
         11    1    3    3    0    0 -0.27029949080E+02  0.14422543376E+02 -0.10598470871E+02  0.32418443663E+02  0.00000000000E+00 0. -1.
</event>
<event>
 7    1  0.6684706E-006  0.1674827E+03  0.7561462E-02  0.1180499E+00
          1   -1    0    0  501    0  0.00000000000E+00  0.00000000000E+00  0.44633940901E+03  0.44633940901E+03  0.00000000000E+00 0. -1.
         -1   -1    0    0    0  501 -0.00000000000E+00 -0.00000000000E+00 -0.74884630150E+02  0.74884630150E+02  0.00000000000E+00 0.  1.
         23    2    1    2    0    0  0.10634468514E+03 -0.98962075862E+02  0.17665306345E+03  0.24791933085E+03  0.95681791720E+02 0.  0.
          5    1    1    2  502    0 -0.32360250489E+02 -0.26745687073E+02  0.67796262108E+02  0.79851882535E+02  0.41800000000E+01 0.  1.
         -5    1    1    2    0  502 -0.73984434647E+02  0.12570776293E+03  0.12700545331E+03  0.19345282578E+03  0.41800000000E+01 0.  1.
        -11    1    3    3    0    0  0.62635014896E+02 -0.43603618193E+02  0.24403261547E+02  0.80124526736E+02  0.00000000000E+00 0.  1.
         11    1    3    3    0    0  0.43709670240E+02 -0.55358457669E+02  0.15224980190E+03  0.16779480411E+03  0.00000000000E+00 0. -1.
</event>
<event>
 7    1  0.6684706E-006  0.1576587E+03  0.7561462E-02  0.1191366E+00
          1   -1    0    0  501    0  0.00000000000E+00  0.00000000000E+00  0.81370619589E+03  0.81370619589E+03  0.00000000000E+00 0. -1.
         -1   -1    0    0    0  501 -0.00000000000E+00 -0.00000000000E+00 -0.35520726287E+02  0.35520726287E+02  0.00000000000E+00 0.  1.
         23    2    1    2    0    0  0.32198626285E+02 -0.11531407389E+03  0.23681098534E+03  0.28083642807E+03  0.91954170006E+02 0.  0.
          5    1    1    2  502    0 -0.39590509158E+02 -0.12332390694E+02  0.18822676743E+03  0.19278559244E+03  0.41800000000E+01 0. -1.
         -5    1    1    2    0  502  0.73918828730E+01  0.12764646458E+03  0.35314771683E+03  0.37560490167E+03  0.41800000000E+01 0. -1.
        -11    1    3    3    0    0 -0.16469230918E+02  0.39186901405E+01  0.90714368350E+01  0.19206318380E+02  0.00000000000E+00 0.  1.
         11    1    3    3    0    0  0.48667857203E+02 -0.11923276403E+03  0.22773954851E+03  0.26163010969E+03  0.00000000000E+00 0. -1.
</event>
<event>
 7    1  0.6684706E-006  0.1176718E+03  0.7561462E-02  0.1246988E+00
         -2   -1    0    0    0  501 -0.00000000000E+00  0.00000000000E+00  0.13119751010E+02  0.13119751010E+02  0.00000000000E+00 0.  1.
          2   -1    0    0  501    0  0.00000000000E+00 -0.00000000000E+00 -0.12001716166E+04  0.12001716166E+04  0.00000000000E+00 0. -1.
         23    2    1    2    0    0 -0.58099846729E+02  0.12787871595E+02 -0.44031300380E+03  0.45381117887E+03  0.92357581716E+02 0.  0.
          5    1    1    2  502    0 -0.29526346160E+02  0.26816865479E+02 -0.28570637606E+03  0.28850746111E+03  0.41800000000E+01 0. -1.
         -5    1    1    2    0  502  0.87626192890E+02 -0.39604737074E+02 -0.46103248572E+03  0.47097272763E+03  0.41800000000E+01 0. -1.
        -11    1    3    3    0    0 -0.56864427167E+02 -0.24328470514E+02 -0.36067708329E+03  0.36594179314E+03  0.00000000000E+00 0.  1.
         11    1    3    3    0    0 -0.12354195623E+01  0.37116342109E+02 -0.79635920509E+02  0.87869385729E+02  0.00000000000E+00 0. -1.
</event>
<event>
 7    1  0.6684706E-006  0.9445572E+02  0.7561462E-02  0.1292407E+00
          3   -1    0    0  501    0  0.00000000000E+00  0.00000000000E+00  0.10876684043E+03  0.10876684043E+03  0.00000000000E+00 0. -1.
         -3   -1    0    0    0  501 -0.00000000000E+00 -0.00000000000E+00 -0.11173478421E+03  0.11173478421E+03  0.00000000000E+00 0.  1.
         23    2    1    2    0    0 -0.97814697405E+01  0.17560610279E+02 -0.78622521036E+01  0.93712827980E+02  0.91193349188E+02 0.  0.
          5    1    1    2  502    0 -0.56117193843E+02  0.38590370816E+01  0.95795507744E+01  0.57212514409E+02  0.41800000000E+01 0.  1.
         -5    1    1    2    0  502  0.65898663583E+02 -0.21419647360E+02 -0.46852424493E+01  0.69576282251E+02  0.41800000000E+01 0.  1.
        -11    1    3    3    0    0 -0.46113598220E+01 -0.22361878995E+02 -0.37375112981E+02  0.43797458167E+02  0.00000000000E+00 0.  1.
         11    1    3    3    0    0 -0.51701099186E+01  0.39922489273E+02  0.29512860877E+02  0.49915369812E+02  0.00000000000E+00 0. -1.
</event>
<event>
 7    1  0.6684706E-006  0.9319499E+02  0.7561462E-02  0.1295294E+00
          2   -1    0    0  501    0  0.00000000000E+00  0.00000000000E+00  0.43933513535E+03  0.43933513535E+03  0.00000000000E+00 0. -1.
         -2   -1    0    0    0  501 -0.00000000000E+00 -0.00000000000E+00 -0.33882554536E+02  0.33882554536E+02  0.00000000000E+00 0.  1.
         23    2    1    2    0    0  0.47654995335E+02  0.14796787703E+01  0.23267694684E+03  0.25464948723E+03  0.91840142222E+02 0.  0.
          5    1    1    2  502    0  0.24627952412E+02 -0.38670522539E+02  0.96950011910E+02  0.10732531185E+03  0.41800000000E+01 0. -1.
         -5    1    1    2    0  502 -0.72282947747E+02  0.37190843768E+02  0.75825622056E+02  0.11124289081E+03  0.41800000000E+01 0. -1.
        -11    1    3    3    0    0  0.96066294596E+01 -0.14740392943E+02 -0.72654116395E+00  0.17609496749E+02  0.00000000000E+00 0.  1.
         11    1    3    3    0    0  0.38048365875E+02  0.16220071713E+02  0.23340348801E+03  0.23703999048E+03  0.00000000000E+00 0. -1.
</event>
<event>
 7    1  0.6684706E-006  0.1336320E+03  0.7561462E-02  0.1222164E+00
         -1   -1    0    0    0  501 -0.00000000000E+00  0.00000000000E+00  0.79701240524E+02  0.79701240524E+02  0.00000000000E+00 0.  1.
          1   -1    0    0  501    0  0.00000000000E+00 -0.00000000000E+00 -0.37843496687E+03  0.37843496687E+03  0.00000000000E+00 0. -1.
         23    2    1    2    0    0 -0.10553379707E+03 -0.17638488817E+02 -0.29798322059E+02  0.14282326937E+03  0.89788906125E+02 0.  0.
          5    1    1    2  502    0  0.89381434754E+02  0.52725959869E+02 -0.25269004184E+03  0.27320102007E+03  0.41800000000E+01 0. -1.
         -5    1    1    2    0  502  0.16152362317E+02 -0.35087471052E+02 -0.16245362456E+02  0.42111917964E+02  0.41800000000E+01 0. -1.
        -11    1    3    3    0    0 -0.21702142468E+02 -0.32831742258E+02  0.19992945059E+02  0.44143223030E+02  0.00000000000E+00 0.  1.
         11    1    3    3    0    0 -0.83831654604E+02  0.15193253441E+02 -0.49791267118E+02  0.98680046337E+02  0.00000000000E+00 0. -1.
</event>
<event>
 7    1  0.6684706E-006  0.7933479E+02  0.7561462E-02  0.1330950E+00
         -2   -1    0    0    0  501 -0.00000000000E+00  0.00000000000E+00  0.11768583818E+02  0.11768583818E+02  0.00000000000E+00 0. -1.
          2   -1    0    0  501    0  0.00000000000E+00 -0.00000000000E+00 -0.14068907486E+04  0.14068907486E+04  0.00000000000E+00 0.  1.
         23    2    1    2    0    0 -0.67346769712E+01  0.33351845910E+02 -0.28639396256E+03  0.30237817450E+03  0.90847989087E+02 0.  0.
          5    1    1    2  502    0  0.86443127583E+01  0.19193799094E+02 -0.92190362554E+03  0.92215340006E+03  0.41800000000E+01 0. -1.
         -5    1    1    2    0  502 -0.19096357871E+01 -0.52545645004E+02 -0.18682457665E+03  0.19412775782E+03  0.41800000000E+01 0. -1.
        -11    1    3    3    0    0 -0.25373484837E+02  0.52146574380E+02 -0.25404406566E+03  0.26057909788E+03  0.00000000000E+00 0.  1.
         11    1    3    3    0    0  0.18638807866E+02 -0.18794728470E+02 -0.32349896899E+02  0.41799076620E+02  0.00000000000E+00 0. -1.
</event>
<event>
 7    1  0.6684706E-006  0.9912683E+02  0.7561462E-02  0.1282143E+00
          2   -1    0    0  501    0  0.00000000000E+00  0.00000000000E+00  0.63653461265E+03  0.63653461265E+03  0.00000000000E+00 0. -1.
         -2   -1    0    0    0  501 -0.00000000000E+00 -0.00000000000E+00 -0.21623183844E+02  0.21623183844E+02  0.00000000000E+00 0.  1.
         23    2    1    2    0    0  0.12969308560E+02 -0.90454875341E+01  0.15340011160E+03  0.17973409393E+03  0.92318613886E+02 0.  0.
          5    1    1    2  502    0  0.30799153922E+02 -0.39494618025E+02  0.29929436725E+03  0.30348476635E+03  0.41800000000E+01 0.  1.
         -5    1    1    2    0  502 -0.43768462482E+02  0.48540105559E+02  0.16221694995E+03  0.17493893622E+03  0.41800000000E+01 0.  1.
        -11    1    3    3    0    0  0.35363589533E+02  0.23888667867E+02  0.36232056971E+02  0.55982263883E+02  0.00000000000E+00 0.  1.
         11    1    3    3    0    0 -0.22394280973E+02 -0.32934155401E+02  0.11716805463E+03  0.12375183004E+03  0.00000000000E+00 0. -1.
</event>
<event>
 7    1  0.6684706E-006  0.6949657E+02  0.7561462E-02  0.1361813E+00
         -1   -1    0    0    0  501 -0.00000000000E+00  0.00000000000E+00  0.38376820211E+03  0.38376820211E+03  0.00000000000E+00 0.  1.
          1   -1    0    0  501    0  0.00000000000E+00 -0.00000000000E+00 -0.38640751104E+02  0.38640751104E+02  0.00000000000E+00 0. -1.
         23    2    1    2    0    0 -0.12431041890E+02  0.54279762547E+02  0.18463662060E+03  0.21145162968E+03  0.86719586047E+02 0.  0.
          5    1    1    2  502    0  0.70632231386E+00 -0.21547428619E+02  0.17253334239E+03  0.17392532078E+03  0.41800000000E+01 0. -1.
         -5    1    1    2    0  502  0.11724719576E+02 -0.32732333927E+02 -0.12042511980E+02  0.37032002758E+02  0.41800000000E+01 0. -1.
        -11    1    3    3    0    0  0.22802244936E+02  0.35215047556E+02  0.15768076267E+03  0.16316637174E+03  0.00000000000E+00 0.  1.
         11    1    3    3    0    0 -0.35233286826E+02  0.19064714991E+02  0.26955857925E+02  0.48285257944E+02  0.00000000000E+00 0. -1.
</event>
<event>
 7    1  0.6684706E-006  0.1575457E+03  0.7561462E-02  0.1191496E+00
          2   -1    0    0  501    0  0.00000000000E+00  0.00000000000E+00  0.30674432089E+04  0.30674432089E+04  0.00000000000E+00 0. -1.
         -2   -1    0    0    0  501 -0.00000000000E+00 -0.00000000000E+00 -0.12054253435E+02  0.12054253435E+02  0.00000000000E+00 0.  1.
         23    2    1    2    0    0 -0.38187079773E+02 -0.11775591037E+03  0.66046586583E+03  0.67811701010E+03  0.91119767242E+02 0.  0.
          5    1    1    2  502    0  0.61420233820E+02  0.21639618866E+02  0.55981909973E+03  0.56360945259E+03  0.41800000000E+01 0. -1.
         -5    1    1    2    0  502 -0.23233154047E+02  0.96116291505E+02  0.18351039899E+04  0.18377709996E+04  0.41800000000E+01 0. -1.
        -11    1    3    3    0    0  0.24561677136E+02 -0.62871701650E+02  0.23215352863E+03  0.24176721801E+03  0.00000000000E+00 0. -1.
         11    1    3    3    0    0 -0.62748756909E+02 -0.54884208721E+02  0.42831233720E+03  0.43634979209E+03  0.00000000000E+00 0.  1.
</event>
<event>
 7    1  0.6684706E-006  0.1333823E+03  0.7561462E-02  0.1222522E+00
         -2   -1    0    0    0  501 -0.00000000000E+00  0.00000000000E+00  0.16144352159E+02  0.16144352159E+02  0.00000000000E+00 0.  1.
          2   -1    0    0  501    0  0.00000000000E+00 -0.00000000000E+00 -0.12815675297E+04  0.12815675297E+04  0.00000000000E+00 0. -1.
         23    2    1    2    0    0 -0.33789256212E+01  0.93751329502E+02 -0.59034131142E+03  0.60475877225E+03  0.91812742739E+02 0.  0.
          5    1    1    2  502    0  0.51603384039E+02 -0.33472319173E+02 -0.46554983401E+03  0.46961412430E+03  0.41800000000E+01 0.  1.
         -5    1    1    2    0  502 -0.48224458418E+02 -0.60279010328E+02 -0.20953203212E+03  0.22333898531E+03  0.41800000000E+01 0.  1.
        -11    1    3    3    0    0  0.41739967143E+02  0.45566469128E+02 -0.35485786973E+03  0.36019805063E+03  0.00000000000E+00 0.  1.
         11    1    3    3    0    0 -0.45118892764E+02  0.48184860373E+02 -0.23548344168E+03  0.24456072162E+03  0.00000000000E+00 0. -1.
</event>
<event>
 7    1  0.6684706E-006  0.1148293E+03  0.7561462E-02  0.1251879E+00
         -1   -1    0    0    0  501 -0.00000000000E+00  0.00000000000E+00  0.43600560542E+02  0.43600560542E+02  0.00000000000E+00 0.  1.
          1   -1    0    0  501    0  0.00000000000E+00 -0.00000000000E+00 -0.57510632717E+03  0.57510632717E+03  0.00000000000E+00 0. -1.
         23    2    1    2    0    0  0.32447790908E+02 -0.29143972377E+02 -0.52243963717E+02  0.12147240013E+03  0.10061750338E+03 0.  0.
          5    1    1    2  502    0  0.26677596788E+02 -0.27366673272E+02 -0.70034729553E+02  0.79893458555E+02  0.41800000000E+01 0.  1.
         -5    1    1    2    0  502 -0.59125387696E+02  0.56510645649E+02 -0.40922707335E+03  0.41734102903E+03  0.41800000000E+01 0.  1.
        -11    1    3    3    0    0 -0.34347813352E+02  0.43025806721E+01 -0.12117647217E+02  0.36675902941E+02  0.00000000000E+00 0. -1.
         11    1    3    3    0    0  0.66795604260E+02 -0.33446553049E+02 -0.40126316500E+02  0.84796497187E+02  0.00000000000E+00 0.  1.
</event>
<event>
 7    1  0.6684706E-006  0.1054909E+03  0.7561462E-02  0.1269155E+00
          1   -1    0    0  501    0  0.00000000000E+00  0.00000000000E+00  0.19291975571E+03  0.19291975571E+03  0.00000000000E+00 0. -1.
         -1   -1    0    0    0  501 -0.00000000000E+00 -0.00000000000E+00 -0.10462773849E+03  0.10462773849E+03  0.00000000000E+00 0.  1.
         23    2    1    2    0    0  0.76778595882E+01 -0.55065406578E+02 -0.36123828651E+02  0.11256688754E+03  0.90968261745E+02 0.  0.
          5    1    1    2  502    0  0.55883695143E+02  0.38086112182E+02  0.43115337446E+02  0.80311543672E+02  0.41800000000E+01 0. -1.
         -5    1    1    2    0  502 -0.63561554731E+02  0.16979294397E+02  0.81300508421E+02  0.10466906299E+03  0.41800000000E+01 0. -1.
        -11    1    3    3    0    0 -0.75958392009E+01  0.88061569142E+01 -0.44835513036E+02  0.46319201224E+02  0.00000000000E+00 0.  1.
         11    1    3    3    0    0  0.15273698789E+02 -0.63871563493E+02  0.87116843854E+01  0.66247686318E+02  0.00000000000E+00 0. -1.
</event>
<event>
 7    1  0.6684706E-006  0.1259055E+03  0.7561462E-02  0.1233661E+00
         -1   -1    0    0    0  501 -0.00000000000E+00  0.00000000000E+00  0.44771278723E+02  0.44771278723E+02  0.00000000000E+00 0.  1.
          1   -1    0    0  501    0  0.00000000000E+00 -0.00000000000E+00 -0.43770406180E+03  0.43770406180E+03  0.00000000000E+00 0. -1.
         23    2    1    2    0    0 -0.71838605608E+02 -0.46830999145E+02 -0.12789326034E+03  0.17711258390E+03  0.87511448382E+02 0.  0.
          5    1    1    2  502    0  0.20061174898E+02  0.70272820496E+02 -0.66814288800E+02  0.99107727381E+02  0.41800000000E+01 0.  1.
         -5    1    1    2    0  502  0.51777430710E+02 -0.23441821351E+02 -0.19822523393E+03  0.20625502924E+03  0.41800000000E+01 0.  1.
        -11    1    3    3    0    0  0.95486944228E+01 -0.38663351179E+02 -0.32120157298E+02  0.51163823102E+02  0.00000000000E+00 0. -1.
         11    1    3    3    0    0 -0.81387300031E+02 -0.81676479662E+01 -0.95773103044E+02  0.12594876080E+03  0.00000000000E+00 0.  1.
</event>
<event>
 7    1  0.6684706E-006  0.1615115E+03  0.7561462E-02  0.1187001E+00
         -1   -1    0    0    0  501 -0.00000000000E+00  0.00000000000E+00  0.57495463769E+02  0.57495463769E+02  0.00000000000E+00 0.  1.
          1   -1    0    0  501    0  0.00000000000E+00 -0.00000000000E+00 -0.56205675051E+03  0.56205675051E+03  0.00000000000E+00 0. -1.
         23    2    1    2    0    0  0.22049421347E+02 -0.97858377585E+02 -0.91611374253E+02  0.16250939399E+03  0.89186435044E+02 0.  0.
          5    1    1    2  502    0 -0.46576432909E+01  0.14428331064E+03 -0.27920672874E+03  0.31434572869E+03  0.41800000000E+01 0. -1.
         -5    1    1    2    0  502 -0.17391778056E+02 -0.46424933058E+02 -0.13374318375E+03  0.14269709161E+03  0.41800000000E+01 0.  1.
        -11    1    3    3    0    0 -0.30329561945E+02 -0.46342597025E+02 -0.17328519082E+02  0.58032716638E+02  0.00000000000E+00 0.  1.
         11    1    3    3    0    0  0.52378983291E+02 -0.51515780559E+02 -0.74282855171E+02  0.10447667735E+03  0.00000000000E+00 0. -1.
</event>
<event>
 7    1  0.6684706E-006  0.1494857E+03  0.7561462E-02  0.1201106E+00
         -1   -1    0    0    0  501 -0.00000000000E+00  0.00000000000E+00  0.84161589412E+02  0.84161589412E+02  0.00000000000E+00 0.  1.
          1   -1    0    0  501    0  0.00000000000E+00 -0.00000000000E+00 -0.35527970217E+03  0.35527970217E+03  0.00000000000E+00 0. -1.
         23    2    1    2    0    0  0.22997104940E+02 -0.12489783080E+03 -0.75577164133E+02  0.17484528317E+03  0.93437842100E+02 0.  0.
          5    1    1    2  502    0  0.46188968891E+02  0.33592656333E+02 -0.34277120487E+02  0.66740398527E+02  0.41800000000E+01 0. -1.
         -5    1    1    2    0  502 -0.69186073831E+02  0.91305174464E+02 -0.16126382814E+03  0.19785560988E+03  0.41800000000E+01 0. -1.
        -11    1    3    3    0    0  0.10018899429E+02 -0.42946701586E+02  0.19875175283E+02  0.48371687126E+02  0.00000000000E+00 0.  1.
         11    1    3    3    0    0  0.12978205510E+02 -0.81951129211E+02 -0.95452339416E+02  0.12647359605E+03  0.00000000000E+00 0. -1.
</event>
<event>
 7    1  0.6684706E-006  0.1741242E+03  0.7561462E-02  0.1173614E+00
         -1   -1    0    0    0  501 -0.00000000000E+00  0.00000000000E+00  0.90393843453E+02  0.90393843453E+02  0.00000000000E+00 0.  1.
          1   -1    0    0  501    0  0.00000000000E+00 -0.00000000000E+00 -0.49278019741E+03  0.49278019741E+03  0.00000000000E+00 0. -1.
         23    2    1    2    0    0 -0.49235326183E+02 -0.15747426776E+03 -0.91307263606E+02  0.20949059556E+03  0.91252566494E+02 0.  0.
          5    1    1    2  502    0  0.54151693251E+02  0.58169317600E+02 -0.23590333336E+03  0.24896572150E+03  0.41800000000E+01 0. -1.
         -5    1    1    2    0  502 -0.49163670685E+01  0.99304950155E+02 -0.75175756987E+02  0.12471772380E+03  0.41800000000E+01 0. -1.
        -11    1    3    3    0    0 -0.20910213557E+02 -0.12188251586E+03 -0.10474286581E+03  0.16206064495E+03  0.00000000000E+00 0. -1.
         11    1    3    3    0    0 -0.28325112626E+02 -0.35591751892E+02  0.13435602206E+02  0.47429950608E+02  0.00000000000E+00 0.  1.
</event>
<event>
 7    1  0.6684706E-006  0.9807680E+02  0.7561462E-02  0.1284393E+00
         -1   -1    0    0    0  501 -0.00000000000E+00  0.00000000000E+00  0.19394896610E+03  0.19394896610E+03  0.00000000000E+00 0.  1.
          1   -1    0    0  501    0  0.00000000000E+00 -0.00000000000E+00 -0.69183911185E+02  0.69183911185E+02  0.00000000000E+00 0. -1.
         23    2    1    2    0    0 -0.56702381264E+01 -0.38014151294E+02  0.53296317018E+02  0.11402567871E+03  0.93188683323E+02 0.  0.
          5    1    1    2  502    0  0.23806612858E+02  0.66003465049E+02  0.87194347569E+02  0.11199794133E+03  0.41800000000E+01 0. -1.
         -5    1    1    2    0  502 -0.18136374732E+02 -0.27989313755E+02 -0.15725609677E+02  0.37109257236E+02  0.41800000000E+01 0. -1.
        -11    1    3    3    0    0 -0.43682911134E+02 -0.94268632183E+01  0.29804138923E+01  0.44787781171E+02  0.00000000000E+00 0. -1.
         11    1    3    3    0    0  0.38012673008E+02 -0.28587288076E+02  0.50315903126E+02  0.69237897542E+02  0.00000000000E+00 0.  1.
</event>
<event>
 7    1  0.6684706E-006  0.1023205E+03  0.7561462E-02  0.1275491E+00
         -1   -1    0    0    0  501 -0.00000000000E+00  0.00000000000E+00  0.27833315063E+02  0.27833315063E+02  0.00000000000E+00 0.  1.
          1   -1    0    0  501    0  0.00000000000E+00 -0.00000000000E+00 -0.70042008425E+03  0.70042008425E+03  0.00000000000E+00 0. -1.
         23    2    1    2    0    0 -0.83154549741E+01 -0.34040018229E+01 -0.10179762941E+03  0.14384896017E+03  0.10123750278E+03 0.  0.
          5    1    1    2  502    0 -0.42497733798E+02 -0.22305099315E+02 -0.10995738330E+03  0.12004862921E+03  0.41800000000E+01 0.  1.
         -5    1    1    2    0  502  0.50813188772E+02  0.25709101138E+02 -0.46083175648E+03  0.46435580993E+03  0.41800000000E+01 0.  1.
        -11    1    3    3    0    0  0.37136748324E+02  0.25906774947E+02 -0.31523598302E+02  0.55172785992E+02  0.00000000000E+00 0.  1.
         11    1    3    3    0    0 -0.45452203298E+02 -0.29310776770E+02 -0.70274031104E+02  0.88676174180E+02  0.00000000000E+00 0. -1.
</event>
<event>
 7    1  0.6684706E-006  0.1016918E+03  0.7561462E-02  0.1276778E+00
         -2   -1    0    0    0  501 -0.00000000000E+00  0.00000000000E+00  0.22468478817E+02  0.22468478817E+02  0.00000000000E+00 0. -1.
          2   -1    0    0  501    0  0.00000000000E+00 -0.00000000000E+00 -0.50960337109E+03  0.50960337109E+03  0.00000000000E+00 0.  1.
         23    2    1    2    0    0  0.12374831793E+02  0.17738321517E+02 -0.18434347092E+03  0.20374260880E+03  0.84028274136E+02 0.  0.
          5    1    1    2  502    0 -0.15621752319E+02 -0.66102876074E+02 -0.10880095568E+03  0.12833062662E+03  0.41800000000E+01 0.  1.
         -5    1    1    2    0  502  0.32469205267E+01  0.48364554557E+02 -0.19399046566E+03  0.19999861449E+03  0.41800000000E+01 0.  1.
        -11    1    3    3    0    0  0.43156597169E+02 -0.11032057764E+02 -0.99342429485E+02  0.10887201878E+03  0.00000000000E+00 0. -1.
         11    1    3    3    0    0 -0.30781765377E+02  0.28770379281E+02 -0.85001041439E+02  0.94870590013E+02  0.00000000000E+00 0.  1.
</event>
<event>
 7    1  0.6684706E-006  0.1562058E+03  0.7561462E-02  0.1193048E+00
         -2   -1    0    0    0  501 -0.00000000000E+00  0.00000000000E+00  0.57512530655E+02  0.57512530655E+02  0.00000000000E+00 0.  1.
          2   -1    0    0  501    0  0.00000000000E+00 -0.00000000000E+00 -0.44383258167E+03  0.44383258167E+03  0.00000000000E+00 0. -1.
         23    2    1    2    0    0  0.10342370246E+03  0.54652130782E+02 -0.15613769894E+03  0.21448270474E+03  0.89109662611E+02 0.  0.
          5    1    1    2  502    0 -0.50294168194E+01 -0.70019827758E+02 -0.11213517724E+03  0.13236253884E+03  0.41800000000E+01 0.  1.
         -5    1    1    2    0  502 -0.98394285644E+02  0.15367696976E+02 -0.11804717484E+03  0.15449986875E+03  0.41800000000E+01 0.  1.
        -11    1    3    3    0    0  0.10456795300E+02  0.48090239955E+02 -0.80953098962E+02  0.94738693144E+02  0.00000000000E+00 0.  1.
         11    1    3    3    0    0  0.92966907163E+02  0.65618908266E+01 -0.75184599978E+02  0.11974401159E+03  0.00000000000E+00 0. -1.
</event>
<event>
 7    1  0.6684706E-006  0.1024743E+03  0.7561462E-02  0.1275177E+00
          2   -1    0    0  501    0  0.00000000000E+00  0.00000000000E+00  0.42459099382E+04  0.42459099382E+04  0.00000000000E+00 0. -1.
         -2   -1    0    0    0  501 -0.00000000000E+00 -0.00000000000E+00 -0.42163737015E+02  0.42163737015E+02  0.00000000000E+00 0.  1.
         23    2    1    2    0    0 -0.20749725739E+02 -0.22789702911E+02  0.15440087681E+02  0.97820810783E+02  0.91545579018E+02 0.  0.
          5    1    1    2  502    0  0.68531057935E+02  0.35912106882E+02  0.27291009278E+04  0.27302006395E+04  0.41800000000E+01 0. -1.
         -5    1    1    2    0  502 -0.47781332196E+02 -0.13122403971E+02  0.14592051857E+04  0.14600522249E+04  0.41800000000E+01 0.  1.
        -11    1    3    3    0    0 -0.39302655748E+02 -0.37300575851E+02  0.37222832525E+02  0.65738656579E+02  0.00000000000E+00 0. -1.
         11    1    3    3    0    0  0.18552930010E+02  0.14510872940E+02 -0.21782744844E+02  0.32082154204E+02  0.00000000000E+00 0.  1.
</event>
<event>
 7    1  0.6684706E-006  0.1535357E+03  0.7561462E-02  0.1196195E+00
         -1   -1    0    0    0  501 -0.00000000000E+00  0.00000000000E+00  0.41739337197E+02  0.41739337197E+02  0.00000000000E+00 0.  1.
          1   -1    0    0  501    0  0.00000000000E+00 -0.00000000000E+00 -0.56905904754E+03  0.56905904754E+03  0.00000000000E+00 0. -1.
         23    2    1    2    0    0  0.10914834121E+03  0.90928331590E+01 -0.25346624832E+03  0.29042499094E+03  0.90030529922E+02 0.  0.
          5    1    1    2  502    0 -0.11242740057E+03  0.37684900568E+02 -0.20727655613E+03  0.23883281862E+03  0.41800000000E+01 0.  1.
         -5    1    1    2    0  502  0.32790593532E+01 -0.46777733727E+02 -0.66576905895E+02  0.81540575185E+02  0.41800000000E+01 0.  1.
        -11    1    3    3    0    0 -0.14893888440E+02 -0.66420232268E+01 -0.22540626318E+02  0.27821290772E+02  0.00000000000E+00 0. -1.
         11    1    3    3    0    0  0.12404222965E+03  0.15734856386E+02 -0.23092562200E+03  0.26260370017E+03  0.00000000000E+00 0.  1.
</event>
<event>
 7    1  0.6684706E-006  0.2699082E+03  0.7561462E-02  0.1101332E+00
          1   -1    0    0  501    0  0.00000000000E+00  0.00000000000E+00  0.69033966903E+03  0.69033966903E+03  0.00000000000E+00 0. -1.
         -1   -1    0    0    0  501 -0.00000000000E+00 -0.00000000000E+00 -0.11629010948E+03  0.11629010948E+03  0.00000000000E+00 0.  1.
         23    2    1    2    0    0 -0.23303823256E+03  0.11522075787E+03  0.29431791416E+03  0.40478183554E+03  0.98197041257E+02 0.  0.
          5    1    1    2  502    0  0.12118318409E+03 -0.41146215934E+02  0.53454680038E+02  0.13875608242E+03  0.41800000000E+01 0.  1.
         -5    1    1    2    0  502  0.11185504847E+03 -0.74074541938E+02  0.22627696536E+03  0.26309186054E+03  0.41800000000E+01 0.  1.
        -11    1    3    3    0    0 -0.17945213895E+03  0.13042854539E+03  0.22690879437E+03  0.31733622010E+03  0.00000000000E+00 0. -1.
         11    1    3    3    0    0 -0.53586093609E+02 -0.15207787514E+02  0.67409119791E+02  0.87445615443E+02  0.00000000000E+00 0.  1.
</event>
<event>
 7    1  0.6684706E-006  0.1214173E+03  0.7561462E-02  0.1240777E+00
          2   -1    0    0  501    0  0.00000000000E+00  0.00000000000E+00  0.82630686865E+03  0.82630686865E+03  0.00000000000E+00 0. -1.
         -2   -1    0    0    0  501 -0.00000000000E+00 -0.00000000000E+00 -0.25052694142E+02  0.25052694142E+02  0.00000000000E+00 0.  1.
         23    2    1    2    0    0  0.80556675444E+02  0.34649961365E+02  0.23165749970E+03  0.26383778536E+03  0.90858032303E+02 0.  0.
          5    1    1    2  502    0 -0.73946277021E+02 -0.60891245611E+02  0.53437392112E+03  0.54290768612E+03  0.41800000000E+01 0. -1.
         -5    1    1    2    0  502 -0.66103984230E+01  0.26241284246E+02  0.35222753683E+02  0.44614091307E+02  0.41800000000E+01 0.  1.
        -11    1    3    3    0    0  0.82560698284E+02 -0.22747082460E+01  0.11590152683E+03  0.14231868156E+03  0.00000000000E+00 0.  1.
         11    1    3    3    0    0 -0.20040228399E+01  0.36924669611E+02  0.11575597287E+03  0.12151910380E+03  0.00000000000E+00 0. -1.
</event>
<event>
 7    1  0.6684706E-006  0.8235027E+02  0.7561462E-02  0.1322511E+00
          2   -1    0    0  501    0  0.00000000000E+00  0.00000000000E+00  0.47575286728E+03  0.47575286728E+03  0.00000000000E+00 0.  1.
         -2   -1    0    0    0  501 -0.00000000000E+00 -0.00000000000E+00 -0.28296504964E+02  0.28296504964E+02  0.00000000000E+00 0. -1.
         23    2    1    2    0    0 -0.38925797152E+01 -0.75689686443E+01  0.11478618238E+03  0.14854286708E+03  0.93897147100E+02 0.  0.
          5    1    1    2  502    0 -0.17411191698E+02 -0.53825752709E+02  0.19721345940E+03  0.20520960557E+03  0.41800000000E+01 0. -1.
         -5    1    1    2    0  502  0.21303771413E+02  0.61394721353E+02  0.13545672054E+03  0.15029689959E+03  0.41800000000E+01 0. -1.
        -11    1    3    3    0    0 -0.10677173504E+01 -0.25087192884E+02  0.12538460420E+03  0.12787418128E+03  0.00000000000E+00 0.  1.
         11    1    3    3    0    0 -0.28248623648E+01  0.17518224239E+02 -0.10598421822E+02  0.20668685807E+02  0.00000000000E+00 0. -1.
</event>
<event>
 7    1  0.6684706E-006  0.9248812E+02  0.7561462E-02  0.1296936E+00
          2   -1    0    0  501    0  0.00000000000E+00  0.00000000000E+00  0.83522421048E+03  0.83522421048E+03  0.00000000000E+00 0. -1.
         -2   -1    0    0    0  501 -0.00000000000E+00 -0.00000000000E+00 -0.15920944881E+02  0.15920944881E+02  0.00000000000E+00 0.  1.
         23    2    1    2    0    0  0.38980651095E+02  0.49017007748E+01  0.34149597503E+03  0.35567485893E+03  0.91332286067E+02 0.  0.
          5    1    1    2  502    0 -0.60934376316E+02 -0.23917085491E+02  0.12252186529E+03  0.13897519588E+03  0.41800000000E+01 0.  1.
         -5    1    1    2    0  502  0.21953725222E+02  0.19015384716E+02  0.35528542527E+03  0.35649510055E+03  0.41800000000E+01 0.  1.
        -11    1    3    3    0    0  0.64276558871E+02  0.17877274747E-01  0.30018020117E+03  0.30698473824E+03  0.00000000000E+00 0. -1.
         11    1    3    3    0    0 -0.25295907776E+02  0.48838235000E+01  0.41315773863E+02  0.48690120683E+02  0.00000000000E+00 0.  1.
</event>
<event>
 7    1  0.6684706E-006  0.5537478E+03  0.7561462E-02  0.1000630E+00
         -1   -1    0    0    0  501 -0.00000000000E+00  0.00000000000E+00  0.82347431553E+03  0.82347431553E+03  0.00000000000E+00 0.  1.
          1   -1    0    0  501    0  0.00000000000E+00 -0.00000000000E+00 -0.45579736657E+03  0.45579736657E+03  0.00000000000E+00 0. -1.
         23    2    1    2    0    0 -0.17208978977E+03  0.51712000605E+03  0.45156404334E+03  0.71384273661E+03  0.92915934999E+02 0.  0.
          5    1    1    2  502    0  0.78134127547E+02 -0.98762871541E+02  0.10252854925E+02  0.12641851176E+03  0.41800000000E+01 0. -1.
         -5    1    1    2    0  502  0.93955662227E+02 -0.41835713451E+03 -0.94139949306E+02  0.43901043372E+03  0.41800000000E+01 0. -1.
        -11    1    3    3    0    0 -0.17081103892E+03  0.39235503023E+03  0.34212217979E+03  0.54787449901E+03  0.00000000000E+00 0. -1.
         11    1    3    3    0    0 -0.12787508544E+01  0.12476497582E+03  0.10944186356E+03  0.16596823761E+03  0.00000000000E+00 0.  1.
</event>
<event>
 7    1  0.6684706E-006  0.1678651E+03  0.7561462E-02  0.1180093E+00
          1   -1    0    0  501    0  0.00000000000E+00  0.00000000000E+00  0.25081298858E+03  0.25081298858E+03  0.00000000000E+00 0. -1.
         -1   -1    0    0    0  501 -0.00000000000E+00 -0.00000000000E+00 -0.12648280420E+03  0.12648280420E+03  0.00000000000E+00 0.  1.
         23    2    1    2    0    0 -0.12300691360E+03 -0.63206006764E+02  0.25865407795E+02  0.16641896666E+03  0.88885055325E+02 0.  0.
          5    1    1    2  502    0  0.13675270976E+03  0.73230223468E+02  0.56062872159E+02  0.16499844633E+03  0.41800000000E+01 0.  1.
         -5    1    1    2    0  502 -0.13745796166E+02 -0.10024216704E+02  0.42401904432E+02  0.45878379790E+02  0.41800000000E+01 0.  1.
        -11    1    3    3    0    0 -0.49536372943E+02 -0.73713174318E+02  0.34049205831E+01  0.88876756222E+02  0.00000000000E+00 0.  1.
         11    1    3    3    0    0 -0.73470540653E+02  0.10507167553E+02  0.22460487211E+02  0.77542210438E+02  0.00000000000E+00 0. -1.
</event>
<event>
 7    1  0.6684706E-006  0.7048286E+02  0.7561462E-02  0.1358459E+00
          2   -1    0    0  501    0  0.00000000000E+00  0.00000000000E+00  0.53113219713E+03  0.53113219713E+03  0.00000000000E+00 0. -1.
         -2   -1    0    0    0  501 -0.00000000000E+00 -0.00000000000E+00 -0.23984109066E+02  0.23984109066E+02  0.00000000000E+00 0.  1.
         23    2    1    2    0    0 -0.55551604646E+01  0.32194302651E+02  0.18264646493E+03  0.20580879699E+03  0.89051652628E+02 0.  0.
          5    1    1    2  502    0  0.22060159165E+02 -0.17575877108E+02  0.32559406269E+03  0.32684021805E+03  0.41800000000E+01 0. -1.
         -5    1    1    2    0  502 -0.16504998700E+02 -0.14618425543E+02 -0.10924395594E+01  0.22467291150E+02  0.41800000000E+01 0. -1.
        -11    1    3    3    0    0  0.37529969633E+02  0.27795528512E+02  0.61979528240E+02  0.77605102582E+02  0.00000000000E+00 0.  1.
         11    1    3    3    0    0 -0.43085130098E+02  0.43987741388E+01  0.12066693669E+03  0.12820369441E+03  0.00000000000E+00 0. -1.
</event>
<event>
 7    1  0.6684706E-006  0.1083191E+03  0.7561462E-02  0.1263715E+00
          2   -1    0    0  501    0  0.00000000000E+00  0.00000000000E+00  0.14637256465E+03  0.14637256465E+03  0.00000000000E+00 0. -1.
         -2   -1    0    0    0  501 -0.00000000000E+00 -0.00000000000E+00 -0.81762568350E+02  0.81762568350E+02  0.00000000000E+00 0.  1.
         23    2    1    2    0    0 -0.64446706968E+01 -0.16891886826E+02  0.37686456496E+02  0.98907471681E+02  0.89641225618E+02 0.  0.
          5    1    1    2  502    0  0.31773910835E+02  0.64656185096E+02  0.15808548150E+02  0.73874124533E+02  0.41800000000E+01 0. -1.
         -5    1    1    2    0  502 -0.25329240138E+02 -0.47764298270E+02  0.11114991654E+02  0.55353536785E+02  0.41800000000E+01 0. -1.
        -11    1    3    3    0    0  0.11103879395E+02 -0.50837505399E+02  0.13770694918E+02  0.53827317705E+02  0.00000000000E+00 0. -1.
         11    1    3    3    0    0 -0.17548550092E+02  0.33945618573E+02  0.23915761578E+02  0.45080153976E+02  0.00000000000E+00 0.  1.
</event>
<event>
 7    1  0.6684706E-006  0.1132082E+03  0.7561462E-02  0.1254742E+00
         -2   -1    0    0    0  501 -0.00000000000E+00  0.00000000000E+00  0.40225980320E+02  0.40225980320E+02  0.00000000000E+00 0.  1.
          2   -1    0    0  501    0  0.00000000000E+00 -0.00000000000E+00 -0.36692857921E+03  0.36692857921E+03  0.00000000000E+00 0. -1.
         23    2    1    2    0    0 -0.38487007449E+01  0.37435022657E+02 -0.80620290895E+02  0.12854875989E+03  0.92784475785E+02 0.  0.
          5    1    1    2  502    0 -0.44959948780E+02  0.21626697377E+02 -0.65870036375E+02  0.82737205209E+02  0.41800000000E+01 0.  1.
         -5    1    1    2    0  502  0.48808649525E+02 -0.59061720034E+02 -0.18021227162E+03  0.19586859443E+03  0.41800000000E+01 0.  1.
        -11    1    3    3    0    0  0.36729406363E+02 -0.91352040073E+01 -0.24445967140E+02  0.45056703757E+02  0.00000000000E+00 0. -1.
         11    1    3    3    0    0 -0.40578107108E+02  0.46570226664E+02 -0.56174323755E+02  0.83492056134E+02  0.00000000000E+00 0.  1.
</event>
<event>
 7    1  0.6684706E-006  0.9850250E+02  0.7561462E-02  0.1283477E+00
          2   -1    0    0  501    0  0.00000000000E+00  0.00000000000E+00  0.74924292077E+03  0.74924292077E+03  0.00000000000E+00 0. -1.
         -2   -1    0    0    0  501 -0.00000000000E+00 -0.00000000000E+00 -0.18901781153E+02  0.18901781153E+02  0.00000000000E+00 0.  1.
         23    2    1    2    0    0 -0.94880305306E+00  0.48186542180E+02  0.29724876518E+03  0.31478148693E+03  0.91693582319E+02 0.  0.
          5    1    1    2  502    0  0.10034212662E+02  0.26247254683E+02  0.23289238946E+02  0.36735062989E+02  0.41800000000E+01 0. -1.
         -5    1    1    2    0  502 -0.90854096089E+01 -0.74433796863E+02  0.40980313549E+03  0.41662815200E+03  0.41800000000E+01 0. -1.
        -11    1    3    3    0    0 -0.39765683843E+02  0.15262920941E+02  0.20542345752E+03  0.20979290566E+03  0.00000000000E+00 0.  1.
         11    1    3    3    0    0  0.38816880790E+02  0.32923621239E+02  0.91825307664E+02  0.10498858127E+03  0.00000000000E+00 0. -1.
</event>
<event>
 7    1  0.6684706E-006  0.1160593E+03  0.7561462E-02  0.1249743E+00
          2   -1    0    0  501    0  0.00000000000E+00  0.00000000000E+00  0.72555475236E+02  0.72555475236E+02  0.00000000000E+00 0. -1.
         -2   -1    0    0    0  501 -0.00000000000E+00 -0.00000000000E+00 -0.23146413761E+03  0.23146413761E+03  0.00000000000E+00 0.  1.
         23    2    1    2    0    0  0.46131845956E+02  0.50101024090E+02 -0.12424384565E+03  0.16588212592E+03  0.86267529759E+02 0.  0.
          5    1    1    2  502    0 -0.36651500538E+02 -0.87227888885E+02 -0.19367731395E+02  0.96667567003E+02  0.41800000000E+01 0. -1.
         -5    1    1    2    0  502 -0.94803454183E+01  0.37126864794E+02 -0.15297085320E+02  0.41469919918E+02  0.41800000000E+01 0.  1.
        -11    1    3    3    0    0  0.65419327918E+02  0.33924087859E+02 -0.11930448537E+03  0.14022871472E+03  0.00000000000E+00 0.  1.
         11    1    3    3    0    0 -0.19287481962E+02  0.16176936232E+02 -0.49393602846E+01  0.25653411202E+02  0.00000000000E+00 0. -1.
</event>
<event>
 7    1  0.6684706E-006  0.7644429E+02  0.7561462E-02  0.1339456E+00
          2   -1    0    0  501    0  0.00000000000E+00  0.00000000000E+00  0.69509123551E+03  0.69509123551E+03  0.00000000000E+00 0. -1.
         -2   -1    0    0    0  501 -0.00000000000E+00 -0.00000000000E+00 -0.22647902573E+02  0.22647902573E+02  0.00000000000E+00 0.  1.
         23    2    1    2    0    0 -0.70117514187E+01  0.80011544777E+01  0.97863123726E+02  0.12960383374E+03  0.84301717680E+02 0.  0.
          5    1    1    2  502    0  0.48059738783E+02  0.17841808528E+02  0.11493602360E+03  0.12591993704E+03  0.41800000000E+01 0.  1.
         -5    1    1    2    0  502 -0.41047987364E+02 -0.25842963006E+02  0.45964418561E+03  0.46221536730E+03  0.41800000000E+01 0.  1.
        -11    1    3    3    0    0 -0.28943248046E+02  0.10289395206E+02  0.15047421125E+01  0.30754633960E+02  0.00000000000E+00 0.  1.
         11    1    3    3    0    0  0.21931496628E+02 -0.22882407286E+01  0.96358381613E+02  0.98849199780E+02  0.00000000000E+00 0. -1.
</event>
<event>
 7    1  0.6684706E-006  0.1612135E+03  0.7561462E-02  0.1187334E+00
          1   -1    0    0  501    0  0.00000000000E+00  0.00000000000E+00  0.97594739824E+03  0.97594739824E+03  0.00000000000E+00 0. -1.
         -1   -1    0    0    0  501 -0.00000000000E+00 -0.00000000000E+00 -0.45333354956E+02  0.45333354956E+02  0.00000000000E+00 0.  1.
         23    2    1    2    0    0 -0.13622560093E+03  0.33441933893E+02  0.17427737093E+03  0.24194163473E+03  0.92126952124E+02 0.  0.
          5    1    1    2  502    0  0.68837428852E+02  0.38396880689E+02  0.46810358808E+03  0.47471186380E+03  0.41800000000E+01 0. -1.
         -5    1    1    2    0  502  0.67388172074E+02 -0.71838814582E+02  0.28823308427E+03  0.30462725467E+03  0.41800000000E+01 0. -1.
        -11    1    3    3    0    0 -0.86770666566E+02  0.29773861363E+01  0.39906722636E+02  0.95553963372E+02  0.00000000000E+00 0. -1.
         11    1    3    3    0    0 -0.49454934360E+02  0.30464547757E+02  0.13437064830E+03  0.14638767136E+03  0.00000000000E+00 0.  1.
</event>
<event>
 7    1  0.6684706E-006  0.7959767E+02  0.7561462E-02  0.1330197E+00
         -2   -1    0    0    0  501 -0.00000000000E+00  0.00000000000E+00  0.28928483406E+02  0.28928483406E+02  0.00000000000E+00 0. -1.
          2   -1    0    0  501    0  0.00000000000E+00 -0.00000000000E+00 -0.45744116715E+03  0.45744116715E+03  0.00000000000E+00 0.  1.
         23    2    1    2    0    0  0.21447853628E+02  0.16597392771E+02 -0.14979588120E+03  0.17966643789E+03  0.95423995975E+02 0.  0.
          5    1    1    2  502    0 -0.86614853200E+01 -0.62989149975E+02 -0.80395710504E+02  0.10258458466E+03  0.41800000000E+01 0.  1.
         -5    1    1    2    0  502 -0.12786368308E+02  0.46391757203E+02 -0.19832109204E+03  0.20411862801E+03  0.41800000000E+01 0.  1.
        -11    1    3    3    0    0  0.35504011459E+01 -0.12509894275E+02  0.99077835789E+01  0.16348302007E+02  0.00000000000E+00 0. -1.
         11    1    3    3    0    0  0.17897452482E+02  0.29107287047E+02 -0.15970366478E+03  0.16331813589E+03  0.00000000000E+00 0.  1.
</event>
<event>
 7    1  0.6684706E-006  0.1118742E+03  0.7561462E-02  0.1257138E+00
         -2   -1    0    0    0  501 -0.00000000000E+00  0.00000000000E+00  0.37924346608E+02  0.37924346608E+02  0.00000000000E+00 0.  1.
          2   -1    0    0  501    0  0.00000000000E+00 -0.00000000000E+00 -0.39696491239E+03  0.39696491239E+03  0.00000000000E+00 0. -1.
         23    2    1    2    0    0  0.54464104692E+02 -0.14546018680E+02 -0.14288455552E+03  0.17886399269E+03  0.91642819228E+02 0.  0.
          5    1    1    2  502    0  0.33065288872E+02 -0.19987925577E+02 -0.37206889882E+02  0.53802003232E+02  0.41800000000E+01 0. -1.
         -5    1    1    2    0  502 -0.87529393564E+02  0.34533944257E+02 -0.17894912038E+03  0.20222326307E+03  0.41800000000E+01 0. -1.
        -11    1    3    3    0    0  0.71941401987E+02 -0.99525619649E+01 -0.60510736205E+02  0.94531307013E+02  0.00000000000E+00 0.  1.
         11    1    3    3    0    0 -0.17477297294E+02 -0.45934567153E+01 -0.82373819314E+02  0.84332685678E+02  0.00000000000E+00 0. -1.
</event>
<event>
 7    1  0.6684706E-006  0.1196508E+03  0.7561462E-02  0.1243674E+00
          2   -1    0    0  501    0  0.00000000000E+00  0.00000000000E+00  0.96623437261E+03  0.96623437261E+03  0.00000000000E+00 0. -1.
         -2   -1    0    0    0  501 -0.00000000000E+00 -0.00000000000E+00 -0.16505554443E+02  0.16505554443E+02  0.00000000000E+00 0.  1.
         23    2    1    2    0    0  0.17371076475E+02 -0.54042717375E+02  0.30975972191E+03  0.32819276263E+03  0.92396074183E+02 0.  0.
          5    1    1    2  502    0  0.40908202760E+02 -0.17515145620E+02  0.18902720776E+03  0.19423959187E+03  0.41800000000E+01 0.  1.
         -5    1    1    2    0  502 -0.58279279236E+02  0.71557862995E+02  0.45094188850E+03  0.46030757255E+03  0.41800000000E+01 0.  1.
        -11    1    3    3    0    0  0.45646543372E+02 -0.54071804134E+01  0.19554188677E+03  0.20087178498E+03  0.00000000000E+00 0.  1.
         11    1    3    3    0    0 -0.28275466897E+02 -0.48635536962E+02  0.11421783515E+03  0.12732097765E+03  0.00000000000E+00 0. -1.
</event>
<event>
 7    1  0.8924057E-006  0.2003859E+03  0.7561462E-02  0.1149414E+00
         -1   -1    0    0    0  501 -0.00000000000E+00  0.00000000000E+00  0.87754318582E+02  0.87754318582E+02  0.00000000000E+00 0.  1.
          1   -1    0    0  501    0  0.00000000000E+00 -0.00000000000E+00 -0.53058296661E+03  0.53058296661E+03  0.00000000000E+00 0. -1.
         23    2    1    2    0    0 -0.10209140603E+03  0.15521057653E+03 -0.19264485076E+03  0.28255099386E+03  0.90609311651E+02 0.  0.
          5    1    1    2  502    0  0.49841699679E+02 -0.59589839262E+01 -0.15377830588E+02  0.52665497149E+02  0.41800000000E+01 0. -1.
         -5    1    1    2    0  502  0.52249706351E+02 -0.14925159260E+03 -0.23480596668E+03  0.28312079418E+03  0.41800000000E+01 0. -1.
        -11    1    3    3    0    0 -0.35105680372E+02  0.98080070594E+02 -0.51521845471E+02  0.11621794011E+03  0.00000000000E+00 0.  1.
         11    1    3    3    0    0 -0.66985725658E+02  0.57130505934E+02 -0.14112300529E+03  0.16633305376E+03  0.00000000000E+00 0. -1.
</event>
<event>
 6    1  0.6684706E-006  0.6950916E+02  0.7561462E-02  0.1361770E+00
          2   -1    0    0  501    0  0.00000000000E+00  0.00000000000E+00  0.81008480581E+02  0.81008480581E+02  0.00000000000E+00 0. -1.
         -2   -1    0    0    0  501 -0.00000000000E+00 -0.00000000000E+00 -0.15127491760E+03  0.15127491760E+03  0.00000000000E+00 0.  1.
          5    1    1    2  502    0  0.17002540370E+02  0.16315121123E+02 -0.92967303131E+02  0.95998236482E+02  0.41800000000E+01 0. -1.
         -5    1    1    2    0  502  0.43736698686E+02 -0.63421421696E+01  0.33455367444E+02  0.55586469487E+02  0.41800000000E+01 0. -1.
        -11    1    1    2    0    0 -0.49406315184E+02  0.73948236250E+01 -0.24678334837E+02  0.55719723679E+02  0.00000000000E+00 0.  1.
         11    1    1    2    0    0 -0.11332923872E+02 -0.17367802578E+02  0.13923833501E+02  0.24978968538E+02  0.00000000000E+00 0. -1.
</event>
<event>
 7    1  0.6684706E-006  0.1454024E+03  0.7561462E-02  0.1206239E+00
         -1   -1    0    0    0  501 -0.00000000000E+00  0.00000000000E+00  0.39797552413E+02  0.39797552413E+02  0.00000000000E+00 0.  1.
          1   -1    0    0  501    0  0.00000000000E+00 -0.00000000000E+00 -0.76210691404E+03  0.76210691404E+03  0.00000000000E+00 0. -1.
         23    2    1    2    0    0 -0.12431546874E+03 -0.37993637772E+02 -0.25810403382E+03  0.30387608191E+03  0.93942155619E+02 0.  0.
          5    1    1    2  502    0  0.13211732402E+03  0.14273088461E+02 -0.44949923561E+03  0.46874912648E+03  0.41800000000E+01 0.  1.
         -5    1    1    2    0  502 -0.78018552741E+01  0.23720549311E+02 -0.14706092202E+02  0.29279258071E+02  0.41800000000E+01 0.  1.
        -11    1    3    3    0    0 -0.76031873043E+02 -0.36221011281E+02 -0.69533488958E+02  0.10921407173E+03  0.00000000000E+00 0.  1.
         11    1    3    3    0    0 -0.48283595699E+02 -0.17726264907E+01 -0.18857054486E+03  0.19466201018E+03  0.00000000000E+00 0. -1.
</event>
<event>
 7    1  0.6684706E-006  0.1775264E+03  0.7561462E-02  0.1170219E+00
         -1   -1    0    0    0  501 -0.00000000000E+00  0.00000000000E+00  0.51069433660E+03  0.51069433660E+03  0.00000000000E+00 0.  1.
          1   -1    0    0  501    0  0.00000000000E+00 -0.00000000000E+00 -0.69513605859E+02  0.69513605859E+02  0.00000000000E+00 0. -1.
         23    2    1    2    0    0  0.99142317915E+02  0.11661111698E+03  0.18644921338E+03  0.25776624038E+03  0.90844778093E+02 0.  0.
          5    1    1    2  502    0 -0.15027177465E+02  0.27010552716E+02  0.40937007628E+02  0.51465493431E+02  0.41800000000E+01 0. -1.
         -5    1    1    2    0  502 -0.84115140450E+02 -0.14362166970E+03  0.21379450973E+03  0.27097620864E+03  0.41800000000E+01 0. -1.
        -11    1    3    3    0    0  0.36399806545E+02  0.71041910697E+02  0.15449020010E+03  0.17389399334E+03  0.00000000000E+00 0.  1.
         11    1    3    3    0    0  0.62742511370E+02  0.45569206283E+02  0.31959013274E+02  0.83872247041E+02  0.00000000000E+00 0. -1.
</event>
<event>
 7    1  0.6684706E-006  0.9600017E+02  0.7561462E-02  0.1288939E+00
         -3   -1    0    0    0  501 -0.00000000000E+00  0.00000000000E+00  0.61567619186E+03  0.61567619186E+03  0.00000000000E+00 0.  1.
          3   -1    0    0  501    0  0.00000000000E+00 -0.00000000000E+00 -0.22667722119E+02  0.22667722119E+02  0.00000000000E+00 0. -1.
         23    2    1    2    0    0  0.35264950503E+02  0.18660634607E+02  0.31739481104E+03  0.33305372227E+03  0.92701023879E+02 0.  0.
          5    1    1    2  502    0  0.27876988598E+02  0.32251966949E+01  0.80741227316E+01  0.29499021084E+02  0.41800000000E+01 0. -1.
         -5    1    1    2    0  502 -0.63141939101E+02 -0.21885831302E+02  0.26753953598E+03  0.27579117063E+03  0.41800000000E+01 0. -1.
        -11    1    3    3    0    0 -0.20757891892E+02  0.32867538977E+02  0.17717815615E+03  0.18139256934E+03  0.00000000000E+00 0. -1.
         11    1    3    3    0    0  0.56022842395E+02 -0.14206904370E+02  0.14021665489E+03  0.15166115294E+03  0.00000000000E+00 0.  1.
</event>
<event>
 7    1  0.6684706E-006  0.2583991E+03  0.7561462E-02  0.1108109E+00
         -2   -1    0    0    0  501 -0.00000000000E+00  0.00000000000E+00  0.47957636209E+03  0.47957636209E+03  0.00000000000E+00 0.  1.
          2   -1    0    0  501    0  0.00000000000E+00 -0.00000000000E+00 -0.32668176564E+03  0.32668176564E+03  0.00000000000E+00 0. -1.
         23    2    1    2    0    0 -0.12271950070E+03 -0.21214444275E+03  0.37184223723E+03  0.45461825476E+03  0.91355173532E+02 0.  0.
          5    1    1    2  502    0 -0.75952212200E+01  0.53625711639E+02 -0.40507194687E+01  0.54472791946E+02  0.41800000000E+01 0. -1.
         -5    1    1    2    0  502  0.13031472192E+03  0.15851873111E+03 -0.21489692131E+03  0.29716708103E+03  0.41800000000E+01 0. -1.
        -11    1    3    3    0    0 -0.96323726063E+02 -0.88538149564E+02  0.14784582907E+03  0.19742252482E+03  0.00000000000E+00 0.  1.
         11    1    3    3    0    0 -0.26395774641E+02 -0.12360629319E+03  0.22399640815E+03  0.25719572994E+03  0.00000000000E+00 0. -1.
</event>
<event>
 7    1  0.6684706E-006  0.1737835E+03  0.7561462E-02  0.1173959E+00
         -1   -1    0    0    0  501 -0.00000000000E+00  0.00000000000E+00  0.15187582938E+03  0.15187582938E+03  0.00000000000E+00 0.  1.
          1   -1    0    0  501    0  0.00000000000E+00 -0.00000000000E+00 -0.22411683438E+03  0.22411683438E+03  0.00000000000E+00 0. -1.
         23    2    1    2    0    0  0.41513897713E+02 -0.13630276372E+03 -0.53367818451E+02  0.18545320567E+03  0.10603263813E+03 0.  0.
          5    1    1    2  502    0 -0.81439343126E+02  0.10961685305E+03 -0.32522419321E+02  0.14044002720E+03  0.41800000000E+01 0.  1.
         -5    1    1    2    0  502  0.39925445413E+02  0.26685910667E+02  0.13649232776E+02  0.50099430884E+02  0.41800000000E+01 0.  1.
        -11    1    3    3    0    0  0.31538221273E+02 -0.60589471784E+01 -0.44025621579E+02  0.54494271235E+02  0.00000000000E+00 0.  1.
         11    1    3    3    0    0  0.99756764399E+01 -0.13024381654E+03 -0.93421968714E+01  0.13095893444E+03  0.00000000000E+00 0. -1.
</event>
<event>
 7    1  0.6684706E-006  0.1685919E+03  0.7561462E-02  0.1179324E+00
          2   -1    0    0  501    0  0.00000000000E+00  0.00000000000E+00  0.56383558786E+03  0.56383558786E+03  0.00000000000E+00 0. -1.
         -2   -1    0    0    0  501 -0.00000000000E+00 -0.00000000000E+00 -0.59583456230E+02  0.59583456230E+02  0.00000000000E+00 0.  1.
         23    2    1    2    0    0  0.76898332769E+02  0.43480434350E+02  0.17019178703E+03  0.22588626511E+03  0.11939622539E+03 0.  0.
          5    1    1    2  502    0 -0.12040617395E+03 -0.90833240468E+02  0.22685016104E+03  0.27244594374E+03  0.41800000000E+01 0. -1.
         -5    1    1    2    0  502  0.43507841178E+02  0.47352806119E+02  0.10721018356E+03  0.12508683524E+03  0.41800000000E+01 0.  1.
        -11    1    3    3    0    0  0.91503939780E+02  0.19157626187E+02  0.57673725498E+02  0.10984645761E+03  0.00000000000E+00 0.  1.
         11    1    3    3    0    0 -0.14605607011E+02  0.24322808163E+02  0.11251806153E+03  0.11603980750E+03  0.00000000000E+00 0. -1.
</event>
<event>
 7    1  0.6684706E-006  0.9037220E+02  0.7561462E-02  0.1301953E+00
          2   -1    0    0  501    0  0.00000000000E+00  0.00000000000E+00  0.38734640798E+03  0.38734640798E+03  0.00000000000E+00 0.  1.
         -2   -1    0    0    0  501 -0.00000000000E+00 -0.00000000000E+00 -0.45574730179E+02  0.45574730179E+02  0.00000000000E+00 0. -1.
         23    2    1    2    0    0  0.54586499225E+02  0.21526157725E+02  0.69953408984E+02  0.12799299294E+03  0.89697633460E+02 0.  0.
          5    1    1    2  502    0 -0.30457320868E+02  0.23444866602E+02  0.12545177869E+02  0.40646820936E+02  0.41800000000E+01 0. -1.
         -5    1    1    2    0  502 -0.24129178357E+02 -0.44971024327E+02  0.25927309094E+03  0.26428132428E+03  0.41800000000E+01 0. -1.
        -11    1    3    3    0    0 -0.49337036643E+01 -0.18501469626E+02 -0.91414286297E+01  0.21218188603E+02  0.00000000000E+00 0. -1.
         11    1    3    3    0    0  0.59520202889E+02  0.40027627352E+02  0.79094837614E+02  0.10677480433E+03  0.00000000000E+00 0.  1.
</event>
<event>
 7    1  0.6684706E-006  0.1201241E+03  0.7561462E-02  0.1242892E+00
         -2   -1    0    0    0  501 -0.00000000000E+00  0.00000000000E+00  0.47425309222E+02  0.47425309222E+02  0.00000000000E+00 0.  1.
          2   -1    0    0  501    0  0.00000000000E+00 -0.00000000000E+00 -0.32095285202E+03  0.32095285202E+03  0.00000000000E+00 0. -1.
         23    2    1    2    0    0 -0.52021493880E+02  0.31478469792E+02 -0.10989052066E+03  0.15361668011E+03  0.88459188279E+02 0.  0.
          5    1    1    2  502    0  0.77910472704E+02 -0.57326907448E+02 -0.14257538364E+03  0.17234160407E+03  0.41800000000E+01 0.  1.
         -5    1    1    2    0  502 -0.25888978824E+02  0.25848437656E+02 -0.21061638511E+02  0.42419877069E+02  0.41800000000E+01 0.  1.
        -11    1    3    3    0    0 -0.42039254690E+02  0.61767335023E+02 -0.68495113304E+02  0.10136115211E+03  0.00000000000E+00 0.  1.
         11    1    3    3    0    0 -0.99822391900E+01 -0.30288865231E+02 -0.41395407352E+02  0.52255527995E+02  0.00000000000E+00 0. -1.
</event>
<event>
 7    1  0.6684706E-006  0.2145586E+03  0.7561462E-02  0.1138006E+00
          2   -1    0    0  501    0  0.00000000000E+00  0.00000000000E+00  0.16519344501E+04  0.16519344501E+04  0.00000000000E+00 0.  1.
         -2   -1    0    0    0  501 -0.00000000000E+00 -0.00000000000E+00 -0.31609825044E+02  0.31609825044E+02  0.00000000000E+00 0. -1.
         23    2    1    2    0    0  0.14650793794E+03  0.12443745436E+03  0.56880045596E+03  0.60730081357E+03  0.91274659858E+02 0.  0.
          5    1    1    2  502    0 -0.12720087457E+03 -0.15011355742E+03  0.88929384765E+03  0.91081016819E+03  0.41800000000E+01 0.  1.
         -5    1    1    2    0  502 -0.19307063370E+02  0.25676103057E+02  0.16223032143E+03  0.16543329337E+03  0.41800000000E+01 0.  1.
        -11    1    3    3    0    0  0.10856760907E+03  0.57199324860E+02  0.23993636899E+03  0.26949610325E+03  0.00000000000E+00 0.  1.
         11    1    3    3    0    0  0.37940328873E+02  0.67238129500E+02  0.32886408697E+03  0.33780471032E+03  0.00000000000E+00 0. -1.
</event>
<event>
 7    1  0.6684706E-006  0.7713278E+02  0.7561462E-02  0.1337391E+00
          1   -1    0    0  501    0  0.00000000000E+00  0.00000000000E+00  0.10180764936E+04  0.10180764936E+04  0.00000000000E+00 0. -1.
         -1   -1    0    0    0  501 -0.00000000000E+00 -0.00000000000E+00 -0.23618251199E+02  0.23618251199E+02  0.00000000000E+00 0.  1.
         23    2    1    2    0    0 -0.22967656633E+02 -0.39672879546E+02  0.11328358188E+03  0.15192550499E+03  0.90259284958E+02 0.  0.
          5    1    1    2  502    0  0.30674482843E+02  0.37220967813E+02  0.87909995366E+03  0.88043201059E+03  0.41800000000E+01 0. -1.
         -5    1    1    2    0  502 -0.77068262102E+01  0.24519117333E+01  0.20747068932E+01  0.93372292504E+01  0.41800000000E+01 0.  1.
        -11    1    3    3    0    0 -0.30289601706E+02 -0.64288924287E+02  0.10089625934E+03  0.12341223969E+03  0.00000000000E+00 0.  1.
         11    1    3    3    0    0  0.73219450733E+01  0.24616044741E+02  0.12387322543E+02  0.28513265301E+02  0.00000000000E+00 0. -1.
</event>
<event>
 7    1  0.6684706E-006  0.1709545E+03  0.7561462E-02  0.1176856E+00
         -1   -1    0    0    0  501 -0.00000000000E+00  0.00000000000E+00  0.30014247103E+02  0.30014247103E+02  0.00000000000E+00 0.  1.
          1   -1    0    0  501    0  0.00000000000E+00 -0.00000000000E+00 -0.16181595856E+04  0.16181595856E+04  0.00000000000E+00 0. -1.
         23    2    1    2    0    0 -0.15448032976E+03  0.37949564186E+02 -0.36697766643E+03  0.41035232456E+03  0.91717396963E+02 0.  0.
          5    1    1    2  502    0  0.12490091690E+03  0.43515612028E+01 -0.10842604687E+04  0.10914473929E+04  0.41800000000E+01 0.  1.
         -5    1    1    2    0  502  0.29579412857E+02 -0.42301125389E+02 -0.13690720335E+03  0.14637411521E+03  0.41800000000E+01 0.  1.
        -11    1    3    3    0    0 -0.74917675537E+02  0.41100514288E+02 -0.98915105983E+02  0.13071384232E+03  0.00000000000E+00 0.  1.
         11    1    3    3    0    0 -0.79562654223E+02 -0.31509501022E+01 -0.26806256045E+03  0.27963848224E+03  0.00000000000E+00 0. -1.
</event>
<event>
 7    1  0.6684706E-006  0.1649011E+03  0.7561462E-02  0.1183272E+00
          2   -1    0    0  501    0  0.00000000000E+00  0.00000000000E+00  0.97243900089E+03  0.97243900089E+03  0.00000000000E+00 0. -1.
         -2   -1    0    0    0  501 -0.00000000000E+00 -0.00000000000E+00 -0.14724266264E+03  0.14724266264E+03  0.00000000000E+00 0.  1.
         23    2    1    2    0    0  0.16251577338E+02  0.13775064702E+03 -0.88502616113E+02  0.18722075777E+03  0.89328296540E+02 0.  0.
          5    1    1    2  502    0 -0.15961676732E+02 -0.15153217344E+03  0.89918239648E+03  0.91201054230E+03  0.41800000000E+01 0. -1.
         -5    1    1    2    0  502 -0.28990060591E+00  0.13781526426E+02  0.14516557877E+02  0.20450363459E+02  0.41800000000E+01 0.  1.
        -11    1    3    3    0    0 -0.34168281486E+02  0.75426645140E+02 -0.30379366435E+02  0.88201792282E+02  0.00000000000E+00 0.  1.
         11    1    3    3    0    0  0.50419858824E+02  0.62324001877E+02 -0.58123249678E+02  0.99018965491E+02  0.00000000000E+00 0. -1.
</event>
<event>
 7    1  0.6684706E-006  0.1053938E+03  0.7561462E-02  0.1269346E+00
         -1   -1    0    0    0  501 -0.00000000000E+00  0.00000000000E+00  0.10603925226E+02  0.10603925226E+02  0.00000000000E+00 0.  1.
          1   -1    0    0  501    0  0.00000000000E+00 -0.00000000000E+00 -0.12159083541E+04  0.12159083541E+04  0.00000000000E+00 0. -1.
         23    2    1    2    0    0  0.24244198196E+02  0.11769969127E+02 -0.34517875585E+03  0.35692017829E+03  0.86702519361E+02 0.  0.
          5    1    1    2  502    0  0.49340175039E+02  0.33774421588E+01 -0.43906160601E+03  0.44185792543E+03  0.41800000000E+01 0. -1.
         -5    1    1    2    0  502 -0.73584373235E+02 -0.15147411286E+02 -0.42106406703E+03  0.42773417562E+03  0.41800000000E+01 0. -1.
        -11    1    3    3    0    0  0.49368069550E+02 -0.12557703824E+02 -0.25814306375E+03  0.26312115760E+03  0.00000000000E+00 0. -1.
         11    1    3    3    0    0 -0.25123871354E+02  0.24327672951E+02 -0.87035692097E+02  0.93799020687E+02  0.00000000000E+00 0.  1.
</event>
<event>
 7    1  0.6684706E-006  0.1198576E+03  0.7561462E-02  0.1243332E+00
         -2   -1    0    0    0  501 -0.00000000000E+00  0.00000000000E+00  0.34599265964E+02  0.34599265964E+02  0.00000000000E+00 0.  1.
          2   -1    0    0  501    0  0.00000000000E+00 -0.00000000000E+00 -0.51488605613E+03  0.51488605613E+03  0.00000000000E+00 0. -1.
         23    2    1    2    0    0  0.49554756827E+02 -0.51948731264E+02 -0.15845707383E+03  0.19681568220E+03  0.92051202637E+02 0.  0.
          5    1    1    2  502    0 -0.15627305167E-01  0.73703053447E+02 -0.26059563376E+03  0.27084995305E+03  0.41800000000E+01 0.  1.
         -5    1    1    2    0  502 -0.49539129522E+02 -0.21754322184E+02 -0.61234082575E+02  0.81819686850E+02  0.41800000000E+01 0.  1.
        -11    1    3    3    0    0  0.29110646160E+02  0.20982700599E+02 -0.26293450850E+02  0.44486503592E+02  0.00000000000E+00 0.  1.
         11    1    3    3    0    0  0.20444110667E+02 -0.72931431862E+02 -0.13216362298E+03  0.15232917861E+03  0.00000000000E+00 0. -1.
</event>
<event>
 7    1  0.6684706E-006  0.1966179E+03  0.7561462E-02  0.1152624E+00
         -1   -1    0    0    0  501 -0.00000000000E+00  0.00000000000E+00  0.29465168664E+03  0.29465168664E+03  0.00000000000E+00 0.  1.
          1   -1    0    0  501    0  0.00000000000E+00 -0.00000000000E+00 -0.14087336467E+03  0.14087336467E+03  0.00000000000E+00 0. -1.
         23    2    1    2    0    0  0.18075542453E+02  0.16763587834E+03  0.38585435927E+02  0.19605519809E+03  0.92305427203E+02 0.  0.
          5    1    1    2  502    0 -0.66320880143E+02 -0.10597260703E+03  0.98730887512E+02  0.15935467716E+03  0.41800000000E+01 0.  1.
         -5    1    1    2    0  502  0.48245337690E+02 -0.61663271317E+02  0.16461998532E+02  0.80115176053E+02  0.41800000000E+01 0.  1.
        -11    1    3    3    0    0  0.52637713118E+02  0.11857246849E+03  0.11587650191E+02  0.13024758256E+03  0.00000000000E+00 0. -1.
         11    1    3    3    0    0 -0.34562170664E+02  0.49063409853E+02  0.26997785736E+02  0.65807615533E+02  0.00000000000E+00 0.  1.
</event>
<event>
 7    1  0.6684706E-006  0.1345521E+03  0.7561462E-02  0.1220853E+00
         -2   -1    0    0    0  501 -0.00000000000E+00  0.00000000000E+00  0.32816531601E+02  0.32816531601E+02  0.00000000000E+00 0.  1.
          2   -1    0    0  501    0  0.00000000000E+00 -0.00000000000E+00 -0.59339021305E+03  0.59339021305E+03  0.00000000000E+00 0. -1.
         23    2    1    2    0    0 -0.31559008171E+02  0.81429950986E+02 -0.25665359021E+03  0.28614570458E+03  0.91550483153E+02 0.  0.
          5    1    1    2  502    0 -0.17842753212E+02 -0.97992654824E+02 -0.21327207995E+03  0.23542169979E+03  0.41800000000E+01 0. -1.
         -5    1    1    2    0  502  0.49401761384E+02  0.16562703837E+02 -0.90648011283E+02  0.10463934029E+03  0.41800000000E+01 0. -1.
        -11    1    3    3    0    0 -0.32936726365E+02 -0.26562049002E+01 -0.30913852325E+02  0.45249857830E+02  0.00000000000E+00 0.  1.
         11    1    3    3    0    0  0.13777181931E+01  0.84086155886E+02 -0.22573973788E+03  0.24089584675E+03  0.00000000000E+00 0. -1.
</event>
<event>
 6    1  0.6684706E-006  0.8262643E+02  0.7561462E-02  0.1321759E+00
         -2   -1    0    0    0  501 -0.00000000000E+00  0.00000000000E+00  0.70668172306E+01  0.70668172306E+01  0.00000000000E+00 0.  1.
          2   -1    0    0  501    0  0.00000000000E+00 -0.00000000000E+00 -0.98319789191E+03  0.98319789191E+03  0.00000000000E+00 0. -1.
          5    1    1    2  502    0 -0.27622192059E+02 -0.66277833806E+02 -0.46322143258E+03  0.46877212454E+03  0.41800000000E+01 0. -1.
         -5    1    1    2    0  502  0.30613588915E+02  0.64653051886E+02 -0.41807305321E+03  0.42416949344E+03  0.41800000000E+01 0.  1.
        -11    1    1    2    0    0  0.72218272694E+01  0.70619695292E+01 -0.37910293390E+02  0.39232850364E+02  0.00000000000E+00 0. -1.
         11    1    1    2    0    0 -0.10213224125E+02 -0.54371876097E+01 -0.56926295507E+02  0.58090240801E+02  0.00000000000E+00 0.  1.
</event>
<event>
 7    1  0.6684706E-006  0.1485108E+03  0.7561462E-02  0.1202315E+00
         -1   -1    0    0    0  501 -0.00000000000E+00  0.00000000000E+00  0.45647589611E+02  0.45647589611E+02  0.00000000000E+00 0.  1.
          1   -1    0    0  501    0  0.00000000000E+00 -0.00000000000E+00 -0.65799362892E+03  0.65799362892E+03  0.00000000000E+00 0. -1.
         23    2    1    2    0    0  0.10667813281E+03 -0.62398530124E+02 -0.16845016291E+03  0.22618512690E+03  0.86662873608E+02 0.  0.
          5    1    1    2  502    0 -0.83553041751E+02  0.95730915144E+02 -0.38775779002E+03  0.40806751282E+03  0.41800000000E+01 0.  1.
         -5    1    1    2    0  502 -0.23125091059E+02 -0.33332385020E+02 -0.56138086378E+02  0.69388578814E+02  0.41800000000E+01 0.  1.
        -11    1    3    3    0    0  0.52826687013E+02 -0.52256511562E+02 -0.35431477793E+02  0.82321269913E+02  0.00000000000E+00 0.  1.
         11    1    3    3    0    0  0.53851445797E+02 -0.10142018561E+02 -0.13301868512E+03  0.14386385698E+03  0.00000000000E+00 0. -1.
</event>
<event>
 7    1  0.6684706E-006  0.1089470E+03  0.7561462E-02  0.1262532E+00
         -2   -1    0    0    0  501 -0.00000000000E+00  0.00000000000E+00  0.22569431230E+02  0.22569431230E+02  0.00000000000E+00 0. -1.
          2   -1    0    0  501    0  0.00000000000E+00 -0.00000000000E+00 -0.61162599330E+03  0.61162599330E+03  0.00000000000E+00 0.  1.
         23    2    1    2    0    0 -0.39557841357E+02  0.11418990060E+01 -0.25724594305E+03  0.27738742609E+03  0.95928005254E+02 0.  0.
          5    1    1    2  502    0 -0.89112478561E+01 -0.50481847116E+02 -0.75915244919E+02  0.91697459276E+02  0.41800000000E+01 0. -1.
         -5    1    1    2    0  502  0.48469089213E+02  0.49339948110E+02 -0.25589537410E+03  0.26511053916E+03  0.41800000000E+01 0. -1.
        -11    1    3    3    0    0  0.18913265368E+02 -0.26450296990E+02 -0.13759957829E+03  0.14138944007E+03  0.00000000000E+00 0.  1.
         11    1    3    3    0    0 -0.58471106725E+02  0.27592195996E+02 -0.11964636475E+03  0.13599798602E+03  0.00000000000E+00 0. -1.
</event>
<event>
 7    1  0.6684706E-006  0.1802526E+03  0.7561462E-02  0.1167559E+00
          4   -1    0    0  501    0  0.00000000000E+00  0.00000000000E+00  0.87270256989E+03  0.87270256989E+03  0.00000000000E+00 0. -1.
         -4   -1    0    0    0  501 -0.00000000000E+00 -0.00000000000E+00 -0.44395187039E+02  0.44395187039E+02  0.00000000000E+00 0.  1.
         23    2    1    2    0    0  0.53845675482E+01 -0.15336652276E+03  0.25689453154E+03  0.31235747725E+03  0.89566229051E+02 0.  0.
          5    1    1    2  502    0  0.34129987594E+02  0.14140951624E+03  0.34311676265E+03  0.37270375977E+03  0.41800000000E+01 0. -1.
         -5    1    1    2    0  502 -0.39514555142E+02  0.11957006517E+02  0.22829608866E+03  0.23203651991E+03  0.41800000000E+01 0. -1.
        -11    1    3    3    0    0 -0.29496768207E+02 -0.20025752329E+02  0.28697319223E+02  0.45767086663E+02  0.00000000000E+00 0.  1.
         11    1    3    3    0    0  0.34881335755E+02 -0.13334077043E+03  0.22819721232E+03  0.26659039058E+03  0.00000000000E+00 0. -1.
</event>
<event>
 7    1  0.6684706E-006  0.1678196E+03  0.7561462E-02  0.1180141E+00
         -2   -1    0    0    0  501 -0.00000000000E+00  0.00000000000E+00  0.23835937141E+02  0.23835937141E+02  0.00000000000E+00 0.  1.
          2   -1    0    0  501    0  0.00000000000E+00 -0.00000000000E+00 -0.14876995760E+04  0.14876995760E+04  0.00000000000E+00 0. -1.
         23    2    1    2    0    0  0.32631499560E+02 -0.13686146751E+03 -0.45651786206E+03  0.48674812349E+03  0.93377198988E+02 0.  0.
          5    1    1    2  502    0 -0.19668785646E+02  0.16005839314E+03 -0.85504403225E+03  0.87012833526E+03  0.41800000000E+01 0. -1.
         -5    1    1    2    0  502 -0.12962713914E+02 -0.23196925634E+02 -0.15230174451E+03  0.15465905435E+03  0.41800000000E+01 0. -1.
        -11    1    3    3    0    0 -0.78221517232E+01 -0.60538028489E+02 -0.81011449340E+02  0.10143418494E+03  0.00000000000E+00 0.  1.
         11    1    3    3    0    0  0.40453651283E+02 -0.76323439016E+02 -0.37550641272E+03  0.38531393855E+03  0.00000000000E+00 0. -1.
</event>
<event>
 7    1  0.6684706E-006  0.1349125E+03  0.7561462E-02  0.1220343E+00
          2   -1    0    0  501    0  0.00000000000E+00  0.00000000000E+00  0.58346206097E+03  0.58346206097E+03  0.00000000000E+00 0. -1.
         -2   -1    0    0    0  501 -0.00000000000E+00 -0.00000000000E+00 -0.46687654570E+02  0.46687654570E+02  0.00000000000E+00 0.  1.
         23    2    1    2    0    0 -0.20860384905E+02  0.85254718906E+02  0.90621178080E+02  0.15855345959E+03  0.96038944586E+02 0.  0.
          5    1    1    2  502    0 -0.16832319387E+01 -0.11329654170E+03  0.37479914030E+03  0.39157477907E+03  0.41800000000E+01 0. -1.
         -5    1    1    2    0  502  0.22543616844E+02  0.28041822790E+02  0.71354088015E+02  0.80021476881E+02  0.41800000000E+01 0. -1.
        -11    1    3    3    0    0 -0.31178646623E+02 -0.30352615456E+01 -0.39851216158E+00  0.31328575292E+02  0.00000000000E+00 0.  1.
         11    1    3    3    0    0  0.10318261718E+02  0.88289980451E+02  0.91019690242E+02  0.12722488430E+03  0.00000000000E+00 0. -1.
</event>
<event>
 7    1  0.6684706E-006  0.9756509E+02  0.7561462E-02  0.1285501E+00
          1   -1    0    0  501    0  0.00000000000E+00  0.00000000000E+00  0.47878013695E+03  0.47878013695E+03  0.00000000000E+00 0. -1.
         -1   -1    0    0    0  501 -0.00000000000E+00 -0.00000000000E+00 -0.36644875719E+02  0.36644875719E+02  0.00000000000E+00 0.  1.
         23    2    1    2    0    0 -0.28531563046E+02  0.34555991721E+02  0.78848041442E+02  0.12860037772E+03  0.91174979341E+02 0.  0.
          5    1    1    2  502    0  0.63733740886E+02  0.12829789723E+02  0.25746688761E+03  0.26558099300E+03  0.41800000000E+01 0.  1.
         -5    1    1    2    0  502 -0.35202177839E+02 -0.47385781444E+02  0.10582033219E+03  0.12124364194E+03  0.41800000000E+01 0.  1.
        -11    1    3    3    0    0 -0.23888427990E+02 -0.10080324675E+02 -0.11002422681E+02  0.28165994430E+02  0.00000000000E+00 0.  1.
         11    1    3    3    0    0 -0.46431350563E+01  0.44636316396E+02  0.89850464123E+02  0.10043438329E+03  0.00000000000E+00 0. -1.
</event>
<event>
 7    1  0.6684706E-006  0.1537020E+03  0.7561462E-02  0.1195996E+00
         -2   -1    0    0    0  501 -0.00000000000E+00  0.00000000000E+00  0.38777933496E+03  0.38777933496E+03  0.00000000000E+00 0.  1.
          2   -1    0    0  501    0  0.00000000000E+00 -0.00000000000E+00 -0.12964734676E+03  0.12964734676E+03  0.00000000000E+00 0. -1.
         23    2    1    2    0    0  0.12212454782E+03 -0.31059009930E+02  0.29761745862E+03  0.33552674811E+03  0.90127574832E+02 0.  0.
          5    1    1    2  502    0 -0.56439723259E+02 -0.37628921990E+02 -0.52505265785E+02  0.85881624733E+02  0.41800000000E+01 0. -1.
         -5    1    1    2    0  502 -0.65684824557E+02  0.68687931920E+02  0.13019795372E+02  0.96018308880E+02  0.41800000000E+01 0. -1.
        -11    1    3    3    0    0  0.49282543063E+02 -0.48782363712E+02  0.20476784555E+03  0.21619056092E+03  0.00000000000E+00 0.  1.
         11    1    3    3    0    0  0.72842004753E+02  0.17723353781E+02  0.92849613067E+02  0.11933618719E+03  0.00000000000E+00 0. -1.
</event>
<event>
 7    1  0.6684706E-006  0.9104202E+02  0.7561462E-02  0.1300348E+00
          2   -1    0    0  501    0  0.00000000000E+00  0.00000000000E+00  0.47714635957E+03  0.47714635957E+03  0.00000000000E+00 0. -1.
         -2   -1    0    0    0  501 -0.00000000000E+00 -0.00000000000E+00 -0.29433375267E+02  0.29433375267E+02  0.00000000000E+00 0.  1.
         23    2    1    2    0    0 -0.30230829386E+02 -0.21944467890E+02  0.12987183863E+03  0.16297224237E+03  0.91092231271E+02 0.  0.
          5    1    1    2  502    0 -0.30179762945E+02  0.50696940144E+02  0.19362513536E+03  0.20245780616E+03  0.41800000000E+01 0.  1.
         -5    1    1    2    0  502  0.60410592331E+02 -0.28752472253E+02  0.12421601031E+03  0.14114968630E+03  0.41800000000E+01 0.  1.
        -11    1    3    3    0    0 -0.14177115167E+02 -0.33330387822E+02  0.13725335776E+03  0.14195206784E+03  0.00000000000E+00 0. -1.
         11    1    3    3    0    0 -0.16053714220E+02  0.11385919931E+02 -0.73815191271E+01  0.21020174537E+02  0.00000000000E+00 0.  1.
</event>
<event>
 7    1  0.6684706E-006  0.1686657E+03  0.7561462E-02  0.1179247E+00
         -2   -1    0    0    0  501 -0.00000000000E+00  0.00000000000E+00  0.25208917934E+02  0.25208917934E+02  0.00000000000E+00 0. -1.
          2   -1    0    0  501    0  0.00000000000E+00 -0.00000000000E+00 -0.13277042027E+04  0.13277042027E+04  0.00000000000E+00 0.  1.
         23    2    1    2    0    0 -0.94992969090E+02 -0.42752831240E+02 -0.29986506760E+03  0.33045653818E+03  0.91820455784E+02 0.  0.
          5    1    1    2  502    0  0.13573296769E+03 -0.50558283545E+01 -0.62363845729E+03  0.63827219721E+03  0.41800000000E+01 0.  1.
         -5    1    1    2    0  502 -0.40739998598E+02  0.47808659594E+02 -0.37899175987E+03  0.38418438524E+03  0.41800000000E+01 0. -1.
        -11    1    3    3    0    0 -0.14062542937E+02 -0.54881242853E+02 -0.13471781204E+03  0.14614579984E+03  0.00000000000E+00 0.  1.
         11    1    3    3    0    0 -0.80930426152E+02  0.12128411613E+02 -0.16514725557E+03  0.18431073834E+03  0.00000000000E+00 0. -1.
</event>
<event>
 7    1  0.6684706E-006  0.1021134E+03  0.7561462E-02  0.1275913E+00
          3   -1    0    0  501    0  0.00000000000E+00  0.00000000000E+00  0.10415937518E+03  0.10415937518E+03  0.00000000000E+00 0. -1.
         -3   -1    0    0    0  501 -0.00000000000E+00 -0.00000000000E+00 -0.19127935044E+03  0.19127935044E+03  0.00000000000E+00 0.  1.
         23    2    1    2    0    0 -0.35899240025E+02  0.42498741087E+02 -0.79160888163E+02  0.13174228877E+03  0.89413008049E+02 0.  0.
          5    1    1    2  502    0 -0.20750285680E+02 -0.38541015253E+02  0.60411680523E+02  0.74719661109E+02  0.41800000000E+01 0. -1.
         -5    1    1    2    0  502  0.56649525706E+02 -0.39577258335E+01 -0.68370767613E+02  0.88976775736E+02  0.41800000000E+01 0.  1.
        -11    1    3    3    0    0 -0.64202698430E+02  0.20272862438E+02 -0.63312458606E+02  0.92419926703E+02  0.00000000000E+00 0. -1.
         11    1    3    3    0    0  0.28303458405E+02  0.22225878649E+02 -0.15848429558E+02  0.39322362071E+02  0.00000000000E+00 0.  1.
</event>
<event>
 7    1  0.6684706E-006  0.1216338E+03  0.7561462E-02  0.1240426E+00
         -1   -1    0    0    0  501 -0.00000000000E+00  0.00000000000E+00  0.51029239590E+03  0.51029239590E+03  0.00000000000E+00 0.  1.
          1   -1    0    0  501    0  0.00000000000E+00 -0.00000000000E+00 -0.42607262141E+02  0.42607262141E+02  0.00000000000E+00 0. -1.
         23    2    1    2    0    0  0.49356500281E+02 -0.86405147937E+02  0.21355092480E+03  0.25267831254E+03  0.91325891385E+02 0.  0.
          5    1    1    2  502    0 -0.66413135561E+02  0.53476160305E+02  0.24815197070E+03  0.26242575570E+03  0.41800000000E+01 0.  1.
         -5    1    1    2    0  502  0.17056635280E+02  0.32928987632E+02  0.59822382684E+01  0.37795589799E+02  0.41800000000E+01 0.  1.
        -11    1    3    3    0    0  0.18438489834E+02  0.88353043296E+01  0.96492970997E+02  0.98635358578E+02  0.00000000000E+00 0.  1.
         11    1    3    3    0    0  0.30918010447E+02 -0.95240452267E+02  0.11705795380E+03  0.15404295396E+03  0.00000000000E+00 0. -1.
</event>
<event>
 7    1  0.6684706E-006  0.1776595E+03  0.7561462E-02  0.1170088E+00
          1   -1    0    0  501    0  0.00000000000E+00  0.00000000000E+00  0.16849898463E+03  0.16849898463E+03  0.00000000000E+00 0. -1.
         -1   -1    0    0    0  501 -0.00000000000E+00 -0.00000000000E+00 -0.25881451593E+03  0.25881451593E+03  0.00000000000E+00 0.  1.
         23    2    1    2    0    0  0.38534159475E+02 -0.17213525836E+03 -0.70080197843E+02  0.21011282291E+03  0.90115124165E+02 0.  0.
          5    1    1    2  502    0 -0.88530880663E+01  0.10838061639E+02 -0.48565379776E+02  0.50713994728E+02  0.41800000000E+01 0.  1.
         -5    1    1    2    0  502 -0.29681071408E+02  0.16129719672E+03  0.28330046313E+02  0.16648668293E+03  0.41800000000E+01 0.  1.
        -11    1    3    3    0    0  0.15526010479E+02 -0.91237170272E+02 -0.83852885104E+02  0.12488628660E+03  0.00000000000E+00 0.  1.
         11    1    3    3    0    0  0.23008148995E+02 -0.80898088086E+02  0.13772687261E+02  0.85226536305E+02  0.00000000000E+00 0. -1.
</event>
<event>
 7    1  0.6684706E-006  0.1078894E+03  0.7561462E-02  0.1264529E+00
          1   -1    0    0  501    0  0.00000000000E+00  0.00000000000E+00  0.44029412459E+03  0.44029412459E+03  0.00000000000E+00 0. -1.
         -1   -1    0    0    0  501 -0.00000000000E+00 -0.00000000000E+00 -0.51266989575E+02  0.51266989575E+02  0.00000000000E+00 0.  1.
         23    2    1    2    0    0  0.46311650291E+02  0.32362337332E+02  0.41102525221E+02  0.11754145952E+03  0.94522416902E+02 0.  0.
          5    1    1    2  502    0 -0.71416575826E+02  0.23199323241E+02  0.17001317063E+03  0.18590450906E+03  0.41800000000E+01 0.  1.
         -5    1    1    2    0  502  0.25104925535E+02 -0.55561660573E+02  0.17791143917E+03  0.18811514558E+03  0.41800000000E+01 0.  1.
        -11    1    3    3    0    0  0.45305355725E+02 -0.17430832324E+01  0.62540071863E+02  0.77245544759E+02  0.00000000000E+00 0. -1.
         11    1    3    3    0    0  0.10062945652E+01  0.34105420564E+02 -0.21437546641E+02  0.40295914763E+02  0.00000000000E+00 0.  1.
</event>
<event>
 7    1  0.6684706E-006  0.3127935E+03  0.7561462E-02  0.1079015E+00
          1   -1    0    0  501    0  0.00000000000E+00  0.00000000000E+00  0.25911949410E+04  0.25911949410E+04  0.00000000000E+00 0. -1.
         -1   -1    0    0    0  501 -0.00000000000E+00 -0.00000000000E+00 -0.39451348750E+02  0.39451348750E+02  0.00000000000E+00 0.  1.
         23    2    1    2    0    0 -0.11238667848E+02  0.29674426974E+03  0.14397293635E+04  0.14728869099E+04  0.91606439091E+02 0.  0.
          5    1    1    2  502    0 -0.46006783263E+02 -0.48916741487E+02  0.20598383960E+03  0.21669399226E+03  0.41800000000E+01 0. -1.
         -5    1    1    2    0  502  0.57245451111E+02 -0.24782752825E+03  0.90603038911E+03  0.94106538764E+03  0.41800000000E+01 0. -1.
        -11    1    3    3    0    0 -0.33502642844E+02  0.24891650019E+03  0.12876690099E+04  0.13119349566E+04  0.00000000000E+00 0. -1.
         11    1    3    3    0    0  0.22263974996E+02  0.47827769551E+02  0.15206035360E+03  0.16095195326E+03  0.00000000000E+00 0.  1.
</event>
<event>
 7    1  0.6684706E-006  0.2266178E+03  0.7561462E-02  0.1129043E+00
          1   -1    0    0  501    0  0.00000000000E+00  0.00000000000E+00  0.64576031691E+03  0.64576031691E+03  0.00000000000E+00 0. -1.
         -1   -1    0    0    0  501 -0.00000000000E+00 -0.00000000000E+00 -0.89367019603E+02  0.89367019603E+02  0.00000000000E+00 0.  1.
         23    2    1    2    0    0 -0.18877129687E+03 -0.10327369318E+03  0.26163829261E+03  0.34933168815E+03  0.85311042446E+02 0.  0.
          5    1    1    2  502    0  0.19801893876E+03  0.82951644086E+02  0.21900617723E+03  0.30671428632E+03  0.41800000000E+01 0.  1.
         -5    1    1    2    0  502 -0.92476418988E+01  0.20322049095E+02  0.75748827466E+02  0.79081362043E+02  0.41800000000E+01 0.  1.
        -11    1    3    3    0    0 -0.83942984899E+02 -0.55170230478E+02  0.18603878644E+03  0.21142518559E+03  0.00000000000E+00 0. -1.
         11    1    3    3    0    0 -0.10482831197E+03 -0.48103462703E+02  0.75599506172E+02  0.13790650256E+03  0.00000000000E+00 0.  1.
</event>
<event>
 7    1  0.6684706E-006  0.1226465E+03  0.7561462E-02  0.1238794E+00
         -2   -1    0    0    0  501 -0.00000000000E+00  0.00000000000E+00  0.54720080431E+02  0.54720080431E+02  0.00000000000E+00 0.  1.
          2   -1    0    0  501    0  0.00000000000E+00 -0.00000000000E+00 -0.52619968449E+03  0.52619968449E+03  0.00000000000E+00 0. -1.
         23    2    1    2    0    0  0.47151861465E+02 -0.75919756878E+02 -0.57550975975E+02  0.13936270516E+03  0.90126251620E+02 0.  0.
          5    1    1    2  502    0  0.10112912341E+02  0.88661816212E+02 -0.30437914976E+03  0.31721810771E+03  0.41800000000E+01 0. -1.
         -5    1    1    2    0  502 -0.57264773805E+02 -0.12742059333E+02 -0.10954947832E+03  0.12433895204E+03  0.41800000000E+01 0. -1.
        -11    1    3    3    0    0 -0.62802127662E+01 -0.14088664097E+02  0.20970595471E+02  0.26032621897E+02  0.00000000000E+00 0.  1.
         11    1    3    3    0    0  0.53432074231E+02 -0.61831092781E+02 -0.78521571445E+02  0.11333008327E+03  0.00000000000E+00 0. -1.
</event>
<event>
 7    1  0.6684706E-006  0.9859698E+02  0.7561462E-02  0.1283274E+00
         -2   -1    0    0    0  501 -0.00000000000E+00  0.00000000000E+00  0.69633472632E+02  0.69633472632E+02  0.00000000000E+00 0.  1.
          2   -1    0    0  501    0  0.00000000000E+00 -0.00000000000E+00 -0.31416454205E+03  0.31416454205E+03  0.00000000000E+00 0. -1.
         23    2    1    2    0    0 -0.39064499236E+01  0.85915411702E+01  0.19851766187E+02  0.93983746152E+02  0.91377114145E+02 0.  0.
          5    1    1    2  502    0  0.38571294210E+02 -0.43595900531E+02 -0.20173719949E+03  0.21000885062E+03  0.41800000000E+01 0. -1.
         -5    1    1    2    0  502 -0.34664844286E+02  0.35004359361E+02 -0.62645636120E+02  0.79805417915E+02  0.41800000000E+01 0.  1.
        -11    1    3    3    0    0  0.12650247179E+02  0.46413356755E+02  0.21436390454E+02  0.52666377079E+02  0.00000000000E+00 0.  1.
         11    1    3    3    0    0 -0.16556697103E+02 -0.37821815584E+02 -0.15846242669E+01  0.41317369073E+02  0.00000000000E+00 0. -1.
</event>
<event>
 7    1  0.6684706E-006  0.1738887E+03  0.7561462E-02  0.1173852E+00
         -2   -1    0    0    0  501 -0.00000000000E+00  0.00000000000E+00  0.45584249512E+03  0.45584249512E+03  0.00000000000E+00 0.  1.
          2   -1    0    0  501    0  0.00000000000E+00 -0.00000000000E+00 -0.10333549520E+03  0.10333549520E+03  0.00000000000E+00 0. -1.
         23    2    1    2    0    0 -0.61566849514E+02  0.15163715358E+03  0.28191975514E+03  0.34143000067E+03  0.10154503292E+03 0.  0.
          5    1    1    2  502    0  0.10762385576E+02  0.54193133198E+01  0.49699587667E+02  0.51310031323E+02  0.41800000000E+01 0.  1.
         -5    1    1    2    0  502  0.50804463938E+02 -0.15705646690E+03  0.20887657116E+02  0.16643795833E+03  0.41800000000E+01 0.  1.
        -11    1    3    3    0    0 -0.13691632375E+02  0.93918733474E+02  0.23379674889E+03  0.25232738473E+03  0.00000000000E+00 0.  1.
         11    1    3    3    0    0 -0.47875217138E+02  0.57718420110E+02  0.48123006256E+02  0.89102615939E+02  0.00000000000E+00 0. -1.
</event>
<event>
 7    1  0.6684706E-006  0.7518284E+02  0.7561462E-02  0.1343306E+00
         -3   -1    0    0    0  501 -0.00000000000E+00  0.00000000000E+00  0.17526289190E+03  0.17526289190E+03  0.00000000000E+00 0.  1.
          3   -1    0    0  501    0  0.00000000000E+00 -0.00000000000E+00 -0.70956779213E+02  0.70956779213E+02  0.00000000000E+00 0. -1.
         23    2    1    2    0    0  0.76015710166E+01  0.81879583340E+01  0.69827288679E+02  0.11598392412E+03  0.91932550639E+02 0.  0.
          5    1    1    2  502    0  0.17591853131E+02 -0.50152130520E+02  0.55361304086E+02  0.76857373637E+02  0.41800000000E+01 0.  1.
         -5    1    1    2    0  502 -0.25193424148E+02  0.41964172186E+02 -0.20882480078E+02  0.53378373353E+02  0.41800000000E+01 0.  1.
        -11    1    3    3    0    0  0.23511808710E+02  0.17666917147E+02  0.86315246348E+02  0.91187975426E+02  0.00000000000E+00 0.  1.
         11    1    3    3    0    0 -0.15910237693E+02 -0.94789588131E+01 -0.16487957669E+02  0.24795948696E+02  0.00000000000E+00 0. -1.
</event>
<event>
 7    1  0.6684706E-006  0.1295831E+03  0.7561462E-02  0.1228076E+00
         -1   -1    0    0    0  501 -0.00000000000E+00  0.00000000000E+00  0.19804769797E+02  0.19804769797E+02  0.00000000000E+00 0.  1.
          1   -1    0    0  501    0  0.00000000000E+00 -0.00000000000E+00 -0.10037525304E+04  0.10037525304E+04  0.00000000000E+00 0. -1.
         23    2    1    2    0    0  0.48395024862E+02 -0.73619119620E+02 -0.51485191279E+03  0.53014178312E+03  0.90641959943E+02 0.  0.
          5    1    1    2  502    0 -0.37495939199E+02 -0.24032784322E+02 -0.23951838488E+03  0.24365969973E+03  0.41800000000E+01 0. -1.
         -5    1    1    2    0  502 -0.10899085663E+02  0.97651903941E+02 -0.22957746298E+03  0.24975581739E+03  0.41800000000E+01 0. -1.
        -11    1    3    3    0    0 -0.20159119016E+02 -0.97600036662E+01 -0.37474413266E+02  0.43657523988E+02  0.00000000000E+00 0.  1.
         11    1    3    3    0    0  0.68554143878E+02 -0.63859115953E+02 -0.47737749952E+03  0.48648425913E+03  0.00000000000E+00 0. -1.
</event>
<event>
 7    1  0.6684706E-006  0.1035025E+03  0.7561462E-02  0.1273099E+00
          1   -1    0    0  501    0  0.00000000000E+00  0.00000000000E+00  0.62301835733E+03  0.62301835733E+03  0.00000000000E+00 0. -1.
         -1   -1    0    0    0  501 -0.00000000000E+00 -0.00000000000E+00 -0.38263987737E+02  0.38263987737E+02  0.00000000000E+00 0.  1.
         23    2    1    2    0    0  0.10187391598E+03  0.14059552212E+02  0.34787204383E+03  0.37433763828E+03  0.92399906863E+02 0.  0.
          5    1    1    2  502    0 -0.33394507056E+02 -0.50293451568E+01  0.20994989845E+03  0.21268972630E+03  0.41800000000E+01 0.  1.
         -5    1    1    2    0  502 -0.68479408925E+02 -0.90302070556E+01  0.26932427311E+02  0.74254980486E+02  0.41800000000E+01 0.  1.
        -11    1    3    3    0    0  0.26757527997E+02 -0.24459387253E+01  0.11399243470E+02  0.29187166228E+02  0.00000000000E+00 0.  1.
         11    1    3    3    0    0  0.75116387984E+02  0.16505490938E+02  0.33647280036E+03  0.34515047205E+03  0.00000000000E+00 0. -1.
</event>
<event>
 7    1  0.6684706E-006  0.1203592E+03  0.7561462E-02  0.1242506E+00
          2   -1    0    0  501    0  0.00000000000E+00  0.00000000000E+00  0.16769825433E+04  0.16769825433E+04  0.00000000000E+00 0. -1.
         -2   -1    0    0    0  501 -0.00000000000E+00 -0.00000000000E+00 -0.11255748380E+02  0.11255748380E+02  0.00000000000E+00 0.  1.
         23    2    1    2    0    0  0.66419052460E+02 -0.22063532665E+02  0.46839664111E+03  0.48235959149E+03  0.91526346477E+02 0.  0.
          5    1    1    2  502    0  0.29777588646E+02 -0.63211789924E+01  0.11961570079E+03  0.12349919176E+03  0.41800000000E+01 0. -1.
         -5    1    1    2    0  502 -0.96196641107E+02  0.28384711657E+02  0.10777144530E+04  0.10823795084E+04  0.41800000000E+01 0. -1.
        -11    1    3    3    0    0  0.44707066702E+02 -0.54552490704E+02  0.36654529066E+03  0.37326953554E+03  0.00000000000E+00 0.  1.
         11    1    3    3    0    0  0.21711985758E+02  0.32488958039E+02  0.10185135044E+03  0.10909005595E+03  0.00000000000E+00 0. -1.
</event>
<event>
 7    1  0.6684706E-006  0.1160853E+03  0.7561462E-02  0.1249698E+00
          1   -1    0    0  501    0  0.00000000000E+00  0.00000000000E+00  0.34535882055E+03  0.34535882055E+03  0.00000000000E+00 0. -1.
         -1   -1    0    0    0  501 -0.00000000000E+00 -0.00000000000E+00 -0.15115236229E+03  0.15115236229E+03  0.00000000000E+00 0.  1.
         23    2    1    2    0    0  0.41620211724E+02  0.92976199162E+01 -0.10904289323E+03  0.16226978036E+03  0.11234963861E+03 0.  0.
          5    1    1    2  502    0 -0.77812966085E+02 -0.48762718744E+01  0.28026550436E+03  0.29093789897E+03  0.41800000000E+01 0. -1.
         -5    1    1    2    0  502  0.36192754362E+02 -0.44213480418E+01  0.22983847127E+02  0.43303503502E+02  0.41800000000E+01 0.  1.
        -11    1    3    3    0    0  0.74532893546E+02  0.27903271828E+02 -0.56772303540E+02  0.97759087804E+02  0.00000000000E+00 0.  1.
         11    1    3    3    0    0 -0.32912681823E+02 -0.18605651912E+02 -0.52270589690E+02  0.64510692558E+02  0.00000000000E+00 0. -1.
</event>
<event>
 7    1  0.6684706E-006  0.1997519E+03  0.7561462E-02  0.1149948E+00
         -1   -1    0    0    0  501 -0.00000000000E+00  0.00000000000E+00  0.19861671826E+03  0.19861671826E+03  0.00000000000E+00 0.  1.
          1   -1    0    0  501    0  0.00000000000E+00 -0.00000000000E+00 -0.26259407512E+03  0.26259407512E+03  0.00000000000E+00 0. -1.
         23    2    1    2    0    0 -0.43076052532E+02 -0.95135192129E+02  0.44881610561E+02  0.14561513148E+03  0.91011847945E+02 0.  0.
          5    1    1    2  502    0  0.15784365584E+03  0.39104725057E+02 -0.91504463018E+02  0.18663959484E+03  0.41800000000E+01 0. -1.
         -5    1    1    2    0  502 -0.11476760331E+03  0.56030467072E+02 -0.17354504405E+02  0.12895606706E+03  0.41800000000E+01 0.  1.
        -11    1    3    3    0    0 -0.23195402894E+02 -0.17900818200E+02  0.57820470801E+02  0.64820312027E+02  0.00000000000E+00 0.  1.
         11    1    3    3    0    0 -0.19880649638E+02 -0.77234373929E+02 -0.12938860240E+02  0.80794819454E+02  0.00000000000E+00 0. -1.
</event>
<event>
 7    1  0.6684706E-006  0.1333985E+03  0.7561462E-02  0.1222498E+00
          2   -1    0    0  501    0  0.00000000000E+00  0.00000000000E+00  0.28760410855E+03  0.28760410855E+03  0.00000000000E+00 0. -1.
         -2   -1    0    0    0  501 -0.00000000000E+00 -0.00000000000E+00 -0.78124218152E+02  0.78124218152E+02  0.00000000000E+00 0.  1.
         23    2    1    2    0    0 -0.10050893758E+03 -0.29248111019E+02  0.10890892270E+03  0.17410361094E+03  0.86564515628E+02 0.  0.
          5    1    1    2  502    0  0.10205271590E+02 -0.44233438934E+02  0.38227605390E+02  0.59494259404E+02  0.41800000000E+01 0.  1.
         -5    1    1    2    0  502  0.90303665989E+02  0.73481549952E+02  0.62343362308E+02  0.13213045636E+03  0.41800000000E+01 0.  1.
        -11    1    3    3    0    0 -0.64604999683E+02 -0.20118306704E+02  0.11794012123E+03  0.13597214584E+03  0.00000000000E+00 0. -1.
         11    1    3    3    0    0 -0.35903937896E+02 -0.91298043152E+01 -0.90311985326E+01  0.38131465094E+02  0.00000000000E+00 0.  1.
</event>
<event>
 7    1  0.6684706E-006  0.1290398E+03  0.7561462E-02  0.1228887E+00
         -1   -1    0    0    0  501 -0.00000000000E+00  0.00000000000E+00  0.83142041654E+02  0.83142041654E+02  0.00000000000E+00 0.  1.
          1   -1    0    0  501    0  0.00000000000E+00 -0.00000000000E+00 -0.24630382959E+03  0.24630382959E+03  0.00000000000E+00 0. -1.
         23    2    1    2    0    0 -0.40413905165E+02  0.64134749423E+02 -0.20083569196E+02  0.12483508216E+03  0.97128256296E+02 0.  0.
          5    1    1    2  502    0  0.82746587607E+01 -0.93716147088E+02 -0.63016092438E+02  0.11331234050E+03  0.41800000000E+01 0.  1.
         -5    1    1    2    0  502  0.32139246404E+02  0.29581397665E+02 -0.80062126303E+02  0.91298448592E+02  0.41800000000E+01 0.  1.
        -11    1    3    3    0    0  0.14865877415E+02  0.63004669575E+02  0.32627925871E+01  0.64816884490E+02  0.00000000000E+00 0.  1.
         11    1    3    3    0    0 -0.55279782580E+02  0.11300798483E+01 -0.23346361783E+02  0.60018197666E+02  0.00000000000E+00 0. -1.
</event>
<event>
 7    1  0.6684706E-006  0.1071998E+03  0.7561462E-02  0.1265845E+00
         -1   -1    0    0    0  501 -0.00000000000E+00  0.00000000000E+00  0.23252762987E+03  0.23252762987E+03  0.00000000000E+00 0.  1.
          1   -1    0    0  501    0  0.00000000000E+00 -0.00000000000E+00 -0.58265402536E+02  0.58265402536E+02  0.00000000000E+00 0. -1.
         23    2    1    2    0    0  0.28986107386E+02  0.91148471203E+00  0.11690210010E+03  0.15015620852E+03  0.89664712819E+02 0.  0.
          5    1    1    2  502    0  0.41699638874E+02  0.21640999782E+02  0.45212983807E+02  0.65336659377E+02  0.41800000000E+01 0.  1.
         -5    1    1    2    0  502 -0.70685746260E+02 -0.22552484494E+02  0.12147143429E+02  0.75300164506E+02  0.41800000000E+01 0.  1.
        -11    1    3    3    0    0 -0.29929184176E+02  0.13241433412E+02  0.53627424063E+02  0.62825092406E+02  0.00000000000E+00 0.  1.
         11    1    3    3    0    0  0.58915291562E+02 -0.12329948700E+02  0.63274676033E+02  0.87331116115E+02  0.00000000000E+00 0. -1.
</event>
<event>
 7    1  0.6684706E-006  0.1091886E+03  0.7561462E-02  0.1262080E+00
          1   -1    0    0  501    0  0.00000000000E+00  0.00000000000E+00  0.33894729351E+03  0.33894729351E+03  0.00000000000E+00 0. -1.
         -1   -1    0    0    0  501 -0.00000000000E+00 -0.00000000000E+00 -0.53608901740E+02  0.53608901740E+02  0.00000000000E+00 0.  1.
         23    2    1    2    0    0 -0.23018078068E+02  0.19942963681E+02  0.50890447514E+02  0.10905938608E+03  0.91523539736E+02 0.  0.
          5    1    1    2  502    0 -0.34831733748E+02 -0.48017448950E+02  0.25261838936E+02  0.64610819419E+02  0.41800000000E+01 0. -1.
         -5    1    1    2    0  502  0.57849811816E+02  0.28074485269E+02  0.20918610532E+03  0.21888598975E+03  0.41800000000E+01 0.  1.
        -11    1    3    3    0    0 -0.55978548149E+02  0.60435901611E-01  0.19136144505E+02  0.59159052831E+02  0.00000000000E+00 0. -1.
         11    1    3    3    0    0  0.32960470081E+02  0.19882527779E+02  0.31754303009E+02  0.49900333250E+02  0.00000000000E+00 0.  1.
</event>
<event>
 7    1  0.6684706E-006  0.1182928E+03  0.7561462E-02  0.1245940E+00
          1   -1    0    0  501    0  0.00000000000E+00  0.00000000000E+00  0.81953813181E+02  0.81953813181E+02  0.00000000000E+00 0. -1.
         -1   -1    0    0    0  501 -0.00000000000E+00 -0.00000000000E+00 -0.45976202258E+03  0.45976202258E+03  0.00000000000E+00 0.  1.
         23    2    1    2    0    0  0.73021362511E+02 -0.32455879152E+02 -0.38652479182E+03  0.40384749622E+03  0.85474452528E+02 0.  0.
          5    1    1    2  502    0 -0.11450963639E+02  0.63292807067E+02 -0.12572043493E+02  0.65670637824E+02  0.41800000000E+01 0.  1.
         -5    1    1    2    0  502 -0.61570398872E+02 -0.30836927915E+02  0.21288625914E+02  0.72197701721E+02  0.41800000000E+01 0. -1.
        -11    1    3    3    0    0 -0.30823286488E+01  0.13762239851E+02 -0.10928904543E+02  0.17842111706E+02  0.00000000000E+00 0. -1.
         11    1    3    3    0    0  0.76103691160E+02 -0.46218119003E+02 -0.37559588728E+03  0.38600538452E+03  0.00000000000E+00 0.  1.
</event>
<event>
 7    1  0.6684706E-006  0.1392554E+03  0.7561462E-02  0.1214334E+00
          2   -1    0    0  501    0  0.00000000000E+00  0.00000000000E+00  0.65363908882E+03  0.65363908882E+03  0.00000000000E+00 0. -1.
         -2   -1    0    0    0  501 -0.00000000000E+00 -0.00000000000E+00 -0.58011040417E+02  0.58011040417E+02  0.00000000000E+00 0.  1.
         23    2    1    2    0    0  0.12702848202E+03  0.35629606824E+02  0.11713195169E+03  0.19978169130E+03  0.93739671136E+02 0.  0.
          5    1    1    2  502    0 -0.66310611431E+02 -0.49246059252E+02  0.10731940044E+03  0.13548873625E+03  0.41800000000E+01 0.  1.
         -5    1    1    2    0  502 -0.60717870592E+02  0.13616452429E+02  0.37117669626E+03  0.37637970168E+03  0.41800000000E+01 0.  1.
        -11    1    3    3    0    0  0.13777783529E+02  0.10787608611E+02  0.74055652332E+02  0.76094937156E+02  0.00000000000E+00 0. -1.
         11    1    3    3    0    0  0.11325069849E+03  0.24841998213E+02  0.43076299363E+02  0.12368675415E+03  0.00000000000E+00 0.  1.
</event>
<event>
 7    1  0.6684706E-006  0.1075816E+03  0.7561462E-02  0.1265115E+00
         -1   -1    0    0    0  501 -0.00000000000E+00  0.00000000000E+00  0.20031890127E+03  0.20031890127E+03  0.00000000000E+00 0.  1.
          1   -1    0    0  501    0  0.00000000000E+00 -0.00000000000E+00 -0.94380976323E+02  0.94380976323E+02  0.00000000000E+00 0. -1.
         23    2    1    2    0    0  0.81985425626E+02  0.12372424357E+02  0.63139144220E+02  0.13864297430E+03  0.91436512898E+02 0.  0.
          5    1    1    2  502    0  0.22481517753E+01 -0.24989914333E+02  0.63413331537E+02  0.68324761408E+02  0.41800000000E+01 0. -1.
         -5    1    1    2    0  502 -0.84233577401E+02  0.12617489976E+02 -0.20614550806E+02  0.87732141887E+02  0.41800000000E+01 0. -1.
        -11    1    3    3    0    0  0.69913932482E+02  0.35463945390E+02  0.76348799219E+02  0.10942937686E+03  0.00000000000E+00 0.  1.
         11    1    3    3    0    0  0.12071493144E+02 -0.23091521032E+02 -0.13209654999E+02  0.29213597442E+02  0.00000000000E+00 0. -1.
</event>
<event>
 7    1  0.6684706E-006  0.1275765E+03  0.7561462E-02  0.1231097E+00
         -1   -1    0    0    0  501 -0.00000000000E+00  0.00000000000E+00  0.20447657310E+03  0.20447657310E+03  0.00000000000E+00 0.  1.
          1   -1    0    0  501    0  0.00000000000E+00 -0.00000000000E+00 -0.12586846900E+03  0.12586846900E+03  0.00000000000E+00 0. -1.
         23    2    1    2    0    0 -0.67289163038E+02 -0.40745325553E+02  0.12630934384E+03  0.17506701049E+03  0.92230118750E+02 0.  0.
          5    1    1    2  502    0  0.87191078417E+02  0.62399544031E+02 -0.10708080283E+02  0.10783377316E+03  0.41800000000E+01 0. -1.
         -5    1    1    2    0  502 -0.19901915379E+02 -0.21654218478E+02 -0.36993159451E+02  0.47444258450E+02  0.41800000000E+01 0. -1.
        -11    1    3    3    0    0  0.82921554443E+01 -0.41742351537E+02  0.27534601057E+02  0.50688637870E+02  0.00000000000E+00 0. -1.
         11    1    3    3    0    0 -0.75581318482E+02  0.99702598402E+00  0.98774742779E+02  0.12437837262E+03  0.00000000000E+00 0.  1.
</event>
<event>
 7    1  0.6684706E-006  0.1199873E+03  0.7561462E-02  0.1243118E+00
          1   -1    0    0  501    0  0.00000000000E+00  0.00000000000E+00  0.40943400756E+03  0.40943400756E+03  0.00000000000E+00 0. -1.
         -1   -1    0    0    0  501 -0.00000000000E+00 -0.00000000000E+00 -0.39364571074E+02  0.39364571074E+02  0.00000000000E+00 0.  1.
         23    2    1    2    0    0 -0.30100376231E+02 -0.50952766691E+02  0.11284109712E+03  0.15670923246E+03  0.91227480815E+02 0.  0.
          5    1    1    2  502    0  0.87790409983E+01 -0.39802820725E+02  0.48777631727E+02  0.63702950131E+02  0.41800000000E+01 0. -1.
         -5    1    1    2    0  502  0.21321335233E+02  0.90755587415E+02  0.20845070764E+03  0.22838639605E+03  0.41800000000E+01 0. -1.
        -11    1    3    3    0    0  0.24070820930E+02 -0.45194297065E+02  0.36321612212E+02  0.62778885153E+02  0.00000000000E+00 0.  1.
         11    1    3    3    0    0 -0.54171197161E+02 -0.57584696262E+01  0.76519484908E+02  0.93930347306E+02  0.00000000000E+00 0. -1.
</event>
<event>
 7    1  0.6684706E-006  0.2017455E+03  0.7561462E-02  0.1148275E+00
         -1   -1    0    0    0  501 -0.00000000000E+00  0.00000000000E+00  0.24729513472E+03  0.24729513472E+03  0.00000000000E+00 0.  1.
          1   -1    0    0  501    0  0.00000000000E+00 -0.00000000000E+00 -0.23533619780E+03  0.23533619780E+03  0.00000000000E+00 0. -1.
         23    2    1    2    0    0 -0.37788249210E+02 -0.19418455554E+03  0.88509101633E+02  0.23637457405E+03  0.94358278898E+02 0.  0.
          5    1    1    2  502    0  0.14805141511E+02  0.11566026437E+03  0.21333163885E+02  0.11861309056E+03  0.41800000000E+01 0. -1.
         -5    1    1    2    0  502  0.22983107699E+02  0.78524291163E+02 -0.97883328599E+02  0.12764366792E+03  0.41800000000E+01 0. -1.
        -11    1    3    3    0    0 -0.24474818361E+02 -0.24326663181E+02 -0.14329807522E+02  0.37365045951E+02  0.00000000000E+00 0. -1.
         11    1    3    3    0    0 -0.13313430849E+02 -0.16985789235E+03  0.10283890916E+03  0.19900952809E+03  0.00000000000E+00 0.  1.
</event>
<event>
 7    1  0.6684706E-006  0.1132264E+03  0.7561462E-02  0.1254709E+00
         -1   -1    0    0    0  501 -0.00000000000E+00  0.00000000000E+00  0.14862616523E+02  0.14862616523E+02  0.00000000000E+00 0.  1.
          1   -1    0    0  501    0  0.00000000000E+00 -0.00000000000E+00 -0.96790035438E+03  0.96790035438E+03  0.00000000000E+00 0. -1.
         23    2    1    2    0    0 -0.25404519964E+02 -0.23366078553E+02 -0.34661794944E+03  0.36261421422E+03  0.10076558051E+03 0.  0.
          5    1    1    2  502    0  0.59676409274E+02  0.50932200851E+02 -0.28220948761E+03  0.29294202533E+03  0.41800000000E+01 0. -1.
         -5    1    1    2    0  502 -0.34271889310E+02 -0.27566122299E+02 -0.32421030081E+03  0.32720673135E+03  0.41800000000E+01 0. -1.
        -11    1    3    3    0    0  0.11803589889E+02  0.33628519061E+02 -0.16133781274E+03  0.16522739436E+03  0.00000000000E+00 0. -1.
         11    1    3    3    0    0 -0.37208109854E+02 -0.56994597614E+02 -0.18528013670E+03  0.19738681985E+03  0.00000000000E+00 0.  1.
</event>
<event>
 7    1  0.6684706E-006  0.1423454E+03  0.7561462E-02  0.1210207E+00
          1   -1    0    0  501    0  0.00000000000E+00  0.00000000000E+00  0.56412082576E+02  0.56412082576E+02  0.00000000000E+00 0. -1.
         -1   -1    0    0    0  501 -0.00000000000E+00 -0.00000000000E+00 -0.49426273910E+03  0.49426273910E+03  0.00000000000E+00 0.  1.
         23    2    1    2    0    0 -0.82291417590E+02 -0.96261592719E+02 -0.21322775448E+03  0.26407245844E+03  0.90719437728E+02 0.  0.
          5    1    1    2  502    0  0.34620453211E+01  0.16223190178E+02  0.14465837556E+02  0.22403359425E+02  0.41800000000E+01 0.  1.
         -5    1    1    2    0  502  0.78829372269E+02  0.80038402541E+02 -0.23908873960E+03  0.26419900381E+03  0.41800000000E+01 0.  1.
        -11    1    3    3    0    0  0.10323974009E+02 -0.51089349746E+02 -0.60814839283E+02  0.80094636361E+02  0.00000000000E+00 0.  1.
         11    1    3    3    0    0 -0.92615391599E+02 -0.45172242973E+02 -0.15241291520E+03  0.18397782208E+03  0.00000000000E+00 0. -1.
</event>
<event>
 7    1  0.6684706E-006  0.7828808E+02  0.7561462E-02  0.1333981E+00
          1   -1    0    0  501    0  0.00000000000E+00  0.00000000000E+00  0.98147919845E+02  0.98147919845E+02  0.00000000000E+00 0. -1.
         -1   -1    0    0    0  501 -0.00000000000E+00 -0.00000000000E+00 -0.13276811070E+03  0.13276811070E+03  0.00000000000E+00 0.  1.
         23    2    1    2    0    0  0.30910530010E+02 -0.86104411723E+00 -0.21136016491E+02  0.10135579207E+03  0.94181012583E+02 0.  0.
          5    1    1    2  502    0 -0.31524235744E+02 -0.38964490591E+02  0.38927394078E+02  0.63598925903E+02  0.41800000000E+01 0.  1.
         -5    1    1    2    0  502  0.61370573456E+00  0.39825534708E+02 -0.52411568446E+02  0.65961312574E+02  0.41800000000E+01 0.  1.
        -11    1    3    3    0    0  0.38367520887E+02  0.20575709689E+02 -0.48915000937E+02  0.65483614782E+02  0.00000000000E+00 0.  1.
         11    1    3    3    0    0 -0.74569908775E+01 -0.21436753807E+02  0.27778984446E+02  0.35872177291E+02  0.00000000000E+00 0. -1.
</event>
<event>
 7    1  0.6684706E-006  0.9818627E+02  0.7561462E-02  0.1284157E+00
          2   -1    0    0  501    0  0.00000000000E+00  0.00000000000E+00  0.48907735342E+03  0.48907735342E+03  0.00000000000E+00 0. -1.
         -2   -1    0    0    0  501 -0.00000000000E+00 -0.00000000000E+00 -0.32604134192E+02  0.32604134192E+02  0.00000000000E+00 0.  1.
         23    2    1    2    0    0  0.16770050362E+02 -0.48733972108E+02  0.12258658431E+03  0.16140797763E+03  0.91481309369E+02 0.  0.
          5    1    1    2  502    0 -0.52251573971E+02  0.73813390798E+02  0.24631900334E+03  0.26242935706E+03  0.41800000000E+01 0.  1.
         -5    1    1    2    0  502  0.35481523609E+02 -0.25079418689E+02  0.87567631575E+02  0.97844152912E+02  0.41800000000E+01 0.  1.
        -11    1    3    3    0    0  0.26686159602E+02 -0.25425540824E+02  0.12991213696E+03  0.13503989251E+03  0.00000000000E+00 0. -1.
         11    1    3    3    0    0 -0.99161092402E+01 -0.23308431284E+02 -0.73255526468E+01  0.26368085121E+02  0.00000000000E+00 0.  1.
</event>
<event>
 7    1  0.6684706E-006  0.7177384E+02  0.7561462E-02  0.1354163E+00
         -1   -1    0    0    0  501 -0.00000000000E+00  0.00000000000E+00  0.39830611689E+02  0.39830611689E+02  0.00000000000E+00 0.  1.
          1   -1    0    0  501    0  0.00000000000E+00 -0.00000000000E+00 -0.30536493857E+03  0.30536493857E+03  0.00000000000E+00 0. -1.
         23    2    1    2    0    0  0.54615058640E+00  0.79600679685E+01 -0.10007812448E+03  0.13762083896E+03  0.94128653214E+02 0.  0.
          5    1    1    2  502    0  0.20881616918E+02 -0.41341736925E+02 -0.10644244462E+02  0.47706954182E+02  0.41800000000E+01 0. -1.
         -5    1    1    2    0  502 -0.21427767504E+02  0.33381668957E+02 -0.15481195795E+03  0.15986775712E+03  0.41800000000E+01 0. -1.
        -11    1    3    3    0    0  0.25957748007E+02  0.16012942462E+02  0.34702381204E+01  0.30696279261E+02  0.00000000000E+00 0.  1.
         11    1    3    3    0    0 -0.25411597420E+02 -0.80528744936E+01 -0.10354836260E+03  0.10692455970E+03  0.00000000000E+00 0. -1.
</event>
<event>
 7    1  0.6684706E-006  0.8763779E+02  0.7561462E-02  0.1308675E+00
          3   -1    0    0  501    0  0.00000000000E+00  0.00000000000E+00  0.30665645032E+03  0.30665645032E+03  0.00000000000E+00 0. -1.
         -3   -1    0    0    0  501 -0.00000000000E+00 -0.00000000000E+00 -0.39758901107E+02  0.39758901107E+02  0.00000000000E+00 0.  1.
         23    2    1    2    0    0 -0.25301190705E+02 -0.25899270063E+02  0.11630914468E+03  0.14732871050E+03  0.82867420394E+02 0.  0.
          5    1    1    2  502    0  0.27295006234E+02 -0.26512869345E+02  0.14035835794E+03  0.14548501864E+03  0.41800000000E+01 0. -1.
         -5    1    1    2    0  502 -0.19938155294E+01  0.52412139407E+02  0.10230046598E+02  0.53601622280E+02  0.41800000000E+01 0. -1.
        -11    1    3    3    0    0 -0.69992616651E+01  0.27266571060E+02  0.16118394744E+02  0.32438529719E+02  0.00000000000E+00 0.  1.
         11    1    3    3    0    0 -0.18301929040E+02 -0.53165841123E+02  0.10019074993E+03  0.11489018079E+03  0.00000000000E+00 0. -1.
</event>
<event>
 7    1  0.6684706E-006  0.1662674E+03  0.7561462E-02  0.1181797E+00
         -2   -1    0    0    0  501 -0.00000000000E+00  0.00000000000E+00  0.90689450378E+02  0.90689450378E+02  0.00000000000E+00 0.  1.
          2   -1    0    0  501    0  0.00000000000E+00 -0.00000000000E+00 -0.60057520133E+03  0.60057520133E+03  0.00000000000E+00 0. -1.
         23    2    1    2    0    0 -0.10086469152E+03  0.61726748893E+01 -0.29004517316E+02  0.13903081978E+03  0.90975375313E+02 0.  0.
          5    1    1    2  502    0  0.50982042519E+02  0.90471125523E+02 -0.40852668870E+03  0.42153970275E+03  0.41800000000E+01 0. -1.
         -5    1    1    2    0  502  0.49882648999E+02 -0.96643800412E+02 -0.72354544933E+02  0.13069412918E+03  0.41800000000E+01 0.  1.
        -11    1    3    3    0    0 -0.78032280869E+02  0.32838090068E+02  0.11491895483E+02  0.85436764210E+02  0.00000000000E+00 0.  1.
         11    1    3    3    0    0 -0.22832410649E+02 -0.26665415179E+02 -0.40496412799E+02  0.53594055568E+02  0.00000000000E+00 0. -1.
</event>
<event>
 6    1  0.4151366E-005  0.8211188E+02  0.7561462E-02  0.1323163E+00
          2   -1    0    0  501    0  0.00000000000E+00  0.00000000000E+00  0.19851654641E+04  0.19851654641E+04  0.00000000000E+00 0.  1.
         -2   -1    0    0    0  501 -0.00000000000E+00 -0.00000000000E+00 -0.99792592569E+01  0.99792592569E+01  0.00000000000E+00 0. -1.
          5    1    1    2  502    0  0.31000047795E+02  0.56269402631E+02  0.13748257891E+04  0.13763323259E+04  0.41800000000E+01 0.  1.
         -5    1    1    2    0  502 -0.33694649521E+02 -0.61873322524E+02  0.57696679047E+03  0.58126739729E+03  0.41800000000E+01 0. -1.
        -11    1    1    2    0    0 -0.10420413780E+02  0.10939729820E+02  0.10535998218E+02  0.18419282568E+02  0.00000000000E+00 0.  1.
         11    1    1    2    0    0  0.13115015506E+02 -0.53358099272E+01  0.12857627087E+02  0.19125717597E+02  0.00000000000E+00 0. -1.
</event>
<event>
 7    1  0.6684706E-006  0.9446723E+02  0.7561462E-02  0.1292381E+00
         -1   -1    0    0    0  501 -0.00000000000E+00  0.00000000000E+00  0.28574698555E+02  0.28574698555E+02  0.00000000000E+00 0.  1.
          1   -1    0    0  501    0  0.00000000000E+00 -0.00000000000E+00 -0.59618919000E+03  0.59618919000E+03  0.00000000000E+00 0. -1.
         23    2    1    2    0    0 -0.12915760387E+02  0.21120177796E+02 -0.89641604334E+02  0.13007326608E+03  0.90942611264E+02 0.  0.
          5    1    1    2  502    0  0.40500068246E+02 -0.58227720315E+02 -0.18710715859E+03  0.20014315911E+03  0.41800000000E+01 0. -1.
         -5    1    1    2    0  502 -0.27584307860E+02  0.37107542519E+02 -0.29086572852E+03  0.29454746337E+03  0.41800000000E+01 0. -1.
        -11    1    3    3    0    0  0.27658783301E+02  0.96444362094E+01  0.18315744348E+01  0.29349243745E+02  0.00000000000E+00 0.  1.
         11    1    3    3    0    0 -0.40574543688E+02  0.11475741586E+02 -0.91473178769E+02  0.10072402233E+03  0.00000000000E+00 0. -1.
</event>
<event>
 7    1  0.6684706E-006  0.9093280E+02  0.7561462E-02  0.1300608E+00
         -2   -1    0    0    0  501 -0.00000000000E+00  0.00000000000E+00  0.50697274102E+02  0.50697274102E+02  0.00000000000E+00 0.  1.
          2   -1    0    0  501    0  0.00000000000E+00 -0.00000000000E+00 -0.39205414734E+03  0.39205414734E+03  0.00000000000E+00 0. -1.
         23    2    1    2    0    0 -0.20913892302E+02 -0.70325855046E+02 -0.77245737811E+02  0.14144439305E+03  0.93040289854E+02 0.  0.
          5    1    1    2  502    0 -0.17379602500E+02 -0.90280337870E+01 -0.17421337540E+03  0.17536056725E+03  0.41800000000E+01 0. -1.
         -5    1    1    2    0  502  0.38293494802E+02  0.79353888833E+02 -0.89897760031E+02  0.12594646115E+03  0.41800000000E+01 0. -1.
        -11    1    3    3    0    0 -0.89135533391E+01 -0.40736100161E+02 -0.95822731906E+02  0.10450300110E+03  0.00000000000E+00 0. -1.
         11    1    3    3    0    0 -0.12000338963E+02 -0.29589754885E+02  0.18576994095E+02  0.36941391947E+02  0.00000000000E+00 0.  1.
</event>
<event>
 7    1  0.6684706E-006  0.1019722E+03  0.7561462E-02  0.1276202E+00
         -1   -1    0    0    0  501 -0.00000000000E+00  0.00000000000E+00  0.59268492685E+02  0.59268492685E+02  0.00000000000E+00 0.  1.
          1   -1    0    0  501    0  0.00000000000E+00 -0.00000000000E+00 -0.34690080344E+03  0.34690080344E+03  0.00000000000E+00 0. -1.
         23    2    1    2    0    0  0.32938115720E+02 -0.17390676035E+02 -0.22332326295E+02  0.10034084135E+03  0.90455494943E+02 0.  0.
          5    1    1    2  502    0 -0.30913085955E+02  0.73243669703E+02 -0.21936393371E+03  0.23336294018E+03  0.41800000000E+01 0. -1.
         -5    1    1    2    0  502 -0.20250297654E+01 -0.55852993668E+02 -0.45936050749E+02  0.72465514595E+02  0.41800000000E+01 0.  1.
        -11    1    3    3    0    0 -0.65340365949E+01 -0.26904273739E+02  0.25471654689E+02  0.37620988454E+02  0.00000000000E+00 0.  1.
         11    1    3    3    0    0  0.39472152315E+02  0.95135977040E+01 -0.47803980984E+02  0.62719852898E+02  0.00000000000E+00 0. -1.
</event>
<event>
 7    1  0.6684706E-006  0.6693361E+02  0.7561462E-02  0.1370842E+00
          2   -1    0    0  501    0  0.00000000000E+00  0.00000000000E+00  0.46498280008E+03  0.46498280008E+03  0.00000000000E+00 0. -1.
         -2   -1    0    0    0  501 -0.00000000000E+00 -0.00000000000E+00 -0.39699740156E+02  0.39699740156E+02  0.00000000000E+00 0.  1.
         23    2    1    2    0    0 -0.10655298443E+02  0.90269555041E+01  0.45041630631E+02  0.10415033836E+03  0.92862926833E+02 0.  0.
          5    1    1    2  502    0  0.18941039929E+02  0.11914846094E+02  0.34249910595E+01  0.23020197974E+02  0.41800000000E+01 0.  1.
         -5    1    1    2    0  502 -0.82857414861E+01 -0.20941801598E+02  0.37681643824E+03  0.37751200391E+03  0.41800000000E+01 0.  1.
        -11    1    3    3    0    0  0.38361407795E+02  0.79064617833E+01  0.38082265158E+02  0.54629375482E+02  0.00000000000E+00 0. -1.
         11    1    3    3    0    0 -0.49016706238E+02  0.11204937208E+01  0.69593654727E+01  0.49520962878E+02  0.00000000000E+00 0.  1.
</event>
<event>
 7    1  0.6684706E-006  0.9361358E+02  0.7561462E-02  0.1294330E+00
          2   -1    0    0  501    0  0.00000000000E+00  0.00000000000E+00  0.41999362329E+04  0.41999362329E+04  0.00000000000E+00 0. -1.
         -2   -1    0    0    0  501 -0.00000000000E+00 -0.00000000000E+00 -0.11071755498E+02  0.11071755498E+02  0.00000000000E+00 0.  1.
         23    2    1    2    0    0 -0.19754759318E+02  0.33260909162E+02  0.26771247611E+03  0.28780670408E+03  0.98316786230E+02 0.  0.
          5    1    1    2  502    0  0.22420791968E+02  0.18896043399E+02  0.26112818780E+03  0.26280250233E+03  0.41800000000E+01 0. -1.
         -5    1    1    2    0  502 -0.26660326498E+01 -0.52156952561E+02  0.36600238135E+04  0.36603987820E+04  0.41800000000E+01 0.  1.
        -11    1    3    3    0    0 -0.54087073646E+02 -0.43879161944E+01  0.15109934580E+03  0.16054805401E+03  0.00000000000E+00 0.  1.
         11    1    3    3    0    0  0.34332314328E+02  0.37648825356E+02  0.11661313030E+03  0.12725865007E+03  0.00000000000E+00 0. -1.
</event>
<event>
 7    1  0.6684706E-006  0.1278610E+03  0.7561462E-02  0.1230665E+00
          1   -1    0    0  501    0  0.00000000000E+00  0.00000000000E+00  0.72949993780E+03  0.72949993780E+03  0.00000000000E+00 0. -1.
         -1   -1    0    0    0  501 -0.00000000000E+00 -0.00000000000E+00 -0.31324231687E+02  0.31324231687E+02  0.00000000000E+00 0.  1.
         23    2    1    2    0    0  0.42220789974E+02  0.88557705261E+02  0.22486908004E+03  0.26153179990E+03  0.90596451009E+02 0.  0.
          5    1    1    2  502    0  0.24974767588E+02 -0.33563782502E+02  0.42427330657E+02  0.59731208749E+02  0.41800000000E+01 0.  1.
         -5    1    1    2    0  502 -0.67195557562E+02 -0.54993922759E+02  0.43087929542E+03  0.43956116084E+03  0.41800000000E+01 0.  1.
        -11    1    3    3    0    0 -0.18206262253E+02  0.54328501208E+02  0.61719400937E+02  0.84216022708E+02  0.00000000000E+00 0.  1.
         11    1    3    3    0    0  0.60427052227E+02  0.34229204053E+02  0.16314967910E+03  0.17731577719E+03  0.00000000000E+00 0. -1.
</event>
<event>
 7    1  0.6684706E-006  0.1064753E+03  0.7561462E-02  0.1267240E+00
         -2   -1    0    0    0  501 -0.00000000000E+00  0.00000000000E+00  0.44284094307E+03  0.44284094307E+03  0.00000000000E+00 0.  1.
          2   -1    0    0  501    0  0.00000000000E+00 -0.00000000000E+00 -0.44638816867E+02  0.44638816867E+02  0.00000000000E+00 0. -1.
         23    2    1    2    0    0 -0.71664107628E+02  0.50500096351E+02  0.21710715331E+03  0.25101519854E+03  0.90482649293E+02 0.  0.
          5    1    1    2  502    0 -0.10688390210E+02  0.14129476685E+02 -0.83132462891E+01  0.20011653118E+02  0.41800000000E+01 0.  1.
         -5    1    1    2    0  502  0.82352497837E+02 -0.64629573036E+02  0.18940821918E+03  0.21645290828E+03  0.41800000000E+01 0.  1.
        -11    1    3    3    0    0 -0.67776235035E+02  0.39808179001E+02  0.22421974419E+03  0.23759798575E+03  0.00000000000E+00 0.  1.
         11    1    3    3    0    0 -0.38878725930E+01  0.10691917350E+02 -0.71125908740E+01  0.13417212783E+02  0.00000000000E+00 0. -1.
</event>
<event>
 7    1  0.6684706E-006  0.1045299E+03  0.7561462E-02  0.1271049E+00
          1   -1    0    0  501    0  0.00000000000E+00  0.00000000000E+00  0.59795014429E+03  0.59795014429E+03  0.00000000000E+00 0. -1.
         -1   -1    0    0    0  501 -0.00000000000E+00 -0.00000000000E+00 -0.21118244926E+02  0.21118244926E+02  0.00000000000E+00 0.  1.
         23    2    1    2    0    0 -0.87275906766E+01  0.32343497096E+02  0.21911858662E+03  0.23863587988E+03  0.88384701851E+02 0.  0.
          5    1    1    2  502    0 -0.51087679379E+02 -0.28410656734E+02  0.10092012611E+03  0.11670244494E+03  0.41800000000E+01 0. -1.
         -5    1    1    2    0  502  0.59815270055E+02 -0.39328403625E+01  0.25679318664E+03  0.26373006440E+03  0.41800000000E+01 0. -1.
        -11    1    3    3    0    0 -0.43077177562E+02  0.35568563959E+02  0.99145993249E+02  0.11380111575E+03  0.00000000000E+00 0.  1.
         11    1    3    3    0    0  0.34349586886E+02 -0.32250668628E+01  0.11997259337E+03  0.12483476413E+03  0.00000000000E+00 0. -1.
</event>
<event>
 7    1  0.6684706E-006  0.8782045E+02  0.7561462E-02  0.1308217E+00
          3   -1    0    0  501    0  0.00000000000E+00  0.00000000000E+00  0.43615394488E+02  0.43615394488E+02  0.00000000000E+00 0. -1.
         -3   -1    0    0    0  501 -0.00000000000E+00 -0.00000000000E+00 -0.42614946851E+03  0.42614946851E+03  0.00000000000E+00 0.  1.
         23    2    1    2    0    0  0.61804013087E+02  0.52539234304E+02 -0.19772733874E+03  0.23231734226E+03  0.91077658359E+02 0.  0.
          5    1    1    2  502    0 -0.63428673598E+01  0.44709806982E+01  0.17737123420E+02  0.19806554016E+02  0.41800000000E+01 0. -1.
         -5    1    1    2    0  502 -0.55461145727E+02 -0.57010215002E+02 -0.20254385869E+03  0.21764096672E+03  0.41800000000E+01 0. -1.
        -11    1    3    3    0    0  0.22523092423E+02  0.40072033252E+02 -0.20448049926E+02  0.50310836676E+02  0.00000000000E+00 0. -1.
         11    1    3    3    0    0  0.39280920664E+02  0.12467201052E+02 -0.17727928882E+03  0.18200650558E+03  0.00000000000E+00 0.  1.
</event>
<event>
 7    1  0.6684706E-006  0.1453411E+03  0.7561462E-02  0.1206318E+00
          1   -1    0    0  501    0  0.00000000000E+00  0.00000000000E+00  0.98798401227E+03  0.98798401227E+03  0.00000000000E+00 0. -1.
         -1   -1    0    0    0  501 -0.00000000000E+00 -0.00000000000E+00 -0.24792436665E+02  0.24792436665E+02  0.00000000000E+00 0.  1.
         23    2    1    2    0    0  0.10359111173E+03  0.28949767070E+02  0.33805965837E+03  0.36624209322E+03  0.90993026059E+02 0.  0.
          5    1    1    2  502    0  0.14514132484E+02 -0.36746395555E+02  0.88819300755E+02  0.97300042213E+02  0.41800000000E+01 0. -1.
         -5    1    1    2    0  502 -0.11810524421E+03  0.77966284849E+01  0.53631261648E+03  0.54923431350E+03  0.41800000000E+01 0. -1.
        -11    1    3    3    0    0 -0.90688754126E+01  0.16944493094E+02  0.10914516702E+03  0.11082431065E+03  0.00000000000E+00 0.  1.
         11    1    3    3    0    0  0.11265998714E+03  0.12005273976E+02  0.22891449134E+03  0.25541778257E+03  0.00000000000E+00 0. -1.
</event>
<event>
 7    1  0.8927854E-006  0.2649228E+03  0.7561462E-02  0.1104221E+00
          2   -1    0    0  501    0  0.00000000000E+00  0.00000000000E+00  0.55453735764E+03  0.55453735764E+03  0.00000000000E+00 0. -1.
         -2   -1    0    0    0  501 -0.00000000000E+00 -0.00000000000E+00 -0.13142766024E+03  0.13142766024E+03  0.00000000000E+00 0.  1.
         23    2    1    2    0    0  0.23311315880E+03 -0.80412640941E+02  0.19927396469E+03  0.33021461307E+03  0.92323561753E+02 0.  0.
          5    1    1    2  502    0 -0.67248011214E+02  0.86535313407E+02  0.75910427039E+02  0.13338111115E+03  0.41800000000E+01 0.  1.
         -5    1    1    2    0  502 -0.16586514758E+03 -0.61226724662E+01  0.14792530568E+03  0.22236929365E+03  0.41800000000E+01 0.  1.
        -11    1    3    3    0    0  0.11736817416E+03 -0.72874188925E+02  0.64698111551E+02  0.15255091398E+03  0.00000000000E+00 0.  1.
         11    1    3    3    0    0  0.11574498463E+03 -0.75384520157E+01  0.13457585314E+03  0.17766369909E+03  0.00000000000E+00 0. -1.
</event>
<event>
 7    1  0.6684706E-006  0.1283589E+03  0.7561462E-02  0.1229911E+00
          4   -1    0    0  501    0  0.00000000000E+00  0.00000000000E+00  0.10151052782E+04  0.10151052782E+04  0.00000000000E+00 0. -1.
         -4   -1    0    0    0  501 -0.00000000000E+00 -0.00000000000E+00 -0.20257355595E+02  0.20257355595E+02  0.00000000000E+00 0.  1.
         23    2    1    2    0    0 -0.74897098354E+02  0.53587423654E+02  0.41541984991E+03  0.43547393004E+03  0.92642888171E+02 0.  0.
          5    1    1    2  502    0  0.10436231165E+03 -0.39386408886E+02  0.52075604530E+03  0.53258530999E+03  0.41800000000E+01 0. -1.
         -5    1    1    2    0  502 -0.29465213294E+02 -0.14201014768E+02  0.58672027431E+02  0.67303393805E+02  0.41800000000E+01 0. -1.
        -11    1    3    3    0    0 -0.31250275921E+01  0.38689444969E+02  0.52873731266E+02  0.65591694653E+02  0.00000000000E+00 0.  1.
         11    1    3    3    0    0 -0.71772070762E+02  0.14897978685E+02  0.36254611865E+03  0.36988223539E+03  0.00000000000E+00 0. -1.
</event>
<event>
 7    1  0.6684706E-006  0.1067413E+03  0.7561462E-02  0.1266726E+00
          4   -1    0    0  501    0  0.00000000000E+00  0.00000000000E+00  0.56054014424E+02  0.56054014424E+02  0.00000000000E+00 0. -1.
         -4   -1    0    0    0  501 -0.00000000000E+00 -0.00000000000E+00 -0.22887804787E+03  0.22887804787E+03  0.00000000000E+00 0.  1.
         23    2    1    2    0    0 -0.30741515291E+02  0.19601848307E+01 -0.81559635633E+02  0.12705617312E+03  0.92425179889E+02 0.  0.
          5    1    1    2  502    0 -0.44974450476E+02  0.19300827509E+02 -0.44520879186E+02  0.66293319586E+02  0.41800000000E+01 0. -1.
         -5    1    1    2    0  502  0.75715965767E+02 -0.21261012340E+02 -0.46743518625E+02  0.91582569582E+02  0.41800000000E+01 0. -1.
        -11    1    3    3    0    0 -0.22495721090E+02  0.40428523256E+02 -0.13078980860E+02  0.48078921581E+02  0.00000000000E+00 0. -1.
         11    1    3    3    0    0 -0.82457942003E+01 -0.38468338426E+02 -0.68480654772E+02  0.78977251543E+02  0.00000000000E+00 0.  1.
</event>
<event>
 7    1  0.6684706E-006  0.1306792E+03  0.7561462E-02  0.1226451E+00
          2   -1    0    0  501    0  0.00000000000E+00  0.00000000000E+00  0.63192867382E+03  0.63192867382E+03  0.00000000000E+00 0. -1.
         -2   -1    0    0    0  501 -0.00000000000E+00 -0.00000000000E+00 -0.35218543760E+02  0.35218543760E+02  0.00000000000E+00 0.  1.
         23    2    1    2    0    0 -0.93305178922E+02 -0.15767337496E+02  0.35656787429E+03  0.38031943475E+03  0.92454086592E+02 0.  0.
          5    1    1    2  502    0  0.67420078847E+02  0.57393452888E+02  0.80361930426E+02  0.11964525786E+03  0.41800000000E+01 0.  1.
         -5    1    1    2    0  502  0.25885100076E+02 -0.41626115392E+02  0.15978032534E+03  0.16718252497E+03  0.41800000000E+01 0.  1.
        -11    1    3    3    0    0 -0.59349836720E+02  0.30027082904E+02  0.12232344905E+03  0.13923740523E+03  0.00000000000E+00 0.  1.
         11    1    3    3    0    0 -0.33955342203E+02 -0.45794420401E+02  0.23424442524E+03  0.24108202952E+03  0.00000000000E+00 0. -1.
</event>
<event>
 7    1  0.6684706E-006  0.6628554E+02  0.7561462E-02  0.1373200E+00
         -2   -1    0    0    0  501 -0.00000000000E+00  0.00000000000E+00  0.55350113297E+02  0.55350113297E+02  0.00000000000E+00 0.  1.
          2   -1    0    0  501    0  0.00000000000E+00 -0.00000000000E+00 -0.22582608987E+03  0.22582608987E+03  0.00000000000E+00 0. -1.
         23    2    1    2    0    0 -0.94554591933E+00 -0.45932346334E+02 -0.59546048857E+02  0.10779038998E+03  0.77216330791E+02 0.  0.
          5    1    1    2  502    0  0.15668458294E+01  0.81192798476E+01 -0.13034238599E+03  0.13067129638E+03  0.41800000000E+01 0. -1.
         -5    1    1    2    0  502 -0.62129991009E+00  0.37813066487E+02  0.19412458270E+02  0.42714516815E+02  0.41800000000E+01 0. -1.
        -11    1    3    3    0    0  0.35434846985E+02 -0.21922724512E+02 -0.12161892119E+02  0.43406748908E+02  0.00000000000E+00 0. -1.
         11    1    3    3    0    0 -0.36380392904E+02 -0.24009621823E+02 -0.47384156738E+02  0.64383641072E+02  0.00000000000E+00 0.  1.
</event>
<event>
 7    1  0.6684706E-006  0.1047925E+03  0.7561462E-02  0.1270529E+00
         -2   -1    0    0    0  501 -0.00000000000E+00  0.00000000000E+00  0.25162174811E+02  0.25162174811E+02  0.00000000000E+00 0.  1.
          2   -1    0    0  501    0  0.00000000000E+00 -0.00000000000E+00 -0.11540884085E+04  0.11540884085E+04  0.00000000000E+00 0. -1.
         23    2    1    2    0    0 -0.64696766957E+02 -0.50453474052E+02 -0.16924167600E+03  0.20889275930E+03  0.90896728720E+02 0.  0.
          5    1    1    2  502    0  0.20639137411E+02  0.52111573066E+02 -0.85295499553E+03  0.85480482383E+03  0.41800000000E+01 0.  1.
         -5    1    1    2    0  502  0.44057629546E+02 -0.16580990140E+01 -0.10672956215E+03  0.11555300018E+03  0.41800000000E+01 0.  1.
        -11    1    3    3    0    0 -0.15168892927E+02 -0.57136808193E+02 -0.13754814025E+03  0.14971373033E+03  0.00000000000E+00 0. -1.
         11    1    3    3    0    0 -0.49527874030E+02  0.66833341406E+01 -0.31693535755E+02  0.59179028970E+02  0.00000000000E+00 0.  1.
</event>
<event>
 7    1  0.6684706E-006  0.9203856E+02  0.7561462E-02  0.1297989E+00
         -2   -1    0    0    0  501 -0.00000000000E+00  0.00000000000E+00  0.15511262470E+02  0.15511262470E+02  0.00000000000E+00 0. -1.
          2   -1    0    0  501    0  0.00000000000E+00 -0.00000000000E+00 -0.80772869772E+03  0.80772869772E+03  0.00000000000E+00 0.  1.
         23    2    1    2    0    0  0.12466737774E+02  0.96858032319E+01 -0.27028871832E+03  0.28629783203E+03  0.93065692051E+02 0.  0.
          5    1    1    2  502    0  0.30104855052E+02  0.21994963864E+02 -0.42248826568E+03  0.42415078424E+03  0.41800000000E+01 0.  1.
         -5    1    1    2    0  502 -0.42571592826E+02 -0.31680767096E+02 -0.99440451245E+02  0.11279134392E+03  0.41800000000E+01 0.  1.
        -11    1    3    3    0    0 -0.29506690571E+02  0.33843610386E+02 -0.10871250929E+03  0.11761991510E+03  0.00000000000E+00 0. -1.
         11    1    3    3    0    0  0.41973428345E+02 -0.24157807154E+02 -0.16157620903E+03  0.16867791692E+03  0.00000000000E+00 0.  1.
</event>
<event>
 7    1  0.6684706E-006  0.1763556E+03  0.7561462E-02  0.1171377E+00
         -2   -1    0    0    0  501 -0.00000000000E+00  0.00000000000E+00  0.67403772965E+02  0.67403772965E+02  0.00000000000E+00 0.  1.
          2   -1    0    0  501    0  0.00000000000E+00 -0.00000000000E+00 -0.63008859860E+03  0.63008859860E+03  0.00000000000E+00 0. -1.
         23    2    1    2    0    0  0.10219399094E+03 -0.11951737862E+03 -0.15615556891E+03  0.24401591571E+03  0.10213319656E+03 0.  0.
          5    1    1    2  502    0 -0.11296648234E+02 -0.10313291956E+02 -0.15727593095E+03  0.15807330296E+03  0.41800000000E+01 0.  1.
         -5    1    1    2    0  502 -0.90897342706E+02  0.12983067058E+03 -0.24925332578E+03  0.29540315290E+03  0.41800000000E+01 0.  1.
        -11    1    3    3    0    0  0.48943780404E+01 -0.68073010056E+02 -0.98311701121E+02  0.11967907174E+03  0.00000000000E+00 0. -1.
         11    1    3    3    0    0  0.97299612900E+02 -0.51444368564E+02 -0.57843867790E+02  0.12433684397E+03  0.00000000000E+00 0.  1.
</event>
<event>
 7    1  0.6684706E-006  0.1202795E+03  0.7561462E-02  0.1242637E+00
         -1   -1    0    0    0  501 -0.00000000000E+00  0.00000000000E+00  0.44283442452E+02  0.44283442452E+02  0.00000000000E+00 0.  1.
          1   -1    0    0  501    0  0.00000000000E+00 -0.00000000000E+00 -0.76796724969E+03  0.76796724969E+03  0.00000000000E+00 0. -1.
         23    2    1    2    0    0  0.77210538662E+02 -0.48009041930E+02 -0.83234264404E+02  0.15450086047E+03  0.93146324291E+02 0.  0.
          5    1    1    2  502    0  0.28260673551E+02  0.31149674694E+02 -0.21154852910E+03  0.21572950764E+03  0.41800000000E+01 0. -1.
         -5    1    1    2    0  502 -0.10547121221E+03  0.16859367236E+02 -0.42890101373E+03  0.44202032403E+03  0.41800000000E+01 0.  1.
        -11    1    3    3    0    0  0.31192693448E+02 -0.14058847319E+02  0.17677852800E+02  0.38511579974E+02  0.00000000000E+00 0.  1.
         11    1    3    3    0    0  0.46017845214E+02 -0.33950194611E+02 -0.10091211720E+03  0.11598928050E+03  0.00000000000E+00 0. -1.
</event>
<event>
 7    1  0.6684706E-006  0.1074357E+03  0.7561462E-02  0.1265394E+00
         -1   -1    0    0    0  501 -0.00000000000E+00  0.00000000000E+00  0.43806348164E+02  0.43806348164E+02  0.00000000000E+00 0.  1.
          1   -1    0    0  501    0  0.00000000000E+00 -0.00000000000E+00 -0.37602909472E+03  0.37602909472E+03  0.00000000000E+00 0. -1.
         23    2    1    2    0    0 -0.13765550501E+02  0.28252013781E+02 -0.56068855271E+02  0.11504695494E+03  0.95417077333E+02 0.  0.
          5    1    1    2  502    0  0.61240440847E+02  0.89369739761E+01 -0.91932966020E+02  0.11090267688E+03  0.41800000000E+01 0.  1.
         -5    1    1    2    0  502 -0.47474890346E+02 -0.37188987757E+02 -0.18422092526E+03  0.19388581106E+03  0.41800000000E+01 0.  1.
        -11    1    3    3    0    0 -0.48018358776E+02  0.45956381590E-01 -0.63968904063E+01  0.48442595909E+02  0.00000000000E+00 0.  1.
         11    1    3    3    0    0  0.34252808275E+02  0.28206057399E+02 -0.49671964865E+02  0.66604359033E+02  0.00000000000E+00 0. -1.
</event>
<event>
 7    1  0.6684706E-006  0.2512599E+03  0.7561462E-02  0.1112511E+00
          1   -1    0    0  501    0  0.00000000000E+00  0.00000000000E+00  0.27847689811E+04  0.27847689811E+04  0.00000000000E+00 0. -1.
         -1   -1    0    0    0  501 -0.00000000000E+00 -0.00000000000E+00 -0.27715345428E+02  0.27715345428E+02  0.00000000000E+00 0.  1.
         23    2    1    2    0    0 -0.12048983067E+03 -0.19258622903E+03  0.74424827511E+03  0.78304099241E+03  0.87409644111E+02 0.  0.
          5    1    1    2  502    0  0.12349362463E+03  0.81738840130E+02  0.11915013232E+04  0.12006768045E+04  0.41800000000E+01 0. -1.
         -5    1    1    2    0  502 -0.30037939563E+01  0.11084738890E+03  0.82130403737E+03  0.82876652962E+03  0.41800000000E+01 0. -1.
        -11    1    3    3    0    0 -0.48409151408E+02 -0.15443655742E+03  0.49172664378E+03  0.51767672191E+03  0.00000000000E+00 0.  1.
         11    1    3    3    0    0 -0.72080679264E+02 -0.38149671613E+02  0.25252163133E+03  0.26536427049E+03  0.00000000000E+00 0. -1.
</event>
<event>
 7    1  0.6684706E-006  0.1216308E+03  0.7561462E-02  0.1240431E+00
          2   -1    0    0  501    0  0.00000000000E+00  0.00000000000E+00  0.87057342427E+03  0.87057342427E+03  0.00000000000E+00 0. -1.
         -2   -1    0    0    0  501 -0.00000000000E+00 -0.00000000000E+00 -0.18684686150E+02  0.18684686150E+02  0.00000000000E+00 0.  1.
         23    2    1    2    0    0 -0.11259389947E+02  0.61233546031E+02  0.28856440274E+03  0.30886371880E+03  0.90835352378E+02 0.  0.
          5    1    1    2  502    0  0.35550435800E+02  0.28592853587E+02  0.21531978346E+03  0.22013965184E+03  0.41800000000E+01 0. -1.
         -5    1    1    2    0  502 -0.24291045854E+02 -0.89826399618E+02  0.34800455192E+03  0.36025473978E+03  0.41800000000E+01 0. -1.
        -11    1    3    3    0    0  0.35323604514E+02  0.39210120131E+02  0.96282850155E+02  0.10979789520E+03  0.00000000000E+00 0.  1.
         11    1    3    3    0    0 -0.46582994461E+02  0.22023425899E+02  0.19228155258E+03  0.19906582360E+03  0.00000000000E+00 0. -1.
</event>
<event>
 7    1  0.6684706E-006  0.1206630E+03  0.7561462E-02  0.1242007E+00
          3   -1    0    0  501    0  0.00000000000E+00  0.00000000000E+00  0.38583082097E+02  0.38583082097E+02  0.00000000000E+00 0. -1.
         -3   -1    0    0    0  501 -0.00000000000E+00 -0.00000000000E+00 -0.39958882122E+03  0.39958882122E+03  0.00000000000E+00 0.  1.
         23    2    1    2    0    0  0.58114396368E+02  0.38950593768E+01 -0.19107814518E+03  0.21927442669E+03  0.90432085484E+02 0.  0.
          5    1    1    2  502    0 -0.85928417167E+02 -0.35140253553E+02 -0.13677423635E+03  0.16535777704E+03  0.41800000000E+01 0. -1.
         -5    1    1    2    0  502  0.27814020799E+02  0.31245194176E+02 -0.33153357593E+02  0.53539699586E+02  0.41800000000E+01 0. -1.
        -11    1    3    3    0    0  0.45181006448E+02 -0.40155140095E+02 -0.12455279543E+03  0.13844550361E+03  0.00000000000E+00 0.  1.
         11    1    3    3    0    0  0.12933389921E+02  0.44050199472E+02 -0.66525349747E+02  0.80828923086E+02  0.00000000000E+00 0. -1.
</event>
<event>
 7    1  0.6684706E-006  0.7638765E+02  0.7561462E-02  0.1339627E+00
         -1   -1    0    0    0  501 -0.00000000000E+00  0.00000000000E+00  0.30426017446E+03  0.30426017446E+03  0.00000000000E+00 0.  1.
          1   -1    0    0  501    0  0.00000000000E+00 -0.00000000000E+00 -0.39089939604E+02  0.39089939604E+02  0.00000000000E+00 0. -1.
         23    2    1    2    0    0  0.16342029692E+02 -0.78179906833E+01  0.11388411133E+03  0.14621135970E+03  0.89888753344E+02 0.  0.
          5    1    1    2  502    0  0.19882962772E+02  0.40131474790E+02  0.78602784388E+01  0.45663156424E+02  0.41800000000E+01 0.  1.
         -5    1    1    2    0  502 -0.36224992464E+02 -0.32313484107E+02  0.14342584509E+03  0.15147559794E+03  0.41800000000E+01 0.  1.
        -11    1    3    3    0    0  0.29846260802E+02 -0.23781272457E+02  0.11876033211E+03  0.12474119081E+03  0.00000000000E+00 0.  1.
         11    1    3    3    0    0 -0.13504231110E+02  0.15963281774E+02 -0.48762207730E+01  0.21470168884E+02  0.00000000000E+00 0. -1.
</event>
<event>
 7    1  0.6684706E-006  0.1443344E+03  0.7561462E-02  0.1207613E+00
          4   -1    0    0  501    0  0.00000000000E+00  0.00000000000E+00  0.29748602978E+03  0.29748602978E+03  0.00000000000E+00 0. -1.
         -4   -1    0    0    0  501 -0.00000000000E+00 -0.00000000000E+00 -0.18119018147E+03  0.18119018147E+03  0.00000000000E+00 0.  1.
         23    2    1    2    0    0  0.66271094834E+02  0.99993082990E+02 -0.11447497448E+03  0.19007747585E+03  0.92921754118E+02 0.  0.
          5    1    1    2  502    0  0.32531559997E+02 -0.84419377810E+01  0.77080210020E+02  0.84192635581E+02  0.41800000000E+01 0. -1.
         -5    1    1    2    0  502 -0.98802654830E+02 -0.91551145209E+02  0.15369061277E+03  0.20440609982E+03  0.41800000000E+01 0. -1.
        -11    1    3    3    0    0  0.39853692435E+02  0.63907446207E+02 -0.94239230343E+01  0.75903154129E+02  0.00000000000E+00 0. -1.
         11    1    3    3    0    0  0.26417402399E+02  0.36085636783E+02 -0.10505105144E+03  0.11417432172E+03  0.00000000000E+00 0.  1.
</event>
<event>
 7    1  0.6684706E-006  0.1532239E+03  0.7561462E-02  0.1196567E+00
         -1   -1    0    0    0  501 -0.00000000000E+00  0.00000000000E+00  0.18465865373E+03  0.18465865373E+03  0.00000000000E+00 0.  1.
          1   -1    0    0  501    0  0.00000000000E+00 -0.00000000000E+00 -0.17652901768E+03  0.17652901768E+03  0.00000000000E+00 0. -1.
         23    2    1    2    0    0  0.78749915733E+02 -0.79213978555E+02  0.91921446090E+02  0.17371727020E+03  0.96185934988E+02 0.  0.
          5    1    1    2  502    0 -0.10679280698E+03  0.30207927218E+02 -0.56990148381E+02  0.12483017224E+03  0.41800000000E+01 0.  1.
         -5    1    1    2    0  502  0.28042891242E+02  0.49006051338E+02 -0.26801661665E+02  0.62640228966E+02  0.41800000000E+01 0.  1.
        -11    1    3    3    0    0 -0.28569224361E+01  0.14341305094E+02  0.33417053416E+02  0.36476492383E+02  0.00000000000E+00 0.  1.
         11    1    3    3    0    0  0.81606838169E+02 -0.93555283650E+02  0.58504392674E+02  0.13724077782E+03  0.00000000000E+00 0. -1.
</event>
<event>
 7    1  0.6684706E-006  0.9894628E+02  0.7561462E-02  0.1282528E+00
          1   -1    0    0  501    0  0.00000000000E+00  0.00000000000E+00  0.41801901663E+03  0.41801901663E+03  0.00000000000E+00 0. -1.
         -1   -1    0    0    0  501 -0.00000000000E+00 -0.00000000000E+00 -0.36701220571E+02  0.36701220571E+02  0.00000000000E+00 0.  1.
         23    2    1    2    0    0 -0.29168056998E+02 -0.28097968693E+02  0.10861304884E+03  0.15197128826E+03  0.98276175567E+02 0.  0.
          5    1    1    2  502    0 -0.41309340916E+02  0.23404909682E+02  0.50015839488E+02  0.69089131155E+02  0.41800000000E+01 0.  1.
         -5    1    1    2    0  502  0.70477397914E+02  0.46930590110E+01  0.22268890773E+03  0.23365981778E+03  0.41800000000E+01 0.  1.
        -11    1    3    3    0    0  0.16049142041E+02 -0.30207772932E+02 -0.10430032509E+00  0.34206657017E+02  0.00000000000E+00 0.  1.
         11    1    3    3    0    0 -0.45217199039E+02  0.21098042389E+01  0.10871734916E+03  0.11776463124E+03  0.00000000000E+00 0. -1.
</event>
<event>
 7    1  0.6684706E-006  0.1525122E+03  0.7561462E-02  0.1197420E+00
          2   -1    0    0  501    0  0.00000000000E+00  0.00000000000E+00  0.24009382918E+03  0.24009382918E+03  0.00000000000E+00 0. -1.
         -2   -1    0    0    0  501 -0.00000000000E+00 -0.00000000000E+00 -0.12926782747E+03  0.12926782747E+03  0.00000000000E+00 0.  1.
         23    2    1    2    0    0 -0.10221298466E+03 -0.41024848670E+02 -0.30818916049E+02  0.15063038781E+03  0.98026403097E+02 0.  0.
          5    1    1    2  502    0  0.12582274825E+03  0.83819593270E+01  0.10737331591E+03  0.16567474940E+03  0.41800000000E+01 0. -1.
         -5    1    1    2    0  502 -0.23609763584E+02  0.32642889343E+02  0.34271601847E+02  0.53056519433E+02  0.41800000000E+01 0. -1.
        -11    1    3    3    0    0 -0.11457183444E+03 -0.23582079503E+02 -0.49591602204E+01  0.11707866155E+03  0.00000000000E+00 0. -1.
         11    1    3    3    0    0  0.12358849772E+02 -0.17442769168E+02 -0.25859755828E+02  0.33551726266E+02  0.00000000000E+00 0.  1.
</event>
<event>
 6    1  0.6684706E-006  0.8982340E+02  0.7561462E-02  0.1303280E+00
         -1   -1    0    0    0  501 -0.00000000000E+00  0.00000000000E+00  0.47780334534E+01  0.47780334534E+01  0.00000000000E+00 0.  1.
          1   -1    0    0  501    0  0.00000000000E+00 -0.00000000000E+00 -0.19756557922E+04  0.19756557922E+04  0.00000000000E+00 0. -1.
          5    1    1    2  502    0  0.79891147904E+02  0.52249131059E+01 -0.75133773153E+03  0.75560290792E+03  0.41800000000E+01 0. -1.
         -5    1    1    2    0  502 -0.56848094439E+02  0.16111866058E+02 -0.99012155580E+03  0.99189186192E+03  0.41800000000E+01 0.  1.
        -11    1    1    2    0    0 -0.64084253626E+01 -0.22664925073E+02 -0.14243724616E+03  0.14437152017E+03  0.00000000000E+00 0. -1.
         11    1    1    2    0    0 -0.16634628102E+02  0.13281459100E+01 -0.86981225224E+02  0.88567535616E+02  0.00000000000E+00 0.  1.
</event>
<event>
 7    1  0.6684706E-006  0.9160223E+02  0.7561462E-02  0.1299017E+00
          2   -1    0    0  501    0  0.00000000000E+00  0.00000000000E+00  0.79236419075E+03  0.79236419075E+03  0.00000000000E+00 0. -1.
         -2   -1    0    0    0  501 -0.00000000000E+00 -0.00000000000E+00 -0.18977932830E+02  0.18977932830E+02  0.00000000000E+00 0.  1.
         23    2    1    2    0    0 -0.52263844968E+02  0.27480132698E+02  0.28621193578E+03  0.30628481848E+03  0.91686698409E+02 0.  0.
          5    1    1    2  502    0 -0.54338154049E+01 -0.38064084180E+02  0.38676078948E+03  0.38868982690E+03  0.41800000000E+01 0. -1.
         -5    1    1    2    0  502  0.57697660373E+02  0.10583951482E+02  0.10041353266E+03  0.11636747820E+03  0.41800000000E+01 0.  1.
        -11    1    3    3    0    0  0.10628662502E+02  0.19650544728E+02  0.13063119769E+02  0.25879672965E+02  0.00000000000E+00 0.  1.
         11    1    3    3    0    0 -0.62892507470E+02  0.78295879700E+01  0.27314881601E+03  0.28040514551E+03  0.00000000000E+00 0. -1.
</event>
<event>
 7    1  0.6684706E-006  0.8860222E+02  0.7561462E-02  0.1306272E+00
          2   -1    0    0  501    0  0.00000000000E+00  0.00000000000E+00  0.60258231022E+03  0.60258231022E+03  0.00000000000E+00 0. -1.
         -2   -1    0    0    0  501 -0.00000000000E+00 -0.00000000000E+00 -0.22674310148E+02  0.22674310148E+02  0.00000000000E+00 0.  1.
         23    2    1    2    0    0  0.46088638910E+02 -0.33080819182E+01  0.24579289224E+03  0.26551303574E+03  0.89151108964E+02 0.  0.
          5    1    1    2  502    0 -0.42756312065E+02 -0.23982284991E+02  0.37589532192E+02  0.61916859943E+02  0.41800000000E+01 0.  1.
         -5    1    1    2    0  502 -0.33323268445E+01  0.27290366909E+02  0.29652557565E+03  0.29782672469E+03  0.41800000000E+01 0.  1.
        -11    1    3    3    0    0  0.33346654100E+02  0.41713698327E+02  0.13973184520E+03  0.14958950676E+03  0.00000000000E+00 0. -1.
         11    1    3    3    0    0  0.12741984810E+02 -0.45021780246E+02  0.10606104703E+03  0.11592352898E+03  0.00000000000E+00 0.  1.
</event>
<event>
 7    1  0.6684706E-006  0.1238717E+03  0.7561462E-02  0.1236843E+00
          2   -1    0    0  501    0  0.00000000000E+00  0.00000000000E+00  0.15238071419E+04  0.15238071419E+04  0.00000000000E+00 0. -1.
         -2   -1    0    0    0  501 -0.00000000000E+00 -0.00000000000E+00 -0.20827677214E+02  0.20827677214E+02  0.00000000000E+00 0.  1.
         23    2    1    2    0    0  0.86565129440E+02  0.52323567977E+02  0.28374061581E+03  0.31482895248E+03  0.91527344863E+02 0.  0.
          5    1    1    2  502    0 -0.18119224906E+02  0.22965742980E+02  0.70286290612E+03  0.70348380853E+03  0.41800000000E+01 0.  1.
         -5    1    1    2    0  502 -0.68445904534E+02 -0.75289310957E+02  0.51637594273E+03  0.52632205808E+03  0.41800000000E+01 0.  1.
        -11    1    3    3    0    0  0.60072334586E+02  0.27351652011E+01  0.63211117056E+02  0.87245698064E+02  0.00000000000E+00 0.  1.
         11    1    3    3    0    0  0.26492794855E+02  0.49588402776E+02  0.22052949876E+03  0.22758325442E+03  0.00000000000E+00 0. -1.
</event>
<event>
 7    1  0.6684706E-006  0.1607546E+03  0.7561462E-02  0.1187847E+00
         -1   -1    0    0    0  501 -0.00000000000E+00  0.00000000000E+00  0.16019476745E+03  0.16019476745E+03  0.00000000000E+00 0. -1.
          1   -1    0    0  501    0  0.00000000000E+00 -0.00000000000E+00 -0.23571256372E+03  0.23571256372E+03  0.00000000000E+00 0.  1.
         23    2    1    2    0    0  0.15122854761E+03  0.38488882634E+02  0.83684772614E+00  0.18183208826E+03  0.93331346864E+02 0.  0.
          5    1    1    2  502    0 -0.13582851417E+03 -0.24161170639E+02 -0.34342652515E+01  0.13806670129E+03  0.41800000000E+01 0. -1.
         -5    1    1    2    0  502 -0.15400033447E+02 -0.14327711995E+02 -0.72920378746E+02  0.76008541610E+02  0.41800000000E+01 0. -1.
        -11    1    3    3    0    0  0.13152236836E+03  0.16565844465E+02  0.34608613714E+02  0.13700480548E+03  0.00000000000E+00 0. -1.
         11    1    3    3    0    0  0.19706179252E+02  0.21923038169E+02 -0.33771765988E+02  0.44827282777E+02  0.00000000000E+00 0.  1.
</event>
<event>
 7    1  0.6684706E-006  0.2487077E+03  0.7561462E-02  0.1114124E+00
         -1   -1    0    0    0  501 -0.00000000000E+00  0.00000000000E+00  0.26847295072E+03  0.26847295072E+03  0.00000000000E+00 0.  1.
          1   -1    0    0  501    0  0.00000000000E+00 -0.00000000000E+00 -0.44806311233E+03  0.44806311233E+03  0.00000000000E+00 0. -1.
         23    2    1    2    0    0 -0.17162227608E+02  0.22971264711E+03  0.15445340458E+03  0.29192511427E+03  0.91115179043E+02 0.  0.
          5    1    1    2  502    0  0.61595612576E+02 -0.58453405123E+02 -0.10228049605E+03  0.13300222679E+03  0.41800000000E+01 0.  1.
         -5    1    1    2    0  502 -0.44433384969E+02 -0.17125924199E+03 -0.23176307014E+03  0.29160872200E+03  0.41800000000E+01 0.  1.
        -11    1    3    3    0    0  0.17015202433E+02  0.89127210825E+02  0.16910032142E+02  0.92299111644E+02  0.00000000000E+00 0. -1.
         11    1    3    3    0    0 -0.34177430041E+02  0.14058543629E+03  0.13754337244E+03  0.19962600262E+03  0.00000000000E+00 0.  1.
</event>
<event>
 7    1  0.6684706E-006  0.2212594E+03  0.7561462E-02  0.1132948E+00
          2   -1    0    0  501    0  0.00000000000E+00  0.00000000000E+00  0.25496799467E+03  0.25496799467E+03  0.00000000000E+00 0.  1.
         -2   -1    0    0    0  501 -0.00000000000E+00 -0.00000000000E+00 -0.20437585022E+03  0.20437585022E+03  0.00000000000E+00 0. -1.
         23    2    1    2    0    0  0.41656295716E+02 -0.19491503693E+03  0.93577606951E+01  0.22043784397E+03  0.93691818067E+02 0.  0.
          5    1    1    2  502    0 -0.72307786754E+02  0.10098976676E+03 -0.14946616306E+02  0.12517277162E+03  0.41800000000E+01 0. -1.
         -5    1    1    2    0  502  0.30651491038E+02  0.93925270171E+02  0.56181000055E+02  0.11373322930E+03  0.41800000000E+01 0. -1.
        -11    1    3    3    0    0  0.71039794926E+02 -0.13152461448E+03 -0.28452434735E+01  0.14951077582E+03  0.00000000000E+00 0. -1.
         11    1    3    3    0    0 -0.29383499211E+02 -0.63390422458E+02  0.12203004169E+02  0.70927068147E+02  0.00000000000E+00 0.  1.
</event>
<event>
 7    1  0.6684706E-006  0.1147393E+03  0.7561462E-02  0.1252037E+00
         -2   -1    0    0    0  501 -0.00000000000E+00  0.00000000000E+00  0.28027381717E+02  0.28027381717E+02  0.00000000000E+00 0.  1.
          2   -1    0    0  501    0  0.00000000000E+00 -0.00000000000E+00 -0.64786334511E+03  0.64786334511E+03  0.00000000000E+00 0. -1.
         23    2    1    2    0    0 -0.52328821689E+02 -0.39992098046E+02 -0.16569566477E+03  0.20025501737E+03  0.91155609656E+02 0.  0.
          5    1    1    2  502    0 -0.23552072301E+02  0.33167322944E+02 -0.51157848077E+02  0.65493276303E+02  0.41800000000E+01 0.  1.
         -5    1    1    2    0  502  0.75880893990E+02  0.68247751020E+01 -0.40298245054E+03  0.41014243316E+03  0.41800000000E+01 0.  1.
        -11    1    3    3    0    0 -0.49007697681E+01  0.28530574612E+02 -0.47734029066E+02  0.55826058100E+02  0.00000000000E+00 0.  1.
         11    1    3    3    0    0 -0.47428051921E+02 -0.68522672658E+02 -0.11796163570E+03  0.14442895927E+03  0.00000000000E+00 0. -1.
</event>
<event>
 7    1  0.6684706E-006  0.1181866E+03  0.7561462E-02  0.1246119E+00
          1   -1    0    0  501    0  0.00000000000E+00  0.00000000000E+00  0.76810372362E+02  0.76810372362E+02  0.00000000000E+00 0. -1.
         -1   -1    0    0    0  501 -0.00000000000E+00 -0.00000000000E+00 -0.18684766290E+03  0.18684766290E+03  0.00000000000E+00 0.  1.
         23    2    1    2    0    0 -0.34886454367E+02 -0.88215021201E+01 -0.56159292911E+02  0.12278600558E+03  0.10309051066E+03 0.  0.
          5    1    1    2  502    0 -0.43579727576E+02 -0.17581226491E+02 -0.22058440923E+02  0.52080124774E+02  0.41800000000E+01 0. -1.
         -5    1    1    2    0  502  0.78466181943E+02  0.26402728611E+02 -0.31819556700E+02  0.88791904898E+02  0.41800000000E+01 0. -1.
        -11    1    3    3    0    0  0.35233234723E+02 -0.82148207739E+01 -0.62458441060E+01  0.36713412781E+02  0.00000000000E+00 0. -1.
         11    1    3    3    0    0 -0.70119689090E+02 -0.60668134624E+00 -0.49913448805E+02  0.86072592804E+02  0.00000000000E+00 0.  1.
</event>
<event>
 7    1  0.6684706E-006  0.1110139E+03  0.7561462E-02  0.1258704E+00
          2   -1    0    0  501    0  0.00000000000E+00  0.00000000000E+00  0.66414526616E+03  0.66414526616E+03  0.00000000000E+00 0. -1.
         -2   -1    0    0    0  501 -0.00000000000E+00 -0.00000000000E+00 -0.25211929737E+02  0.25211929737E+02  0.00000000000E+00 0.  1.
         23    2    1    2    0    0 -0.39567838979E+02  0.30881667284E+02  0.17726055707E+03  0.20841245821E+03  0.97443093074E+02 0.  0.
          5    1    1    2  502    0 -0.74426104272E+01  0.43889535708E+02  0.12141770954E+03  0.12938862541E+03  0.41800000000E+01 0.  1.
         -5    1    1    2    0  502  0.47010449407E+02 -0.74771202992E+02  0.34025506980E+03  0.35155611227E+03  0.41800000000E+01 0.  1.
        -11    1    3    3    0    0 -0.55969494097E+02  0.41217513766E+02  0.67282798666E+02  0.96739044377E+02  0.00000000000E+00 0.  1.
         11    1    3    3    0    0  0.16401655118E+02 -0.10335846483E+02  0.10997775841E+03  0.11167341383E+03  0.00000000000E+00 0. -1.
</event>
<event>
 7    1  0.6684706E-006  0.1819377E+03  0.7561462E-02  0.1165941E+00
          1   -1    0    0  501    0  0.00000000000E+00  0.00000000000E+00  0.39112922171E+03  0.39112922171E+03  0.00000000000E+00 0. -1.
         -1   -1    0    0    0  501 -0.00000000000E+00 -0.00000000000E+00 -0.11358984115E+03  0.11358984115E+03  0.00000000000E+00 0.  1.
         23    2    1    2    0    0  0.14224479710E+02  0.16106817555E+03  0.37177605492E+02  0.18917739182E+03  0.90887943250E+02 0.  0.
          5    1    1    2  502    0  0.48489855459E+02 -0.11266317434E+03  0.12196556454E+03  0.17302406847E+03  0.41800000000E+01 0. -1.
         -5    1    1    2    0  502 -0.62714335169E+02 -0.48405001208E+02  0.11839621053E+03  0.14251760258E+03  0.41800000000E+01 0. -1.
        -11    1    3    3    0    0  0.40500815740E+01  0.81555078476E+02 -0.27516063943E+02  0.86167092100E+02  0.00000000000E+00 0.  1.
         11    1    3    3    0    0  0.10174398136E+02  0.79513097070E+02  0.64693669435E+02  0.10301029972E+03  0.00000000000E+00 0. -1.
</event>
<event>
 7    1  0.6684706E-006  0.9283768E+02  0.7561462E-02  0.1296122E+00
          2   -1    0    0  501    0  0.00000000000E+00  0.00000000000E+00  0.23933100263E+04  0.23933100263E+04  0.00000000000E+00 0. -1.
         -2   -1    0    0    0  501 -0.00000000000E+00 -0.00000000000E+00 -0.68988439130E+01  0.68988439130E+01  0.00000000000E+00 0.  1.
         23    2    1    2    0    0  0.35516190711E+01  0.17091103436E+02  0.42357583323E+03  0.43331193026E+03  0.89655019893E+02 0.  0.
          5    1    1    2  502    0 -0.26412219175E+01  0.38819238964E+02  0.15228648727E+04  0.15233675860E+04  0.41800000000E+01 0.  1.
         -5    1    1    2    0  502 -0.91039715363E+00 -0.55910342400E+02  0.43997047650E+03  0.44352935393E+03  0.41800000000E+01 0.  1.
        -11    1    3    3    0    0  0.18628994723E+02 -0.33143550597E+02  0.20810717278E+03  0.21155171886E+03  0.00000000000E+00 0. -1.
         11    1    3    3    0    0 -0.15077375652E+02  0.50234654033E+02  0.21546866045E+03  0.22176021140E+03  0.00000000000E+00 0.  1.
</event>
<event>
 7    1  0.9754347E-006  0.7656841E+02  0.7561462E-02  0.1339082E+00
          2   -1    0    0  501    0  0.00000000000E+00  0.00000000000E+00  0.32277852993E+04  0.32277852993E+04  0.00000000000E+00 0.  1.
         -2   -1    0    0    0  501 -0.00000000000E+00 -0.00000000000E+00 -0.63557944526E+01  0.63557944526E+01  0.00000000000E+00 0. -1.
         23    2    1    2    0    0  0.14400628226E+02 -0.33247192332E+02  0.47721008691E+03  0.48683325771E+03  0.89243486445E+02 0.  0.
          5    1    1    2  502    0  0.15722523119E+02  0.90031750302E+01  0.60187499269E+02  0.62994145459E+02  0.41800000000E+01 0. -1.
         -5    1    1    2    0  502 -0.30123151345E+02  0.24244017301E+02  0.26840319187E+04  0.26843136906E+04  0.41800000000E+01 0. -1.
        -11    1    3    3    0    0  0.50824006129E+02 -0.82870105335E+01  0.22813364438E+03  0.23387328586E+03  0.00000000000E+00 0.  1.
         11    1    3    3    0    0 -0.36423377902E+02 -0.24960181798E+02  0.24907644253E+03  0.25295997185E+03  0.00000000000E+00 0. -1.
</event>
<event>
 7    1  0.6684706E-006  0.1092406E+03  0.7561462E-02  0.1261983E+00
          2   -1    0    0  501    0  0.00000000000E+00  0.00000000000E+00  0.17633249618E+04  0.17633249618E+04  0.00000000000E+00 0.  1.
         -2   -1    0    0    0  501 -0.00000000000E+00 -0.00000000000E+00 -0.10511999836E+02  0.10511999836E+02  0.00000000000E+00 0. -1.
         23    2    1    2    0    0 -0.74987980684E+02  0.51803918563E+01  0.48184705787E+03  0.49452032123E+03  0.81998336708E+02 0.  0.
          5    1    1    2  502    0  0.95897427175E+02 -0.54872768125E+01  0.12235993964E+04  0.12273709228E+04  0.41800000000E+01 0. -1.
         -5    1    1    2    0  502 -0.20909446491E+02  0.30688495619E+00  0.47366507608E+02  0.51945717570E+02  0.41800000000E+01 0. -1.
        -11    1    3    3    0    0  0.11537708697E+02 -0.72055743472E+01  0.18286838986E+02  0.22791391001E+02  0.00000000000E+00 0. -1.
         11    1    3    3    0    0 -0.86525689381E+02  0.12385966204E+02  0.46356021889E+03  0.47172893023E+03  0.00000000000E+00 0.  1.
</event>
<event>
 7    1  0.6684706E-006  0.1376115E+03  0.7561462E-02  0.1216579E+00
         -1   -1    0    0    0  501 -0.00000000000E+00  0.00000000000E+00  0.28263878501E+03  0.28263878501E+03  0.00000000000E+00 0.  1.
          1   -1    0    0  501    0  0.00000000000E+00 -0.00000000000E+00 -0.78906703157E+02  0.78906703157E+02  0.00000000000E+00 0. -1.
         23    2    1    2    0    0 -0.80761819730E+02 -0.61698176562E+02  0.93487338023E+02  0.16627660480E+03  0.92622299771E+02 0.  0.
          5    1    1    2  502    0  0.35631971710E+02  0.81469250942E+02  0.18313691323E+02  0.90883111451E+02  0.41800000000E+01 0. -1.
         -5    1    1    2    0  502  0.45129848020E+02 -0.19771074381E+02  0.91931052505E+02  0.10438577192E+03  0.41800000000E+01 0. -1.
        -11    1    3    3    0    0 -0.62512718281E+02 -0.86028651032E+02  0.79643238045E+02  0.13286012988E+03  0.00000000000E+00 0.  1.
         11    1    3    3    0    0 -0.18249101449E+02  0.24330474471E+02  0.13844099977E+02  0.33416474916E+02  0.00000000000E+00 0. -1.
</event>
<event>
 7    1  0.6684706E-006  0.9993373E+02  0.7561462E-02  0.1280435E+00
          2   -1    0    0  501    0  0.00000000000E+00  0.00000000000E+00  0.43996564582E+03  0.43996564582E+03  0.00000000000E+00 0. -1.
         -2   -1    0    0    0  501 -0.00000000000E+00 -0.00000000000E+00 -0.41850139089E+02  0.41850139089E+02  0.00000000000E+00 0.  1.
         23    2    1    2    0    0  0.54502408923E+02  0.16382496352E+02  0.76433361111E+02  0.13200690869E+03  0.91350240757E+02 0.  0.
          5    1    1    2  502    0  0.17861111846E+02 -0.22410612975E+02  0.11413139117E+02  0.31128556581E+02  0.41800000000E+01 0.  1.
         -5    1    1    2    0  502 -0.72363520769E+02  0.60281166236E+01  0.31026900650E+03  0.31868031964E+03  0.41800000000E+01 0.  1.
        -11    1    3    3    0    0  0.27613670129E+02 -0.32338441527E+02  0.60816634595E+02  0.74208844634E+02  0.00000000000E+00 0. -1.
         11    1    3    3    0    0  0.26888738794E+02  0.48720937879E+02  0.15616726516E+02  0.57798064058E+02  0.00000000000E+00 0.  1.
</event>
<event>
 7    1  0.6684706E-006  0.9518194E+02  0.7561462E-02  0.1290767E+00
         -1   -1    0    0    0  501 -0.00000000000E+00  0.00000000000E+00  0.23748051691E+03  0.23748051691E+03  0.00000000000E+00 0.  1.
          1   -1    0    0  501    0  0.00000000000E+00 -0.00000000000E+00 -0.51542843541E+02  0.51542843541E+02  0.00000000000E+00 0. -1.
         23    2    1    2    0    0 -0.11822482279E+02 -0.20001909026E+02  0.88662585658E+02  0.12887098558E+03  0.90591552460E+02 0.  0.
          5    1    1    2  502    0 -0.54609399569E+02 -0.28670543505E+01  0.56824816324E+02  0.78974291210E+02  0.41800000000E+01 0.  1.
         -5    1    1    2    0  502  0.66431881848E+02  0.22868963376E+02  0.40450271390E+02  0.81178083663E+02  0.41800000000E+01 0.  1.
        -11    1    3    3    0    0 -0.72225356806E+01  0.21860710580E+02  0.83291989548E+02  0.86415341297E+02  0.00000000000E+00 0.  1.
         11    1    3    3    0    0 -0.45999465984E+01 -0.41862619605E+02  0.53705961099E+01  0.42455644283E+02  0.00000000000E+00 0. -1.
</event>
<event>
 7    1  0.6684706E-006  0.8336069E+02  0.7561462E-02  0.1319776E+00
          1   -1    0    0  501    0  0.00000000000E+00  0.00000000000E+00  0.51002635891E+03  0.51002635891E+03  0.00000000000E+00 0. -1.
         -1   -1    0    0    0  501 -0.00000000000E+00 -0.00000000000E+00 -0.24787286493E+02  0.24787286493E+02  0.00000000000E+00 0.  1.
         23    2    1    2    0    0  0.26881043462E+02  0.17037107942E+02  0.20810651633E+03  0.22909840133E+03  0.90359846203E+02 0.  0.
          5    1    1    2  502    0 -0.57376286229E+02 -0.31430830483E+02  0.70347824173E+02  0.96157288294E+02  0.41800000000E+01 0.  1.
         -5    1    1    2    0  502  0.30495242766E+02  0.14393722542E+02  0.20678473191E+03  0.20955795578E+03  0.41800000000E+01 0.  1.
        -11    1    3    3    0    0 -0.59638888679E+01 -0.18119093615E+02  0.41204327199E+01  0.19515314234E+02  0.00000000000E+00 0.  1.
         11    1    3    3    0    0  0.32844932330E+02  0.35156201557E+02  0.20398608361E+03  0.20958308709E+03  0.00000000000E+00 0. -1.
</event>
<event>
 7    1  0.6684706E-006  0.1128961E+03  0.7561462E-02  0.1255299E+00
         -1   -1    0    0    0  501 -0.00000000000E+00  0.00000000000E+00  0.74117426060E+03  0.74117426060E+03  0.00000000000E+00 0.  1.
          1   -1    0    0  501    0  0.00000000000E+00 -0.00000000000E+00 -0.18814677723E+02  0.18814677723E+02  0.00000000000E+00 0. -1.
         23    2    1    2    0    0 -0.43509753975E+02  0.14944110356E+02  0.29152741055E+03  0.30901205706E+03  0.91563066668E+02 0.  0.
          5    1    1    2  502    0 -0.40186760463E+02  0.16289396875E+02  0.12760050697E+03  0.13483205088E+03  0.41800000000E+01 0.  1.
         -5    1    1    2    0  502  0.83696514438E+02 -0.31233507231E+02  0.30323166536E+03  0.31614483039E+03  0.41800000000E+01 0.  1.
        -11    1    3    3    0    0 -0.43087320907E+02  0.45252846167E+02  0.12498856636E+03  0.13973717841E+03  0.00000000000E+00 0. -1.
         11    1    3    3    0    0 -0.42243306760E+00 -0.30308735810E+02  0.16653884419E+03  0.16927487864E+03  0.00000000000E+00 0.  1.
</event>
<event>
 7    1  0.6684706E-006  0.1067020E+03  0.7561462E-02  0.1266802E+00
          2   -1    0    0  501    0  0.00000000000E+00  0.00000000000E+00  0.97721106111E+02  0.97721106111E+02  0.00000000000E+00 0.  1.
         -2   -1    0    0    0  501 -0.00000000000E+00 -0.00000000000E+00 -0.12530693764E+03  0.12530693764E+03  0.00000000000E+00 0. -1.
         23    2    1    2    0    0 -0.41283070737E+01  0.16516569654E+02 -0.27300378290E+02  0.96783867246E+02  0.91279605126E+02 0.  0.
          5    1    1    2  502    0  0.60527298753E+02  0.76564885531E+01  0.14799413816E+02  0.62917968503E+02  0.41800000000E+01 0. -1.
         -5    1    1    2    0  502 -0.56398991679E+02 -0.24173058207E+02 -0.15084867053E+02  0.63326207999E+02  0.41800000000E+01 0. -1.
        -11    1    3    3    0    0 -0.26316712900E+02 -0.29578200181E+02 -0.22155794034E+02  0.45368695299E+02  0.00000000000E+00 0.  1.
         11    1    3    3    0    0  0.22188405826E+02  0.46094769835E+02 -0.51445842563E+01  0.51415171948E+02  0.00000000000E+00 0. -1.
</event>
<event>
 7    1  0.6684706E-006  0.7222143E+02  0.7561462E-02  0.1352698E+00
          1   -1    0    0  501    0  0.00000000000E+00  0.00000000000E+00  0.16077209117E+03  0.16077209117E+03  0.00000000000E+00 0. -1.
         -1   -1    0    0    0  501 -0.00000000000E+00 -0.00000000000E+00 -0.88812016373E+02  0.88812016373E+02  0.00000000000E+00 0.  1.
         23    2    1    2    0    0 -0.54881342324E+01  0.37516798513E+02  0.56805172980E+00  0.10063959621E+03  0.93222185421E+02 0.  0.
          5    1    1    2  502    0 -0.51901422738E+01 -0.27607801919E+01 -0.35362446601E+02  0.36090643021E+02  0.41800000000E+01 0.  1.
         -5    1    1    2    0  502  0.10678276506E+02 -0.34756018321E+02  0.10675446967E+03  0.11285386831E+03  0.41800000000E+01 0.  1.
        -11    1    3    3    0    0 -0.41592349649E+01  0.68997088753E+02  0.95345134364E+00  0.69128912630E+02  0.00000000000E+00 0.  1.
         11    1    3    3    0    0 -0.13288992675E+01 -0.31480290240E+02 -0.38539961384E+00  0.31510683581E+02  0.00000000000E+00 0. -1.
</event>
<event>
 7    1  0.6684706E-006  0.6255453E+02  0.7561462E-02  0.1387414E+00
         -2   -1    0    0    0  501 -0.00000000000E+00  0.00000000000E+00  0.15918507634E+03  0.15918507634E+03  0.00000000000E+00 0.  1.
          2   -1    0    0  501    0  0.00000000000E+00 -0.00000000000E+00 -0.90413180859E+02  0.90413180859E+02  0.00000000000E+00 0. -1.
         23    2    1    2    0    0 -0.41096533857E+02 -0.15906411424E+02  0.38347218146E+02  0.11352781414E+03  0.97345346190E+02 0.  0.
          5    1    1    2  502    0  0.18119605278E+02 -0.95711570632E+01  0.76026787742E+02  0.78850947980E+02  0.41800000000E+01 0. -1.
         -5    1    1    2    0  502  0.22976928580E+02  0.25477568487E+02 -0.45602110409E+02  0.57219495075E+02  0.41800000000E+01 0. -1.
        -11    1    3    3    0    0 -0.49697350773E+02 -0.26231285883E+02 -0.15285672326E+02  0.58237091371E+02  0.00000000000E+00 0. -1.
         11    1    3    3    0    0  0.86008169153E+01  0.10324874459E+02  0.53632890472E+02  0.55290722771E+02  0.00000000000E+00 0.  1.
</event>
<event>
 7    1  0.6684706E-006  0.1071101E+03  0.7561462E-02  0.1266017E+00
         -1   -1    0    0    0  501 -0.00000000000E+00  0.00000000000E+00  0.16226082870E+02  0.16226082870E+02  0.00000000000E+00 0.  1.
          1   -1    0    0  501    0  0.00000000000E+00 -0.00000000000E+00 -0.82453242467E+03  0.82453242467E+03  0.00000000000E+00 0. -1.
         23    2    1    2    0    0  0.19039925379E+02 -0.47557830585E+01 -0.21757256883E+03  0.23660711502E+03  0.90884365770E+02 0.  0.
          5    1    1    2  502    0  0.41882313668E+02 -0.32884970072E+02 -0.29856315259E+03  0.30330344202E+03  0.41800000000E+01 0.  1.
         -5    1    1    2    0  502 -0.60922239046E+02  0.37640753130E+02 -0.29217062038E+03  0.30084795049E+03  0.41800000000E+01 0.  1.
        -11    1    3    3    0    0 -0.62152247196E+01 -0.42887409486E+02 -0.72172682695E+02  0.84183460597E+02  0.00000000000E+00 0.  1.
         11    1    3    3    0    0  0.25255150098E+02  0.38131626428E+02 -0.14539988613E+03  0.15242365442E+03  0.00000000000E+00 0. -1.
</event>
<event>
 7    1  0.6684706E-006  0.7973989E+02  0.7561462E-02  0.1329791E+00
          4   -1    0    0  501    0  0.00000000000E+00  0.00000000000E+00  0.20375904282E+03  0.20375904282E+03  0.00000000000E+00 0. -1.
         -4   -1    0    0    0  501 -0.00000000000E+00 -0.00000000000E+00 -0.66276113463E+02  0.66276113463E+02  0.00000000000E+00 0.  1.
         23    2    1    2    0    0 -0.18610757955E+02  0.21704513801E+02  0.22097632141E+02  0.97464742126E+02  0.90518641066E+02 0.  0.
          5    1    1    2  502    0  0.49386896182E+02 -0.27148290867E+02  0.38266347164E+01  0.56641069418E+02  0.41800000000E+01 0.  1.
         -5    1    1    2    0  502 -0.30776138227E+02  0.54437770659E+01  0.11155866250E+03  0.11592934474E+03  0.41800000000E+01 0.  1.
        -11    1    3    3    0    0 -0.41472735334E+02  0.24866582954E+02  0.44196792753E+02  0.65511000706E+02  0.00000000000E+00 0. -1.
         11    1    3    3    0    0  0.22861977379E+02 -0.31620691529E+01 -0.22099160611E+02  0.31953741420E+02  0.00000000000E+00 0.  1.
</event>
<event>
 7    1  0.6684706E-006  0.9309909E+02  0.7561462E-02  0.1295516E+00
         -2   -1    0    0    0  501 -0.00000000000E+00  0.00000000000E+00  0.58069222110E+02  0.58069222110E+02  0.00000000000E+00 0.  1.
          2   -1    0    0  501    0  0.00000000000E+00 -0.00000000000E+00 -0.34354874704E+03  0.34354874704E+03  0.00000000000E+00 0. -1.
         23    2    1    2    0    0  0.35526878914E+02  0.50608003379E+02 -0.36096560282E+02  0.11585109590E+03  0.91077909650E+02 0.  0.
          5    1    1    2  502    0 -0.45867265409E+02 -0.39114780779E+02 -0.33110935842E+02  0.68902674722E+02  0.41800000000E+01 0.  1.
         -5    1    1    2    0  502  0.10340386495E+02 -0.11493222600E+02 -0.21627202880E+03  0.21686419852E+03  0.41800000000E+01 0.  1.
        -11    1    3    3    0    0  0.52456021179E+02 -0.39777888261E+01 -0.21761637596E+02  0.56930008192E+02  0.00000000000E+00 0.  1.
         11    1    3    3    0    0 -0.16929142266E+02  0.54585792205E+02 -0.14334922686E+02  0.58921087710E+02  0.00000000000E+00 0. -1.
</event>
<event>
 6    1  0.6684706E-006  0.1094231E+03  0.7561462E-02  0.1261642E+00
         -2   -1    0    0    0  501 -0.00000000000E+00  0.00000000000E+00  0.74567802241E+01  0.74567802241E+01  0.00000000000E+00 0.  1.
          2   -1    0    0  501    0  0.00000000000E+00 -0.00000000000E+00 -0.21863095965E+04  0.21863095965E+04  0.00000000000E+00 0. -1.
          5    1    1    2  502    0 -0.71233415622E+02  0.18190595460E+02 -0.12219124844E+04  0.12241293597E+04  0.41800000000E+01 0. -1.
         -5    1    1    2    0  502  0.76697916833E+02 -0.57393608099E+02 -0.77288982756E+03  0.77881496816E+03  0.41800000000E+01 0.  1.
        -11    1    1    2    0    0  0.11541655875E+02  0.89038017123E+01 -0.38116415225E+02  0.40808683082E+02  0.00000000000E+00 0.  1.
         11    1    1    2    0    0 -0.17006157086E+02  0.30299210926E+02 -0.14593408902E+03  0.15001336574E+03  0.00000000000E+00 0. -1.
</event>
<event>
 7    1  0.6684706E-006  0.9158130E+02  0.7561462E-02  0.1299067E+00
         -1   -1    0    0    0  501 -0.00000000000E+00  0.00000000000E+00  0.37512956930E+03  0.37512956930E+03  0.00000000000E+00 0.  1.
          1   -1    0    0  501    0  0.00000000000E+00 -0.00000000000E+00 -0.35185787596E+02  0.35185787596E+02  0.00000000000E+00 0. -1.
         23    2    1    2    0    0 -0.11829471019E+02  0.37807494083E+02  0.16199646203E+03  0.18920506739E+03  0.89366441251E+02 0.  0.
          5    1    1    2  502    0  0.47031850124E+02 -0.57142271818E+02  0.56727550474E+02  0.93341960219E+02  0.41800000000E+01 0.  1.
         -5    1    1    2    0  502 -0.35202379105E+02  0.19334777735E+02  0.12121976920E+03  0.12776832929E+03  0.41800000000E+01 0.  1.
        -11    1    3    3    0    0  0.11653560988E+02  0.43046769217E+02  0.15878800880E+03  0.16493168756E+03  0.00000000000E+00 0.  1.
         11    1    3    3    0    0 -0.23483032007E+02 -0.52392751337E+01  0.32084532344E+01  0.24273379829E+02  0.00000000000E+00 0. -1.
</event>
<event>
 7    1  0.6684706E-006  0.2742508E+03  0.7561462E-02  0.1098871E+00
         -2   -1    0    0    0  501 -0.00000000000E+00  0.00000000000E+00  0.45957834066E+02  0.45957834066E+02  0.00000000000E+00 0.  1.
          2   -1    0    0  501    0  0.00000000000E+00 -0.00000000000E+00 -0.18907797275E+04  0.18907797275E+04  0.00000000000E+00 0. -1.
         23    2    1    2    0    0 -0.17372422145E+03  0.19523330552E+03 -0.63450720817E+03  0.69222741002E+03  0.91012313789E+02 0.  0.
          5    1    1    2  502    0  0.13725392767E+03 -0.19887617868E+03 -0.11374273025E+04  0.11628192964E+04  0.41800000000E+01 0. -1.
         -5    1    1    2    0  502  0.36470293785E+02  0.36428731610E+01 -0.72887382678E+02  0.81690855102E+02  0.41800000000E+01 0. -1.
        -11    1    3    3    0    0 -0.12127705065E+03  0.85726358695E+02 -0.27169576355E+03  0.30963804598E+03  0.00000000000E+00 0.  1.
         11    1    3    3    0    0 -0.52447170807E+02  0.10950694683E+03 -0.36281144462E+03  0.38258936404E+03  0.00000000000E+00 0. -1.
</event>
<event>
 7    1  0.6684706E-006  0.1090741E+03  0.7561462E-02  0.1262294E+00
         -2   -1    0    0    0  501 -0.00000000000E+00  0.00000000000E+00  0.20765862228E+02  0.20765862228E+02  0.00000000000E+00 0.  1.
          2   -1    0    0  501    0  0.00000000000E+00 -0.00000000000E+00 -0.74987294697E+03  0.74987294697E+03  0.00000000000E+00 0. -1.
         23    2    1    2    0    0  0.42822897429E+01  0.33504188017E+02 -0.16792210110E+03  0.19469035614E+03  0.92550711057E+02 0.  0.
          5    1    1    2  502    0 -0.92437874047E+01  0.46895427094E+02 -0.24360906091E+03  0.24828909691E+03  0.41800000000E+01 0. -1.
         -5    1    1    2    0  502  0.49614976618E+01 -0.80399615111E+02 -0.31757592273E+03  0.32765935614E+03  0.41800000000E+01 0. -1.
        -11    1    3    3    0    0  0.14952383199E+02  0.59529864858E+02 -0.71413099240E+02  0.94165860674E+02  0.00000000000E+00 0.  1.
         11    1    3    3    0    0 -0.10670093456E+02 -0.26025676841E+02 -0.96509001861E+02  0.10052449547E+03  0.00000000000E+00 0. -1.
</event>
<event>
 7    1  0.6684706E-006  0.3288689E+03  0.7561462E-02  0.1071638E+00
         -2   -1    0    0    0  501 -0.00000000000E+00  0.00000000000E+00  0.36438129855E+03  0.36438129855E+03  0.00000000000E+00 0.  1.
          2   -1    0    0  501    0  0.00000000000E+00 -0.00000000000E+00 -0.40283002074E+03  0.40283002074E+03  0.00000000000E+00 0. -1.
         23    2    1    2    0    0  0.75182191851E+02 -0.20082445390E+01  0.12027445401E+03  0.16431651068E+03  0.82931154434E+02 0.  0.
          5    1    1    2  502    0 -0.31617125245E+03 -0.76271838883E+00 -0.35401021521E+01  0.31621961884E+03  0.41800000000E+01 0. -1.
         -5    1    1    2    0  502  0.24098906060E+03  0.27709629278E+01 -0.15518307405E+03  0.28667518978E+03  0.41800000000E+01 0.  1.
        -11    1    3    3    0    0  0.36438427031E+02  0.32339683239E+02  0.94857222993E+02  0.10663726755E+03  0.00000000000E+00 0. -1.
         11    1    3    3    0    0  0.38743764820E+02 -0.34347927778E+02  0.25417231017E+02  0.57679243127E+02  0.00000000000E+00 0.  1.
</event>
<event>
 7    1  0.6684706E-006  0.9361586E+02  0.7561462E-02  0.1294324E+00
         -2   -1    0    0    0  501 -0.00000000000E+00  0.00000000000E+00  0.79224094551E+02  0.79224094551E+02  0.00000000000E+00 0.  1.
          2   -1    0    0  501    0  0.00000000000E+00 -0.00000000000E+00 -0.17623050276E+03  0.17623050276E+03  0.00000000000E+00 0. -1.
         23    2    1    2    0    0  0.42099337385E+02 -0.19732663907E+02 -0.48988596082E+02  0.11362772318E+03  0.91376390251E+02 0.  0.
          5    1    1    2  502    0  0.41314979008E+02  0.10413228348E+02 -0.37909842399E+02  0.57183838327E+02  0.41800000000E+01 0.  1.
         -5    1    1    2    0  502 -0.83414316393E+02  0.93194355594E+01 -0.10107969727E+02  0.84643035806E+02  0.41800000000E+01 0.  1.
        -11    1    3    3    0    0 -0.64499743247E+01 -0.82892491573E+01  0.23439793965E+02  0.25685360840E+02  0.00000000000E+00 0.  1.
         11    1    3    3    0    0  0.48549311709E+02 -0.11443414750E+02 -0.72428390047E+02  0.87942362337E+02  0.00000000000E+00 0. -1.
</event>
<event>
 7    1  0.6684706E-006  0.9329198E+02  0.7561462E-02  0.1295070E+00
          2   -1    0    0  501    0  0.00000000000E+00  0.00000000000E+00  0.88519232209E+03  0.88519232209E+03  0.00000000000E+00 0. -1.
         -2   -1    0    0    0  501 -0.00000000000E+00 -0.00000000000E+00 -0.30435579921E+02  0.30435579921E+02  0.00000000000E+00 0.  1.
         23    2    1    2    0    0  0.22231115848E+02 -0.53763056323E+02  0.95913072482E+02  0.14434661291E+03  0.90840180803E+02 0.  0.
          5    1    1    2  502    0  0.43564282001E+02  0.20221425832E+02  0.49258846056E+03  0.49494203358E+03  0.41800000000E+01 0. -1.
         -5    1    1    2    0  502 -0.65795397849E+02  0.33541630491E+02  0.26625520913E+03  0.27633925552E+03  0.41800000000E+01 0. -1.
        -11    1    3    3    0    0  0.70271738101E+01 -0.47406625567E+02  0.91865845612E+00  0.47933425214E+02  0.00000000000E+00 0.  1.
         11    1    3    3    0    0  0.15203942038E+02 -0.63564307565E+01  0.94994414026E+02  0.96413187695E+02  0.00000000000E+00 0. -1.
</event>
<event>
 7    1  0.6684706E-006  0.2135628E+03  0.7561462E-02  0.1138775E+00
         -2   -1    0    0    0  501 -0.00000000000E+00  0.00000000000E+00  0.30526581307E+02  0.30526581307E+02  0.00000000000E+00 0.  1.
          2   -1    0    0  501    0  0.00000000000E+00 -0.00000000000E+00 -0.18592243954E+04  0.18592243954E+04  0.00000000000E+00 0. -1.
         23    2    1    2    0    0  0.16005450321E+03  0.12078455757E+03 -0.66761760734E+03  0.70486233585E+03  0.10445711813E+03 0.  0.
          5    1    1    2  502    0 -0.11977177318E+03 -0.82712097687E+02 -0.48145120188E+03  0.50299035870E+03  0.41800000000E+01 0. -1.
         -5    1    1    2    0  502 -0.40282730027E+02 -0.38072459886E+02 -0.67962900487E+03  0.68189828215E+03  0.41800000000E+01 0. -1.
        -11    1    3    3    0    0 -0.10938569539E+02 -0.65306072156E+01 -0.44360014395E+02  0.46153136527E+02  0.00000000000E+00 0.  1.
         11    1    3    3    0    0  0.17099307274E+03  0.12731516479E+03 -0.62325759294E+03  0.65870919932E+03  0.00000000000E+00 0. -1.
</event>
<event>
 7    1  0.6684706E-006  0.1055045E+03  0.7561462E-02  0.1269129E+00
         -2   -1    0    0    0  501 -0.00000000000E+00  0.00000000000E+00  0.26260732506E+02  0.26260732506E+02  0.00000000000E+00 0.  1.
          2   -1    0    0  501    0  0.00000000000E+00 -0.00000000000E+00 -0.47327840338E+03  0.47327840338E+03  0.00000000000E+00 0. -1.
         23    2    1    2    0    0  0.24630354825E+02 -0.19076105429E+02 -0.19902516622E+03  0.22004375212E+03  0.88530694587E+02 0.  0.
          5    1    1    2  502    0 -0.72304309283E+02  0.72538424875E+01 -0.10127722928E+03  0.12472001019E+03  0.41800000000E+01 0. -1.
         -5    1    1    2    0  502  0.47673954459E+02  0.11822262942E+02 -0.14671527538E+03  0.15477537357E+03  0.41800000000E+01 0. -1.
        -11    1    3    3    0    0  0.53991450890E+02 -0.14626195252E+00 -0.84215084144E+02  0.10003638618E+03  0.00000000000E+00 0. -1.
         11    1    3    3    0    0 -0.29361096065E+02 -0.18929843477E+02 -0.11481008207E+03  0.12000736595E+03  0.00000000000E+00 0.  1.
</event>
<event>
 7    1  0.6684706E-006  0.1384131E+03  0.7561462E-02  0.1215480E+00
          2   -1    0    0  501    0  0.00000000000E+00  0.00000000000E+00  0.21800101560E+03  0.21800101560E+03  0.00000000000E+00 0. -1.
         -2   -1    0    0    0  501 -0.00000000000E+00 -0.00000000000E+00 -0.95557080749E+02  0.95557080749E+02  0.00000000000E+00 0.  1.
         23    2    1    2    0    0  0.14419977464E+02 -0.93938687710E+02  0.29666040545E+02  0.13109847468E+03  0.85289643580E+02 0.  0.
          5    1    1    2  502    0  0.28263186811E+02 -0.17275395082E+02  0.39994223187E+02  0.52098534455E+02  0.41800000000E+01 0.  1.
         -5    1    1    2    0  502 -0.42683164276E+02  0.11121408279E+03  0.52783671121E+02  0.13036108722E+03  0.41800000000E+01 0.  1.
        -11    1    3    3    0    0 -0.19416479471E+02 -0.87714445348E+02  0.34742738527E+02  0.96321760149E+02  0.00000000000E+00 0. -1.
         11    1    3    3    0    0  0.33836456936E+02 -0.62242423625E+01 -0.50766979825E+01  0.34776714528E+02  0.00000000000E+00 0.  1.
</event>
<event>
 7    1  0.6684706E-006  0.1064672E+03  0.7561462E-02  0.1267256E+00
         -3   -1    0    0    0  501 -0.00000000000E+00  0.00000000000E+00  0.87710889564E+02  0.87710889564E+02  0.00000000000E+00 0.  1.
          3   -1    0    0  501    0  0.00000000000E+00 -0.00000000000E+00 -0.20314315470E+03  0.20314315470E+03  0.00000000000E+00 0. -1.
         23    2    1    2    0    0  0.43189746012E+02  0.53568309262E+02 -0.12650153719E+02  0.11493535438E+03  0.91187671209E+02 0.  0.
          5    1    1    2  502    0  0.40506156498E+02 -0.53088977490E+01 -0.10813304697E+02  0.42465669287E+02  0.41800000000E+01 0. -1.
         -5    1    1    2    0  502 -0.83695902509E+02 -0.48259411513E+02 -0.91968806724E+02  0.13345302060E+03  0.41800000000E+01 0. -1.
        -11    1    3    3    0    0  0.22772991964E+02  0.62263198619E+01  0.36653253109E+02  0.43598591554E+02  0.00000000000E+00 0.  1.
         11    1    3    3    0    0  0.20416754047E+02  0.47341989400E+02 -0.49303406828E+02  0.71336762830E+02  0.00000000000E+00 0. -1.
</event>
<event>
 7    1  0.6684706E-006  0.2093163E+03  0.7561462E-02  0.1142109E+00
          1   -1    0    0  501    0  0.00000000000E+00  0.00000000000E+00  0.71154570305E+03  0.71154570305E+03  0.00000000000E+00 0. -1.
         -1   -1    0    0    0  501 -0.00000000000E+00 -0.00000000000E+00 -0.78895078363E+02  0.78895078363E+02  0.00000000000E+00 0.  1.
         23    2    1    2    0    0 -0.17078907832E+03  0.68969695452E+02  0.15822574493E+03  0.26636876500E+03  0.10950435811E+03 0.  0.
          5    1    1    2  502    0  0.55750437461E+02 -0.89683896767E+02  0.22654548474E+03  0.24998328279E+03  0.41800000000E+01 0.  1.
         -5    1    1    2    0  502  0.11503864086E+03  0.20714201315E+02  0.24787939502E+03  0.27408873363E+03  0.41800000000E+01 0.  1.
        -11    1    3    3    0    0 -0.13917309993E+03  0.24328055102E+02  0.59091456255E+02  0.15314309064E+03  0.00000000000E+00 0.  1.
         11    1    3    3    0    0 -0.31615978387E+02  0.44641640350E+02  0.99134288674E+02  0.11322567436E+03  0.00000000000E+00 0. -1.
</event>
<event>
 7    1  0.6684706E-006  0.1863127E+03  0.7561462E-02  0.1161830E+00
         -1   -1    0    0    0  501 -0.00000000000E+00  0.00000000000E+00  0.53489865623E+02  0.53489865623E+02  0.00000000000E+00 0.  1.
          1   -1    0    0  501    0  0.00000000000E+00 -0.00000000000E+00 -0.68107964634E+03  0.68107964634E+03  0.00000000000E+00 0. -1.
         23    2    1    2    0    0 -0.10855907610E+03  0.11196967018E+03 -0.31523540158E+03  0.36371224278E+03  0.92687416059E+02 0.  0.
          5    1    1    2  502    0  0.11412018443E+03 -0.13123331736E+03 -0.30041845985E+03  0.34715172980E+03  0.41800000000E+01 0.  1.
         -5    1    1    2    0  502 -0.55611083319E+01  0.19263647172E+02 -0.11935919278E+02  0.23705539379E+02  0.41800000000E+01 0.  1.
        -11    1    3    3    0    0 -0.88246823029E+02  0.29194994178E+02 -0.19838369561E+03  0.21907975749E+03  0.00000000000E+00 0. -1.
         11    1    3    3    0    0 -0.20312253074E+02  0.82774676006E+02 -0.11685170597E+03  0.14463248529E+03  0.00000000000E+00 0.  1.
</event>
<event>
 7    1  0.6684706E-006  0.1325542E+03  0.7561462E-02  0.1223714E+00
         -1   -1    0    0    0  501 -0.00000000000E+00  0.00000000000E+00  0.12115557382E+03  0.12115557382E+03  0.00000000000E+00 0.  1.
          1   -1    0    0  501    0  0.00000000000E+00 -0.00000000000E+00 -0.16293443369E+03  0.16293443369E+03  0.00000000000E+00 0. -1.
         23    2    1    2    0    0  0.74647968860E+02  0.38434054153E+02  0.11552004430E+02  0.12425838536E+03  0.90869146318E+02 0.  0.
          5    1    1    2  502    0 -0.97066317091E+02  0.64106446895E+01 -0.19768508625E+02  0.99354076978E+02  0.41800000000E+01 0.  1.
         -5    1    1    2    0  502  0.22418348230E+02 -0.44844698843E+02 -0.33562355678E+02  0.60477545174E+02  0.41800000000E+01 0.  1.
        -11    1    3    3    0    0  0.66967033535E+02  0.62846697387E+02 -0.78057185807E+01  0.92169518798E+02  0.00000000000E+00 0.  1.
         11    1    3    3    0    0  0.76809353251E+01 -0.24412643234E+02  0.19357723010E+02  0.32088866563E+02  0.00000000000E+00 0. -1.
</event>
<event>
 7    1  0.6684706E-006  0.1894992E+03  0.7561462E-02  0.1158914E+00
         -1   -1    0    0    0  501 -0.00000000000E+00  0.00000000000E+00  0.68695732479E+02  0.68695732479E+02  0.00000000000E+00 0.  1.
          1   -1    0    0  501    0  0.00000000000E+00 -0.00000000000E+00 -0.81132599738E+03  0.81132599738E+03  0.00000000000E+00 0. -1.
         23    2    1    2    0    0 -0.14774840841E+03 -0.93390379006E+02 -0.14563850124E+03  0.24551590830E+03  0.92282897141E+02 0.  0.
          5    1    1    2  502    0  0.13889184867E+03  0.43459565706E+02 -0.53420804688E+03  0.55369250422E+03  0.41800000000E+01 0.  1.
         -5    1    1    2    0  502  0.88565597431E+01  0.49930813299E+02 -0.62783716780E+02  0.80813317342E+02  0.41800000000E+01 0.  1.
        -11    1    3    3    0    0 -0.48241768039E+02 -0.61225940463E+02 -0.11043610266E+03  0.13517402391E+03  0.00000000000E+00 0. -1.
         11    1    3    3    0    0 -0.99506640371E+02 -0.32164438542E+02 -0.35202398585E+02  0.11034188439E+03  0.00000000000E+00 0.  1.
</event>
<event>
 7    1  0.6684706E-006  0.9852600E+02  0.7561462E-02  0.1283426E+00
         -1   -1    0    0    0  501 -0.00000000000E+00  0.00000000000E+00  0.38008044897E+02  0.38008044897E+02  0.00000000000E+00 0.  1.
          1   -1    0    0  501    0  0.00000000000E+00 -0.00000000000E+00 -0.34011749755E+03  0.34011749755E+03  0.00000000000E+00 0. -1.
         23    2    1    2    0    0  0.26919963860E+02 -0.95602157360E+01 -0.10135307585E+03  0.13954324351E+03  0.91563031003E+02 0.  0.
          5    1    1    2  502    0  0.35977041504E+02  0.24875723891E+02 -0.14974469400E+03  0.15605798581E+03  0.41800000000E+01 0. -1.
         -5    1    1    2    0  502 -0.62897005364E+02 -0.15315508155E+02 -0.51011682797E+02  0.82524313118E+02  0.41800000000E+01 0.  1.
        -11    1    3    3    0    0 -0.26744944093E+02  0.13351354690E+02 -0.10731191840E+02  0.31760182381E+02  0.00000000000E+00 0.  1.
         11    1    3    3    0    0  0.53664907954E+02 -0.22911570426E+02 -0.90621884012E+02  0.10778306113E+03  0.00000000000E+00 0. -1.
</event>
<event>
 7    1  0.6684706E-006  0.8611009E+02  0.7561462E-02  0.1312555E+00
          2   -1    0    0  501    0  0.00000000000E+00  0.00000000000E+00  0.60931274595E+03  0.60931274595E+03  0.00000000000E+00 0. -1.
         -2   -1    0    0    0  501 -0.00000000000E+00 -0.00000000000E+00 -0.20600265245E+02  0.20600265245E+02  0.00000000000E+00 0.  1.
         23    2    1    2    0    0  0.18858210186E+02  0.23302698466E+02  0.24565760010E+03  0.26353741710E+03  0.90585130538E+02 0.  0.
          5    1    1    2  502    0 -0.43214736239E+02 -0.53982090519E+02  0.10986958907E+03  0.12988602129E+03  0.41800000000E+01 0. -1.
         -5    1    1    2    0  502  0.24356526053E+02  0.30679392053E+02  0.23318529153E+03  0.23648957280E+03  0.41800000000E+01 0. -1.
        -11    1    3    3    0    0  0.80528819478E+01 -0.18604497540E+02  0.77147931814E+01  0.21690879886E+02  0.00000000000E+00 0.  1.
         11    1    3    3    0    0  0.10805328238E+02  0.41907196006E+02  0.23794280692E+03  0.24184653721E+03  0.00000000000E+00 0. -1.
</event>
<event>
 7    1  0.6684706E-006  0.1433612E+03  0.7561462E-02  0.1208876E+00
         -1   -1    0    0    0  501 -0.00000000000E+00  0.00000000000E+00  0.15924055265E+03  0.15924055265E+03  0.00000000000E+00 0.  1.
          1   -1    0    0  501    0  0.00000000000E+00 -0.00000000000E+00 -0.16593631214E+03  0.16593631214E+03  0.00000000000E+00 0. -1.
         23    2    1    2    0    0 -0.28115941710E+02  0.10433725381E+03 -0.57486189408E+02  0.15224534826E+03  0.90538474594E+02 0.  0.
          5    1    1    2  502    0  0.76554135963E+02 -0.60229178728E+02  0.16542869013E+02  0.98889982397E+02  0.41800000000E+01 0.  1.
         -5    1    1    2    0  502 -0.48438194253E+02 -0.44108075083E+02  0.34247560907E+02  0.74041534142E+02  0.41800000000E+01 0.  1.
        -11    1    3    3    0    0  0.14201499212E+02  0.62428723432E+02 -0.66152407816E+02  0.92060681885E+02  0.00000000000E+00 0. -1.
         11    1    3    3    0    0 -0.42317440922E+02  0.41908530380E+02  0.86662184078E+01  0.60184666371E+02  0.00000000000E+00 0.  1.
</event>
<event>
 7    1  0.6684706E-006  0.1022576E+03  0.7561462E-02  0.1275619E+00
         -1   -1    0    0    0  501 -0.00000000000E+00  0.00000000000E+00  0.15236341619E+02  0.15236341619E+02  0.00000000000E+00 0.  1.
          1   -1    0    0  501    0  0.00000000000E+00 -0.00000000000E+00 -0.12043874315E+04  0.12043874315E+04  0.00000000000E+00 0. -1.
         23    2    1    2    0    0  0.22459094196E+02  0.38436309069E+02 -0.23166502806E+03  0.25297570986E+03  0.91357888449E+02 0.  0.
          5    1    1    2  502    0  0.43765783688E+02 -0.38235938256E+02 -0.28493063850E+03  0.29082704817E+03  0.41800000000E+01 0. -1.
         -5    1    1    2    0  502 -0.66224877884E+02 -0.20037081298E+00 -0.67255542330E+03  0.67582101507E+03  0.41800000000E+01 0. -1.
        -11    1    3    3    0    0  0.64619137953E+01 -0.19105256200E+02 -0.83781123421E+01  0.21839411869E+02  0.00000000000E+00 0.  1.
         11    1    3    3    0    0  0.15997180401E+02  0.57541565268E+02 -0.22328691572E+03  0.23113629799E+03  0.00000000000E+00 0. -1.
</event>
<event>
 7    1  0.6684706E-006  0.1290032E+03  0.7561462E-02  0.1228942E+00
         -2   -1    0    0    0  501 -0.00000000000E+00  0.00000000000E+00  0.85414393710E+02  0.85414393710E+02  0.00000000000E+00 0.  1.
          2   -1    0    0  501    0  0.00000000000E+00 -0.00000000000E+00 -0.20374593990E+03  0.20374593990E+03  0.00000000000E+00 0. -1.
         23    2    1    2    0    0  0.42404276200E+02  0.60793761685E+02 -0.48779418076E+02  0.12798100606E+03  0.92226363829E+02 0.  0.
          5    1    1    2  502    0  0.30501452219E+02 -0.61013537677E+02 -0.14845290261E+02  0.69934579503E+02  0.41800000000E+01 0.  1.
         -5    1    1    2    0  502 -0.72905728419E+02  0.21977599139E+00 -0.54706837856E+02  0.91244748046E+02  0.41800000000E+01 0.  1.
        -11    1    3    3    0    0 -0.15610093562E+02 -0.14691559975E+02 -0.99738755691E+00  0.21459537215E+02  0.00000000000E+00 0. -1.
         11    1    3    3    0    0  0.58014369762E+02  0.75485321661E+02 -0.47782030519E+02  0.10652146885E+03  0.00000000000E+00 0.  1.
</event>
<event>
 7    1  0.6684706E-006  0.1462699E+03  0.7561462E-02  0.1205133E+00
         -1   -1    0    0    0  501 -0.00000000000E+00  0.00000000000E+00  0.68668491187E+02  0.68668491187E+02  0.00000000000E+00 0.  1.
          1   -1    0    0  501    0  0.00000000000E+00 -0.00000000000E+00 -0.45606486356E+03  0.45606486356E+03  0.00000000000E+00 0. -1.
         23    2    1    2    0    0 -0.12596397571E+03 -0.24089524287E+02 -0.25948778490E+03  0.30460903391E+03  0.94897442912E+02 0.  0.
          5    1    1    2  502    0  0.12904008522E+03  0.36457445846E+01 -0.14411621100E+03  0.19352413214E+03  0.41800000000E+01 0. -1.
         -5    1    1    2    0  502 -0.30761095125E+01  0.20443779702E+02  0.16207623529E+02  0.26600188697E+02  0.41800000000E+01 0. -1.
        -11    1    3    3    0    0 -0.18312557211E+02 -0.29254029004E+02 -0.15413044681E+02  0.37798279206E+02  0.00000000000E+00 0.  1.
         11    1    3    3    0    0 -0.10765141850E+03  0.51645047169E+01 -0.24407474022E+03  0.26681075470E+03  0.00000000000E+00 0. -1.
</event>
<event>
 7    1  0.6684706E-006  0.1040470E+03  0.7561462E-02  0.1272009E+00
          1   -1    0    0  501    0  0.00000000000E+00  0.00000000000E+00  0.24237332683E+03  0.24237332683E+03  0.00000000000E+00 0. -1.
         -1   -1    0    0    0  501 -0.00000000000E+00 -0.00000000000E+00 -0.74188515745E+02  0.74188515745E+02  0.00000000000E+00 0.  1.
         23    2    1    2    0    0  0.14624688229E+01 -0.55319001480E+01 -0.20533052395E+02  0.90873198810E+02  0.88337937982E+02 0.  0.
          5    1    1    2  502    0 -0.50919376100E+02  0.38613658606E+02  0.10197638773E+03  0.12041782903E+03  0.41800000000E+01 0. -1.
         -5    1    1    2    0  502  0.49456907277E+02 -0.33081758458E+02  0.86741475749E+02  0.10527081474E+03  0.41800000000E+01 0.  1.
        -11    1    3    3    0    0 -0.41023254417E+02  0.27664748245E+01  0.36666510910E+01  0.41279596851E+02  0.00000000000E+00 0. -1.
         11    1    3    3    0    0  0.42485723240E+02 -0.82983749725E+01 -0.24199703486E+02  0.49593601959E+02  0.00000000000E+00 0.  1.
</event>
<event>
 7    1  0.6684706E-006  0.9604940E+02  0.7561462E-02  0.1288830E+00
          1   -1    0    0  501    0  0.00000000000E+00  0.00000000000E+00  0.87969346568E+03  0.87969346568E+03  0.00000000000E+00 0. -1.
         -1   -1    0    0    0  501 -0.00000000000E+00 -0.00000000000E+00 -0.16179125349E+02  0.16179125349E+02  0.00000000000E+00 0.  1.
         23    2    1    2    0    0 -0.12261533599E+02 -0.16905295024E+02  0.23029422193E+03  0.25007808158E+03  0.95223337620E+02 0.  0.
          5    1    1    2  502    0  0.56215807458E+02 -0.59227017077E+01  0.15573266546E+03  0.16572697697E+03  0.41800000000E+01 0.  1.
         -5    1    1    2    0  502 -0.43954273859E+02  0.22827996731E+02  0.47748745294E+03  0.48006753247E+03  0.41800000000E+01 0.  1.
        -11    1    3    3    0    0 -0.47446040509E+02 -0.19626030582E+01  0.65464468135E+02  0.80873822458E+02  0.00000000000E+00 0.  1.
         11    1    3    3    0    0  0.35184506910E+02 -0.14942691966E+02  0.16482975380E+03  0.16920425913E+03  0.00000000000E+00 0. -1.
</event>
<event>
 7    1  0.6684706E-006  0.2688459E+03  0.7561462E-02  0.1101942E+00
         -1   -1    0    0    0  501 -0.00000000000E+00  0.00000000000E+00  0.56835219777E+02  0.56835219777E+02  0.00000000000E+00 0.  1.
          1   -1    0    0  501    0  0.00000000000E+00 -0.00000000000E+00 -0.14297403121E+04  0.14297403121E+04  0.00000000000E+00 0. -1.
         23    2    1    2    0    0 -0.23393493036E+03  0.76821251811E+02 -0.42815597105E+03  0.50228585240E+03  0.91359102439E+02 0.  0.
          5    1    1    2  502    0  0.21012301335E+03 -0.17294555225E+02 -0.75863960576E+03  0.78740225184E+03  0.41800000000E+01 0.  1.
         -5    1    1    2    0  502  0.23811917006E+02 -0.59526696586E+02 -0.18610951549E+03  0.19688742762E+03  0.41800000000E+01 0.  1.
        -11    1    3    3    0    0 -0.86168768876E+02  0.75852974605E+02 -0.19254109517E+03  0.22416691062E+03  0.00000000000E+00 0. -1.
         11    1    3    3    0    0 -0.14776616148E+03  0.96827720563E+00 -0.23561487588E+03  0.27811894178E+03  0.00000000000E+00 0.  1.
</event>
<event>
 7    1  0.6684706E-006  0.8689396E+02  0.7561462E-02  0.1310553E+00
          1   -1    0    0  501    0  0.00000000000E+00  0.00000000000E+00  0.39072415555E+03  0.39072415555E+03  0.00000000000E+00 0. -1.
         -1   -1    0    0    0  501 -0.00000000000E+00 -0.00000000000E+00 -0.37784813227E+02  0.37784813227E+02  0.00000000000E+00 0.  1.
         23    2    1    2    0    0 -0.57148952898E+02  0.62003062559E+01  0.13862005226E+03  0.17378575696E+03  0.87644302833E+02 0.  0.
          5    1    1    2  502    0 -0.18545837426E+01  0.11540094217E+02  0.18663489495E+03  0.18704723914E+03  0.41800000000E+01 0. -1.
         -5    1    1    2    0  502  0.59003536641E+02 -0.17740400473E+02  0.27684395109E+02  0.67675972676E+02  0.41800000000E+01 0. -1.
        -11    1    3    3    0    0  0.15341829959E+02 -0.17575976400E+02  0.12713103285E+02  0.26568960989E+02  0.00000000000E+00 0.  1.
         11    1    3    3    0    0 -0.72490782857E+02  0.23776282656E+02  0.12590694898E+03  0.14721679598E+03  0.00000000000E+00 0. -1.
</event>
<event>
 7    1  0.6684706E-006  0.8373519E+02  0.7561462E-02  0.1318774E+00
          2   -1    0    0  501    0  0.00000000000E+00  0.00000000000E+00  0.89453749669E+03  0.89453749669E+03  0.00000000000E+00 0. -1.
         -2   -1    0    0    0  501 -0.00000000000E+00 -0.00000000000E+00 -0.57959703131E+02  0.57959703131E+02  0.00000000000E+00 0.  1.
         23    2    1    2    0    0 -0.78590849685E+00 -0.72012961006E+02  0.12227871808E+02  0.11544782088E+03  0.89399073213E+02 0.  0.
          5    1    1    2  502    0 -0.33857775478E+01  0.22262543488E+02  0.72881614935E+03  0.72917592959E+03  0.41800000000E+01 0. -1.
         -5    1    1    2    0  502  0.41716860446E+01  0.49750417518E+02  0.95533772399E+02  0.10787344936E+03  0.41800000000E+01 0.  1.
        -11    1    3    3    0    0 -0.97865032348E+01  0.87962064877E+01  0.29520496886E+02  0.32320405792E+02  0.00000000000E+00 0. -1.
         11    1    3    3    0    0  0.90005947380E+01 -0.80809167493E+02 -0.17292625078E+02  0.83127415085E+02  0.00000000000E+00 0.  1.
</event>
<event>
 7    1  0.6684706E-006  0.2523001E+03  0.7561462E-02  0.1111860E+00
          2   -1    0    0  501    0  0.00000000000E+00  0.00000000000E+00  0.96594475923E+03  0.96594475923E+03  0.00000000000E+00 0. -1.
         -2   -1    0    0    0  501 -0.00000000000E+00 -0.00000000000E+00 -0.10039081424E+03  0.10039081424E+03  0.00000000000E+00 0.  1.
         23    2    1    2    0    0  0.15633157365E+02  0.14068543876E+03  0.69190634104E+02  0.18159317768E+03  0.90288150082E+02 0.  0.
          5    1    1    2  502    0 -0.15746473871E+03 -0.12936639814E+03  0.64728489862E+03  0.67862067555E+03  0.41800000000E+01 0. -1.
         -5    1    1    2    0  502  0.14183158135E+03 -0.11319040616E+02  0.14907841226E+03  0.20612172023E+03  0.41800000000E+01 0.  1.
        -11    1    3    3    0    0 -0.27399220647E+02  0.36025823096E+02  0.48892229901E+02  0.66626026195E+02  0.00000000000E+00 0. -1.
         11    1    3    3    0    0  0.43032378013E+02  0.10465961566E+03  0.20298404203E+02  0.11496715149E+03  0.00000000000E+00 0.  1.
</event>
<event>
 7    1  0.6684706E-006  0.1158468E+03  0.7561462E-02  0.1250110E+00
         -1   -1    0    0    0  501 -0.00000000000E+00  0.00000000000E+00  0.38741420352E+03  0.38741420352E+03  0.00000000000E+00 0.  1.
          1   -1    0    0  501    0  0.00000000000E+00 -0.00000000000E+00 -0.59166059868E+02  0.59166059868E+02  0.00000000000E+00 0. -1.
         23    2    1    2    0    0 -0.89275108022E+02 -0.26757769011E+01  0.23302772816E+03  0.26577277787E+03  0.91411392474E+02 0.  0.
          5    1    1    2  502    0  0.88008171617E+02 -0.25961343353E+02  0.11391277641E+03  0.14633189211E+03  0.41800000000E+01 0. -1.
         -5    1    1    2    0  502  0.12669364047E+01  0.28637120254E+02 -0.18692360910E+02  0.34475593406E+02  0.41800000000E+01 0. -1.
        -11    1    3    3    0    0 -0.88475225521E+02  0.17911410645E+02  0.22702501010E+03  0.24431340400E+03  0.00000000000E+00 0.  1.
         11    1    3    3    0    0 -0.79988250072E+00 -0.20587187547E+02  0.60027180595E+01  0.21459373877E+02  0.00000000000E+00 0. -1.
</event>
<event>
 7    1  0.6684706E-006  0.1383871E+03  0.7561462E-02  0.1215516E+00
         -1   -1    0    0    0  501 -0.00000000000E+00  0.00000000000E+00  0.57404165855E+02  0.57404165855E+02  0.00000000000E+00 0.  1.
          1   -1    0    0  501    0  0.00000000000E+00 -0.00000000000E+00 -0.55069719802E+03  0.55069719802E+03  0.00000000000E+00 0. -1.
         23    2    1    2    0    0 -0.35569340659E+02 -0.11591829525E+03 -0.11064404777E+03  0.18766172783E+03  0.90953777362E+02 0.  0.
          5    1    1    2  502    0  0.15284674786E+02  0.10295007699E+03 -0.12986544492E+03  0.16647776374E+03  0.41800000000E+01 0.  1.
         -5    1    1    2    0  502  0.20284665873E+02  0.12968218255E+02 -0.25278353948E+03  0.25396187231E+03  0.41800000000E+01 0.  1.
        -11    1    3    3    0    0  0.28320065813E+02 -0.38645796489E+02 -0.18100069248E+02  0.51216561976E+02  0.00000000000E+00 0.  1.
         11    1    3    3    0    0 -0.63889406472E+02 -0.77272498760E+02 -0.92543978520E+02  0.13644516585E+03  0.00000000000E+00 0. -1.
</event>
<event>
 7    1  0.6684706E-006  0.9843592E+02  0.7561462E-02  0.1283620E+00
         -4   -1    0    0    0  501 -0.00000000000E+00  0.00000000000E+00  0.38027047681E+03  0.38027047681E+03  0.00000000000E+00 0.  1.
          4   -1    0    0  501    0  0.00000000000E+00 -0.00000000000E+00 -0.41866394244E+02  0.41866394244E+02  0.00000000000E+00 0. -1.
         23    2    1    2    0    0  0.34201983236E+02  0.12043838862E+02  0.23563375331E+03  0.25624018512E+03  0.93919843808E+02 0.  0.
          5    1    1    2  502    0  0.37988329945E+02 -0.73101029989E+01 -0.14749826568E+01  0.38938397395E+02  0.41800000000E+01 0. -1.
         -5    1    1    2    0  502 -0.72190313181E+02 -0.47337358628E+01  0.10424531192E+03  0.12695828854E+03  0.41800000000E+01 0. -1.
        -11    1    3    3    0    0 -0.11562093324E+02 -0.24395049557E+02  0.22252481034E+02  0.34985330598E+02  0.00000000000E+00 0. -1.
         11    1    3    3    0    0  0.45764076560E+02  0.36438888418E+02  0.21338127227E+03  0.22125485452E+03  0.00000000000E+00 0.  1.
</event>
<event>
 7    1  0.6684706E-006  0.1226374E+03  0.7561462E-02  0.1238809E+00
         -2   -1    0    0    0  501 -0.00000000000E+00  0.00000000000E+00  0.25735354480E+02  0.25735354480E+02  0.00000000000E+00 0.  1.
          2   -1    0    0  501    0  0.00000000000E+00 -0.00000000000E+00 -0.80417197200E+03  0.80417197200E+03  0.00000000000E+00 0. -1.
         23    2    1    2    0    0 -0.18845844113E+02 -0.58371755828E+02 -0.14804837989E+03  0.18430515495E+03  0.91036474202E+02 0.  0.
          5    1    1    2  502    0 -0.35292112458E+02  0.74554249586E+02 -0.38452679645E+03  0.39329657883E+03  0.41800000000E+01 0. -1.
         -5    1    1    2    0  502  0.54137956571E+02 -0.16182493758E+02 -0.24586144119E+03  0.25230559270E+03  0.41800000000E+01 0. -1.
        -11    1    3    3    0    0  0.31972799341E+02 -0.41687655662E+02 -0.49529483675E+02  0.72203118252E+02  0.00000000000E+00 0.  1.
         11    1    3    3    0    0 -0.50818643454E+02 -0.16684100166E+02 -0.98518896216E+02  0.11210203670E+03  0.00000000000E+00 0. -1.
</event>
<event>
 7    1  0.6684706E-006  0.1099736E+03  0.7561462E-02  0.1260619E+00
          1   -1    0    0  501    0  0.00000000000E+00  0.00000000000E+00  0.56340543097E+02  0.56340543097E+02  0.00000000000E+00 0. -1.
         -1   -1    0    0    0  501 -0.00000000000E+00 -0.00000000000E+00 -0.31563268049E+03  0.31563268049E+03  0.00000000000E+00 0.  1.
         23    2    1    2    0    0 -0.66402562830E+02 -0.78414295894E+01 -0.17083586025E+03  0.20481336336E+03  0.91065000389E+02 0.  0.
          5    1    1    2  502    0  0.27839167745E+02  0.55694661499E+02 -0.85019505996E+02  0.10546422796E+03  0.41800000000E+01 0.  1.
         -5    1    1    2    0  502  0.38563395085E+02 -0.47853231910E+02 -0.34367711534E+01  0.61695632266E+02  0.41800000000E+01 0.  1.
        -11    1    3    3    0    0 -0.10843674292E+02 -0.33158887773E+02 -0.16012632256E+02  0.38386215004E+02  0.00000000000E+00 0. -1.
         11    1    3    3    0    0 -0.55558888538E+02  0.25317458184E+02 -0.15482322799E+03  0.16642714836E+03  0.00000000000E+00 0.  1.
</event>
<event>
 7    1  0.6684706E-006  0.1075802E+03  0.7561462E-02  0.1265118E+00
          1   -1    0    0  501    0  0.00000000000E+00  0.00000000000E+00  0.39237175213E+03  0.39237175213E+03  0.00000000000E+00 0. -1.
         -1   -1    0    0    0  501 -0.00000000000E+00 -0.00000000000E+00 -0.40969323644E+02  0.40969323644E+02  0.00000000000E+00 0.  1.
         23    2    1    2    0    0 -0.47802569144E+02 -0.43086851835E+02  0.13256404690E+03  0.17318780684E+03  0.90990260412E+02 0.  0.
          5    1    1    2  502    0  0.69851817761E+02  0.47174560598E+02  0.22164687496E+03  0.23716982353E+03  0.41800000000E+01 0. -1.
         -5    1    1    2    0  502 -0.22049248616E+02 -0.40877087626E+01 -0.28084933805E+01  0.22983445402E+02  0.41800000000E+01 0. -1.
        -11    1    3    3    0    0 -0.36616930858E+02 -0.69896294729E+02  0.11424034560E+03  0.13884217012E+03  0.00000000000E+00 0. -1.
         11    1    3    3    0    0 -0.11185638286E+02  0.26809442893E+02  0.18323701305E+02  0.34345636719E+02  0.00000000000E+00 0.  1.
</event>
<event>
 7    1  0.6684706E-006  0.1212378E+03  0.7561462E-02  0.1241069E+00
          1   -1    0    0  501    0  0.00000000000E+00  0.00000000000E+00  0.98898306701E+03  0.98898306701E+03  0.00000000000E+00 0. -1.
         -1   -1    0    0    0  501 -0.00000000000E+00 -0.00000000000E+00 -0.26935968268E+02  0.26935968268E+02  0.00000000000E+00 0.  1.
         23    2    1    2    0    0  0.90835033974E+02 -0.69277362524E+02  0.32826094993E+03  0.35988263757E+03  0.93326872956E+02 0.  0.
          5    1    1    2  502    0 -0.45427274566E+02  0.41599549198E+02  0.56798206181E+03  0.57132762466E+03  0.41800000000E+01 0.  1.
         -5    1    1    2    0  502 -0.45407759409E+02  0.27677813327E+02  0.65804086997E+02  0.84708773044E+02  0.41800000000E+01 0.  1.
        -11    1    3    3    0    0  0.71015888377E+02 -0.19240775261E+02  0.93215131405E+02  0.11875405070E+03  0.00000000000E+00 0.  1.
         11    1    3    3    0    0  0.19819145597E+02 -0.50036587263E+02  0.23504581853E+03  0.24112858687E+03  0.00000000000E+00 0. -1.
</event>
<event>
 7    1  0.6684706E-006  0.9437929E+02  0.7561462E-02  0.1292580E+00
         -1   -1    0    0    0  501 -0.00000000000E+00  0.00000000000E+00  0.10142099182E+03  0.10142099182E+03  0.00000000000E+00 0.  1.
          1   -1    0    0  501    0  0.00000000000E+00 -0.00000000000E+00 -0.14331258179E+03  0.14331258179E+03  0.00000000000E+00 0. -1.
         23    2    1    2    0    0 -0.85234480365E+01  0.47043706374E+02 -0.35729138844E+01  0.10544550302E+03  0.93916073794E+02 0.  0.
          5    1    1    2  502    0 -0.26423460196E+02 -0.40705823803E+02 -0.74115008877E+02  0.88688614157E+02  0.41800000000E+01 0.  1.
         -5    1    1    2    0  502  0.34946908232E+02 -0.63378825709E+01  0.35796332794E+02  0.50599456440E+02  0.41800000000E+01 0.  1.
        -11    1    3    3    0    0  0.17853270524E+02 -0.23188339541E+02 -0.78574474752E+01  0.30301449469E+02  0.00000000000E+00 0.  1.
         11    1    3    3    0    0 -0.26376718561E+02  0.70232045915E+02  0.42845335909E+01  0.75144053547E+02  0.00000000000E+00 0. -1.
</event>
<event>
 7    1  0.6684706E-006  0.9339246E+02  0.7561462E-02  0.1294838E+00
          2   -1    0    0  501    0  0.00000000000E+00  0.00000000000E+00  0.13597971518E+04  0.13597971518E+04  0.00000000000E+00 0. -1.
         -2   -1    0    0    0  501 -0.00000000000E+00 -0.00000000000E+00 -0.12568107751E+02  0.12568107751E+02  0.00000000000E+00 0.  1.
         23    2    1    2    0    0 -0.17878775812E+02  0.18246909438E+02  0.20611084077E+03  0.22534338150E+03  0.87437752562E+02 0.  0.
          5    1    1    2  502    0 -0.34545599077E+02 -0.24798448932E+02  0.85302735288E+03  0.85409689067E+03  0.41800000000E+01 0. -1.
         -5    1    1    2    0  502  0.52424374889E+02  0.65515394940E+01  0.28809085034E+03  0.29292498733E+03  0.41800000000E+01 0.  1.
        -11    1    3    3    0    0 -0.40284409017E+02 -0.21326934350E+02  0.10630958679E+03  0.11566935628E+03  0.00000000000E+00 0.  1.
         11    1    3    3    0    0  0.22405633206E+02  0.39573843787E+02  0.99801253980E+02  0.10967402522E+03  0.00000000000E+00 0. -1.
</event>
<event>
 7    1  0.6684706E-006  0.1173076E+03  0.7561462E-02  0.1247606E+00
          2   -1    0    0  501    0  0.00000000000E+00  0.00000000000E+00  0.27991933924E+03  0.27991933924E+03  0.00000000000E+00 0. -1.
         -2   -1    0    0    0  501 -0.00000000000E+00 -0.00000000000E+00 -0.10724107635E+03  0.10724107635E+03  0.00000000000E+00 0.  1.
         23    2    1    2    0    0 -0.93932783782E+01  0.74140619356E+02 -0.48155603865E+02  0.12258359393E+03  0.84396150381E+02 0.  0.
          5    1    1    2  502    0 -0.31115658037E+02 -0.75497773933E+02  0.67822674058E+02  0.10623316601E+03  0.41800000000E+01 0. -1.
         -5    1    1    2    0  502  0.40508936415E+02  0.13571545764E+01  0.15301119269E+03  0.15834365566E+03  0.41800000000E+01 0. -1.
        -11    1    3    3    0    0  0.35539739919E+02  0.49257723169E+02 -0.19643754139E+02  0.63837868714E+02  0.00000000000E+00 0.  1.
         11    1    3    3    0    0 -0.44933018297E+02  0.24882896187E+02 -0.28511849726E+02  0.58745725212E+02  0.00000000000E+00 0. -1.
</event>
<event>
 7    1  0.6684706E-006  0.1711974E+03  0.7561462E-02  0.1176605E+00
         -1   -1    0    0    0  501 -0.00000000000E+00  0.00000000000E+00  0.19329733579E+03  0.19329733579E+03  0.00000000000E+00 0.  1.
          1   -1    0    0  501    0  0.00000000000E+00 -0.00000000000E+00 -0.16647035084E+03  0.16647035084E+03  0.00000000000E+00 0. -1.
         23    2    1    2    0    0 -0.73585927769E+01 -0.61081915767E+02  0.19159112897E+02  0.11283024126E+03  0.92619881310E+02 0.  0.
          5    1    1    2  502    0 -0.48652881935E+01 -0.87766640735E+02  0.35621307851E+02  0.94936843365E+02  0.41800000000E+01 0. -1.
         -5    1    1    2    0  502  0.12223880970E+02  0.14884855650E+03 -0.27953435798E+02  0.15200060201E+03  0.41800000000E+01 0.  1.
        -11    1    3    3    0    0  0.27669926198E+02  0.68938142622E+01  0.22444917281E+02  0.36289444783E+02  0.00000000000E+00 0.  1.
         11    1    3    3    0    0 -0.35028518975E+02 -0.67975730029E+02 -0.32858043836E+01  0.76540796475E+02  0.00000000000E+00 0. -1.
</event>
<event>
 7    1  0.6684706E-006  0.1020933E+03  0.7561462E-02  0.1275955E+00
         -2   -1    0    0    0  501 -0.00000000000E+00  0.00000000000E+00  0.20106360140E+02  0.20106360140E+02  0.00000000000E+00 0.  1.
          2   -1    0    0  501    0  0.00000000000E+00 -0.00000000000E+00 -0.83901025118E+03  0.83901025118E+03  0.00000000000E+00 0. -1.
         23    2    1    2    0    0  0.15827595796E+02 -0.29014162480E+01 -0.14015608680E+03  0.16875102516E+03  0.92597239804E+02 0.  0.
          5    1    1    2  502    0 -0.44776040137E+02  0.48672346191E+02 -0.26944565143E+03  0.27747490432E+03  0.41800000000E+01 0.  1.
         -5    1    1    2    0  502  0.28948444340E+02 -0.45770929943E+02 -0.40930215280E+03  0.41289068184E+03  0.41800000000E+01 0.  1.
        -11    1    3    3    0    0  0.35386443324E+02  0.29288462801E+02 -0.37160027506E+02  0.59083686992E+02  0.00000000000E+00 0.  1.
         11    1    3    3    0    0 -0.19558847528E+02 -0.32189879049E+02 -0.10299605930E+03  0.10966733817E+03  0.00000000000E+00 0. -1.
</event>
<event>
 7    1  0.6684706E-006  0.9602255E+02  0.7561462E-02  0.1288890E+00
          2   -1    0    0  501    0  0.00000000000E+00  0.00000000000E+00  0.57512114321E+03  0.57512114321E+03  0.00000000000E+00 0. -1.
         -2   -1    0    0    0  501 -0.00000000000E+00 -0.00000000000E+00 -0.64177765948E+02  0.64177765948E+02  0.00000000000E+00 0.  1.
         23    2    1    2    0    0  0.67816845889E+02 -0.38440371243E+02  0.11415153464E+02  0.11848115421E+03  0.88491194172E+02 0.  0.
          5    1    1    2  502    0 -0.17488526670E+02 -0.15901462730E+02  0.10508755366E+02  0.26203271196E+02  0.41800000000E+01 0. -1.
         -5    1    1    2    0  502 -0.50328319219E+02  0.54341833973E+02  0.48901946843E+03  0.49461448375E+03  0.41800000000E+01 0. -1.
        -11    1    3    3    0    0  0.71516809862E+02 -0.18904737400E+02 -0.24082252882E+02  0.77794589098E+02  0.00000000000E+00 0.  1.
         11    1    3    3    0    0 -0.36999639732E+01 -0.19535633843E+02  0.35497406346E+02  0.40686565109E+02  0.00000000000E+00 0. -1.
</event>
<event>
 7    1  0.6684706E-006  0.1464035E+03  0.7561462E-02  0.1204963E+00
         -1   -1    0    0    0  501 -0.00000000000E+00  0.00000000000E+00  0.47388608806E+02  0.47388608806E+02  0.00000000000E+00 0.  1.
          1   -1    0    0  501    0  0.00000000000E+00 -0.00000000000E+00 -0.10578593543E+04  0.10578593543E+04  0.00000000000E+00 0. -1.
         23    2    1    2    0    0 -0.85347903614E+02 -0.39932687738E+02 -0.78605471051E+02  0.16031425110E+03  0.10316469757E+03 0.  0.
          5    1    1    2  502    0  0.75866994646E+02  0.82851408034E+02 -0.65918897804E+03  0.66870601751E+03  0.41800000000E+01 0. -1.
         -5    1    1    2    0  502  0.94809089677E+01 -0.42918720295E+02 -0.27267629642E+03  0.27622769451E+03  0.41800000000E+01 0. -1.
        -11    1    3    3    0    0 -0.72627760631E+02  0.19709468767E+02 -0.60908772925E+02  0.96814944056E+02  0.00000000000E+00 0.  1.
         11    1    3    3    0    0 -0.12720142983E+02 -0.59642156505E+02 -0.17696698126E+02  0.63499307041E+02  0.00000000000E+00 0. -1.
</event>
<event>
 7    1  0.6684706E-006  0.1312137E+03  0.7561462E-02  0.1225666E+00
          2   -1    0    0  501    0  0.00000000000E+00  0.00000000000E+00  0.47895436665E+03  0.47895436665E+03  0.00000000000E+00 0.  1.
         -2   -1    0    0    0  501 -0.00000000000E+00 -0.00000000000E+00 -0.39575887454E+02  0.39575887454E+02  0.00000000000E+00 0. -1.
         23    2    1    2    0    0  0.33793083703E+02 -0.65601807511E+02  0.12259700898E+03  0.17004265930E+03  0.91863538559E+02 0.  0.
          5    1    1    2  502    0 -0.45214524915E+02 -0.25961917398E+02  0.10015629278E+03  0.11299172448E+03  0.41800000000E+01 0.  1.
         -5    1    1    2    0  502  0.11421441212E+02  0.91563724908E+02  0.21662517744E+03  0.23549587032E+03  0.41800000000E+01 0.  1.
        -11    1    3    3    0    0 -0.91373832112E+00 -0.80125649036E+02  0.86288410037E+02  0.11775671640E+03  0.00000000000E+00 0.  1.
         11    1    3    3    0    0  0.34706822024E+02  0.14523841525E+02  0.36308598945E+02  0.52285942900E+02  0.00000000000E+00 0. -1.
</event>
<event>
 7    1  0.6684706E-006  0.1067801E+03  0.7561462E-02  0.1266651E+00
         -1   -1    0    0    0  501 -0.00000000000E+00  0.00000000000E+00  0.33066591569E+02  0.33066591569E+02  0.00000000000E+00 0.  1.
          1   -1    0    0  501    0  0.00000000000E+00 -0.00000000000E+00 -0.38693414833E+03  0.38693414833E+03  0.00000000000E+00 0. -1.
         23    2    1    2    0    0 -0.14180913886E+02 -0.40573609968E+02 -0.11633874082E+03  0.15368876245E+03  0.90764623849E+02 0.  0.
          5    1    1    2  502    0  0.51724337938E+02  0.52376852869E+02 -0.10720925980E+03  0.13011548577E+03  0.41800000000E+01 0. -1.
         -5    1    1    2    0  502 -0.37543424052E+02 -0.11803242901E+02 -0.13031955614E+03  0.13619649168E+03  0.41800000000E+01 0.  1.
        -11    1    3    3    0    0 -0.73453731727E+01  0.29218192490E+02 -0.30898108746E+02  0.43154958041E+02  0.00000000000E+00 0. -1.
         11    1    3    3    0    0 -0.68355407134E+01 -0.69791802458E+02 -0.85440632073E+02  0.11053380441E+03  0.00000000000E+00 0.  1.
</event>
<event>
 7    1  0.6684706E-006  0.1277759E+03  0.7561462E-02  0.1230794E+00
         -1   -1    0    0    0  501 -0.00000000000E+00  0.00000000000E+00  0.44961288696E+02  0.44961288696E+02  0.00000000000E+00 0. -1.
          1   -1    0    0  501    0  0.00000000000E+00 -0.00000000000E+00 -0.44943345108E+03  0.44943345108E+03  0.00000000000E+00 0.  1.
         23    2    1    2    0    0  0.40594044454E+02  0.63025427994E+02 -0.92830982673E+02  0.15031872064E+03  0.91422346348E+02 0.  0.
          5    1    1    2  502    0 -0.65987765471E+02 -0.87855959131E+02 -0.24097889063E+03  0.26487988386E+03  0.41800000000E+01 0. -1.
         -5    1    1    2    0  502  0.25393721018E+02  0.24830531138E+02 -0.70662289082E+02  0.79196135272E+02  0.41800000000E+01 0. -1.
        -11    1    3    3    0    0 -0.62683782789E+01  0.62656988154E+02 -0.24731894613E+02  0.67652474765E+02  0.00000000000E+00 0. -1.
         11    1    3    3    0    0  0.46862422733E+02  0.36843983989E+00 -0.68099088060E+02  0.82666245874E+02  0.00000000000E+00 0.  1.
</event>
<event>
 7    1  0.6684706E-006  0.1766017E+03  0.7561462E-02  0.1171133E+00
         -4   -1    0    0    0  501 -0.00000000000E+00  0.00000000000E+00  0.54462940035E+03  0.54462940035E+03  0.00000000000E+00 0.  1.
          4   -1    0    0  501    0  0.00000000000E+00 -0.00000000000E+00 -0.67858326110E+02  0.67858326110E+02  0.00000000000E+00 0. -1.
         23    2    1    2    0    0  0.90293540968E+02 -0.13009806943E+03  0.23410075150E+03  0.29686962972E+03  0.90829422499E+02 0.  0.
          5    1    1    2  502    0  0.18638438082E+01  0.87607245818E+02  0.16810398061E+03  0.18961783706E+03  0.41800000000E+01 0.  1.
         -5    1    1    2    0  502 -0.92157384776E+02  0.42490823610E+02  0.74566342132E+02  0.12600025968E+03  0.41800000000E+01 0.  1.
        -11    1    3    3    0    0  0.12963192653E+02 -0.53560564617E+02  0.14860982339E+03  0.15849813266E+03  0.00000000000E+00 0.  1.
         11    1    3    3    0    0  0.77330348315E+02 -0.76537504811E+02  0.85490928104E+02  0.13837149707E+03  0.00000000000E+00 0. -1.
</event>
<event>
 7    1  0.6684706E-006  0.2335417E+03  0.7561462E-02  0.1124172E+00
          1   -1    0    0  501    0  0.00000000000E+00  0.00000000000E+00  0.17167667680E+04  0.17167667680E+04  0.00000000000E+00 0. -1.
         -1   -1    0    0    0  501 -0.00000000000E+00 -0.00000000000E+00 -0.54844793944E+02  0.54844793944E+02  0.00000000000E+00 0.  1.
         23    2    1    2    0    0  0.54492035102E+00  0.21289396200E+03  0.26065950954E+03  0.34875949367E+03  0.91464028557E+02 0.  0.
          5    1    1    2  502    0 -0.16719184232E+02 -0.21869736257E+03  0.11352098916E+04  0.11562123671E+04  0.41800000000E+01 0. -1.
         -5    1    1    2    0  502  0.16174263881E+02  0.58034005727E+01  0.26605257293E+03  0.26663970116E+03  0.41800000000E+01 0. -1.
        -11    1    3    3    0    0 -0.43152709337E+02  0.11451737879E+03  0.15952164501E+03  0.20105606580E+03  0.00000000000E+00 0. -1.
         11    1    3    3    0    0  0.43697629688E+02  0.98376583205E+02  0.10113786453E+03  0.14770342787E+03  0.00000000000E+00 0.  1.
</event>
<event>
 7    1  0.6684706E-006  0.1662804E+03  0.7561462E-02  0.1181783E+00
          2   -1    0    0  501    0  0.00000000000E+00  0.00000000000E+00  0.70113137523E+03  0.70113137523E+03  0.00000000000E+00 0. -1.
         -2   -1    0    0    0  501 -0.00000000000E+00 -0.00000000000E+00 -0.49358110149E+02  0.49358110149E+02  0.00000000000E+00 0.  1.
         23    2    1    2    0    0  0.77287693514E+02  0.12724983262E+03  0.25748272225E+03  0.31085377238E+03  0.90370393801E+02 0.  0.
          5    1    1    2  502    0 -0.62347244030E+02 -0.17065976630E+02  0.63812295396E+02  0.90928036601E+02  0.41800000000E+01 0.  1.
         -5    1    1    2    0  502 -0.14940449484E+02 -0.11018385599E+03  0.33047824744E+03  0.34870767640E+03  0.41800000000E+01 0.  1.
        -11    1    3    3    0    0  0.69199458799E+02  0.69057232255E+02  0.88212484749E+02  0.13167729072E+03  0.00000000000E+00 0.  1.
         11    1    3    3    0    0  0.80882347157E+01  0.58192600363E+02  0.16927023750E+03  0.17917648167E+03  0.00000000000E+00 0. -1.
</event>
<event>
 7    1  0.6684706E-006  0.1540419E+03  0.7561462E-02  0.1195592E+00
          2   -1    0    0  501    0  0.00000000000E+00  0.00000000000E+00  0.89794626069E+03  0.89794626069E+03  0.00000000000E+00 0. -1.
         -2   -1    0    0    0  501 -0.00000000000E+00 -0.00000000000E+00 -0.29707343566E+02  0.29707343566E+02  0.00000000000E+00 0.  1.
         23    2    1    2    0    0 -0.77105226443E+02 -0.82364315406E+02  0.27161436330E+03  0.30770371409E+03  0.90432941546E+02 0.  0.
          5    1    1    2  502    0 -0.20298759311E+02  0.66105751654E+02  0.26534417004E+03  0.27423896697E+03  0.41800000000E+01 0.  1.
         -5    1    1    2    0  502  0.97403985754E+02  0.16258563752E+02  0.33128038378E+03  0.34571092319E+03  0.41800000000E+01 0.  1.
        -11    1    3    3    0    0  0.17688996036E+02 -0.18908869896E+02  0.86237681607E+02  0.90041011047E+02  0.00000000000E+00 0. -1.
         11    1    3    3    0    0 -0.94794222479E+02 -0.63455445510E+02  0.18537668169E+03  0.21766270304E+03  0.00000000000E+00 0.  1.
</event>
<event>
 7    1  0.6684706E-006  0.2961996E+03  0.7561462E-02  0.1087156E+00
          3   -1    0    0  501    0  0.00000000000E+00  0.00000000000E+00  0.20960850994E+04  0.20960850994E+04  0.00000000000E+00 0. -1.
         -3   -1    0    0    0  501 -0.00000000000E+00 -0.00000000000E+00 -0.80130394229E+02  0.80130394229E+02  0.00000000000E+00 0.  1.
         23    2    1    2    0    0  0.28456342743E+03 -0.27538006911E+02  0.26888967333E+03  0.40248442401E+03  0.89204086753E+02 0.  0.
          5    1    1    2  502    0 -0.17878960186E+03  0.64341738356E+02  0.12355381292E+04  0.12500710069E+04  0.41800000000E+01 0. -1.
         -5    1    1    2    0  502 -0.10577382557E+03 -0.36803731445E+02  0.51152690261E+03  0.52366006275E+03  0.41800000000E+01 0.  1.
        -11    1    3    3    0    0  0.24236749673E+03 -0.49781384834E+01  0.25676942659E+03  0.35312508232E+03  0.00000000000E+00 0. -1.
         11    1    3    3    0    0  0.42195930703E+02 -0.22559868428E+02  0.12120246744E+02  0.49359341694E+02  0.00000000000E+00 0.  1.
</event>
<event>
 7    1  0.6684706E-006  0.8457225E+02  0.7561462E-02  0.1316555E+00
         -3   -1    0    0    0  501 -0.00000000000E+00  0.00000000000E+00  0.59881095065E+02  0.59881095065E+02  0.00000000000E+00 0.  1.
          3   -1    0    0  501    0  0.00000000000E+00 -0.00000000000E+00 -0.20675235113E+03  0.20675235113E+03  0.00000000000E+00 0. -1.
         23    2    1    2    0    0  0.36517390587E+00  0.23257644601E+02 -0.50437155360E+02  0.10698469799E+03  0.91437232998E+02 0.  0.
          5    1    1    2  502    0  0.40212327741E+02  0.10580188930E+02 -0.98091664581E+02  0.10662278725E+03  0.41800000000E+01 0. -1.
         -5    1    1    2    0  502 -0.40577501647E+02 -0.33837833532E+02  0.16575638722E+01  0.53025960963E+02  0.41800000000E+01 0. -1.
        -11    1    3    3    0    0  0.27147973354E+02 -0.12327783475E+02  0.10408317842E+02  0.31580370215E+02  0.00000000000E+00 0.  1.
         11    1    3    3    0    0 -0.26782799448E+02  0.35585428076E+02 -0.60845473202E+02  0.75404327773E+02  0.00000000000E+00 0. -1.
</event>
<event>
 7    1  0.6684706E-006  0.1484802E+03  0.7561462E-02  0.1202353E+00
         -1   -1    0    0    0  501 -0.00000000000E+00  0.00000000000E+00  0.27534399024E+02  0.27534399024E+02  0.00000000000E+00 0.  1.
          1   -1    0    0  501    0  0.00000000000E+00 -0.00000000000E+00 -0.86664235409E+03  0.86664235409E+03  0.00000000000E+00 0. -1.
         23    2    1    2    0    0  0.16626406790E+01 -0.10995851725E+03 -0.35736907687E+03  0.38445752283E+03  0.89449929375E+02 0.  0.
          5    1    1    2  502    0  0.15240109396E+02  0.13310065478E+03 -0.34890491983E+03  0.37376484682E+03  0.41800000000E+01 0.  1.
         -5    1    1    2    0  502 -0.16902750075E+02 -0.23142137528E+02 -0.13283395836E+03  0.13595438346E+03  0.41800000000E+01 0.  1.
        -11    1    3    3    0    0 -0.15814667563E+02  0.58366729190E+01 -0.14825731141E+02  0.22449337735E+02  0.00000000000E+00 0.  1.
         11    1    3    3    0    0  0.17477308242E+02 -0.11579519017E+03 -0.34254334573E+03  0.36200818509E+03  0.00000000000E+00 0. -1.
</event>
<event>
 7    1  0.6684706E-006  0.2261207E+03  0.7561462E-02  0.1129400E+00
          1   -1    0    0  501    0  0.00000000000E+00  0.00000000000E+00  0.52857865070E+03  0.52857865070E+03  0.00000000000E+00 0. -1.
         -1   -1    0    0    0  501 -0.00000000000E+00 -0.00000000000E+00 -0.11236667442E+03  0.11236667442E+03  0.00000000000E+00 0.  1.
         23    2    1    2    0    0  0.18411025793E+03 -0.97026160296E+02  0.11693364244E+03  0.25555493792E+03  0.91236981006E+02 0.  0.
          5    1    1    2  502    0 -0.70000001687E+02  0.98184572926E+02  0.20242456198E+03  0.23565522759E+03  0.41800000000E+01 0. -1.
         -5    1    1    2    0  502 -0.11411025624E+03 -0.11584126296E+01  0.96853771854E+02  0.14973515960E+03  0.41800000000E+01 0. -1.
        -11    1    3    3    0    0  0.79731062957E+02 -0.78660162439E+01  0.80394664753E+02  0.11349986226E+03  0.00000000000E+00 0. -1.
         11    1    3    3    0    0  0.10437919497E+03 -0.89160144053E+02  0.36538977692E+02  0.14205507566E+03  0.00000000000E+00 0.  1.
</event>
<event>
 7    1  0.6684706E-006  0.2094195E+03  0.7561462E-02  0.1142027E+00
          2   -1    0    0  501    0  0.00000000000E+00  0.00000000000E+00  0.11981912236E+04  0.11981912236E+04  0.00000000000E+00 0. -1.
         -2   -1    0    0    0  501 -0.00000000000E+00 -0.00000000000E+00 -0.86933572696E+02  0.86933572696E+02  0.00000000000E+00 0.  1.
         23    2    1    2    0    0  0.39956914623E+02  0.72933366726E+01 -0.12386552138E+02  0.99100743010E+02  0.89542072822E+02 0.  0.
          5    1    1    2  502    0  0.31907088749E+02  0.14690163291E+03  0.85423759218E+03  0.86737390343E+03  0.41800000000E+01 0. -1.
         -5    1    1    2    0  502 -0.71864003372E+02 -0.15419496958E+03  0.26940661086E+03  0.31865014985E+03  0.41800000000E+01 0.  1.
        -11    1    3    3    0    0  0.56196211916E+02  0.34974265118E+02 -0.96666262911E+01  0.66892877933E+02  0.00000000000E+00 0.  1.
         11    1    3    3    0    0 -0.16239297293E+02 -0.27680928446E+02 -0.27199258466E+01  0.32207865077E+02  0.00000000000E+00 0. -1.
</event>
<event>
 7    1  0.6684706E-006  0.1032415E+03  0.7561462E-02  0.1273624E+00
          1   -1    0    0  501    0  0.00000000000E+00  0.00000000000E+00  0.14131612286E+04  0.14131612286E+04  0.00000000000E+00 0. -1.
         -1   -1    0    0    0  501 -0.00000000000E+00 -0.00000000000E+00 -0.10807318591E+02  0.10807318591E+02  0.00000000000E+00 0.  1.
         23    2    1    2    0    0  0.11277517146E+02  0.26687061270E+02  0.26986365042E+03  0.28548924760E+03  0.88534394694E+02 0.  0.
          5    1    1    2  502    0 -0.76366892156E+01 -0.70923630581E+02  0.64068103401E+03  0.64465350393E+03  0.41800000000E+01 0. -1.
         -5    1    1    2    0  502 -0.36408279301E+01  0.44236569311E+02  0.49180922556E+03  0.49382579564E+03  0.41800000000E+01 0.  1.
        -11    1    3    3    0    0  0.47606242987E+02  0.43652034024E+01  0.10807239276E+03  0.11817381880E+03  0.00000000000E+00 0.  1.
         11    1    3    3    0    0 -0.36328725841E+02  0.22321857867E+02  0.16179125766E+03  0.16731542880E+03  0.00000000000E+00 0. -1.
</event>
<event>
 7    1  0.6684706E-006  0.1214355E+03  0.7561462E-02  0.1240748E+00
          2   -1    0    0  501    0  0.00000000000E+00  0.00000000000E+00  0.15114402207E+03  0.15114402207E+03  0.00000000000E+00 0. -1.
         -2   -1    0    0    0  501 -0.00000000000E+00 -0.00000000000E+00 -0.15702310466E+03  0.15702310466E+03  0.00000000000E+00 0.  1.
         23    2    1    2    0    0 -0.81467627937E+02  0.15408096652E+02 -0.75215272655E+02  0.14285146567E+03  0.88740183461E+02 0.  0.
          5    1    1    2  502    0  0.11029537175E+03 -0.27895563704E+02  0.36197066616E+02  0.11946100425E+03  0.41800000000E+01 0. -1.
         -5    1    1    2    0  502 -0.28827743818E+02  0.12487467052E+02  0.33139123449E+02  0.45854656797E+02  0.41800000000E+01 0. -1.
        -11    1    3    3    0    0 -0.50977411754E+02 -0.16127590775E+02 -0.82574266570E+02  0.98373295121E+02  0.00000000000E+00 0.  1.
         11    1    3    3    0    0 -0.30490216183E+02  0.31535687427E+02  0.73589939151E+01  0.44478170554E+02  0.00000000000E+00 0. -1.
</event>
<event>
 7    1  0.6684706E-006  0.1483786E+03  0.7561462E-02  0.1202480E+00
         -2   -1    0    0    0  501 -0.00000000000E+00  0.00000000000E+00  0.28987610884E+03  0.28987610884E+03  0.00000000000E+00 0.  1.
          2   -1    0    0  501    0  0.00000000000E+00 -0.00000000000E+00 -0.92841805577E+02  0.92841805577E+02  0.00000000000E+00 0. -1.
         23    2    1    2    0    0  0.92067369368E+02  0.79742336205E+02  0.82337264899E+02  0.17382136337E+03  0.92731874177E+02 0.  0.
          5    1    1    2  502    0 -0.75132175062E+02  0.13843534308E+02  0.32517119112E+02  0.83134364778E+02  0.41800000000E+01 0. -1.
         -5    1    1    2    0  502 -0.16935194306E+02 -0.93585870513E+02  0.82179919253E+02  0.12576218627E+03  0.41800000000E+01 0. -1.
        -11    1    3    3    0    0  0.26388424757E+02  0.41108262037E+02  0.84486313812E+02  0.97591881785E+02  0.00000000000E+00 0.  1.
         11    1    3    3    0    0  0.65678944611E+02  0.38634074169E+02 -0.21490489130E+01  0.76229481589E+02  0.00000000000E+00 0. -1.
</event>
<event>
 7    1  0.6684706E-006  0.2499354E+03  0.7561462E-02  0.1113346E+00
         -1   -1    0    0    0  501 -0.00000000000E+00  0.00000000000E+00  0.13856317868E+03  0.13856317868E+03  0.00000000000E+00 0.  1.
          1   -1    0    0  501    0  0.00000000000E+00 -0.00000000000E+00 -0.48859057546E+03  0.48859057546E+03  0.00000000000E+00 0. -1.
         23    2    1    2    0    0  0.20549902124E+03 -0.30588341327E+02 -0.16711351787E+03  0.28295750771E+03  0.94723434046E+02 0.  0.
          5    1    1    2  502    0 -0.21825685604E+03 -0.31764351354E+02 -0.17146071941E+03  0.27939448800E+03  0.41800000000E+01 0. -1.
         -5    1    1    2    0  502  0.12757834797E+02  0.62352692681E+02 -0.11453159496E+02  0.64801758431E+02  0.41800000000E+01 0.  1.
        -11    1    3    3    0    0  0.31839578837E+02 -0.27080581163E+02 -0.76193706129E+02  0.86905681692E+02  0.00000000000E+00 0. -1.
         11    1    3    3    0    0  0.17365944240E+03 -0.35077601639E+01 -0.90919811740E+02  0.19605182601E+03  0.00000000000E+00 0.  1.
</event>
<event>
 7    1  0.6684706E-006  0.7656166E+02  0.7561462E-02  0.1339102E+00
         -2   -1    0    0    0  501 -0.00000000000E+00  0.00000000000E+00  0.45986427507E+02  0.45986427507E+02  0.00000000000E+00 0.  1.
          2   -1    0    0  501    0  0.00000000000E+00 -0.00000000000E+00 -0.38068339278E+03  0.38068339278E+03  0.00000000000E+00 0. -1.
         23    2    1    2    0    0 -0.32671162738E+01  0.73563879624E+02 -0.14114907046E+03  0.18473768614E+03  0.93715709215E+02 0.  0.
          5    1    1    2  502    0 -0.36898233544E+01 -0.25475104118E+02 -0.19134462972E+03  0.19311352995E+03  0.41800000000E+01 0.  1.
         -5    1    1    2    0  502  0.69569396282E+01 -0.48088775506E+02 -0.22032650878E+01  0.48818604197E+02  0.41800000000E+01 0.  1.
        -11    1    3    3    0    0 -0.14094313155E+02  0.26853568253E+02  0.51676738910E+01  0.30764730531E+02  0.00000000000E+00 0.  1.
         11    1    3    3    0    0  0.10827196881E+02  0.46710311371E+02 -0.14631674435E+03  0.15397295561E+03  0.00000000000E+00 0. -1.
</event>
<event>
 7    1  0.6684706E-006  0.1198009E+03  0.7561462E-02  0.1243426E+00
         -2   -1    0    0    0  501 -0.00000000000E+00  0.00000000000E+00  0.19595006283E+03  0.19595006283E+03  0.00000000000E+00 0. -1.
          2   -1    0    0  501    0  0.00000000000E+00 -0.00000000000E+00 -0.12232503534E+03  0.12232503534E+03  0.00000000000E+00 0.  1.
         23    2    1    2    0    0  0.49317409015E+02 -0.78343525936E+02  0.90331683755E+02  0.16176065389E+03  0.97143096354E+02 0.  0.
          5    1    1    2  502    0 -0.47012332691E+02  0.89081615323E+02  0.32501806574E+02  0.10592229909E+03  0.41800000000E+01 0. -1.
         -5    1    1    2    0  502 -0.23050763240E+01 -0.10738089387E+02 -0.49208462831E+02  0.50592145188E+02  0.41800000000E+01 0. -1.
        -11    1    3    3    0    0 -0.25274012556E+02 -0.22796797757E+02  0.29758622513E+01  0.34166144863E+02  0.00000000000E+00 0.  1.
         11    1    3    3    0    0  0.74591421571E+02 -0.55546728179E+02  0.87355821503E+02  0.12759450903E+03  0.00000000000E+00 0. -1.
</event>
<event>
 7    1  0.6684706E-006  0.1107642E+03  0.7561462E-02  0.1259161E+00
         -1   -1    0    0    0  501 -0.00000000000E+00  0.00000000000E+00  0.48893962874E+02  0.48893962874E+02  0.00000000000E+00 0.  1.
          1   -1    0    0  501    0  0.00000000000E+00 -0.00000000000E+00 -0.36723077026E+03  0.36723077026E+03  0.00000000000E+00 0. -1.
         23    2    1    2    0    0 -0.30966749498E+02  0.35324662607E+02 -0.46596094909E+02  0.11330951620E+03  0.91984123840E+02 0.  0.
          5    1    1    2  502    0  0.69919120072E+02  0.13093515160E+02 -0.15020164768E+03  0.16624719804E+03  0.41800000000E+01 0. -1.
         -5    1    1    2    0  502 -0.38952370575E+02 -0.48418177766E+02 -0.12153906479E+03  0.13656801889E+03  0.41800000000E+01 0. -1.
        -11    1    3    3    0    0 -0.10950680047E+01 -0.22700065959E+02 -0.42161476947E+02  0.47896579281E+02  0.00000000000E+00 0.  1.
         11    1    3    3    0    0 -0.29871681493E+02  0.58024728565E+02 -0.44346179614E+01  0.65412936922E+02  0.00000000000E+00 0. -1.
</event>
<event>
 7    1  0.6684706E-006  0.2354712E+03  0.7561462E-02  0.1122847E+00
          2   -1    0    0  501    0  0.00000000000E+00  0.00000000000E+00  0.25673857964E+04  0.25673857964E+04  0.00000000000E+00 0. -1.
         -2   -1    0    0    0  501 -0.00000000000E+00 -0.00000000000E+00 -0.64712676842E+02  0.64712676842E+02  0.00000000000E+00 0.  1.
         23    2    1    2    0    0  0.98677060077E+02  0.19561669108E+03  0.18393433358E+03  0.29967481644E+03  0.89275441880E+02 0.  0.
          5    1    1    2  502    0  0.45909578612E+01  0.54784263439E+01  0.11709055232E+02  0.14341004976E+02  0.41800000000E+01 0. -1.
         -5    1    1    2    0  502 -0.10326801794E+03 -0.20109511742E+03  0.23070297307E+04  0.23180826518E+04  0.41800000000E+01 0. -1.
        -11    1    3    3    0    0  0.72297921165E+02  0.48404540004E+02  0.69706197875E+02  0.11148516906E+03  0.00000000000E+00 0.  1.
         11    1    3    3    0    0  0.26379138911E+02  0.14721215107E+03  0.11422813571E+03  0.18818964738E+03  0.00000000000E+00 0. -1.
</event>
<event>
 7    1  0.6684706E-006  0.1129297E+03  0.7561462E-02  0.1255239E+00
         -1   -1    0    0    0  501 -0.00000000000E+00  0.00000000000E+00  0.22799627269E+02  0.22799627269E+02  0.00000000000E+00 0.  1.
          1   -1    0    0  501    0  0.00000000000E+00 -0.00000000000E+00 -0.17726961512E+04  0.17726961512E+04  0.00000000000E+00 0. -1.
         23    2    1    2    0    0 -0.16615024150E+02  0.88403978375E+02 -0.19785873342E+03  0.23582916483E+03  0.91520457690E+02 0.  0.
          5    1    1    2  502    0  0.23691715919E+02 -0.88514003376E+01 -0.11197282927E+04  0.11200216813E+04  0.41800000000E+01 0.  1.
         -5    1    1    2    0  502 -0.70766917686E+01 -0.79552578037E+02 -0.43230949788E+03  0.43964493241E+03  0.41800000000E+01 0.  1.
        -11    1    3    3    0    0  0.17472542888E+02  0.84094167472E+02 -0.98451383631E+02  0.13065142057E+03  0.00000000000E+00 0.  1.
         11    1    3    3    0    0 -0.34087567039E+02  0.43098109027E+01 -0.99407349789E+02  0.10517774427E+03  0.00000000000E+00 0. -1.
</event>
<event>
 7    1  0.6684706E-006  0.1009757E+03  0.7561462E-02  0.1278257E+00
          1   -1    0    0  501    0  0.00000000000E+00  0.00000000000E+00  0.40894153171E+03  0.40894153171E+03  0.00000000000E+00 0. -1.
         -1   -1    0    0    0  501 -0.00000000000E+00 -0.00000000000E+00 -0.39250088287E+02  0.39250088287E+02  0.00000000000E+00 0.  1.
         23    2    1    2    0    0 -0.50152631474E+02  0.32563705532E+02  0.11826870592E+03  0.16107315565E+03  0.91549949811E+02 0.  0.
          5    1    1    2  502    0  0.57652006125E+02  0.13956947853E+02  0.42969660983E+02  0.73364939642E+02  0.41800000000E+01 0. -1.
         -5    1    1    2    0  502 -0.74993746513E+01 -0.46520653385E+02  0.20845307652E+03  0.21375352470E+03  0.41800000000E+01 0. -1.
        -11    1    3    3    0    0  0.66276112187E+01 -0.17980330026E+02 -0.14948141432E+01  0.19221133360E+02  0.00000000000E+00 0. -1.
         11    1    3    3    0    0 -0.56780242692E+02  0.50544035559E+02  0.11976352006E+03  0.14185202229E+03  0.00000000000E+00 0.  1.
</event>
<event>
 7    1  0.6684706E-006  0.1263111E+03  0.7561462E-02  0.1233034E+00
         -1   -1    0    0    0  501 -0.00000000000E+00  0.00000000000E+00  0.98073322845E+02  0.98073322845E+02  0.00000000000E+00 0.  1.
          1   -1    0    0  501    0  0.00000000000E+00 -0.00000000000E+00 -0.24839938870E+03  0.24839938870E+03  0.00000000000E+00 0. -1.
         23    2    1    2    0    0  0.10294649286E+03  0.70189154667E+01 -0.23333721757E+02  0.14050551781E+03  0.92466709666E+02 0.  0.
          5    1    1    2  502    0 -0.70164347899E+02  0.22852373059E+02 -0.14106119531E+03  0.15925137328E+03  0.41800000000E+01 0.  1.
         -5    1    1    2    0  502 -0.32782144962E+02 -0.29871288526E+02  0.14068851210E+02  0.46715820456E+02  0.41800000000E+01 0.  1.
        -11    1    3    3    0    0  0.11759630020E+03  0.13058117440E+02 -0.82144373700E+01  0.11860388372E+03  0.00000000000E+00 0.  1.
         11    1    3    3    0    0 -0.14649807336E+02 -0.60392019738E+01 -0.15119284387E+02  0.21901634091E+02  0.00000000000E+00 0. -1.
</event>
<event>
 7    1  0.6684706E-006  0.1172155E+03  0.7561462E-02  0.1247763E+00
         -2   -1    0    0    0  501 -0.00000000000E+00  0.00000000000E+00  0.22425210945E+02  0.22425210945E+02  0.00000000000E+00 0.  1.
          2   -1    0    0  501    0  0.00000000000E+00 -0.00000000000E+00 -0.95329365989E+03  0.95329365989E+03  0.00000000000E+00 0. -1.
         23    2    1    2    0    0 -0.76929716786E+02  0.33460100870E+02 -0.25767873900E+03  0.28588655514E+03  0.91077056396E+02 0.  0.
          5    1    1    2  502    0  0.63876519382E+02  0.40200948947E+02 -0.32564760194E+03  0.33430548765E+03  0.41800000000E+01 0.  1.
         -5    1    1    2    0  502  0.13053197403E+02 -0.73661049817E+02 -0.34754210800E+03  0.35552682804E+03  0.41800000000E+01 0.  1.
        -11    1    3    3    0    0 -0.12526074270E+02  0.46361268655E+01  0.47204666192E+01  0.14166122053E+02  0.00000000000E+00 0.  1.
         11    1    3    3    0    0 -0.64403642516E+02  0.28823974004E+02 -0.26239920562E+03  0.27172043309E+03  0.00000000000E+00 0. -1.
</event>
<event>
 7    1  0.6684706E-006  0.1679799E+03  0.7561462E-02  0.1179971E+00
         -1   -1    0    0    0  501 -0.00000000000E+00  0.00000000000E+00  0.33026999979E+03  0.33026999979E+03  0.00000000000E+00 0.  1.
          1   -1    0    0  501    0  0.00000000000E+00 -0.00000000000E+00 -0.97455710316E+02  0.97455710316E+02  0.00000000000E+00 0. -1.
         23    2    1    2    0    0  0.41948821071E+02  0.13559692820E+03  0.12846642561E+03  0.21166335015E+03  0.90285772751E+02 0.  0.
          5    1    1    2  502    0 -0.25428722254E+02  0.19950682964E+02  0.21008943080E+02  0.38774962999E+02  0.41800000000E+01 0.  1.
         -5    1    1    2    0  502 -0.16520098817E+02 -0.15554761116E+03  0.83338920789E+02  0.17728739696E+03  0.41800000000E+01 0.  1.
        -11    1    3    3    0    0 -0.61895444139E+01  0.32830869204E+02 -0.78235832086E+01  0.34313042519E+02  0.00000000000E+00 0. -1.
         11    1    3    3    0    0  0.48138365485E+02  0.10276605899E+03  0.13629000881E+03  0.17735030763E+03  0.00000000000E+00 0.  1.
</event>
<event>
 7    1  0.6684706E-006  0.1351502E+03  0.7561462E-02  0.1220008E+00
          2   -1    0    0  501    0  0.00000000000E+00  0.00000000000E+00  0.86622416043E+02  0.86622416043E+02  0.00000000000E+00 0. -1.
         -2   -1    0    0    0  501 -0.00000000000E+00 -0.00000000000E+00 -0.24256816750E+03  0.24256816750E+03  0.00000000000E+00 0.  1.
         23    2    1    2    0    0 -0.85331306756E+02 -0.45705255549E+00 -0.12318673471E+03  0.17426222237E+03  0.88942170681E+02 0.  0.
          5    1    1    2  502    0 -0.28739535505E+02 -0.15821253340E+02  0.53283281497E+01  0.33498305019E+02  0.41800000000E+01 0. -1.
         -5    1    1    2    0  502  0.11407084226E+03  0.16278305896E+02 -0.38087344892E+02  0.12143005615E+03  0.41800000000E+01 0. -1.
        -11    1    3    3    0    0 -0.28553234749E+02 -0.42553248954E+02 -0.64595385336E+02  0.82453805357E+02  0.00000000000E+00 0.  1.
         11    1    3    3    0    0 -0.56778072007E+02  0.42096196399E+02 -0.58591349374E+02  0.91808417008E+02  0.00000000000E+00 0. -1.
</event>
<event>
 7    1  0.6684706E-006  0.8881062E+02  0.7561462E-02  0.1305758E+00
         -2   -1    0    0    0  501 -0.00000000000E+00  0.00000000000E+00  0.14734339319E+02  0.14734339319E+02  0.00000000000E+00 0.  1.
          2   -1    0    0  501    0  0.00000000000E+00 -0.00000000000E+00 -0.11387822804E+04  0.11387822804E+04  0.00000000000E+00 0. -1.
         23    2    1    2    0    0 -0.21729804434E+02  0.14657884044E+02 -0.20168833699E+03  0.22234466844E+03  0.89843910982E+02 0.  0.
          5    1    1    2  502    0 -0.10447195673E+02 -0.46838920653E+02 -0.78362782922E+03  0.78510704717E+03  0.41800000000E+01 0.  1.
         -5    1    1    2    0  502  0.32177000107E+02  0.32181036609E+02 -0.13873177483E+03  0.14606490406E+03  0.41800000000E+01 0.  1.
        -11    1    3    3    0    0  0.23806492332E+02  0.27562740284E+02 -0.13960669152E+03  0.14427918092E+03  0.00000000000E+00 0. -1.
         11    1    3    3    0    0 -0.45536296766E+02 -0.12904856240E+02 -0.62081645466E+02  0.78065487518E+02  0.00000000000E+00 0.  1.
</event>
<event>
 7    1  0.6684706E-006  0.8351882E+02  0.7561462E-02  0.1319352E+00
          1   -1    0    0  501    0  0.00000000000E+00  0.00000000000E+00  0.10435452067E+03  0.10435452067E+03  0.00000000000E+00 0. -1.
         -1   -1    0    0    0  501 -0.00000000000E+00 -0.00000000000E+00 -0.22513051165E+03  0.22513051165E+03  0.00000000000E+00 0.  1.
         23    2    1    2    0    0 -0.25508878058E+01 -0.50198429049E+02 -0.15683285084E+03  0.18993708433E+03  0.94621158271E+02 0.  0.
          5    1    1    2  502    0 -0.33735459818E+02  0.24786325684E+02  0.71299024940E+02  0.82785666316E+02  0.41800000000E+01 0. -1.
         -5    1    1    2    0  502  0.36286347624E+02  0.25412103365E+02 -0.35242165075E+02  0.56762281671E+02  0.41800000000E+01 0. -1.
        -11    1    3    3    0    0  0.29420377941E+02 -0.32839884750E+02 -0.14519402687E+03  0.15174097043E+03  0.00000000000E+00 0.  1.
         11    1    3    3    0    0 -0.31971265746E+02 -0.17358544300E+02 -0.11638823975E+02  0.38196113901E+02  0.00000000000E+00 0. -1.
</event>
<event>
 7    1  0.6684706E-006  0.9370680E+02  0.7561462E-02  0.1294116E+00
          2   -1    0    0  501    0  0.00000000000E+00  0.00000000000E+00  0.49586611356E+02  0.49586611356E+02  0.00000000000E+00 0. -1.
         -2   -1    0    0    0  501 -0.00000000000E+00 -0.00000000000E+00 -0.38003538239E+03  0.38003538239E+03  0.00000000000E+00 0.  1.
         23    2    1    2    0    0 -0.40685784993E+01  0.14513181064E+02 -0.26686343957E+03  0.28849460592E+03  0.10856268471E+03 0.  0.
          5    1    1    2  502    0 -0.41321029501E+02 -0.13463416569E+02 -0.81245108127E+02  0.92233025860E+02  0.41800000000E+01 0.  1.
         -5    1    1    2    0  502  0.45389608000E+02 -0.10497644951E+01  0.17659776663E+02  0.48894361963E+02  0.41800000000E+01 0.  1.
        -11    1    3    3    0    0 -0.36651811299E+02 -0.26901265647E+02 -0.61514775188E+02  0.76492489379E+02  0.00000000000E+00 0. -1.
         11    1    3    3    0    0  0.32583232800E+02  0.41414446711E+02 -0.20534866438E+03  0.21200211654E+03  0.00000000000E+00 0.  1.
</event>
<event>
 7    1  0.6684706E-006  0.1089364E+03  0.7561462E-02  0.1262552E+00
          2   -1    0    0  501    0  0.00000000000E+00  0.00000000000E+00  0.26308683887E+03  0.26308683887E+03  0.00000000000E+00 0.  1.
         -2   -1    0    0    0  501 -0.00000000000E+00 -0.00000000000E+00 -0.76171055296E+02  0.76171055296E+02  0.00000000000E+00 0. -1.
         23    2    1    2    0    0 -0.33437662343E+02 -0.26036184853E+02 -0.11099735005E+02  0.10123614332E+03  0.91266600755E+02 0.  0.
          5    1    1    2  502    0  0.74556954469E+02  0.33607927206E+02  0.16632947797E+03  0.18539471372E+03  0.41800000000E+01 0. -1.
         -5    1    1    2    0  502 -0.41119292126E+02 -0.75717423537E+01  0.31686040605E+02  0.52627037124E+02  0.41800000000E+01 0. -1.
        -11    1    3    3    0    0  0.25345865207E+02  0.73142858553E+01 -0.19949426709E+02  0.33074027373E+02  0.00000000000E+00 0. -1.
         11    1    3    3    0    0 -0.58783527550E+02 -0.33350470708E+02  0.88496917032E+01  0.68162115951E+02  0.00000000000E+00 0.  1.
</event>
<event>
 7    1  0.6684706E-006  0.1592581E+03  0.7561462E-02  0.1189537E+00
          1   -1    0    0  501    0  0.00000000000E+00  0.00000000000E+00  0.13723312755E+03  0.13723312755E+03  0.00000000000E+00 0. -1.
         -1   -1    0    0    0  501 -0.00000000000E+00 -0.00000000000E+00 -0.24096254848E+03  0.24096254848E+03  0.00000000000E+00 0.  1.
         23    2    1    2    0    0 -0.14186703268E+03 -0.28683763359E+02 -0.70832698672E+02  0.18409046689E+03  0.89011322631E+02 0.  0.
          5    1    1    2  502    0  0.12372330777E+03  0.43839480415E+02  0.22949526589E+02  0.13331732858E+03  0.41800000000E+01 0.  1.
         -5    1    1    2    0  502  0.18143724910E+02 -0.15155717056E+02 -0.55846248848E+02  0.60787880564E+02  0.41800000000E+01 0.  1.
        -11    1    3    3    0    0 -0.54282982840E+02  0.25728500695E+02 -0.19782033383E+01  0.60104170092E+02  0.00000000000E+00 0.  1.
         11    1    3    3    0    0 -0.87584049843E+02 -0.54412264054E+02 -0.68854495334E+02  0.12398629680E+03  0.00000000000E+00 0. -1.
</event>
<event>
 7    1  0.6684706E-006  0.2014401E+03  0.7561462E-02  0.1148530E+00
         -1   -1    0    0    0  501 -0.00000000000E+00  0.00000000000E+00  0.46142708163E+03  0.46142708163E+03  0.00000000000E+00 0.  1.
          1   -1    0    0  501    0  0.00000000000E+00 -0.00000000000E+00 -0.10962800138E+03  0.10962800138E+03  0.00000000000E+00 0. -1.
         23    2    1    2    0    0  0.14123298510E+03  0.13292025676E+03  0.20943626789E+03  0.29989558451E+03  0.91974238585E+02 0.  0.
          5    1    1    2  502    0 -0.46152284448E+02 -0.30626165103E+02  0.11650063672E+03  0.12906535594E+03  0.41800000000E+01 0.  1.
         -5    1    1    2    0  502 -0.95080700647E+02 -0.10229409166E+03  0.25862175640E+02  0.14209414257E+03  0.41800000000E+01 0.  1.
        -11    1    3    3    0    0 -0.86373977073E+01  0.13292767259E+02  0.43532910672E+02  0.46329435698E+02  0.00000000000E+00 0.  1.
         11    1    3    3    0    0  0.14987038280E+03  0.11962748950E+03  0.16590335722E+03  0.25356614881E+03  0.00000000000E+00 0. -1.
</event>
<event>
 7    1  0.6684706E-006  0.1338582E+03  0.7561462E-02  0.1221841E+00
         -2   -1    0    0    0  501 -0.00000000000E+00  0.00000000000E+00  0.41252230773E+02  0.41252230773E+02  0.00000000000E+00 0.  1.
          2   -1    0    0  501    0  0.00000000000E+00 -0.00000000000E+00 -0.47902508141E+03  0.47902508141E+03  0.00000000000E+00 0. -1.
         23    2    1    2    0    0 -0.46275670143E+02 -0.76193228403E+02 -0.17816596139E+03  0.21863318471E+03  0.90058391918E+02 0.  0.
          5    1    1    2  502    0  0.85047634860E+02  0.24119858325E+02 -0.15319160271E+03  0.17691808076E+03  0.41800000000E+01 0.  1.
         -5    1    1    2    0  502 -0.38771964718E+02  0.52073370078E+02 -0.10641528654E+03  0.12472604671E+03  0.41800000000E+01 0.  1.
        -11    1    3    3    0    0 -0.62210990830E+02 -0.76009952307E+02 -0.17728030990E+03  0.20267221938E+03  0.00000000000E+00 0. -1.
         11    1    3    3    0    0  0.15935320687E+02 -0.18327609678E+00 -0.88565148754E+00  0.15960965325E+02  0.00000000000E+00 0.  1.
</event>
<event>
 7    1  0.6684706E-006  0.1435536E+03  0.7561462E-02  0.1208626E+00
          2   -1    0    0  501    0  0.00000000000E+00  0.00000000000E+00  0.81638939797E+03  0.81638939797E+03  0.00000000000E+00 0. -1.
         -2   -1    0    0    0  501 -0.00000000000E+00 -0.00000000000E+00 -0.34112159015E+02  0.34112159015E+02  0.00000000000E+00 0.  1.
         23    2    1    2    0    0 -0.71493137956E+02  0.91114134847E+02  0.23760274268E+03  0.27977264338E+03  0.91676683570E+02 0.  0.
          5    1    1    2  502    0  0.78300233169E+02 -0.16724041216E+02  0.39887934608E+03  0.40685725408E+03  0.41800000000E+01 0. -1.
         -5    1    1    2    0  502 -0.68070952125E+01 -0.74390093631E+02  0.14579515020E+03  0.16387165953E+03  0.41800000000E+01 0. -1.
        -11    1    3    3    0    0 -0.44075262444E+02  0.94707968718E+02  0.12062112894E+03  0.15956717973E+03  0.00000000000E+00 0.  1.
         11    1    3    3    0    0 -0.27417875513E+02 -0.35938338718E+01  0.11698161373E+03  0.12020546365E+03  0.00000000000E+00 0. -1.
</event>
<event>
 7    1  0.6684706E-006  0.9715149E+02  0.7561462E-02  0.1286403E+00
          2   -1    0    0  501    0  0.00000000000E+00  0.00000000000E+00  0.32792734060E+04  0.32792734060E+04  0.00000000000E+00 0. -1.
         -2   -1    0    0    0  501 -0.00000000000E+00 -0.00000000000E+00 -0.26212596131E+02  0.26212596131E+02  0.00000000000E+00 0.  1.
         23    2    1    2    0    0  0.37978543519E+01 -0.58860102328E+02  0.93107423259E+02  0.14294766154E+03  0.91028052441E+02 0.  0.
          5    1    1    2  502    0  0.33343660456E+02  0.19852059891E+02  0.25218769744E+04  0.25221789886E+04  0.41800000000E+01 0. -1.
         -5    1    1    2    0  502 -0.37141514808E+02  0.39008042437E+02  0.63807641222E+03  0.64035935202E+03  0.41800000000E+01 0.  1.
        -11    1    3    3    0    0  0.11488326545E+02 -0.78926855816E+02  0.91522516820E+02  0.12139934638E+03  0.00000000000E+00 0.  1.
         11    1    3    3    0    0 -0.76904721936E+01  0.20066753488E+02  0.15849064390E+01  0.21548315167E+02  0.00000000000E+00 0. -1.
</event>
<event>
 7    1  0.6684706E-006  0.1710109E+03  0.7561462E-02  0.1176798E+00
          1   -1    0    0  501    0  0.00000000000E+00  0.00000000000E+00  0.46880371611E+03  0.46880371611E+03  0.00000000000E+00 0. -1.
         -1   -1    0    0    0  501 -0.00000000000E+00 -0.00000000000E+00 -0.74095991585E+02  0.74095991585E+02  0.00000000000E+00 0.  1.
         23    2    1    2    0    0 -0.13680669727E+03 -0.50890789067E+02  0.13049360021E+03  0.21615245561E+03  0.91582528588E+02 0.  0.
          5    1    1    2  502    0  0.23253122791E+02  0.68896332431E+02  0.70027427733E+02  0.10103823720E+03  0.41800000000E+01 0. -1.
         -5    1    1    2    0  502  0.11355357448E+03 -0.18005543364E+02  0.19418669658E+03  0.22570901488E+03  0.41800000000E+01 0. -1.
        -11    1    3    3    0    0 -0.70018270561E+02 -0.52204459348E+02  0.12017419298E+03  0.14855874409E+03  0.00000000000E+00 0. -1.
         11    1    3    3    0    0 -0.66788426706E+02  0.13136702803E+01  0.10319407229E+02  0.67593711519E+02  0.00000000000E+00 0.  1.
</event>
<event>
 7    1  0.6684706E-006  0.1229360E+03  0.7561462E-02  0.1238331E+00
         -2   -1    0    0    0  501 -0.00000000000E+00  0.00000000000E+00  0.63501612733E+02  0.63501612733E+02  0.00000000000E+00 0.  1.
          2   -1    0    0  501    0  0.00000000000E+00 -0.00000000000E+00 -0.50773050396E+03  0.50773050396E+03  0.00000000000E+00 0. -1.
         23    2    1    2    0    0 -0.42162750487E+02 -0.98185217870E+02 -0.57598013286E+02  0.15105386775E+03  0.89898305279E+02 0.  0.
          5    1    1    2  502    0  0.34564925033E+02  0.10653350354E+03 -0.17252317055E+03  0.20573244323E+03  0.41800000000E+01 0.  1.
         -5    1    1    2    0  502  0.75978254540E+01 -0.83482856661E+01 -0.21410770739E+03  0.21444580572E+03  0.41800000000E+01 0.  1.
        -11    1    3    3    0    0 -0.16876977217E+02  0.32758195623E+01 -0.41935789144E+02  0.45322993778E+02  0.00000000000E+00 0.  1.
         11    1    3    3    0    0 -0.25285773270E+02 -0.10146103743E+03 -0.15662224141E+02  0.10573087398E+03  0.00000000000E+00 0. -1.
</event>
<event>
 7    1  0.6684706E-006  0.7681301E+02  0.7561462E-02  0.1338347E+00
         -1   -1    0    0    0  501 -0.00000000000E+00  0.00000000000E+00  0.76323403358E+02  0.76323403358E+02  0.00000000000E+00 0.  1.
          1   -1    0    0  501    0  0.00000000000E+00 -0.00000000000E+00 -0.37129433954E+03  0.37129433954E+03  0.00000000000E+00 0. -1.
         23    2    1    2    0    0 -0.35093966878E+02  0.33229087728E+02  0.19865441965E+02  0.10541156905E+03  0.91548917647E+02 0.  0.
          5    1    1    2  502    0  0.12418475462E+01 -0.36721604515E+01  0.11461837968E+02  0.12801292018E+02  0.41800000000E+01 0. -1.
         -5    1    1    2    0  502  0.33852119332E+02 -0.29556927277E+02 -0.32629821611E+03  0.32940488183E+03  0.41800000000E+01 0. -1.
        -11    1    3    3    0    0 -0.32948238942E+02  0.63980191493E+02  0.19590603251E+02  0.74584469487E+02  0.00000000000E+00 0.  1.
         11    1    3    3    0    0 -0.21457279363E+01 -0.30751103765E+02  0.27483871438E+00  0.30827099563E+02  0.00000000000E+00 0. -1.
</event>
<event>
 7    1  0.6684706E-006  0.1314856E+03  0.7561462E-02  0.1225268E+00
         -1   -1    0    0    0  501 -0.00000000000E+00  0.00000000000E+00  0.49639191310E+02  0.49639191310E+02  0.00000000000E+00 0.  1.
          1   -1    0    0  501    0  0.00000000000E+00 -0.00000000000E+00 -0.36071527807E+03  0.36071527807E+03  0.00000000000E+00 0. -1.
         23    2    1    2    0    0  0.61502108127E+00  0.79462487505E+02 -0.13416768367E+03  0.17957852869E+03  0.89066354208E+02 0.  0.
          5    1    1    2  502    0  0.59025593541E+02 -0.19223465962E+02 -0.61146671963E+02  0.87235028679E+02  0.41800000000E+01 0. -1.
         -5    1    1    2    0  502 -0.59640614622E+02 -0.60239021542E+02 -0.11576173112E+03  0.14354091201E+03  0.41800000000E+01 0. -1.
        -11    1    3    3    0    0 -0.39219720864E+02  0.59659157939E+02 -0.60794821671E+02  0.93773194318E+02  0.00000000000E+00 0.  1.
         11    1    3    3    0    0  0.39834741946E+02  0.19803329565E+02 -0.73372862003E+02  0.85805334369E+02  0.00000000000E+00 0. -1.
</event>
<event>
 7    1  0.6684706E-006  0.1130364E+03  0.7561462E-02  0.1255048E+00
          2   -1    0    0  501    0  0.00000000000E+00  0.00000000000E+00  0.18020811229E+04  0.18020811229E+04  0.00000000000E+00 0. -1.
         -2   -1    0    0    0  501 -0.00000000000E+00 -0.00000000000E+00 -0.10396646332E+02  0.10396646332E+02  0.00000000000E+00 0.  1.
         23    2    1    2    0    0  0.74937567164E+01 -0.17807509833E+02  0.30455130419E+03  0.31826200361E+03  0.90365603296E+02 0.  0.
          5    1    1    2  502    0  0.56005706696E+02  0.42792772206E+02  0.97277100120E+03  0.97533007424E+03  0.41800000000E+01 0. -1.
         -5    1    1    2    0  502 -0.63499463412E+02 -0.24985262373E+02  0.51436217113E+03  0.51888569134E+03  0.41800000000E+01 0.  1.
        -11    1    3    3    0    0  0.38112835150E+02 -0.35204195170E+02  0.12587983919E+03  0.13615306635E+03  0.00000000000E+00 0.  1.
         11    1    3    3    0    0 -0.30619078434E+02  0.17396685337E+02  0.17867146500E+03  0.18210893726E+03  0.00000000000E+00 0. -1.
</event>
<event>
 7    1  0.6684706E-006  0.8451191E+02  0.7561462E-02  0.1316714E+00
          2   -1    0    0  501    0  0.00000000000E+00  0.00000000000E+00  0.10353507615E+03  0.10353507615E+03  0.00000000000E+00 0. -1.
         -2   -1    0    0    0  501 -0.00000000000E+00 -0.00000000000E+00 -0.17792386909E+03  0.17792386909E+03  0.00000000000E+00 0.  1.
         23    2    1    2    0    0  0.59710798286E+02  0.25594568754E+02 -0.85069668723E+02  0.14010025472E+03  0.90392319657E+02 0.  0.
          5    1    1    2  502    0 -0.15866497798E+02 -0.26339511415E+02  0.64639917060E+02  0.71702907134E+02  0.41800000000E+01 0. -1.
         -5    1    1    2    0  502 -0.43844300488E+02  0.74494266136E+00 -0.53959041270E+02  0.69655783390E+02  0.41800000000E+01 0. -1.
        -11    1    3    3    0    0  0.35323778198E+02 -0.21183732534E+02 -0.76181273601E+02  0.86603153971E+02  0.00000000000E+00 0.  1.
         11    1    3    3    0    0  0.24387020088E+02  0.46778301288E+02 -0.88883951222E+01  0.53497100744E+02  0.00000000000E+00 0. -1.
</event>
<event>
 7    1  0.6684706E-006  0.8969561E+02  0.7561462E-02  0.1303591E+00
         -2   -1    0    0    0  501 -0.00000000000E+00  0.00000000000E+00  0.43756537425E+03  0.43756537425E+03  0.00000000000E+00 0. -1.
          2   -1    0    0  501    0  0.00000000000E+00 -0.00000000000E+00 -0.48395323707E+02  0.48395323707E+02  0.00000000000E+00 0.  1.
         23    2    1    2    0    0 -0.14770216195E+02 -0.57197384021E+02  0.30487922803E+03  0.32396784653E+03  0.92271999435E+02 0.  0.
          5    1    1    2  502    0  0.67594507949E+01 -0.82975030263E+01 -0.28792464265E+02  0.31000276289E+02  0.41800000000E+01 0. -1.
         -5    1    1    2    0  502  0.80107654000E+01  0.65494887048E+02  0.11308328679E+03  0.13099257514E+03  0.41800000000E+01 0. -1.
        -11    1    3    3    0    0  0.28752311654E+02  0.14091267277E+01  0.15012768550E+03  0.15286269335E+03  0.00000000000E+00 0. -1.
         11    1    3    3    0    0 -0.43522527849E+02 -0.58606510749E+02  0.15475154252E+03  0.17110515318E+03  0.00000000000E+00 0.  1.
</event>
<event>
 7    1  0.6684706E-006  0.1184220E+03  0.7561462E-02  0.1245723E+00
          1   -1    0    0  501    0  0.00000000000E+00  0.00000000000E+00  0.42004644641E+03  0.42004644641E+03  0.00000000000E+00 0. -1.
         -1   -1    0    0    0  501 -0.00000000000E+00 -0.00000000000E+00 -0.37962489122E+02  0.37962489122E+02  0.00000000000E+00 0.  1.
         23    2    1    2    0    0 -0.50166744809E+02 -0.20657280109E+02  0.10671896535E+03  0.15072470467E+03  0.91572777221E+02 0.  0.
          5    1    1    2  502    0  0.91090934058E+02  0.14857979611E+02  0.16124870229E+03  0.18584115318E+03  0.41800000000E+01 0. -1.
         -5    1    1    2    0  502 -0.40924189248E+02  0.57993004986E+01  0.11411628965E+03  0.12144307768E+03  0.41800000000E+01 0. -1.
        -11    1    3    3    0    0  0.25292280092E+02 -0.67934998428E+01  0.45798530997E+02  0.52757525661E+02  0.00000000000E+00 0. -1.
         11    1    3    3    0    0 -0.75459024902E+02 -0.13863780267E+02  0.60920434350E+02  0.97967179013E+02  0.00000000000E+00 0.  1.
</event>
<event>
 7    1  0.6684706E-006  0.1233949E+03  0.7561462E-02  0.1237599E+00
         -2   -1    0    0    0  501 -0.00000000000E+00  0.00000000000E+00  0.30161843767E+02  0.30161843767E+02  0.00000000000E+00 0. -1.
          2   -1    0    0  501    0  0.00000000000E+00 -0.00000000000E+00 -0.57395606622E+03  0.57395606622E+03  0.00000000000E+00 0.  1.
         23    2    1    2    0    0  0.65415485672E+02  0.12222517591E+02 -0.15859814999E+03  0.19368889549E+03  0.89069856600E+02 0.  0.
          5    1    1    2  502    0 -0.11441768465E+02 -0.61475073917E+02 -0.23699756280E+03  0.24514366390E+03  0.41800000000E+01 0. -1.
         -5    1    1    2    0  502 -0.53973717207E+02  0.49252556327E+02 -0.14819850966E+03  0.16528535059E+03  0.41800000000E+01 0. -1.
        -11    1    3    3    0    0 -0.15490089369E+02  0.24614088675E+02 -0.47497925847E+02  0.55694247367E+02  0.00000000000E+00 0.  1.
         11    1    3    3    0    0  0.80905575041E+02 -0.12391571084E+02 -0.11110022414E+03  0.13799464813E+03  0.00000000000E+00 0. -1.
</event>
<event>
 7    1  0.6684706E-006  0.1483215E+03  0.7561462E-02  0.1202551E+00
          1   -1    0    0  501    0  0.00000000000E+00  0.00000000000E+00  0.12018929609E+03  0.12018929609E+03  0.00000000000E+00 0. -1.
         -1   -1    0    0    0  501 -0.00000000000E+00 -0.00000000000E+00 -0.20770615688E+03  0.20770615688E+03  0.00000000000E+00 0.  1.
         23    2    1    2    0    0  0.86919656538E+02  0.74853810820E+02 -0.42648968639E+02  0.15236753812E+03  0.90767904342E+02 0.  0.
          5    1    1    2  502    0 -0.10342599308E+03 -0.38724726728E+02  0.62062130796E+01  0.11069114682E+03  0.41800000000E+01 0.  1.
         -5    1    1    2    0  502  0.16506336539E+02 -0.36129084092E+02 -0.51074105233E+02  0.64836768031E+02  0.41800000000E+01 0.  1.
        -11    1    3    3    0    0 -0.18051248785E+02  0.14778110646E+01 -0.35287981789E+01  0.18452206503E+02  0.00000000000E+00 0.  1.
         11    1    3    3    0    0  0.10497090532E+03  0.73375999755E+02 -0.39120170460E+02  0.13391533161E+03  0.00000000000E+00 0. -1.
</event>
<event>
 7    1  0.6684706E-006  0.8080231E+02  0.7561462E-02  0.1326790E+00
          2   -1    0    0  501    0  0.00000000000E+00  0.00000000000E+00  0.17996266572E+04  0.17996266572E+04  0.00000000000E+00 0. -1.
         -2   -1    0    0    0  501 -0.00000000000E+00 -0.00000000000E+00 -0.85227760219E+01  0.85227760219E+01  0.00000000000E+00 0.  1.
         23    2    1    2    0    0  0.23608886178E+01  0.52829998116E+02  0.57913678538E+03  0.58859690945E+03  0.90831289466E+02 0.  0.
          5    1    1    2  502    0  0.76734413374E+01 -0.17914467809E+02  0.11254255466E+04  0.11256020359E+04  0.41800000000E+01 0. -1.
         -5    1    1    2    0  502 -0.10034329955E+02 -0.34915530307E+02  0.86541549189E+02  0.93950487866E+02  0.41800000000E+01 0. -1.
        -11    1    3    3    0    0  0.22698840415E+02 -0.19527591229E+02  0.16528664585E+03  0.16797690160E+03  0.00000000000E+00 0.  1.
         11    1    3    3    0    0 -0.20337951797E+02  0.72357589345E+02  0.41385013953E+03  0.42062000786E+03  0.00000000000E+00 0. -1.
</event>
<event>
 7    1  0.6684706E-006  0.1241950E+03  0.7561462E-02  0.1236333E+00
          1   -1    0    0  501    0  0.00000000000E+00  0.00000000000E+00  0.10659900796E+03  0.10659900796E+03  0.00000000000E+00 0. -1.
         -1   -1    0    0    0  501 -0.00000000000E+00 -0.00000000000E+00 -0.17213681051E+03  0.17213681051E+03  0.00000000000E+00 0.  1.
         23    2    1    2    0    0 -0.30994502462E+02 -0.71018026458E+02 -0.57410538014E+02  0.13136639393E+03  0.89201683364E+02 0.  0.
          5    1    1    2  502    0 -0.88707938498E+01  0.93540404727E+02  0.16065106069E+02  0.95415189216E+02  0.41800000000E+01 0. -1.
         -5    1    1    2    0  502  0.39865296312E+02 -0.22522378270E+02 -0.24192370604E+02  0.51954235327E+02  0.41800000000E+01 0. -1.
        -11    1    3    3    0    0 -0.43336414247E+02 -0.79061226720E+01 -0.49993720557E+02  0.66632752237E+02  0.00000000000E+00 0.  1.
         11    1    3    3    0    0  0.12341911785E+02 -0.63111903786E+02 -0.74168174561E+01  0.64733641695E+02  0.00000000000E+00 0. -1.
</event>
<event>
 7    1  0.6684706E-006  0.1645133E+03  0.7561462E-02  0.1183693E+00
         -1   -1    0    0    0  501 -0.00000000000E+00  0.00000000000E+00  0.58235499863E+02  0.58235499863E+02  0.00000000000E+00 0.  1.
          1   -1    0    0  501    0  0.00000000000E+00 -0.00000000000E+00 -0.73610426545E+03  0.73610426545E+03  0.00000000000E+00 0. -1.
         23    2    1    2    0    0 -0.10002886044E+03  0.97829724361E+02 -0.11638610529E+03  0.20232106251E+03  0.88383589765E+02 0.  0.
          5    1    1    2  502    0  0.91872236450E+02 -0.17478679495E+02 -0.18968890417E+03  0.21153100206E+03  0.41800000000E+01 0.  1.
         -5    1    1    2    0  502  0.81566239866E+01 -0.80351044866E+02 -0.37179375613E+03  0.38048770075E+03  0.41800000000E+01 0.  1.
        -11    1    3    3    0    0 -0.88943380591E+02  0.43350430022E+02 -0.37501485710E+02  0.10581373335E+03  0.00000000000E+00 0.  1.
         11    1    3    3    0    0 -0.11085479845E+02  0.54479294339E+02 -0.78884619582E+02  0.96507329160E+02  0.00000000000E+00 0. -1.
</event>
<event>
 7    1  0.6684706E-006  0.1515417E+03  0.7561462E-02  0.1198591E+00
         -2   -1    0    0    0  501 -0.00000000000E+00  0.00000000000E+00  0.95249748833E+03  0.95249748833E+03  0.00000000000E+00 0.  1.
          2   -1    0    0  501    0  0.00000000000E+00 -0.00000000000E+00 -0.24699791456E+02  0.24699791456E+02  0.00000000000E+00 0. -1.
         23    2    1    2    0    0  0.28130752845E+02 -0.10600558069E+03  0.44630542502E+03  0.46777517814E+03  0.87158261202E+02 0.  0.
          5    1    1    2  502    0 -0.76081490124E+02  0.72794260799E+02  0.34982989378E+03  0.36535711917E+03  0.41800000000E+01 0. -1.
         -5    1    1    2    0  502  0.47950737280E+02  0.33211319889E+02  0.13166237807E+03  0.14406498247E+03  0.41800000000E+01 0. -1.
        -11    1    3    3    0    0  0.55020952728E+02 -0.40213429220E+02  0.19258682450E+03  0.20428928043E+03  0.00000000000E+00 0.  1.
         11    1    3    3    0    0 -0.26890199883E+02 -0.65792151467E+02  0.25371860052E+03  0.26348589772E+03  0.00000000000E+00 0. -1.
</event>
<event>
 7    1  0.6684706E-006  0.7135173E+02  0.7561462E-02  0.1355556E+00
         -1   -1    0    0    0  501 -0.00000000000E+00  0.00000000000E+00  0.99680763918E+02  0.99680763918E+02  0.00000000000E+00 0.  1.
          1   -1    0    0  501    0  0.00000000000E+00 -0.00000000000E+00 -0.14655413936E+03  0.14655413936E+03  0.00000000000E+00 0. -1.
         23    2    1    2    0    0 -0.12618966462E+02 -0.44518054196E+02  0.73067761337E+01  0.10227472474E+03  0.90915537064E+02 0.  0.
          5    1    1    2  502    0 -0.21531581902E+02  0.86428745029E+01  0.34802324624E+02  0.42035490935E+02  0.41800000000E+01 0. -1.
         -5    1    1    2    0  502  0.34150548364E+02  0.35875179693E+02 -0.88982476199E+02  0.10192468760E+03  0.41800000000E+01 0. -1.
        -11    1    3    3    0    0 -0.99144819210E+01  0.10439746185E+02 -0.31707146561E+02  0.34822814292E+02  0.00000000000E+00 0. -1.
         11    1    3    3    0    0 -0.27044845410E+01 -0.54957800381E+02  0.39013922695E+02  0.67451910450E+02  0.00000000000E+00 0.  1.
</event>
<event>
 7    1  0.6684706E-006  0.7993506E+02  0.7561462E-02  0.1329236E+00
         -2   -1    0    0    0  501 -0.00000000000E+00  0.00000000000E+00  0.50883891807E+03  0.50883891807E+03  0.00000000000E+00 0.  1.
          2   -1    0    0  501    0  0.00000000000E+00 -0.00000000000E+00 -0.27388481066E+02  0.27388481066E+02  0.00000000000E+00 0. -1.
         23    2    1    2    0    0  0.21706296261E+02  0.19180687814E+02  0.29038866831E+03  0.30602963018E+03  0.92138448990E+02 0.  0.
          5    1    1    2  502    0 -0.19430328502E+02 -0.42360418489E+02  0.10322823298E+02  0.47916341692E+02  0.41800000000E+01 0. -1.
         -5    1    1    2    0  502 -0.22759677592E+01  0.23179730675E+02  0.18073894539E+03  0.18228142726E+03  0.41800000000E+01 0. -1.
        -11    1    3    3    0    0  0.24657363318E+02 -0.30740288415E+02  0.18794230547E+03  0.19202932349E+03  0.00000000000E+00 0.  1.
         11    1    3    3    0    0 -0.29510670567E+01  0.49920976229E+02  0.10244636285E+03  0.11400030669E+03  0.00000000000E+00 0. -1.
</event>
<event>
 7    1  0.6684706E-006  0.1997978E+03  0.7561462E-02  0.1149910E+00
         -1   -1    0    0    0  501 -0.00000000000E+00  0.00000000000E+00  0.17516834680E+03  0.17516834680E+03  0.00000000000E+00 0.  1.
          1   -1    0    0  501    0  0.00000000000E+00 -0.00000000000E+00 -0.23402648043E+03  0.23402648043E+03  0.00000000000E+00 0. -1.
         23    2    1    2    0    0  0.14018503489E+03  0.94140830085E+02 -0.29734052613E+01  0.19174325549E+03  0.90787086031E+02 0.  0.
          5    1    1    2  502    0  0.13993823915E+02 -0.46210011574E+02 -0.16644325390E+02  0.51241567551E+02  0.41800000000E+01 0.  1.
         -5    1    1    2    0  502 -0.15417885880E+03 -0.47930818512E+02 -0.39240402981E+02  0.16621000419E+03  0.41800000000E+01 0.  1.
        -11    1    3    3    0    0  0.24298703643E+02  0.66051437149E+02  0.12568806678E+02  0.71492616748E+02  0.00000000000E+00 0.  1.
         11    1    3    3    0    0  0.11588633125E+03  0.28089392936E+02 -0.15542211940E+02  0.12025063874E+03  0.00000000000E+00 0. -1.
</event>
<event>
 7    1  0.6684706E-006  0.1090564E+03  0.7561462E-02  0.1262327E+00
         -1   -1    0    0    0  501 -0.00000000000E+00  0.00000000000E+00  0.97216594560E+02  0.97216594560E+02  0.00000000000E+00 0.  1.
          1   -1    0    0  501    0  0.00000000000E+00 -0.00000000000E+00 -0.16864724080E+03  0.16864724080E+03  0.00000000000E+00 0. -1.
         23    2    1    2    0    0 -0.45578769990E+02 -0.20893597202E+02  0.20122230380E+02  0.10294394809E+03  0.87627539137E+02 0.  0.
          5    1    1    2  502    0  0.48422481413E+02  0.65000148324E+02 -0.85880176730E+02  0.11816358637E+03  0.41800000000E+01 0.  1.
         -5    1    1    2    0  502 -0.28437114230E+01 -0.44106551122E+02 -0.56726998937E+01  0.44756300904E+02  0.41800000000E+01 0.  1.
        -11    1    3    3    0    0 -0.42769690570E+02  0.23007213112E+02 -0.10058102236E+02  0.49595803322E+02  0.00000000000E+00 0.  1.
         11    1    3    3    0    0 -0.28090794200E+01 -0.43900810314E+02  0.30180332617E+02  0.53348144768E+02  0.00000000000E+00 0. -1.
</event>
<event>
 7    1  0.6684706E-006  0.1049549E+03  0.7561462E-02  0.1270209E+00
          1   -1    0    0  501    0  0.00000000000E+00  0.00000000000E+00  0.21338452297E+03  0.21338452297E+03  0.00000000000E+00 0. -1.
         -1   -1    0    0    0  501 -0.00000000000E+00 -0.00000000000E+00 -0.77804093061E+02  0.77804093061E+02  0.00000000000E+00 0.  1.
         23    2    1    2    0    0 -0.30135138974E+02 -0.10867665704E+02  0.20406217750E+02  0.11814505177E+03  0.11187317273E+03 0.  0.
          5    1    1    2  502    0  0.29600618024E+02 -0.45043785079E+02  0.10200866244E+03  0.11544859798E+03  0.41800000000E+01 0. -1.
         -5    1    1    2    0  502  0.53452094963E+00  0.55911450783E+02  0.13165549716E+02  0.57594966279E+02  0.41800000000E+01 0. -1.
        -11    1    3    3    0    0 -0.46432142629E+02  0.30339603883E+02 -0.19217375650E+02  0.58700451104E+02  0.00000000000E+00 0.  1.
         11    1    3    3    0    0  0.16297003656E+02 -0.41207269587E+02  0.39623593400E+02  0.59444600671E+02  0.00000000000E+00 0. -1.
</event>
<event>
 7    1  0.6684706E-006  0.1130709E+03  0.7561462E-02  0.1254987E+00
          1   -1    0    0  501    0  0.00000000000E+00  0.00000000000E+00  0.11996928199E+03  0.11996928199E+03  0.00000000000E+00 0. -1.
         -1   -1    0    0    0  501 -0.00000000000E+00 -0.00000000000E+00 -0.14733213928E+03  0.14733213928E+03  0.00000000000E+00 0.  1.
         23    2    1    2    0    0  0.72740930143E+02 -0.23624814955E+02 -0.19142824913E+02  0.12043508768E+03  0.91042780056E+02 0.  0.
          5    1    1    2  502    0 -0.19893371909E+02  0.72002233705E+02 -0.22602369813E+01  0.74850844856E+02  0.41800000000E+01 0. -1.
         -5    1    1    2    0  502 -0.52847558233E+02 -0.48377418750E+02 -0.59597953911E+01  0.72015488732E+02  0.41800000000E+01 0. -1.
        -11    1    3    3    0    0  0.32230747744E+02  0.82232813099E+00  0.35632360978E+02  0.48053745666E+02  0.00000000000E+00 0. -1.
         11    1    3    3    0    0  0.40510182398E+02 -0.24447143086E+02 -0.54775185891E+02  0.72381342018E+02  0.00000000000E+00 0.  1.
</event>
<event>
 7    1  0.6684706E-006  0.8112787E+02  0.7561462E-02  0.1325881E+00
         -2   -1    0    0    0  501 -0.00000000000E+00  0.00000000000E+00  0.42432533849E+02  0.42432533849E+02  0.00000000000E+00 0.  1.
          2   -1    0    0  501    0  0.00000000000E+00 -0.00000000000E+00 -0.44874898843E+03  0.44874898843E+03  0.00000000000E+00 0. -1.
         23    2    1    2    0    0  0.58952769962E+01  0.76676094304E+02 -0.11825098771E+03  0.16784868529E+03  0.90972013997E+02 0.  0.
          5    1    1    2  502    0 -0.20516825902E+02 -0.51404592362E+02 -0.28854459357E+03  0.29383469356E+03  0.41800000000E+01 0.  1.
         -5    1    1    2    0  502  0.14621548905E+02 -0.25271501942E+02  0.47912671048E+00  0.29498143420E+02  0.41800000000E+01 0.  1.
        -11    1    3    3    0    0 -0.10521412447E+00  0.45921709008E+02 -0.42124220962E+00  0.45923761531E+02  0.00000000000E+00 0.  1.
         11    1    3    3    0    0  0.60004911207E+01  0.30754385297E+02 -0.11782974550E+03  0.12192492376E+03  0.00000000000E+00 0. -1.
</event>
<event>
 7    1  0.6684706E-006  0.1497866E+03  0.7561462E-02  0.1200735E+00
          1   -1    0    0  501    0  0.00000000000E+00  0.00000000000E+00  0.45363408170E+03  0.45363408170E+03  0.00000000000E+00 0. -1.
         -1   -1    0    0    0  501 -0.00000000000E+00 -0.00000000000E+00 -0.53532133683E+02  0.53532133683E+02  0.00000000000E+00 0.  1.
         23    2    1    2    0    0 -0.10149508383E+03 -0.42001993085E+02  0.15503452283E+03  0.21090375753E+03  0.91538364667E+02 0.  0.
          5    1    1    2  502    0  0.98399029407E+02  0.75799156553E+02  0.14750517098E+03  0.19288112658E+03  0.41800000000E+01 0.  1.
         -5    1    1    2    0  502  0.30960544244E+01 -0.33797163468E+02  0.97562254202E+02  0.10338133128E+03  0.41800000000E+01 0.  1.
        -11    1    3    3    0    0 -0.47205439137E+02 -0.66489039310E+02  0.72410881555E+02  0.10905265517E+03  0.00000000000E+00 0.  1.
         11    1    3    3    0    0 -0.54289644695E+02  0.24487046225E+02  0.82623641276E+02  0.10185110236E+03  0.00000000000E+00 0. -1.
</event>
<event>
 7    1  0.6684706E-006  0.1188573E+03  0.7561462E-02  0.1244994E+00
          1   -1    0    0  501    0  0.00000000000E+00  0.00000000000E+00  0.12620697502E+03  0.12620697502E+03  0.00000000000E+00 0. -1.
         -1   -1    0    0    0  501 -0.00000000000E+00 -0.00000000000E+00 -0.13976640682E+03  0.13976640682E+03  0.00000000000E+00 0.  1.
         23    2    1    2    0    0 -0.69092200188E+02 -0.15638277924E+02 -0.34799571465E+02  0.12065563761E+03  0.91260532821E+02 0.  0.
          5    1    1    2  502    0  0.71153530598E+01  0.57267839230E+02  0.37293458650E+02  0.68836822394E+02  0.41800000000E+01 0.  1.
         -5    1    1    2    0  502  0.61976847128E+02 -0.41629561307E+02 -0.16053318985E+02  0.76480921837E+02  0.41800000000E+01 0.  1.
        -11    1    3    3    0    0 -0.54594882799E+02  0.26376382505E+02 -0.44442439768E+02  0.75176094834E+02  0.00000000000E+00 0.  1.
         11    1    3    3    0    0 -0.14497317389E+02 -0.42014660429E+02  0.96428683033E+01  0.45479542781E+02  0.00000000000E+00 0. -1.
</event>
<event>
 7    1  0.6684706E-006  0.1087205E+03  0.7561462E-02  0.1262958E+00
         -2   -1    0    0    0  501 -0.00000000000E+00  0.00000000000E+00  0.36752108283E+03  0.36752108283E+03  0.00000000000E+00 0. -1.
          2   -1    0    0  501    0  0.00000000000E+00 -0.00000000000E+00 -0.47872249718E+02  0.47872249718E+02  0.00000000000E+00 0.  1.
         23    2    1    2    0    0 -0.33575799101E+02  0.31624675177E+02  0.23660690788E+03  0.25835857364E+03  0.92945518197E+02 0.  0.
          5    1    1    2  502    0  0.98032676178E+01 -0.76806072798E+02  0.69306219967E+02  0.10400048750E+03  0.41800000000E+01 0.  1.
         -5    1    1    2    0  502  0.23772531483E+02  0.45181397621E+02  0.13735705266E+02  0.53034271403E+02  0.41800000000E+01 0.  1.
        -11    1    3    3    0    0  0.20955259595E+02  0.26671342269E+02  0.16371456643E+03  0.16719133550E+03  0.00000000000E+00 0.  1.
         11    1    3    3    0    0 -0.54531058696E+02  0.49533329082E+01  0.72892341446E+02  0.91167238144E+02  0.00000000000E+00 0. -1.
</event>
<event>
 7    1  0.6684706E-006  0.1685732E+03  0.7561462E-02  0.1179344E+00
         -2   -1    0    0    0  501 -0.00000000000E+00  0.00000000000E+00  0.20770308777E+02  0.20770308777E+02  0.00000000000E+00 0.  1.
          2   -1    0    0  501    0  0.00000000000E+00 -0.00000000000E+00 -0.21508471744E+04  0.21508471744E+04  0.00000000000E+00 0. -1.
         23    2    1    2    0    0  0.65257360323E+01 -0.12982695912E+03 -0.37402471521E+03  0.40632308720E+03  0.91139119285E+02 0.  0.
          5    1    1    2  502    0 -0.58780469750E+02  0.10768115472E+03 -0.11226097425E+04  0.11293008815E+04  0.41800000000E+01 0.  1.
         -5    1    1    2    0  502  0.52254733717E+02  0.22145804401E+02 -0.63344240793E+03  0.63599351445E+03  0.41800000000E+01 0.  1.
        -11    1    3    3    0    0  0.47736470553E+02 -0.64389912986E+02 -0.21595165835E+03  0.23034745551E+03  0.00000000000E+00 0.  1.
         11    1    3    3    0    0 -0.41210734521E+02 -0.65437046131E+02 -0.15807305686E+03  0.17597563170E+03  0.00000000000E+00 0. -1.
</event>
<event>
 7    1  0.6684706E-006  0.1102436E+03  0.7561462E-02  0.1260119E+00
          1   -1    0    0  501    0  0.00000000000E+00  0.00000000000E+00  0.28125382439E+03  0.28125382439E+03  0.00000000000E+00 0. -1.
         -1   -1    0    0    0  501 -0.00000000000E+00 -0.00000000000E+00 -0.65188620200E+02  0.65188620200E+02  0.00000000000E+00 0.  1.
         23    2    1    2    0    0  0.64597500876E+01 -0.46492531452E+02  0.10492349907E+02  0.10126738863E+03  0.89116276527E+02 0.  0.
          5    1    1    2  502    0 -0.35587144746E+02 -0.27496249748E+02  0.35717032158E+02  0.57581832270E+02  0.41800000000E+01 0. -1.
         -5    1    1    2    0  502  0.29127394659E+02  0.73988781199E+02  0.16985582212E+03  0.18759322368E+03  0.41800000000E+01 0. -1.
        -11    1    3    3    0    0 -0.12862207247E+02  0.21476674162E+02  0.17070037117E+02  0.30299671211E+02  0.00000000000E+00 0.  1.
         11    1    3    3    0    0  0.19321957334E+02 -0.67969205614E+02 -0.65776872105E+01  0.70967717422E+02  0.00000000000E+00 0. -1.
</event>
<event>
 7    1  0.6684706E-006  0.1533600E+03  0.7561462E-02  0.1196404E+00
         -1   -1    0    0    0  501 -0.00000000000E+00  0.00000000000E+00  0.68244317422E+02  0.68244317422E+02  0.00000000000E+00 0.  1.
          1   -1    0    0  501    0  0.00000000000E+00 -0.00000000000E+00 -0.94812401063E+03  0.94812401063E+03  0.00000000000E+00 0. -1.
         23    2    1    2    0    0 -0.11363769029E+03 -0.47303752632E+02 -0.48737227083E+02  0.16199603161E+03  0.93360737381E+02 0.  0.
          5    1    1    2  502    0  0.14092717585E+03  0.20386973635E+02 -0.76203525691E+03  0.77523628834E+03  0.41800000000E+01 0. -1.
         -5    1    1    2    0  502 -0.27289485552E+02  0.26916778997E+02 -0.69107209221E+02  0.79136008110E+02  0.41800000000E+01 0.  1.
        -11    1    3    3    0    0 -0.90627172553E+01 -0.12606169642E+02 -0.49432021229E+02  0.51812865968E+02  0.00000000000E+00 0. -1.
         11    1    3    3    0    0 -0.10457497304E+03 -0.34697582990E+02  0.69479414582E+00  0.11018316564E+03  0.00000000000E+00 0.  1.
</event>
<event>
 7    1  0.6684706E-006  0.3169891E+03  0.7561462E-02  0.1077043E+00
         -4   -1    0    0    0  501 -0.00000000000E+00  0.00000000000E+00  0.70656779206E+03  0.70656779206E+03  0.00000000000E+00 0.  1.
          4   -1    0    0  501    0  0.00000000000E+00 -0.00000000000E+00 -0.18062410257E+03  0.18062410257E+03  0.00000000000E+00 0. -1.
         23    2    1    2    0    0  0.27658718605E+02 -0.30672281817E+03  0.44226808501E+03  0.54441641679E+03  0.77099182566E+02 0.  0.
          5    1    1    2  502    0 -0.20369914444E+02  0.17522770569E+02  0.42618403370E+02  0.50554738736E+02  0.41800000000E+01 0.  1.
         -5    1    1    2    0  502 -0.72888041605E+01  0.28920004760E+03  0.41057201114E+02  0.29222073910E+03  0.41800000000E+01 0.  1.
        -11    1    3    3    0    0  0.49467848543E+02 -0.27198401371E+03  0.38380259424E+03  0.47299767769E+03  0.00000000000E+00 0. -1.
         11    1    3    3    0    0 -0.21809129939E+02 -0.34738804457E+02  0.58465490778E+02  0.71418739107E+02  0.00000000000E+00 0.  1.
</event>
<event>
 7    1  0.6684706E-006  0.8868735E+02  0.7561462E-02  0.1306062E+00
         -2   -1    0    0    0  501 -0.00000000000E+00  0.00000000000E+00  0.34869751404E+02  0.34869751404E+02  0.00000000000E+00 0. -1.
          2   -1    0    0  501    0  0.00000000000E+00 -0.00000000000E+00 -0.16033905916E+04  0.16033905916E+04  0.00000000000E+00 0.  1.
         23    2    1    2    0    0  0.87495232486E+01  0.28875294418E+02 -0.36834708365E+02  0.10117937005E+03  0.89275598002E+02 0.  0.
          5    1    1    2  502    0  0.38900627203E+02 -0.56465096506E+02 -0.63726104682E+03  0.64095294688E+03  0.41800000000E+01 0.  1.
         -5    1    1    2    0  502 -0.47650150451E+02  0.27589802088E+02 -0.89442508497E+03  0.89612802603E+03  0.41800000000E+01 0.  1.
        -11    1    3    3    0    0  0.18251767857E+02  0.36805958457E+02 -0.61281378585E+02  0.73778133408E+02  0.00000000000E+00 0.  1.
         11    1    3    3    0    0 -0.95022446082E+01 -0.79306640399E+01  0.24446670220E+02  0.27401236643E+02  0.00000000000E+00 0. -1.
</event>
<event>
 7    1  0.6684706E-006  0.9744405E+02  0.7561462E-02  0.1285764E+00
         -1   -1    0    0    0  501 -0.00000000000E+00  0.00000000000E+00  0.54083322969E+02  0.54083322969E+02  0.00000000000E+00 0.  1.
          1   -1    0    0  501    0  0.00000000000E+00 -0.00000000000E+00 -0.22198756681E+03  0.22198756681E+03  0.00000000000E+00 0. -1.
         23    2    1    2    0    0 -0.15350526738E+02 -0.42380260078E+01 -0.56275794773E+02  0.10765996051E+03  0.90388619221E+02 0.  0.
          5    1    1    2  502    0 -0.42772873598E+02  0.11245631335E+02 -0.98806124442E+02  0.10833330775E+03  0.41800000000E+01 0. -1.
         -5    1    1    2    0  502  0.58123400336E+02 -0.70076053268E+01 -0.12822324628E+02  0.60077621523E+02  0.41800000000E+01 0. -1.
        -11    1    3    3    0    0  0.96863888014E+01 -0.43851665285E+02 -0.26762309807E+02  0.52278254586E+02  0.00000000000E+00 0. -1.
         11    1    3    3    0    0 -0.25036915539E+02  0.39613639277E+02 -0.29513484966E+02  0.55381705927E+02  0.00000000000E+00 0.  1.
</event>
<event>
 7    1  0.6684706E-006  0.1052209E+03  0.7561462E-02  0.1269685E+00
         -1   -1    0    0    0  501 -0.00000000000E+00  0.00000000000E+00  0.26643012246E+03  0.26643012246E+03  0.00000000000E+00 0.  1.
          1   -1    0    0  501    0  0.00000000000E+00 -0.00000000000E+00 -0.72105577837E+02  0.72105577837E+02  0.00000000000E+00 0. -1.
         23    2    1    2    0    0  0.32046911526E+02  0.56930000722E+02  0.15371711060E+03  0.19168588272E+03  0.94055823968E+02 0.  0.
          5    1    1    2  502    0 -0.32073473835E+02 -0.73033040369E+02  0.74416729691E+02  0.10916892766E+03  0.41800000000E+01 0.  1.
         -5    1    1    2    0  502  0.26562308535E-01  0.16103039647E+02 -0.33809295665E+02  0.37680889916E+02  0.41800000000E+01 0.  1.
        -11    1    3    3    0    0  0.55165585667E+02  0.68602814930E+02  0.12649637297E+03  0.15411333632E+03  0.00000000000E+00 0.  1.
         11    1    3    3    0    0 -0.23118674141E+02 -0.11672814207E+02  0.27220737628E+02  0.37572546395E+02  0.00000000000E+00 0. -1.
</event>
<event>
 7    1  0.6684706E-006  0.9389745E+02  0.7561462E-02  0.1293679E+00
         -1   -1    0    0    0  501 -0.00000000000E+00  0.00000000000E+00  0.13691792401E+02  0.13691792401E+02  0.00000000000E+00 0.  1.
          1   -1    0    0  501    0  0.00000000000E+00 -0.00000000000E+00 -0.14849584657E+04  0.14849584657E+04  0.00000000000E+00 0. -1.
         23    2    1    2    0    0  0.37974795465E+01 -0.46072848727E+02 -0.23451119591E+03  0.25472565017E+03  0.88048438975E+02 0.  0.
          5    1    1    2  502    0 -0.46174443949E+02  0.68969510183E+02 -0.67609860431E+03  0.68118695507E+03  0.41800000000E+01 0.  1.
         -5    1    1    2    0  502  0.42376964403E+02 -0.22896661456E+02 -0.56065687304E+03  0.56273765282E+03  0.41800000000E+01 0.  1.
        -11    1    3    3    0    0 -0.11643357877E+02 -0.53949661778E+01  0.30688051191E+01  0.13194355140E+02  0.00000000000E+00 0.  1.
         11    1    3    3    0    0  0.15440837423E+02 -0.40677882549E+02 -0.23758000103E+03  0.24153129503E+03  0.00000000000E+00 0. -1.
</event>
<event>
 7    1  0.6684706E-006  0.1095912E+03  0.7561462E-02  0.1261329E+00
          2   -1    0    0  501    0  0.00000000000E+00  0.00000000000E+00  0.38460263142E+03  0.38460263142E+03  0.00000000000E+00 0. -1.
         -2   -1    0    0    0  501 -0.00000000000E+00 -0.00000000000E+00 -0.38150519910E+02  0.38150519910E+02  0.00000000000E+00 0.  1.
         23    2    1    2    0    0 -0.32630864417E+02  0.24194125343E+01  0.14201084156E+03  0.18085561114E+03  0.10710296957E+03 0.  0.
          5    1    1    2  502    0 -0.56895774169E+01  0.57496530779E+02  0.86404185501E+02  0.10402585263E+03  0.41800000000E+01 0.  1.
         -5    1    1    2    0  502  0.38320441834E+02 -0.59915943313E+02  0.11803708445E+03  0.13787168756E+03  0.41800000000E+01 0.  1.
        -11    1    3    3    0    0  0.23335586383E+01  0.39195380238E+02  0.11867653418E+03  0.12500337232E+03  0.00000000000E+00 0. -1.
         11    1    3    3    0    0 -0.34964423055E+02 -0.36775967704E+02  0.23334307385E+02  0.55852238821E+02  0.00000000000E+00 0.  1.
</event>
<event>
 7    1  0.6684706E-006  0.1009162E+03  0.7561462E-02  0.1278381E+00
          2   -1    0    0  501    0  0.00000000000E+00  0.00000000000E+00  0.29312358819E+03  0.29312358819E+03  0.00000000000E+00 0. -1.
         -2   -1    0    0    0  501 -0.00000000000E+00 -0.00000000000E+00 -0.59880778749E+02  0.59880778749E+02  0.00000000000E+00 0.  1.
         23    2    1    2    0    0 -0.20641325408E+02 -0.47125894292E+02  0.29970628690E+02  0.10884513557E+03  0.91115919169E+02 0.  0.
          5    1    1    2  502    0  0.71585662834E+02  0.21629703012E+02  0.88362166662E+02  0.11583477920E+03  0.41800000000E+01 0. -1.
         -5    1    1    2    0  502 -0.50944337426E+02  0.25496191280E+02  0.11491001409E+03  0.12832445217E+03  0.41800000000E+01 0. -1.
        -11    1    3    3    0    0 -0.30259053062E+02 -0.10632359353E+02 -0.26035743885E+02  0.41310014733E+02  0.00000000000E+00 0.  1.
         11    1    3    3    0    0  0.96177276539E+01 -0.36493534939E+02  0.56006372575E+02  0.67535120838E+02  0.00000000000E+00 0. -1.
</event>
<event>
 7    1  0.6684706E-006  0.1295612E+03  0.7561462E-02  0.1228108E+00
         -1   -1    0    0    0  501 -0.00000000000E+00  0.00000000000E+00  0.15384857525E+02  0.15384857525E+02  0.00000000000E+00 0.  1.
          1   -1    0    0  501    0  0.00000000000E+00 -0.00000000000E+00 -0.11672561596E+04  0.11672561596E+04  0.00000000000E+00 0. -1.
         23    2    1    2    0    0  0.68080512399E+02 -0.38521055827E+02 -0.45501939052E+03  0.47034256975E+03  0.89781174311E+02 0.  0.
          5    1    1    2  502    0 -0.20399214196E+02  0.76735743528E+02 -0.49544662940E+03  0.50178614694E+03  0.41800000000E+01 0. -1.
         -5    1    1    2    0  502 -0.47681298203E+02 -0.38214687701E+02 -0.20140528213E+03  0.21051230041E+03  0.41800000000E+01 0. -1.
        -11    1    3    3    0    0 -0.14940446584E+01  0.24466567334E+02 -0.11673398176E+03  0.11927978699E+03  0.00000000000E+00 0. -1.
         11    1    3    3    0    0  0.69574557057E+02 -0.62987623161E+02 -0.33828540876E+03  0.35106278276E+03  0.00000000000E+00 0.  1.
</event>
<event>
 7    1  0.6684706E-006  0.7010058E+02  0.7561462E-02  0.1359751E+00
         -1   -1    0    0    0  501 -0.00000000000E+00  0.00000000000E+00  0.26381686282E+03  0.26381686282E+03  0.00000000000E+00 0.  1.
          1   -1    0    0  501    0  0.00000000000E+00 -0.00000000000E+00 -0.61424761041E+02  0.61424761041E+02  0.00000000000E+00 0. -1.
         23    2    1    2    0    0  0.13750716709E+02  0.53153794847E+02  0.13927698873E+03  0.17474648185E+03  0.90132376036E+02 0.  0.
          5    1    1    2  502    0 -0.28982325318E+02 -0.11202025477E+02  0.91981770690E+02  0.97178079292E+02  0.41800000000E+01 0. -1.
         -5    1    1    2    0  502  0.15231608609E+02 -0.41951769370E+02 -0.28866657644E+02  0.53317062725E+02  0.41800000000E+01 0. -1.
        -11    1    3    3    0    0  0.22603393365E+02  0.21651261758E+02 -0.38486172283E+00  0.31302374444E+02  0.00000000000E+00 0. -1.
         11    1    3    3    0    0 -0.88526766563E+01  0.31502533089E+02  0.13966185046E+03  0.14344410740E+03  0.00000000000E+00 0.  1.
</event>
<event>
 7    1  0.6684706E-006  0.1018632E+03  0.7561462E-02  0.1276426E+00
         -2   -1    0    0    0  501 -0.00000000000E+00  0.00000000000E+00  0.14099411296E+02  0.14099411296E+02  0.00000000000E+00 0.  1.
          2   -1    0    0  501    0  0.00000000000E+00 -0.00000000000E+00 -0.10735619804E+04  0.10735619804E+04  0.00000000000E+00 0. -1.
         23    2    1    2    0    0 -0.48845544015E+02 -0.22769457624E+02 -0.36152839398E+03  0.37656078099E+03  0.90503628403E+02 0.  0.
          5    1    1    2  502    0  0.21026384128E+02  0.53417648895E+02 -0.62080211437E+03  0.62346474772E+03  0.41800000000E+01 0. -1.
         -5    1    1    2    0  502  0.27819159887E+02 -0.30648191270E+02 -0.77132060722E+02  0.87635862957E+02  0.41800000000E+01 0. -1.
        -11    1    3    3    0    0 -0.75420768982E+02 -0.18415044334E+02 -0.24725617941E+03  0.25915830010E+03  0.00000000000E+00 0.  1.
         11    1    3    3    0    0  0.26575224968E+02 -0.43544132909E+01 -0.11427221456E+03  0.11740248089E+03  0.00000000000E+00 0. -1.
</event>
<event>
 7    1  0.6684706E-006  0.1097749E+03  0.7561462E-02  0.1260987E+00
          2   -1    0    0  501    0  0.00000000000E+00  0.00000000000E+00  0.12720507527E+03  0.12720507527E+03  0.00000000000E+00 0.  1.
         -2   -1    0    0    0  501 -0.00000000000E+00 -0.00000000000E+00 -0.11967444745E+03  0.11967444745E+03  0.00000000000E+00 0. -1.
         23    2    1    2    0    0  0.28394506246E+02 -0.51226590203E+02 -0.88900421005E+01  0.10778610155E+03  0.90046650741E+02 0.  0.
          5    1    1    2  502    0  0.22597761199E+02  0.76882516347E+02  0.16173059380E+02  0.81857317209E+02  0.41800000000E+01 0. -1.
         -5    1    1    2    0  502 -0.50992267444E+02 -0.25655926143E+02  0.24761053573E+00  0.57236103959E+02  0.41800000000E+01 0. -1.
        -11    1    3    3    0    0 -0.15110535731E+02 -0.30159252898E+02  0.30465039939E+02  0.45453575040E+02  0.00000000000E+00 0.  1.
         11    1    3    3    0    0  0.43505041977E+02 -0.21067337305E+02 -0.39355082040E+02  0.62332526508E+02  0.00000000000E+00 0. -1.
</event>
<event>
 7    1  0.6684706E-006  0.6758135E+02  0.7561462E-02  0.1368516E+00
         -3   -1    0    0    0  501 -0.00000000000E+00  0.00000000000E+00  0.85074586920E+02  0.85074586920E+02  0.00000000000E+00 0.  1.
          3   -1    0    0  501    0  0.00000000000E+00 -0.00000000000E+00 -0.15226285596E+03  0.15226285596E+03  0.00000000000E+00 0. -1.
         23    2    1    2    0    0  0.21263528053E+02  0.28006777426E+02 -0.32650431655E+02  0.10288854749E+03  0.91013654532E+02 0.  0.
          5    1    1    2  502    0 -0.10461362923E+02 -0.60677559156E+01 -0.80878931767E+02  0.81884869052E+02  0.41800000000E+01 0. -1.
         -5    1    1    2    0  502 -0.10802165130E+02 -0.21939021510E+02  0.46341094379E+02  0.52564026335E+02  0.41800000000E+01 0. -1.
        -11    1    3    3    0    0 -0.34295899347E+02 -0.21105637904E+01 -0.10718197830E+02  0.35993651610E+02  0.00000000000E+00 0.  1.
         11    1    3    3    0    0  0.55559427399E+02  0.30117341216E+02 -0.21932233825E+02  0.66894895885E+02  0.00000000000E+00 0. -1.
</event>
<event>
 7    1  0.6684706E-006  0.1904203E+03  0.7561462E-02  0.1158083E+00
         -2   -1    0    0    0  501 -0.00000000000E+00  0.00000000000E+00  0.24633698832E+02  0.24633698832E+02  0.00000000000E+00 0.  1.
          2   -1    0    0  501    0  0.00000000000E+00 -0.00000000000E+00 -0.16805485290E+04  0.16805485290E+04  0.00000000000E+00 0. -1.
         23    2    1    2    0    0  0.38591710559E+02  0.16738469617E+03 -0.78790451536E+03  0.81154015916E+03  0.91087584019E+02 0.  0.
          5    1    1    2  502    0 -0.43669873933E+02 -0.19012421731E+02 -0.93444303717E+02  0.10496590097E+03  0.41800000000E+01 0. -1.
         -5    1    1    2    0  502  0.50781633734E+01 -0.14837227444E+03 -0.77456601108E+03  0.78867616769E+03  0.41800000000E+01 0. -1.
        -11    1    3    3    0    0  0.55400014709E+02  0.93000656693E+02 -0.32924320799E+03  0.34658241990E+03  0.00000000000E+00 0.  1.
         11    1    3    3    0    0 -0.16808304150E+02  0.74384039482E+02 -0.45866130737E+03  0.46495773926E+03  0.00000000000E+00 0. -1.
</event>
<event>
 7    1  0.6684706E-006  0.2052225E+03  0.7561462E-02  0.1145406E+00
         -2   -1    0    0    0  501 -0.00000000000E+00  0.00000000000E+00  0.70772455131E+02  0.70772455131E+02  0.00000000000E+00 0.  1.
          2   -1    0    0  501    0  0.00000000000E+00 -0.00000000000E+00 -0.10011641857E+04  0.10011641857E+04  0.00000000000E+00 0. -1.
         23    2    1    2    0    0  0.17649611558E+03 -0.79245638048E+02 -0.14213810308E+03  0.25192006775E+03  0.76352670046E+02 0.  0.
          5    1    1    2  502    0 -0.17262967794E+03  0.95152869584E+02 -0.77122633735E+03  0.79602927717E+03  0.41800000000E+01 0. -1.
         -5    1    1    2    0  502 -0.38664376366E+01 -0.15907231536E+02 -0.17027290118E+02  0.23987295886E+02  0.41800000000E+01 0.  1.
        -11    1    3    3    0    0  0.35217697254E+02 -0.17731839647E+01 -0.63487282438E+02  0.72622760981E+02  0.00000000000E+00 0. -1.
         11    1    3    3    0    0  0.14127841833E+03 -0.77472454083E+02 -0.78650820643E+02  0.17929730677E+03  0.00000000000E+00 0.  1.
</event>
<event>
 7    1  0.6684706E-006  0.1707722E+03  0.7561462E-02  0.1177045E+00
         -2   -1    0    0    0  501 -0.00000000000E+00  0.00000000000E+00  0.63945760237E+02  0.63945760237E+02  0.00000000000E+00 0. -1.
          2   -1    0    0  501    0  0.00000000000E+00 -0.00000000000E+00 -0.75334753937E+03  0.75334753937E+03  0.00000000000E+00 0.  1.
         23    2    1    2    0    0 -0.78011430967E+02  0.12413164987E+03 -0.10518683826E+03  0.20210809723E+03  0.91043737643E+02 0.  0.
          5    1    1    2  502    0  0.31419797870E+02  0.17406493530E+02 -0.58769674947E+02  0.69003889807E+02  0.41800000000E+01 0.  1.
         -5    1    1    2    0  502  0.46591633097E+02 -0.14153814340E+03 -0.52544526592E+03  0.54618131256E+03  0.41800000000E+01 0.  1.
        -11    1    3    3    0    0 -0.69412904584E+02  0.60420721404E+02 -0.10251910484E+03  0.13776422524E+03  0.00000000000E+00 0.  1.
         11    1    3    3    0    0 -0.85985263826E+01  0.63710928464E+02 -0.26677334153E+01  0.64343871994E+02  0.00000000000E+00 0. -1.
</event>
<event>
 7    1  0.6684706E-006  0.1978774E+03  0.7561462E-02  0.1151542E+00
         -2   -1    0    0    0  501 -0.00000000000E+00  0.00000000000E+00  0.91013999784E+02  0.91013999784E+02  0.00000000000E+00 0.  1.
          2   -1    0    0  501    0  0.00000000000E+00 -0.00000000000E+00 -0.47794861161E+03  0.47794861161E+03  0.00000000000E+00 0. -1.
         23    2    1    2    0    0  0.13508405916E+03 -0.11418543117E+03 -0.16107065949E+03  0.25599589907E+03  0.91126984275E+02 0.  0.
          5    1    1    2  502    0 -0.67196302102E+02 -0.27189013356E+01 -0.27268081210E+02  0.72689449672E+02  0.41800000000E+01 0.  1.
         -5    1    1    2    0  502 -0.67887757062E+02  0.11690433250E+03 -0.19859587113E+03  0.24027726265E+03  0.41800000000E+01 0.  1.
        -11    1    3    3    0    0  0.13788200591E+02 -0.57690942169E+02 -0.79839760480E+02  0.99462287514E+02  0.00000000000E+00 0.  1.
         11    1    3    3    0    0  0.12129585857E+03 -0.56494488999E+02 -0.81230899008E+02  0.15653361156E+03  0.00000000000E+00 0. -1.
</event>
<event>
 7    1  0.6684706E-006  0.1001204E+03  0.7561462E-02  0.1280043E+00
         -2   -1    0    0    0  501 -0.00000000000E+00  0.00000000000E+00  0.46397514091E+03  0.46397514091E+03  0.00000000000E+00 0.  1.
          2   -1    0    0  501    0  0.00000000000E+00 -0.00000000000E+00 -0.38587475835E+02  0.38587475835E+02  0.00000000000E+00 0. -1.
         23    2    1    2    0    0  0.26992914779E+02 -0.61373199722E+02  0.26017021150E+03  0.28475515068E+03  0.94348660793E+02 0.  0.
          5    1    1    2  502    0 -0.44659311056E+02  0.56248567000E+02  0.24753622897E+02  0.76082649797E+02  0.41800000000E+01 0.  1.
         -5    1    1    2    0  502  0.17666396278E+02  0.51246327217E+01  0.14046383067E+03  0.14172481626E+03  0.41800000000E+01 0.  1.
        -11    1    3    3    0    0 -0.26025444872E+02 -0.48241017246E+02  0.17666244956E+03  0.18497064797E+03  0.00000000000E+00 0.  1.
         11    1    3    3    0    0  0.53018359651E+02 -0.13132182475E+02  0.83507761942E+02  0.99784502710E+02  0.00000000000E+00 0. -1.
</event>
<event>
 7    1  0.6684706E-006  0.1143457E+03  0.7561462E-02  0.1252728E+00
          1   -1    0    0  501    0  0.00000000000E+00  0.00000000000E+00  0.65572909486E+02  0.65572909486E+02  0.00000000000E+00 0. -1.
         -1   -1    0    0    0  501 -0.00000000000E+00 -0.00000000000E+00 -0.24781524044E+03  0.24781524044E+03  0.00000000000E+00 0.  1.
         23    2    1    2    0    0 -0.58667301446E+02  0.23089994493E+02 -0.10729157069E+03  0.15452396462E+03  0.91603353637E+02 0.  0.
          5    1    1    2  502    0 -0.28849474381E+02  0.25698953521E+02 -0.12954859238E+02  0.40963754247E+02  0.41800000000E+01 0.  1.
         -5    1    1    2    0  502  0.87516775827E+02 -0.48788948014E+02 -0.61995901032E+02  0.11790043106E+03  0.41800000000E+01 0.  1.
        -11    1    3    3    0    0 -0.19838436472E+02 -0.22277469014E+02 -0.86163915809E+02  0.91181519920E+02  0.00000000000E+00 0. -1.
         11    1    3    3    0    0 -0.38828864974E+02  0.45367463507E+02 -0.21127654878E+02  0.63342444702E+02  0.00000000000E+00 0.  1.
</event>
<event>
 7    1  0.6684706E-006  0.9557049E+02  0.7561462E-02  0.1289896E+00
          2   -1    0    0  501    0  0.00000000000E+00  0.00000000000E+00  0.81496511863E+03  0.81496511863E+03  0.00000000000E+00 0. -1.
         -2   -1    0    0    0  501 -0.00000000000E+00 -0.00000000000E+00 -0.33966802514E+02  0.33966802514E+02  0.00000000000E+00 0.  1.
         23    2    1    2    0    0  0.40428888848E+01  0.14730836329E+02  0.46787610266E+02  0.10398510055E+03  0.91599553337E+02 0.  0.
          5    1    1    2  502    0 -0.61371748204E+02  0.10337097160E+02  0.41134982577E+03  0.41605227870E+03  0.41800000000E+01 0. -1.
         -5    1    1    2    0  502  0.57328859319E+02 -0.25067933489E+02  0.32286088008E+03  0.32889454190E+03  0.41800000000E+01 0. -1.
        -11    1    3    3    0    0  0.30657779339E+02 -0.72886091358E+01  0.59375937580E+02  0.67219976351E+02  0.00000000000E+00 0. -1.
         11    1    3    3    0    0 -0.26614890454E+02  0.22019445465E+02 -0.12588327314E+02  0.36765124195E+02  0.00000000000E+00 0.  1.
</event>
<event>
 7    1  0.6684706E-006  0.1510975E+03  0.7561462E-02  0.1199131E+00
         -2   -1    0    0    0  501 -0.00000000000E+00  0.00000000000E+00  0.16146576167E+02  0.16146576167E+02  0.00000000000E+00 0.  1.
          2   -1    0    0  501    0  0.00000000000E+00 -0.00000000000E+00 -0.20325061361E+04  0.20325061361E+04  0.00000000000E+00 0. -1.
         23    2    1    2    0    0 -0.11646836984E+03 -0.95047978572E+01 -0.45352825412E+03  0.47647451896E+03  0.87663376482E+02 0.  0.
          5    1    1    2  502    0  0.13514720651E+03 -0.34938012434E+01 -0.10297445482E+04  0.10385895633E+04  0.41800000000E+01 0. -1.
         -5    1    1    2    0  502 -0.18678836664E+02  0.12998599101E+02 -0.53308675760E+03  0.53358862998E+03  0.41800000000E+01 0. -1.
        -11    1    3    3    0    0 -0.82969181017E+02 -0.45502372839E+02 -0.25636049723E+03  0.27326736994E+03  0.00000000000E+00 0.  1.
         11    1    3    3    0    0 -0.33499188828E+02  0.35997574982E+02 -0.19716775689E+03  0.20320714902E+03  0.00000000000E+00 0. -1.
</event>
<event>
 7    1  0.6684706E-006  0.1108279E+03  0.7561462E-02  0.1259044E+00
          3   -1    0    0  501    0  0.00000000000E+00  0.00000000000E+00  0.29998704398E+03  0.29998704398E+03  0.00000000000E+00 0. -1.
         -3   -1    0    0    0  501 -0.00000000000E+00 -0.00000000000E+00 -0.78363414491E+02  0.78363414491E+02  0.00000000000E+00 0.  1.
         23    2    1    2    0    0 -0.28757352018E+02 -0.61713594520E+02 -0.11178771858E+02  0.11147085041E+03  0.87551313569E+02 0.  0.
          5    1    1    2  502    0  0.41525627427E+02 -0.15838374212E+02  0.12971121545E+03  0.13717763536E+03  0.41800000000E+01 0. -1.
         -5    1    1    2    0  502 -0.12768275409E+02  0.77551968733E+02  0.10309118590E+03  0.12970197270E+03  0.41800000000E+01 0.  1.
        -11    1    3    3    0    0 -0.15293348318E+01 -0.69869081173E+02 -0.31372406084E+02  0.76604537936E+02  0.00000000000E+00 0. -1.
         11    1    3    3    0    0 -0.27228017187E+02  0.81554866526E+01  0.20193634226E+02  0.34866312476E+02  0.00000000000E+00 0.  1.
</event>
<event>
 7    1  0.7332130E-006  0.1066294E+03  0.7561462E-02  0.1266942E+00
          1   -1    0    0  501    0  0.00000000000E+00  0.00000000000E+00  0.54000081614E+02  0.54000081614E+02  0.00000000000E+00 0. -1.
         -1   -1    0    0    0  501 -0.00000000000E+00 -0.00000000000E+00 -0.31818039539E+03  0.31818039539E+03  0.00000000000E+00 0.  1.
         23    2    1    2    0    0 -0.32806121965E+02  0.56850404119E+02 -0.16086393408E+03  0.19716573327E+03  0.93214328296E+02 0.  0.
          5    1    1    2  502    0  0.29569341580E+02 -0.93128818448E+02 -0.97126066838E+02  0.13783420492E+03  0.41800000000E+01 0. -1.
         -5    1    1    2    0  502  0.32367803845E+01  0.36278414329E+02 -0.61903128608E+01  0.37180538818E+02  0.41800000000E+01 0. -1.
        -11    1    3    3    0    0 -0.60629368965E+01  0.51080293817E+02 -0.22537190703E+02  0.56159421160E+02  0.00000000000E+00 0. -1.
         11    1    3    3    0    0 -0.26743185068E+02  0.57701103017E+01 -0.13832674338E+03  0.14100631211E+03  0.00000000000E+00 0.  1.
</event>
<event>
 6    1  0.6684706E-006  0.1832511E+03  0.7561462E-02  0.1164693E+00
          2   -1    0    0  501    0  0.00000000000E+00  0.00000000000E+00  0.10356073954E+04  0.10356073954E+04  0.00000000000E+00 0. -1.
         -2   -1    0    0    0  501 -0.00000000000E+00 -0.00000000000E+00 -0.37434574971E+02  0.37434574971E+02  0.00000000000E+00 0.  1.
          5    1    1    2  502    0 -0.11347541947E+03  0.81053792071E+02  0.58312135644E+03  0.59957849925E+03  0.41800000000E+01 0. -1.
         -5    1    1    2    0  502  0.14564110210E+03 -0.98528829246E+02  0.31975535885E+03  0.36493865611E+03  0.41800000000E+01 0.  1.
        -11    1    1    2    0    0 -0.50600206463E+00  0.19377458834E+02  0.27152879437E+02  0.33361966529E+02  0.00000000000E+00 0.  1.
         11    1    1    2    0    0 -0.31659680565E+02 -0.19024216594E+01  0.68143225743E+02  0.75162848511E+02  0.00000000000E+00 0. -1.
</event>
<event>
 7    1  0.6684706E-006  0.1075516E+03  0.7561462E-02  0.1265172E+00
         -1   -1    0    0    0  501 -0.00000000000E+00  0.00000000000E+00  0.24796504925E+03  0.24796504925E+03  0.00000000000E+00 0.  1.
          1   -1    0    0  501    0  0.00000000000E+00 -0.00000000000E+00 -0.11714161858E+03  0.11714161858E+03  0.00000000000E+00 0. -1.
         23    2    1    2    0    0  0.26536435766E+02 -0.69501642124E+02  0.18027823914E+03  0.21139245461E+03  0.81558970558E+02 0.  0.
          5    1    1    2  502    0  0.36571683193E+02  0.20677763397E+02  0.21030740105E+02  0.47168022431E+02  0.41800000000E+01 0.  1.
         -5    1    1    2    0  502 -0.63108118960E+02  0.48823878727E+02 -0.70485548571E+02  0.10654619078E+03  0.41800000000E+01 0.  1.
        -11    1    3    3    0    0  0.15406940228E+02 -0.77667029985E+02  0.18100879055E+03  0.19756954120E+03  0.00000000000E+00 0.  1.
         11    1    3    3    0    0  0.11129495538E+02  0.81653878609E+01 -0.73055140875E+00  0.13822913413E+02  0.00000000000E+00 0. -1.
</event>
<event>
 7    1  0.6684706E-006  0.1077114E+03  0.7561462E-02  0.1264868E+00
          1   -1    0    0  501    0  0.00000000000E+00  0.00000000000E+00  0.75615348919E+02  0.75615348919E+02  0.00000000000E+00 0. -1.
         -1   -1    0    0    0  501 -0.00000000000E+00 -0.00000000000E+00 -0.19578401864E+03  0.19578401864E+03  0.00000000000E+00 0.  1.
         23    2    1    2    0    0  0.23176369813E+02 -0.27521832713E+02 -0.96951367920E+02  0.13918249275E+03  0.93153653455E+02 0.  0.
          5    1    1    2  502    0 -0.13367954554E+02  0.74179688158E+02  0.66804670231E+01  0.75785416697E+02  0.41800000000E+01 0.  1.
         -5    1    1    2    0  502 -0.98084152590E+01 -0.46657855445E+02 -0.29897768827E+02  0.56431458119E+02  0.41800000000E+01 0.  1.
        -11    1    3    3    0    0 -0.29701611982E+02 -0.25514398505E+02 -0.69004897711E+02  0.79340066760E+02  0.00000000000E+00 0.  1.
         11    1    3    3    0    0  0.52877981795E+02 -0.20074342082E+01 -0.27946470208E+02  0.59842425986E+02  0.00000000000E+00 0. -1.
</event>
<event>
 7    1  0.6684706E-006  0.1930831E+03  0.7561462E-02  0.1155710E+00
          2   -1    0    0  501    0  0.00000000000E+00  0.00000000000E+00  0.88304425219E+03  0.88304425219E+03  0.00000000000E+00 0. -1.
         -2   -1    0    0    0  501 -0.00000000000E+00 -0.00000000000E+00 -0.62266171707E+02  0.62266171707E+02  0.00000000000E+00 0.  1.
         23    2    1    2    0    0  0.11935724302E+03  0.13439759613E+03  0.18653081119E+03  0.27432197170E+03  0.90276992219E+02 0.  0.
          5    1    1    2  502    0 -0.61679874876E+02 -0.11737067255E+03  0.25968374995E+03  0.29160487673E+03  0.41800000000E+01 0.  1.
         -5    1    1    2    0  502 -0.57677368148E+02 -0.17026923576E+02  0.37456351934E+03  0.37938357548E+03  0.41800000000E+01 0.  1.
        -11    1    3    3    0    0  0.71247555233E+02  0.28173747863E+02  0.38108027907E+02  0.85569831053E+02  0.00000000000E+00 0.  1.
         11    1    3    3    0    0  0.48109687790E+02  0.10622384826E+03  0.14842278329E+03  0.18875214065E+03  0.00000000000E+00 0. -1.
</event>
<event>
 7    1  0.6684706E-006  0.2869432E+03  0.7561462E-02  0.1091956E+00
          1   -1    0    0  501    0  0.00000000000E+00  0.00000000000E+00  0.11926149407E+04  0.11926149407E+04  0.00000000000E+00 0. -1.
         -1   -1    0    0    0  501 -0.00000000000E+00 -0.00000000000E+00 -0.78613066445E+02  0.78613066445E+02  0.00000000000E+00 0.  1.
         23    2    1    2    0    0 -0.76991749357E+02  0.26260169823E+03  0.37813557717E+03  0.47622140954E+03  0.94408340729E+02 0.  0.
          5    1    1    2  502    0  0.26869339507E+02 -0.24548537610E+03  0.62619932680E+03  0.67314790393E+03  0.41800000000E+01 0.  1.
         -5    1    1    2    0  502  0.50122409850E+02 -0.17116322135E+02  0.10966697029E+03  0.12185869368E+03  0.41800000000E+01 0.  1.
        -11    1    3    3    0    0 -0.60950299276E+02  0.21850434277E+03  0.23958134640E+03  0.32993682476E+03  0.00000000000E+00 0. -1.
         11    1    3    3    0    0 -0.16041450081E+02  0.44097355461E+02  0.13855423077E+03  0.14628458477E+03  0.00000000000E+00 0.  1.
</event>
<event>
 7    1  0.6684706E-006  0.1068094E+03  0.7561462E-02  0.1266595E+00
         -2   -1    0    0    0  501 -0.00000000000E+00  0.00000000000E+00  0.58410955060E+02  0.58410955060E+02  0.00000000000E+00 0.  1.
          2   -1    0    0  501    0  0.00000000000E+00 -0.00000000000E+00 -0.22448856172E+03  0.22448856172E+03  0.00000000000E+00 0. -1.
         23    2    1    2    0    0 -0.12208178920E+02 -0.28871898956E+02 -0.51333421885E+02  0.11028258016E+03  0.92436470628E+02 0.  0.
          5    1    1    2  502    0  0.45789730780E+02 -0.29190763446E+02 -0.80493031634E+02  0.97187451129E+02  0.41800000000E+01 0. -1.
         -5    1    1    2    0  502 -0.33581551860E+02  0.58062662401E+02 -0.34251153144E+02  0.75429485496E+02  0.41800000000E+01 0. -1.
        -11    1    3    3    0    0 -0.16212683801E+02 -0.59189477120E+02 -0.50847787330E+02  0.79697821765E+02  0.00000000000E+00 0. -1.
         11    1    3    3    0    0  0.40045048807E+01  0.30317578164E+02 -0.48563455533E+00  0.30584758394E+02  0.00000000000E+00 0.  1.
</event>
<event>
 7    1  0.6684706E-006  0.1063913E+03  0.7561462E-02  0.1267402E+00
         -2   -1    0    0    0  501 -0.00000000000E+00  0.00000000000E+00  0.12865804931E+02  0.12865804931E+02  0.00000000000E+00 0.  1.
          2   -1    0    0  501    0  0.00000000000E+00 -0.00000000000E+00 -0.25786581140E+04  0.25786581140E+04  0.00000000000E+00 0. -1.
         23    2    1    2    0    0  0.52639157052E+01 -0.65189676487E+02 -0.28367403394E+03  0.30504442976E+03  0.91124880588E+02 0.  0.
          5    1    1    2  502    0 -0.40712379983E+02  0.23745991274E+02 -0.30886290962E+03  0.31246622110E+03  0.41800000000E+01 0.  1.
         -5    1    1    2    0  502  0.35448464278E+02  0.41443685213E+02 -0.19732553655E+04  0.19740132681E+04  0.41800000000E+01 0.  1.
        -11    1    3    3    0    0  0.43558741516E+02 -0.11912891926E+02 -0.13987707685E+03  0.14698597751E+03  0.00000000000E+00 0. -1.
         11    1    3    3    0    0 -0.38294825810E+02 -0.53276784561E+02 -0.14379695710E+03  0.15805845225E+03  0.00000000000E+00 0.  1.
</event>
<event>
 7    1  0.6684706E-006  0.2200015E+03  0.7561462E-02  0.1133882E+00
          2   -1    0    0  501    0  0.00000000000E+00  0.00000000000E+00  0.24883496964E+04  0.24883496964E+04  0.00000000000E+00 0. -1.
         -2   -1    0    0    0  501 -0.00000000000E+00 -0.00000000000E+00 -0.22244944906E+02  0.22244944906E+02  0.00000000000E+00 0.  1.
         23    2    1    2    0    0 -0.69385635447E+01 -0.20197230528E+03  0.92955236545E+03  0.95576935383E+03  0.92663379183E+02 0.  0.
          5    1    1    2  502    0 -0.33799327516E+02  0.18863430843E+03  0.13375753679E+04  0.13512404058E+04  0.41800000000E+01 0.  1.
         -5    1    1    2    0  502  0.40737891061E+02  0.13337996844E+02  0.19897701811E+03  0.20358488172E+03  0.41800000000E+01 0.  1.
        -11    1    3    3    0    0  0.11508760065E+02 -0.14293152829E+03  0.79300225604E+03  0.80586255119E+03  0.00000000000E+00 0. -1.
         11    1    3    3    0    0 -0.18447323609E+02 -0.59040776984E+02  0.13655010941E+03  0.14990680263E+03  0.00000000000E+00 0.  1.
</event>
<event>
 7    1  0.6684706E-006  0.1317497E+03  0.7561462E-02  0.1224882E+00
          2   -1    0    0  501    0  0.00000000000E+00  0.00000000000E+00  0.99038839395E+03  0.99038839395E+03  0.00000000000E+00 0. -1.
         -2   -1    0    0    0  501 -0.00000000000E+00 -0.00000000000E+00 -0.33368535576E+02  0.33368535576E+02  0.00000000000E+00 0.  1.
         23    2    1    2    0    0  0.11485895634E+03 -0.12180181849E+02  0.20514852062E+03  0.25284946893E+03  0.92227987854E+02 0.  0.
          5    1    1    2  502    0 -0.10133997547E+03  0.36185225116E+02  0.31024896386E+03  0.32840684086E+03  0.41800000000E+01 0. -1.
         -5    1    1    2    0  502 -0.13518980872E+02 -0.24005043267E+02  0.44162237389E+03  0.44250061973E+03  0.41800000000E+01 0. -1.
        -11    1    3    3    0    0  0.79565999703E+02  0.17922047698E+02  0.18518385150E+03  0.20234872612E+03  0.00000000000E+00 0.  1.
         11    1    3    3    0    0  0.35292956640E+02 -0.30102229547E+02  0.19964669118E+02  0.50500742817E+02  0.00000000000E+00 0. -1.
</event>
<event>
 7    1  0.6684706E-006  0.1270086E+03  0.7561462E-02  0.1231963E+00
          1   -1    0    0  501    0  0.00000000000E+00  0.00000000000E+00  0.10427235856E+03  0.10427235856E+03  0.00000000000E+00 0. -1.
         -1   -1    0    0    0  501 -0.00000000000E+00 -0.00000000000E+00 -0.24877377390E+03  0.24877377390E+03  0.00000000000E+00 0.  1.
         23    2    1    2    0    0 -0.29648754488E+02 -0.89994086683E+02 -0.14722274669E+03  0.19609990746E+03  0.88332622982E+02 0.  0.
          5    1    1    2  502    0 -0.30040126871E+02  0.68607955861E+02  0.38190303663E+02  0.84175011279E+02  0.41800000000E+01 0.  1.
         -5    1    1    2    0  502  0.59688881359E+02  0.21386130821E+02 -0.35468972305E+02  0.72771213716E+02  0.41800000000E+01 0.  1.
        -11    1    3    3    0    0 -0.48226472008E+02 -0.41831969463E+02 -0.12405528416E+03  0.13951852852E+03  0.00000000000E+00 0.  1.
         11    1    3    3    0    0  0.18577717520E+02 -0.48162117219E+02 -0.23167462533E+02  0.56581378947E+02  0.00000000000E+00 0. -1.
</event>
<event>
 7    1  0.6684706E-006  0.1695227E+03  0.7561462E-02  0.1178347E+00
          1   -1    0    0  501    0  0.00000000000E+00  0.00000000000E+00  0.27956139965E+04  0.27956139965E+04  0.00000000000E+00 0. -1.
         -1   -1    0    0    0  501 -0.00000000000E+00 -0.00000000000E+00 -0.82921156459E+02  0.82921156459E+02  0.00000000000E+00 0.  1.
         23    2    1    2    0    0  0.56068022852E+02  0.35884927577E+02 -0.33503537483E+02  0.11821334457E+03  0.91763590798E+02 0.  0.
          5    1    1    2  502    0 -0.11749004395E+03 -0.11096105740E+03  0.21690486397E+04  0.21750645371E+04  0.41800000000E+01 0. -1.
         -5    1    1    2    0  502  0.61422021094E+02  0.75076129828E+02  0.57714773776E+03  0.58525727125E+03  0.41800000000E+01 0.  1.
        -11    1    3    3    0    0  0.61531213239E+02  0.21952037394E+02  0.15358456732E+02  0.67110836246E+02  0.00000000000E+00 0.  1.
         11    1    3    3    0    0 -0.54631903870E+01  0.13932890183E+02 -0.48861994215E+02  0.51102508321E+02  0.00000000000E+00 0. -1.
</event>
<event>
 7    1  0.6684706E-006  0.1288688E+03  0.7561462E-02  0.1229144E+00
         -2   -1    0    0    0  501 -0.00000000000E+00  0.00000000000E+00  0.28166335407E+02  0.28166335407E+02  0.00000000000E+00 0.  1.
          2   -1    0    0  501    0  0.00000000000E+00 -0.00000000000E+00 -0.87673417858E+03  0.87673417858E+03  0.00000000000E+00 0. -1.
         23    2    1    2    0    0  0.76393167785E+02 -0.61413691986E+02 -0.21963885338E+03  0.25620382249E+03  0.88270125732E+02 0.  0.
          5    1    1    2  502    0 -0.15851908834E+02  0.90200601130E+02 -0.37280446458E+03  0.38391154276E+03  0.41800000000E+01 0.  1.
         -5    1    1    2    0  502 -0.60541258952E+02 -0.28786909144E+02 -0.25612452521E+03  0.26478514873E+03  0.41800000000E+01 0.  1.
        -11    1    3    3    0    0  0.61936309362E+02 -0.42629209018E+02 -0.22000391103E+03  0.23249747686E+03  0.00000000000E+00 0. -1.
         11    1    3    3    0    0  0.14456858423E+02 -0.18784482968E+02  0.36505765166E+00  0.23706345626E+02  0.00000000000E+00 0.  1.
</event>
<event>
 7    1  0.6684706E-006  0.1679652E+03  0.7561462E-02  0.1179987E+00
         -2   -1    0    0    0  501 -0.00000000000E+00  0.00000000000E+00  0.58436139058E+02  0.58436139058E+02  0.00000000000E+00 0.  1.
          2   -1    0    0  501    0  0.00000000000E+00 -0.00000000000E+00 -0.56737776856E+03  0.56737776856E+03  0.00000000000E+00 0. -1.
         23    2    1    2    0    0 -0.14690727173E+03 -0.31658290386E+01 -0.26997482403E+03  0.31865833572E+03  0.84053318536E+02 0.  0.
          5    1    1    2  502    0  0.13187196389E+03  0.35048240028E+02 -0.23455021007E+03  0.27138509067E+03  0.41800000000E+01 0.  1.
         -5    1    1    2    0  502  0.15035307837E+02 -0.31882410989E+02 -0.44165954007E+01  0.35770481226E+02  0.41800000000E+01 0.  1.
        -11    1    3    3    0    0 -0.97285078823E+01  0.22361306020E+02 -0.16911269573E+02  0.29675965210E+02  0.00000000000E+00 0. -1.
         11    1    3    3    0    0 -0.13717876385E+03 -0.25527135059E+02 -0.25306355445E+03  0.28898237051E+03  0.00000000000E+00 0.  1.
</event>
<event>
 7    1  0.6684706E-006  0.9066860E+02  0.7561462E-02  0.1301241E+00
          4   -1    0    0  501    0  0.00000000000E+00  0.00000000000E+00  0.13640323338E+04  0.13640323338E+04  0.00000000000E+00 0. -1.
         -4   -1    0    0    0  501 -0.00000000000E+00 -0.00000000000E+00 -0.10652647145E+02  0.10652647145E+02  0.00000000000E+00 0.  1.
         23    2    1    2    0    0 -0.72844239584E+00 -0.52188806195E+01  0.32455414601E+03  0.33826898453E+03  0.95198449886E+02 0.  0.
          5    1    1    2  502    0 -0.44620562767E+01  0.47230554571E+02  0.88872907155E+03  0.89000419676E+03  0.41800000000E+01 0.  1.
         -5    1    1    2    0  502  0.51904986726E+01 -0.42011673952E+02  0.14009646910E+03  0.14641179965E+03  0.41800000000E+01 0.  1.
        -11    1    3    3    0    0  0.44296764569E+02  0.61906234885E+01  0.20893258242E+03  0.21366644839E+03  0.00000000000E+00 0. -1.
         11    1    3    3    0    0 -0.45025206965E+02 -0.11409504108E+02  0.11562156359E+03  0.12460253614E+03  0.00000000000E+00 0.  1.
</event>
<event>
 7    1  0.6684706E-006  0.1611733E+03  0.7561462E-02  0.1187378E+00
          2   -1    0    0  501    0  0.00000000000E+00  0.00000000000E+00  0.35788766341E+02  0.35788766341E+02  0.00000000000E+00 0. -1.
         -2   -1    0    0    0  501 -0.00000000000E+00 -0.00000000000E+00 -0.75956644798E+03  0.75956644798E+03  0.00000000000E+00 0.  1.
         23    2    1    2    0    0 -0.80881602956E+02  0.91506204690E+02 -0.38174508710E+03  0.41123613894E+03  0.92036032365E+02 0.  0.
          5    1    1    2  502    0  0.31569329456E+02 -0.11503080274E+03 -0.24947964811E+03  0.27656152184E+03  0.41800000000E+01 0.  1.
         -5    1    1    2    0  502  0.49312273499E+02  0.23524598048E+02 -0.92552946432E+02  0.10755755354E+03  0.41800000000E+01 0.  1.
        -11    1    3    3    0    0 -0.67127249011E+02  0.10772476324E+03 -0.35536157795E+03  0.37734936499E+03  0.00000000000E+00 0.  1.
         11    1    3    3    0    0 -0.13754353944E+02 -0.16218558548E+02 -0.26383509145E+02  0.33886773948E+02  0.00000000000E+00 0. -1.
</event>
<event>
 7    1  0.6684706E-006  0.1150651E+03  0.7561462E-02  0.1251468E+00
          1   -1    0    0  501    0  0.00000000000E+00  0.00000000000E+00  0.10888560825E+04  0.10888560825E+04  0.00000000000E+00 0. -1.
         -1   -1    0    0    0  501 -0.00000000000E+00 -0.00000000000E+00 -0.44902922071E+02  0.44902922071E+02  0.00000000000E+00 0.  1.
         23    2    1    2    0    0 -0.24631326987E+02 -0.15461170123E+02  0.22550935180E+02  0.10085391998E+03  0.93900044981E+02 0.  0.
          5    1    1    2  502    0  0.55613872357E+02 -0.52747943454E+02  0.43490454557E+03  0.44162731402E+03  0.41800000000E+01 0. -1.
         -5    1    1    2    0  502 -0.30982545370E+02  0.68209113577E+02  0.58649767972E+03  0.59127777061E+03  0.41800000000E+01 0.  1.
        -11    1    3    3    0    0  0.32458323734E+01  0.27188373665E+02 -0.20455121169E+02  0.34178283637E+02  0.00000000000E+00 0.  1.
         11    1    3    3    0    0 -0.27877159360E+02 -0.42649543788E+02  0.43006056349E+02  0.66675636345E+02  0.00000000000E+00 0. -1.
</event>
<event>
 7    1  0.6684706E-006  0.9771961E+02  0.7561462E-02  0.1285166E+00
         -2   -1    0    0    0  501 -0.00000000000E+00  0.00000000000E+00  0.77260086434E+01  0.77260086434E+01  0.00000000000E+00 0.  1.
          2   -1    0    0  501    0  0.00000000000E+00 -0.00000000000E+00 -0.29847713419E+04  0.29847713419E+04  0.00000000000E+00 0. -1.
         23    2    1    2    0    0 -0.32114428015E+02 -0.34064161008E+02 -0.45970744221E+03  0.47090619811E+03  0.90719410496E+02 0.  0.
          5    1    1    2  502    0  0.34032533983E+02  0.58934230800E+02 -0.24218785921E+04  0.24228381795E+04  0.41800000000E+01 0. -1.
         -5    1    1    2    0  502 -0.19181059673E+01 -0.24870069791E+02 -0.95459298955E+02  0.98752972912E+02  0.41800000000E+01 0.  1.
        -11    1    3    3    0    0  0.27087675624E+02  0.92342259501E+01 -0.13962790164E+03  0.14253057221E+03  0.00000000000E+00 0. -1.
         11    1    3    3    0    0 -0.59202103639E+02 -0.43298386958E+02 -0.32007954057E+03  0.32837562589E+03  0.00000000000E+00 0.  1.
</event>
<event>
 7    1  0.6684706E-006  0.9729983E+02  0.7561462E-02  0.1286079E+00
          1   -1    0    0  501    0  0.00000000000E+00  0.00000000000E+00  0.70044407314E+03  0.70044407314E+03  0.00000000000E+00 0. -1.
         -1   -1    0    0    0  501 -0.00000000000E+00 -0.00000000000E+00 -0.25165766359E+02  0.25165766359E+02  0.00000000000E+00 0.  1.
         23    2    1    2    0    0  0.61936346536E+02  0.43871293833E+02  0.30211115613E+03  0.32478567282E+03  0.91944446093E+02 0.  0.
          5    1    1    2  502    0  0.72574636633E+01  0.40246654724E+01  0.25778534023E+03  0.25795275294E+03  0.41800000000E+01 0.  1.
         -5    1    1    2    0  502 -0.69193810199E+02 -0.47895959306E+02  0.11538181042E+03  0.14287141374E+03  0.41800000000E+01 0.  1.
        -11    1    3    3    0    0  0.38808000289E+02 -0.11967455255E+02  0.21474494711E+03  0.21855130560E+03  0.00000000000E+00 0. -1.
         11    1    3    3    0    0  0.23128346247E+02  0.55838749088E+02  0.87366209021E+02  0.10623436722E+03  0.00000000000E+00 0.  1.
</event>
<event>
 7    1  0.6684706E-006  0.1300814E+03  0.7561462E-02  0.1227335E+00
         -1   -1    0    0    0  501 -0.00000000000E+00  0.00000000000E+00  0.27762987580E+03  0.27762987580E+03  0.00000000000E+00 0.  1.
          1   -1    0    0  501    0  0.00000000000E+00 -0.00000000000E+00 -0.62721257406E+02  0.62721257406E+02  0.00000000000E+00 0. -1.
         23    2    1    2    0    0 -0.27727890652E+01 -0.55846736954E+02  0.10262148610E+03  0.14851893613E+03  0.91652379088E+02 0.  0.
          5    1    1    2  502    0  0.73130852957E+02  0.25826114828E+02  0.68689317183E+02  0.10368608661E+03  0.41800000000E+01 0. -1.
         -5    1    1    2    0  502 -0.70358063891E+02  0.30020622126E+02  0.43597815104E+02  0.88146110460E+02  0.41800000000E+01 0.  1.
        -11    1    3    3    0    0 -0.34807446115E+02 -0.63977846796E+02  0.58654915026E+02  0.93515358324E+02  0.00000000000E+00 0.  1.
         11    1    3    3    0    0  0.32034657050E+02  0.81311098411E+01  0.43966571078E+02  0.55003577810E+02  0.00000000000E+00 0. -1.
</event>
<event>
 7    1  0.6684706E-006  0.1760460E+03  0.7561462E-02  0.1171686E+00
         -1   -1    0    0    0  501 -0.00000000000E+00  0.00000000000E+00  0.54167346873E+02  0.54167346873E+02  0.00000000000E+00 0.  1.
          1   -1    0    0  501    0  0.00000000000E+00 -0.00000000000E+00 -0.81208342699E+03  0.81208342699E+03  0.00000000000E+00 0. -1.
         23    2    1    2    0    0  0.13588525220E+03 -0.56692474388E+02 -0.15258625878E+03  0.23083688839E+03  0.91237405999E+02 0.  0.
          5    1    1    2  502    0  0.21150903409E+02  0.24255462052E+02 -0.88396642440E+02  0.94165423320E+02  0.41800000000E+01 0. -1.
         -5    1    1    2    0  502 -0.15703615561E+03  0.32437012336E+02 -0.51693317890E+03  0.54124846215E+03  0.41800000000E+01 0. -1.
        -11    1    3    3    0    0  0.63867948456E+02  0.54660919590E+01 -0.19036778627E+02  0.66868467470E+02  0.00000000000E+00 0.  1.
         11    1    3    3    0    0  0.72017303749E+02 -0.62158566347E+02 -0.13354948015E+03  0.16396842092E+03  0.00000000000E+00 0. -1.
</event>
<event>
 7    1  0.6684706E-006  0.1614466E+03  0.7561462E-02  0.1187073E+00
         -2   -1    0    0    0  501 -0.00000000000E+00  0.00000000000E+00  0.95563905302E+03  0.95563905302E+03  0.00000000000E+00 0.  1.
          2   -1    0    0  501    0  0.00000000000E+00 -0.00000000000E+00 -0.40914928826E+02  0.40914928826E+02  0.00000000000E+00 0. -1.
         23    2    1    2    0    0 -0.15783167080E+03  0.38871088451E+01  0.55402376437E+03  0.58342218357E+03  0.92266824369E+02 0.  0.
          5    1    1    2  502    0  0.90868894268E+02  0.70041561903E+01  0.71115341189E+02  0.11567661087E+03  0.41800000000E+01 0.  1.
         -5    1    1    2    0  502  0.66962776532E+02 -0.10891265035E+02  0.28958501864E+03  0.29745518741E+03  0.41800000000E+01 0.  1.
        -11    1    3    3    0    0 -0.87960418316E+02 -0.19331304059E+02  0.16977576804E+03  0.19218362553E+03  0.00000000000E+00 0. -1.
         11    1    3    3    0    0 -0.69871252485E+02  0.23218412904E+02  0.38424799632E+03  0.39123855804E+03  0.00000000000E+00 0.  1.
</event>
<event>
 7    1  0.6684706E-006  0.1049486E+03  0.7561462E-02  0.1270221E+00
         -1   -1    0    0    0  501 -0.00000000000E+00  0.00000000000E+00  0.94201230107E+02  0.94201230107E+02  0.00000000000E+00 0.  1.
          1   -1    0    0  501    0  0.00000000000E+00 -0.00000000000E+00 -0.20715986299E+03  0.20715986299E+03  0.00000000000E+00 0. -1.
         23    2    1    2    0    0 -0.40438569086E+02 -0.56463816798E+02  0.88187275596E+01  0.11347196830E+03  0.89301047899E+02 0.  0.
          5    1    1    2  502    0 -0.27497562749E+01  0.65847698311E+02 -0.12704638292E+03  0.14318427409E+03  0.41800000000E+01 0.  1.
         -5    1    1    2    0  502  0.43188325361E+02 -0.93838815130E+01  0.52690224770E+01  0.44704850717E+02  0.41800000000E+01 0.  1.
        -11    1    3    3    0    0  0.22280656673E+01 -0.56755172855E+02  0.31710528784E+02  0.65051299435E+02  0.00000000000E+00 0.  1.
         11    1    3    3    0    0 -0.42666634754E+02  0.29135605650E+00 -0.22891801225E+02  0.48420668860E+02  0.00000000000E+00 0. -1.
</event>
<event>
 7    1  0.6684706E-006  0.2479215E+03  0.7561462E-02  0.1114625E+00
         -1   -1    0    0    0  501 -0.00000000000E+00  0.00000000000E+00  0.56522358231E+02  0.56522358231E+02  0.00000000000E+00 0.  1.
          1   -1    0    0  501    0  0.00000000000E+00 -0.00000000000E+00 -0.11860594428E+04  0.11860594428E+04  0.00000000000E+00 0. -1.
         23    2    1    2    0    0 -0.21813329480E+03 -0.76479581617E+02 -0.45041253250E+03  0.51437252841E+03  0.90974654974E+02 0.  0.
          5    1    1    2  502    0  0.77330933858E+02 -0.32410579202E+02 -0.24540110971E+03  0.25936402222E+03  0.41800000000E+01 0.  1.
         -5    1    1    2    0  502  0.14080236094E+03  0.10889016082E+03 -0.43372344234E+03  0.46884525038E+03  0.41800000000E+01 0.  1.
        -11    1    3    3    0    0 -0.63151494738E+02 -0.55207007878E+01 -0.55540381065E+02  0.84281215900E+02  0.00000000000E+00 0.  1.
         11    1    3    3    0    0 -0.15498180006E+03 -0.70958880830E+02 -0.39487215143E+03  0.43009131251E+03  0.00000000000E+00 0. -1.
</event>
<event>
 7    1  0.6684706E-006  0.3324048E+03  0.7561462E-02  0.1070078E+00
          3   -1    0    0  501    0  0.00000000000E+00  0.00000000000E+00  0.28127656169E+03  0.28127656169E+03  0.00000000000E+00 0. -1.
         -3   -1    0    0    0  501 -0.00000000000E+00 -0.00000000000E+00 -0.41063927661E+03  0.41063927661E+03  0.00000000000E+00 0.  1.
         23    2    1    2    0    0  0.17812787561E+03 -0.26785801743E+03 -0.53664457946E+02  0.33873874848E+03  0.91578425983E+02 0.  0.
          5    1    1    2  502    0 -0.11560892367E+03  0.73455443071E+02 -0.55796130101E+02  0.14795879793E+03  0.41800000000E+01 0. -1.
         -5    1    1    2    0  502 -0.62518951936E+02  0.19440257436E+03 -0.19902126873E+02  0.20521829188E+03  0.41800000000E+01 0. -1.
        -11    1    3    3    0    0  0.56143276745E+02 -0.11487464196E+03  0.20496074692E+02  0.12949262515E+03  0.00000000000E+00 0. -1.
         11    1    3    3    0    0  0.12198459886E+03 -0.15298337547E+03 -0.74160532637E+02  0.20924612334E+03  0.00000000000E+00 0.  1.
</event>
<event>
 7    1  0.6684706E-006  0.7152443E+02  0.7561462E-02  0.1354985E+00
         -1   -1    0    0    0  501 -0.00000000000E+00  0.00000000000E+00  0.53375858956E+03  0.53375858956E+03  0.00000000000E+00 0.  1.
          1   -1    0    0  501    0  0.00000000000E+00 -0.00000000000E+00 -0.44919555600E+02  0.44919555600E+02  0.00000000000E+00 0. -1.
         23    2    1    2    0    0 -0.31152824040E+02  0.16022404113E+02  0.42068397308E+03  0.43201769057E+03  0.91853491410E+02 0.  0.
          5    1    1    2  502    0  0.25052492558E+02  0.40837713271E+01 -0.33801638311E+02  0.42477378969E+02  0.41800000000E+01 0. -1.
         -5    1    1    2    0  502  0.61003314821E+01 -0.20106175440E+02  0.10195669920E+03  0.10418307562E+03  0.41800000000E+01 0. -1.
        -11    1    3    3    0    0  0.29672729276E+02 -0.76306720470E+01  0.18252699508E+03  0.18508052829E+03  0.00000000000E+00 0.  1.
         11    1    3    3    0    0 -0.60825553317E+02  0.23653076160E+02  0.23815697799E+03  0.24693716228E+03  0.00000000000E+00 0. -1.
</event>
<event>
 7    1  0.6684706E-006  0.1378387E+03  0.7561462E-02  0.1216267E+00
         -1   -1    0    0    0  501 -0.00000000000E+00  0.00000000000E+00  0.39780892891E+03  0.39780892891E+03  0.00000000000E+00 0.  1.
          1   -1    0    0  501    0  0.00000000000E+00 -0.00000000000E+00 -0.50573857484E+02  0.50573857484E+02  0.00000000000E+00 0. -1.
         23    2    1    2    0    0  0.26722901636E+02 -0.16236257623E+01  0.14173122282E+03  0.17092218510E+03  0.91705529849E+02 0.  0.
          5    1    1    2  502    0 -0.10424881311E+03  0.20671405774E+02  0.11240431766E+03  0.15474923289E+03  0.41800000000E+01 0. -1.
         -5    1    1    2    0  502  0.77525911474E+02 -0.19047780012E+02  0.93099530945E+02  0.12271136840E+03  0.41800000000E+01 0.  1.
        -11    1    3    3    0    0  0.46844524845E+02  0.27241423637E+02  0.11363605521E+03  0.12589542372E+03  0.00000000000E+00 0. -1.
         11    1    3    3    0    0 -0.20121623208E+02 -0.28865049400E+02  0.28095167606E+02  0.45026761378E+02  0.00000000000E+00 0.  1.
</event>
<event>
 7    1  0.6684706E-006  0.1063314E+03  0.7561462E-02  0.1267518E+00
         -1   -1    0    0    0  501 -0.00000000000E+00  0.00000000000E+00  0.16896972289E+03  0.16896972289E+03  0.00000000000E+00 0.  1.
          1   -1    0    0  501    0  0.00000000000E+00 -0.00000000000E+00 -0.11940360567E+03  0.11940360567E+03  0.00000000000E+00 0. -1.
         23    2    1    2    0    0 -0.54531366037E+02  0.43318146828E+02  0.84905640422E+02  0.14090530232E+03  0.88290456567E+02 0.  0.
          5    1    1    2  502    0  0.67096154143E+02 -0.55105365040E+02 -0.67962162975E+02  0.11033958108E+03  0.41800000000E+01 0. -1.
         -5    1    1    2    0  502 -0.12564788106E+02  0.11787218212E+02  0.32622639772E+02  0.37128445147E+02  0.41800000000E+01 0. -1.
        -11    1    3    3    0    0 -0.18042421793E+02 -0.24838592110E+02  0.43393997301E+02  0.53155654863E+02  0.00000000000E+00 0.  1.
         11    1    3    3    0    0 -0.36488944244E+02  0.68156738938E+02  0.41511643121E+02  0.87749647460E+02  0.00000000000E+00 0. -1.
</event>
<event>
 7    1  0.6684706E-006  0.1686768E+03  0.7561462E-02  0.1179235E+00
          2   -1    0    0  501    0  0.00000000000E+00  0.00000000000E+00  0.94956210605E+03  0.94956210605E+03  0.00000000000E+00 0. -1.
         -2   -1    0    0    0  501 -0.00000000000E+00 -0.00000000000E+00 -0.41945622619E+02  0.41945622619E+02  0.00000000000E+00 0.  1.
         23    2    1    2    0    0  0.14342503854E+03 -0.67695369839E+02  0.30917922920E+03  0.35990029661E+03  0.93717783568E+02 0.  0.
          5    1    1    2  502    0 -0.10588573902E+03  0.26458135672E+02  0.18836604307E+03  0.21774081209E+03  0.41800000000E+01 0. -1.
         -5    1    1    2    0  502 -0.37539299523E+02  0.41237234167E+02  0.41007121117E+03  0.41386661996E+03  0.41800000000E+01 0. -1.
        -11    1    3    3    0    0  0.19291947651E+02 -0.40896086743E+02  0.14770283683E+03  0.15446940526E+03  0.00000000000E+00 0. -1.
         11    1    3    3    0    0  0.12413309089E+03 -0.26799283096E+02  0.16147639237E+03  0.20543089135E+03  0.00000000000E+00 0.  1.
</event>
<event>
 7    1  0.6684706E-006  0.1289476E+03  0.7561462E-02  0.1229026E+00
          1   -1    0    0  501    0  0.00000000000E+00  0.00000000000E+00  0.71952947517E+03  0.71952947517E+03  0.00000000000E+00 0. -1.
         -1   -1    0    0    0  501 -0.00000000000E+00 -0.00000000000E+00 -0.24294842537E+02  0.24294842537E+02  0.00000000000E+00 0.  1.
         23    2    1    2    0    0  0.30658221323E+02  0.63682248090E+02  0.24141216381E+03  0.26787815028E+03  0.92106000391E+02 0.  0.
          5    1    1    2  502    0 -0.68453890779E+02 -0.19071585076E+00  0.24396397354E+03  0.25342033131E+03  0.41800000000E+01 0. -1.
         -5    1    1    2    0  502  0.37795669456E+02 -0.63491532239E+02  0.20985849528E+03  0.22252583611E+03  0.41800000000E+01 0. -1.
        -11    1    3    3    0    0  0.52336734533E+02  0.47961894694E+01  0.12574581014E+03  0.13628699858E+03  0.00000000000E+00 0. -1.
         11    1    3    3    0    0 -0.21678513210E+02  0.58886058620E+02  0.11566635367E+03  0.13159115170E+03  0.00000000000E+00 0.  1.
</event>
<event>
 7    1  0.6684706E-006  0.7358008E+02  0.7561462E-02  0.1348325E+00
         -2   -1    0    0    0  501 -0.00000000000E+00  0.00000000000E+00  0.30593111710E+02  0.30593111710E+02  0.00000000000E+00 0.  1.
          2   -1    0    0  501    0  0.00000000000E+00 -0.00000000000E+00 -0.55255043697E+03  0.55255043697E+03  0.00000000000E+00 0. -1.
         23    2    1    2    0    0 -0.32228397140E+00 -0.28080591682E+02 -0.46235148462E+02  0.90448433350E+02  0.72488665638E+02 0.  0.
          5    1    1    2  502    0  0.45555523512E+02  0.26928035983E+02 -0.40610870957E+03  0.40956340319E+03  0.41800000000E+01 0.  1.
         -5    1    1    2    0  502 -0.45233239541E+02  0.11525556993E+01 -0.69613467232E+02  0.83131712144E+02  0.41800000000E+01 0.  1.
        -11    1    3    3    0    0  0.62413946436E+01 -0.37021647488E+02 -0.61213866231E+02  0.71810130265E+02  0.00000000000E+00 0. -1.
         11    1    3    3    0    0 -0.65636786150E+01  0.89410558061E+01  0.14978717769E+02  0.18638303085E+02  0.00000000000E+00 0.  1.
</event>
<event>
 7    1  0.6684706E-006  0.1173306E+03  0.7561462E-02  0.1247567E+00
         -1   -1    0    0    0  501 -0.00000000000E+00  0.00000000000E+00  0.50469866050E+02  0.50469866050E+02  0.00000000000E+00 0.  1.
          1   -1    0    0  501    0  0.00000000000E+00 -0.00000000000E+00 -0.32309696239E+03  0.32309696239E+03  0.00000000000E+00 0. -1.
         23    2    1    2    0    0  0.33228206604E+02 -0.57451878600E+02 -0.12957971828E+03  0.17228273239E+03  0.92117340505E+02 0.  0.
          5    1    1    2  502    0 -0.64240559502E+02  0.11286680640E+02 -0.23654262048E+02  0.69507087106E+02  0.41800000000E+01 0.  1.
         -5    1    1    2    0  502  0.31012352897E+02  0.46165197959E+02 -0.11939311601E+03  0.13177700894E+03  0.41800000000E+01 0.  1.
        -11    1    3    3    0    0  0.14340761955E+02  0.25066599618E+02 -0.32280675235E+02  0.43313206571E+02  0.00000000000E+00 0.  1.
         11    1    3    3    0    0  0.18887444649E+02 -0.82518478217E+02 -0.97299043046E+02  0.12896952582E+03  0.00000000000E+00 0. -1.
</event>
<event>
 7    1  0.6684706E-006  0.8433584E+02  0.7561462E-02  0.1317179E+00
          2   -1    0    0  501    0  0.00000000000E+00  0.00000000000E+00  0.60294888201E+03  0.60294888201E+03  0.00000000000E+00 0. -1.
         -2   -1    0    0    0  501 -0.00000000000E+00 -0.00000000000E+00 -0.27036593310E+02  0.27036593310E+02  0.00000000000E+00 0.  1.
         23    2    1    2    0    0  0.27282041813E+02  0.32418627973E+02  0.11243219342E+03  0.15020170364E+03  0.90134768051E+02 0.  0.
          5    1    1    2  502    0  0.48851446976E+01  0.13829188692E+02  0.26195040815E+01  0.15474020170E+02  0.41800000000E+01 0. -1.
         -5    1    1    2    0  502 -0.32167186511E+02 -0.46247816665E+02  0.46086059119E+03  0.46430975151E+03  0.41800000000E+01 0.  1.
        -11    1    3    3    0    0 -0.40853954495E+01  0.56958846553E+02  0.82704363747E+02  0.10050379316E+03  0.00000000000E+00 0.  1.
         11    1    3    3    0    0  0.31367437263E+02 -0.24540218580E+02  0.29727829677E+02  0.49697910476E+02  0.00000000000E+00 0. -1.
</event>
<event>
 7    1  0.6684706E-006  0.1379698E+03  0.7561462E-02  0.1216087E+00
          3   -1    0    0  501    0  0.00000000000E+00  0.00000000000E+00  0.13131928386E+04  0.13131928386E+04  0.00000000000E+00 0. -1.
         -3   -1    0    0    0  501 -0.00000000000E+00 -0.00000000000E+00 -0.22375927511E+02  0.22375927511E+02  0.00000000000E+00 0.  1.
         23    2    1    2    0    0 -0.11630222840E+03 -0.39876535536E+02  0.41294621688E+03  0.44034740292E+03  0.90911554818E+02 0.  0.
          5    1    1    2  502    0  0.76313582755E+01 -0.77381237921E+01  0.47696974556E+03  0.47711185980E+03  0.41800000000E+01 0.  1.
         -5    1    1    2    0  502  0.10867087013E+03  0.47614659328E+02  0.40090094863E+03  0.41810950337E+03  0.41800000000E+01 0.  1.
        -11    1    3    3    0    0 -0.23101839152E+02 -0.46726442199E+02  0.88491622272E+02  0.10270259288E+03  0.00000000000E+00 0.  1.
         11    1    3    3    0    0 -0.93200389249E+02  0.68499066628E+01  0.32445459461E+03  0.33764481003E+03  0.00000000000E+00 0. -1.
</event>
<event>
 7    1  0.6684706E-006  0.1389660E+03  0.7561462E-02  0.1214727E+00
          2   -1    0    0  501    0  0.00000000000E+00  0.00000000000E+00  0.81000596780E+03  0.81000596780E+03  0.00000000000E+00 0. -1.
         -2   -1    0    0    0  501 -0.00000000000E+00 -0.00000000000E+00 -0.32338332261E+02  0.32338332261E+02  0.00000000000E+00 0.  1.
         23    2    1    2    0    0 -0.81530198660E+01 -0.11660754052E+03  0.29156566075E+03  0.32697438395E+03  0.90763004531E+02 0.  0.
          5    1    1    2  502    0  0.38343856346E+02  0.13508600733E+02  0.42641710270E+02  0.59063706859E+02  0.41800000000E+01 0.  1.
         -5    1    1    2    0  502 -0.30190836480E+02  0.10309893979E+03  0.44346026452E+03  0.45630620925E+03  0.41800000000E+01 0.  1.
        -11    1    3    3    0    0  0.21667801407E+02 -0.24340730609E+02  0.16142403302E+03  0.16468054900E+03  0.00000000000E+00 0. -1.
         11    1    3    3    0    0 -0.29820821273E+02 -0.92266809912E+02  0.13014162773E+03  0.16229383494E+03  0.00000000000E+00 0.  1.
</event>
<event>
 7    1  0.6684706E-006  0.1211574E+03  0.7561462E-02  0.1241200E+00
          2   -1    0    0  501    0  0.00000000000E+00  0.00000000000E+00  0.26638701853E+03  0.26638701853E+03  0.00000000000E+00 0. -1.
         -2   -1    0    0    0  501 -0.00000000000E+00 -0.00000000000E+00 -0.62920680762E+02  0.62920680762E+02  0.00000000000E+00 0.  1.
         23    2    1    2    0    0  0.16037930374E+02 -0.62628829608E+02  0.57795568028E+02  0.12670744159E+03  0.92384319897E+02 0.  0.
          5    1    1    2  502    0 -0.40356538773E+02  0.92678289197E+02  0.11428074698E+03  0.15262855906E+03  0.41800000000E+01 0. -1.
         -5    1    1    2    0  502  0.24318608399E+02 -0.30049459590E+02  0.31390022765E+02  0.49971698643E+02  0.41800000000E+01 0. -1.
        -11    1    3    3    0    0  0.45443834852E+02 -0.18133731421E+02  0.12024348647E+01  0.48943030055E+02  0.00000000000E+00 0.  1.
         11    1    3    3    0    0 -0.29405904478E+02 -0.44495098186E+02  0.56593133163E+02  0.77764411539E+02  0.00000000000E+00 0. -1.
</event>
<event>
 7    1  0.6684706E-006  0.1012777E+03  0.7561462E-02  0.1277632E+00
          1   -1    0    0  501    0  0.00000000000E+00  0.00000000000E+00  0.29502147834E+03  0.29502147834E+03  0.00000000000E+00 0. -1.
         -1   -1    0    0    0  501 -0.00000000000E+00 -0.00000000000E+00 -0.55900939706E+02  0.55900939706E+02  0.00000000000E+00 0.  1.
         23    2    1    2    0    0  0.29472647107E+02 -0.30704687251E+02  0.46128821048E+02  0.11703098164E+03  0.98777364749E+02 0.  0.
          5    1    1    2  502    0  0.38979015113E+02  0.24464999090E+02  0.25461243561E+02  0.52760279788E+02  0.41800000000E+01 0.  1.
         -5    1    1    2    0  502 -0.68451662220E+02  0.62396881610E+01  0.16753047402E+03  0.18113115661E+03  0.41800000000E+01 0.  1.
        -11    1    3    3    0    0 -0.23505909697E+02 -0.24810634599E+02 -0.13770666888E+02  0.36847342461E+02  0.00000000000E+00 0.  1.
         11    1    3    3    0    0  0.52978556804E+02 -0.58940526518E+01  0.59899487936E+02  0.80183639184E+02  0.00000000000E+00 0. -1.
</event>
<event>
 7    1  0.6684706E-006  0.1111634E+03  0.7561462E-02  0.1258431E+00
          2   -1    0    0  501    0  0.00000000000E+00  0.00000000000E+00  0.29436989428E+03  0.29436989428E+03  0.00000000000E+00 0. -1.
         -2   -1    0    0    0  501 -0.00000000000E+00 -0.00000000000E+00 -0.90869491680E+02  0.90869491680E+02  0.00000000000E+00 0.  1.
         23    2    1    2    0    0 -0.22783684386E+02  0.40522669091E+02 -0.37835141877E+02  0.10946593773E+03  0.91597546793E+02 0.  0.
          5    1    1    2  502    0  0.52748282897E+02  0.25300315580E+02  0.13405670577E+03  0.14632552777E+03  0.41800000000E+01 0.  1.
         -5    1    1    2    0  502 -0.29964598511E+02 -0.65822984671E+02  0.10727883871E+03  0.12944792046E+03  0.41800000000E+01 0.  1.
        -11    1    3    3    0    0 -0.45117047919E+02  0.17652976362E+00  0.63950491593E+01  0.45568364349E+02  0.00000000000E+00 0.  1.
         11    1    3    3    0    0  0.22333363533E+02  0.40346139328E+02 -0.44230191036E+02  0.63897573384E+02  0.00000000000E+00 0. -1.
</event>
<event>
 6    1  0.6684706E-006  0.1612674E+03  0.7561462E-02  0.1187273E+00
          1   -1    0    0  501    0  0.00000000000E+00  0.00000000000E+00  0.17155960432E+04  0.17155960432E+04  0.00000000000E+00 0. -1.
         -1   -1    0    0    0  501 -0.00000000000E+00 -0.00000000000E+00 -0.17768876496E+02  0.17768876496E+02  0.00000000000E+00 0.  1.
          5    1    1    2  502    0  0.63056374067E+01  0.43172386211E+02  0.19085280644E+03  0.19582104616E+03  0.41800000000E+01 0. -1.
         -5    1    1    2    0  502 -0.10463801377E+03 -0.66923798004E+00  0.88212262583E+03  0.88831715125E+03  0.41800000000E+01 0.  1.
        -11    1    1    2    0    0  0.12190547298E+03  0.38627883489E+01  0.38745466659E+03  0.40619820795E+03  0.00000000000E+00 0.  1.
         11    1    1    2    0    0 -0.23573096619E+02 -0.46365936580E+02  0.23739706787E+03  0.24302851436E+03  0.00000000000E+00 0. -1.
</event>
<event>
 7    1  0.6684706E-006  0.1068268E+03  0.7561462E-02  0.1266562E+00
         -2   -1    0    0    0  501 -0.00000000000E+00  0.00000000000E+00  0.34725411497E+02  0.34725411497E+02  0.00000000000E+00 0.  1.
          2   -1    0    0  501    0  0.00000000000E+00 -0.00000000000E+00 -0.46347352804E+03  0.46347352804E+03  0.00000000000E+00 0. -1.
         23    2    1    2    0    0 -0.61789574464E+02  0.22047272165E+02 -0.18191037277E+03  0.21380465313E+03  0.91197654879E+02 0.  0.
          5    1    1    2  502    0  0.83485042862E+02 -0.48760002340E+01 -0.24189720943E+03  0.25597902276E+03  0.41800000000E+01 0. -1.
         -5    1    1    2    0  502 -0.21695468398E+02 -0.17171271931E+02 -0.49405343365E+01  0.28415263650E+02  0.41800000000E+01 0. -1.
        -11    1    3    3    0    0 -0.17947724730E+02  0.47824275054E+02 -0.13604861352E+03  0.14532208142E+03  0.00000000000E+00 0. -1.
         11    1    3    3    0    0 -0.43841849734E+02 -0.25777002889E+02 -0.45861759244E+02  0.68482571703E+02  0.00000000000E+00 0.  1.
</event>
<event>
 7    1  0.6684706E-006  0.1264753E+03  0.7561462E-02  0.1232782E+00
         -1   -1    0    0    0  501 -0.00000000000E+00  0.00000000000E+00  0.75484570805E+03  0.75484570805E+03  0.00000000000E+00 0.  1.
          1   -1    0    0  501    0  0.00000000000E+00 -0.00000000000E+00 -0.36757465917E+02  0.36757465917E+02  0.00000000000E+00 0. -1.
         23    2    1    2    0    0  0.89855704718E+02  0.61613282842E+02  0.48477358042E+03  0.50532659870E+03  0.92083129749E+02 0.  0.
          5    1    1    2  502    0 -0.39321387059E+02 -0.10571578253E+02  0.20485588301E+03  0.20890508598E+03  0.41800000000E+01 0.  1.
         -5    1    1    2    0  502 -0.50534317659E+02 -0.51041704589E+02  0.28458778702E+02  0.77371489283E+02  0.41800000000E+01 0.  1.
        -11    1    3    3    0    0  0.10316877700E+03  0.32678071201E+02  0.41020987578E+03  0.42424497059E+03  0.00000000000E+00 0.  1.
         11    1    3    3    0    0 -0.13313072286E+02  0.28935211641E+02  0.74563704646E+02  0.81081628110E+02  0.00000000000E+00 0. -1.
</event>
<event>
 7    1  0.6684706E-006  0.1172931E+03  0.7561462E-02  0.1247631E+00
          1   -1    0    0  501    0  0.00000000000E+00  0.00000000000E+00  0.11901418640E+03  0.11901418640E+03  0.00000000000E+00 0. -1.
         -1   -1    0    0    0  501 -0.00000000000E+00 -0.00000000000E+00 -0.14811390186E+03  0.14811390186E+03  0.00000000000E+00 0.  1.
         23    2    1    2    0    0 -0.40906179332E+02  0.49001502601E+02 -0.52308378531E+02  0.12479427239E+03  0.93610796344E+02 0.  0.
          5    1    1    2  502    0  0.84837323565E+02 -0.44216631822E+02  0.11654417658E+02  0.96466470083E+02  0.41800000000E+01 0. -1.
         -5    1    1    2    0  502 -0.43931144233E+02 -0.47848707794E+01  0.11554245413E+02  0.45867345782E+02  0.41800000000E+01 0. -1.
        -11    1    3    3    0    0  0.13291280396E+02 -0.82169370799E+01 -0.42613676574E+02  0.45388342344E+02  0.00000000000E+00 0.  1.
         11    1    3    3    0    0 -0.54197459728E+02  0.57218439681E+02 -0.96947019565E+01  0.79405930046E+02  0.00000000000E+00 0. -1.
</event>
<event>
 7    1  0.6684706E-006  0.1220247E+03  0.7561462E-02  0.1239794E+00
         -1   -1    0    0    0  501 -0.00000000000E+00  0.00000000000E+00  0.82829861750E+02  0.82829861750E+02  0.00000000000E+00 0.  1.
          1   -1    0    0  501    0  0.00000000000E+00 -0.00000000000E+00 -0.54787280650E+03  0.54787280650E+03  0.00000000000E+00 0. -1.
         23    2    1    2    0    0  0.63785000486E+02 -0.10637045369E+02  0.19328020233E+02  0.11398737023E+03  0.91857907576E+02 0.  0.
          5    1    1    2  502    0 -0.99284092079E+02  0.50571739184E+01 -0.46529876587E+03  0.47581857874E+03  0.41800000000E+01 0. -1.
         -5    1    1    2    0  502  0.35499091593E+02  0.55798714508E+01 -0.19072199107E+02  0.40896719284E+02  0.41800000000E+01 0.  1.
        -11    1    3    3    0    0 -0.39733995255E+00 -0.38428536220E+02 -0.73573386429E+01  0.39128515266E+02  0.00000000000E+00 0. -1.
         11    1    3    3    0    0  0.64182340438E+02  0.27791490851E+02  0.26685358875E+02  0.74858854961E+02  0.00000000000E+00 0.  1.
</event>
<event>
 7    1  0.6684706E-006  0.1404690E+03  0.7561462E-02  0.1212699E+00
         -2   -1    0    0    0  501 -0.00000000000E+00  0.00000000000E+00  0.10318670071E+03  0.10318670071E+03  0.00000000000E+00 0.  1.
          2   -1    0    0  501    0  0.00000000000E+00 -0.00000000000E+00 -0.46945692646E+03  0.46945692646E+03  0.00000000000E+00 0. -1.
         23    2    1    2    0    0 -0.38017502681E+02 -0.23896860524E+02 -0.31940330202E+02  0.10728282383E+03  0.92049058344E+02 0.  0.
          5    1    1    2  502    0  0.10755423477E+03  0.29211937735E+02 -0.37033473287E+03  0.38676418849E+03  0.41800000000E+01 0. -1.
         -5    1    1    2    0  502 -0.69536732088E+02 -0.53150772105E+01  0.36004837334E+02  0.78596614855E+02  0.41800000000E+01 0.  1.
        -11    1    3    3    0    0  0.29215843836E+02 -0.44334117229E+01  0.17514471639E+01  0.29602166099E+02  0.00000000000E+00 0. -1.
         11    1    3    3    0    0 -0.67233346517E+02 -0.19463448801E+02 -0.33691777365E+02  0.77680657729E+02  0.00000000000E+00 0.  1.
</event>
<event>
 7    1  0.6684706E-006  0.1586858E+03  0.7561462E-02  0.1190189E+00
          2   -1    0    0  501    0  0.00000000000E+00  0.00000000000E+00  0.97445240473E+03  0.97445240473E+03  0.00000000000E+00 0. -1.
         -2   -1    0    0    0  501 -0.00000000000E+00 -0.00000000000E+00 -0.35987764970E+02  0.35987764970E+02  0.00000000000E+00 0.  1.
         23    2    1    2    0    0 -0.52742251624E+02  0.14240981427E+03  0.48757581102E+03  0.51849457508E+03  0.89689199940E+02 0.  0.
          5    1    1    2  502    0  0.41435169993E+02 -0.87737025588E+02  0.11105459109E+03  0.14753051743E+03  0.41800000000E+01 0.  1.
         -5    1    1    2    0  502  0.11307081631E+02 -0.54672788683E+02  0.33983423766E+03  0.34441507720E+03  0.41800000000E+01 0.  1.
        -11    1    3    3    0    0 -0.66923630864E+02  0.12522016874E+03  0.46720460858E+03  0.48830217008E+03  0.00000000000E+00 0. -1.
         11    1    3    3    0    0  0.14181379240E+02  0.17189645530E+02  0.20371202439E+02  0.30192404995E+02  0.00000000000E+00 0.  1.
</event>
<event>
 7    1  0.6684706E-006  0.2175940E+03  0.7561462E-02  0.1135690E+00
         -2   -1    0    0    0  501 -0.00000000000E+00  0.00000000000E+00  0.48442766908E+03  0.48442766908E+03  0.00000000000E+00 0.  1.
          2   -1    0    0  501    0  0.00000000000E+00 -0.00000000000E+00 -0.10505439655E+03  0.10505439655E+03  0.00000000000E+00 0. -1.
         23    2    1    2    0    0  0.88507484298E+02 -0.17466805616E+03  0.21798090286E+03  0.30657394626E+03  0.90163218061E+02 0.  0.
          5    1    1    2  502    0 -0.64015471712E+02  0.21068408394E+02  0.14783188652E+02  0.69122163721E+02  0.41800000000E+01 0. -1.
         -5    1    1    2    0  502 -0.24492012587E+02  0.15359964777E+03  0.14660918102E+03  0.21378595565E+03  0.41800000000E+01 0. -1.
        -11    1    3    3    0    0  0.10048340730E+03 -0.17287899903E+03  0.21592504977E+03  0.29429184590E+03  0.00000000000E+00 0.  1.
         11    1    3    3    0    0 -0.11975923001E+02 -0.17890571341E+01  0.20558530923E+01  0.12282100354E+02  0.00000000000E+00 0. -1.
</event>
<event>
 7    1  0.6684706E-006  0.1096744E+03  0.7561462E-02  0.1261174E+00
          1   -1    0    0  501    0  0.00000000000E+00  0.00000000000E+00  0.20775938877E+03  0.20775938877E+03  0.00000000000E+00 0. -1.
         -1   -1    0    0    0  501 -0.00000000000E+00 -0.00000000000E+00 -0.81699704010E+02  0.81699704010E+02  0.00000000000E+00 0.  1.
         23    2    1    2    0    0  0.31241162934E+02  0.66438917891E+02  0.61524776671E+02  0.13069748967E+03  0.88917914902E+02 0.  0.
          5    1    1    2  502    0 -0.65960272637E+02 -0.51849680860E+02  0.91104119486E-01  0.84003736057E+02  0.41800000000E+01 0. -1.
         -5    1    1    2    0  502  0.34719109702E+02 -0.14589237030E+02  0.64443803970E+02  0.74757867049E+02  0.41800000000E+01 0. -1.
        -11    1    3    3    0    0 -0.71835003961E+01  0.57573408298E+02  0.69427619540E+02  0.90479248317E+02  0.00000000000E+00 0. -1.
         11    1    3    3    0    0  0.38424663330E+02  0.88655095930E+01 -0.79028428690E+01  0.40218241356E+02  0.00000000000E+00 0.  1.
</event>
<event>
 7    1  0.6684706E-006  0.9608793E+02  0.7561462E-02  0.1288744E+00
         -2   -1    0    0    0  501 -0.00000000000E+00  0.00000000000E+00  0.39661324535E+02  0.39661324535E+02  0.00000000000E+00 0.  1.
          2   -1    0    0  501    0  0.00000000000E+00 -0.00000000000E+00 -0.44850475082E+03  0.44850475082E+03  0.00000000000E+00 0. -1.
         23    2    1    2    0    0 -0.36685718308E+02  0.65410230941E+02 -0.17110708983E+03  0.20925620797E+03  0.94266558990E+02 0.  0.
          5    1    1    2  502    0  0.13372441898E+02 -0.48105412226E+02 -0.12324776729E+02  0.51597726783E+02  0.41800000000E+01 0.  1.
         -5    1    1    2    0  502  0.23313276410E+02 -0.17304818716E+02 -0.22541155973E+03  0.22731214061E+03  0.41800000000E+01 0.  1.
        -11    1    3    3    0    0  0.21361915920E+02  0.47350883049E+02 -0.42917242114E+02  0.67381950461E+02  0.00000000000E+00 0.  1.
         11    1    3    3    0    0 -0.58047634228E+02  0.18059347892E+02 -0.12818984772E+03  0.14187425751E+03  0.00000000000E+00 0. -1.
</event>
<event>
 7    1  0.6684706E-006  0.1547458E+03  0.7561462E-02  0.1194760E+00
          3   -1    0    0  501    0  0.00000000000E+00  0.00000000000E+00  0.33778576941E+03  0.33778576941E+03  0.00000000000E+00 0. -1.
         -3   -1    0    0    0  501 -0.00000000000E+00 -0.00000000000E+00 -0.10026699914E+03  0.10026699914E+03  0.00000000000E+00 0.  1.
         23    2    1    2    0    0  0.13020337626E+03 -0.58924394611E+02  0.66410211636E+02  0.18241484660E+03  0.91868692059E+02 0.  0.
          5    1    1    2  502    0 -0.12029554653E+03  0.61788399779E+02  0.67081451432E+02  0.15101727845E+03  0.41800000000E+01 0.  1.
         -5    1    1    2    0  502 -0.99078297213E+01 -0.28640051681E+01  0.10402710720E+03  0.10462064351E+03  0.41800000000E+01 0.  1.
        -11    1    3    3    0    0  0.30174555443E+02  0.19524721076E+02 -0.55065762041E+01  0.36359880511E+02  0.00000000000E+00 0. -1.
         11    1    3    3    0    0  0.10002882081E+03 -0.78449115686E+02  0.71916787840E+02  0.14605496609E+03  0.00000000000E+00 0.  1.
</event>
<event>
 7    1  0.6684706E-006  0.1107411E+03  0.7561462E-02  0.1259204E+00
          1   -1    0    0  501    0  0.00000000000E+00  0.00000000000E+00  0.63190482675E+03  0.63190482675E+03  0.00000000000E+00 0. -1.
         -1   -1    0    0    0  501 -0.00000000000E+00 -0.00000000000E+00 -0.35254190069E+03  0.35254190069E+03  0.00000000000E+00 0.  1.
         23    2    1    2    0    0  0.86759515952E+02  0.25164625536E+02 -0.32977166485E+03  0.35363294876E+03  0.90257628617E+02 0.  0.
          5    1    1    2  502    0  0.87100827803E+01 -0.33147009846E+02  0.39112776505E+03  0.39264868623E+03  0.41800000000E+01 0. -1.
         -5    1    1    2    0  502 -0.95469598732E+02  0.79823843105E+01  0.21800682585E+03  0.23816509245E+03  0.41800000000E+01 0.  1.
        -11    1    3    3    0    0  0.12418107713E+02 -0.46461962044E+00  0.20731285049E+01  0.12598536913E+02  0.00000000000E+00 0. -1.
         11    1    3    3    0    0  0.74341408239E+02  0.25629245156E+02 -0.33184479335E+03  0.34103441184E+03  0.00000000000E+00 0.  1.
</event>
<event>
 7    1  0.6684706E-006  0.1033932E+03  0.7561462E-02  0.1273318E+00
          2   -1    0    0  501    0  0.00000000000E+00  0.00000000000E+00  0.10351593209E+04  0.10351593209E+04  0.00000000000E+00 0. -1.
         -2   -1    0    0    0  501 -0.00000000000E+00 -0.00000000000E+00 -0.26499643773E+02  0.26499643773E+02  0.00000000000E+00 0.  1.
         23    2    1    2    0    0 -0.43165250161E+00  0.31972819708E+02  0.81448083714E+02  0.12550143542E+03  0.89968730284E+02 0.  0.
          5    1    1    2  502    0 -0.61502466437E+02 -0.15407119467E+02  0.52792324134E+03  0.53173334845E+03  0.41800000000E+01 0.  1.
         -5    1    1    2    0  502  0.61934118938E+02 -0.16565700241E+02  0.39928835203E+03  0.40442418075E+03  0.41800000000E+01 0.  1.
        -11    1    3    3    0    0 -0.17254554762E+02 -0.18796025096E+02  0.64553499660E+02  0.69412999776E+02  0.00000000000E+00 0. -1.
         11    1    3    3    0    0  0.16822902261E+02  0.50768844803E+02  0.16894584054E+02  0.56088435649E+02  0.00000000000E+00 0.  1.
</event>
<event>
 7    1  0.6684706E-006  0.1609056E+03  0.7561462E-02  0.1187678E+00
         -2   -1    0    0    0  501 -0.00000000000E+00  0.00000000000E+00  0.30912796176E+02  0.30912796176E+02  0.00000000000E+00 0.  1.
          2   -1    0    0  501    0  0.00000000000E+00 -0.00000000000E+00 -0.84492465734E+03  0.84492465734E+03  0.00000000000E+00 0. -1.
         23    2    1    2    0    0  0.11022364798E+03 -0.46284036341E+02 -0.39351665891E+03  0.42113593300E+03  0.90601592831E+02 0.  0.
          5    1    1    2  502    0 -0.69439910186E+02 -0.37300367872E+02 -0.16891181995E+03  0.18644541799E+03  0.41800000000E+01 0. -1.
         -5    1    1    2    0  502 -0.40783737791E+02  0.83584404213E+02 -0.25158338230E+03  0.26825610253E+03  0.41800000000E+01 0. -1.
        -11    1    3    3    0    0  0.69742915658E+02  0.19606911016E+02 -0.17892940936E+03  0.19303947466E+03  0.00000000000E+00 0.  1.
         11    1    3    3    0    0  0.40480732319E+02 -0.65890947357E+02 -0.21458724956E+03  0.22809645833E+03  0.00000000000E+00 0. -1.
</event>
<event>
 7    1  0.6684706E-006  0.1568729E+03  0.7561462E-02  0.1192273E+00
         -1   -1    0    0    0  501 -0.00000000000E+00  0.00000000000E+00  0.57639240189E+03  0.57639240189E+03  0.00000000000E+00 0.  1.
          1   -1    0    0  501    0  0.00000000000E+00 -0.00000000000E+00 -0.75028061358E+02  0.75028061358E+02  0.00000000000E+00 0. -1.
         23    2    1    2    0    0  0.13585302215E+03 -0.33185991197E+02  0.41017834638E+03  0.44280360188E+03  0.90947239470E+02 0.  0.
          5    1    1    2  502    0 -0.19962898608E+02  0.34862408853E+02  0.83054081760E+02  0.92354522190E+02  0.41800000000E+01 0.  1.
         -5    1    1    2    0  502 -0.11589012354E+03 -0.16764176561E+01  0.81319123934E+01  0.11626233917E+03  0.41800000000E+01 0.  1.
        -11    1    3    3    0    0  0.97984558170E+02  0.11667163064E+02  0.18016512666E+03  0.20541803523E+03  0.00000000000E+00 0. -1.
         11    1    3    3    0    0  0.37868463980E+02 -0.44853154260E+02  0.23001321972E+03  0.23738556666E+03  0.00000000000E+00 0.  1.
</event>
<event>
 7    1  0.6684706E-006  0.2018362E+03  0.7561462E-02  0.1148199E+00
          2   -1    0    0  501    0  0.00000000000E+00  0.00000000000E+00  0.36878493965E+03  0.36878493965E+03  0.00000000000E+00 0. -1.
         -2   -1    0    0    0  501 -0.00000000000E+00 -0.00000000000E+00 -0.15024882196E+03  0.15024882196E+03  0.00000000000E+00 0.  1.
         23    2    1    2    0    0 -0.11721634377E+03  0.15524727875E+03  0.22306286234E+02  0.21572715886E+03  0.90549698287E+02 0.  0.
          5    1    1    2  502    0 -0.45791984910E+01 -0.40099714002E+02  0.10469964412E+03  0.11228732787E+03  0.41800000000E+01 0.  1.
         -5    1    1    2    0  502  0.12179554227E+03 -0.11514756474E+03  0.91530187334E+02  0.19101927488E+03  0.41800000000E+01 0.  1.
        -11    1    3    3    0    0 -0.36693246534E+02  0.34951472059E+02 -0.33320367469E+02  0.60648550095E+02  0.00000000000E+00 0.  1.
         11    1    3    3    0    0 -0.80523097240E+02  0.12029580669E+03  0.55626653702E+02  0.15507860877E+03  0.00000000000E+00 0. -1.
</event>
<event>
 7    1  0.6684706E-006  0.8500492E+02  0.7561462E-02  0.1315420E+00
         -1   -1    0    0    0  501 -0.00000000000E+00  0.00000000000E+00  0.36980213711E+02  0.36980213711E+02  0.00000000000E+00 0.  1.
          1   -1    0    0  501    0  0.00000000000E+00 -0.00000000000E+00 -0.29398310693E+03  0.29398310693E+03  0.00000000000E+00 0. -1.
         23    2    1    2    0    0  0.31638143317E+02 -0.31348928382E+02 -0.81808827744E+02  0.11114387495E+03  0.60634554668E+02 0.  0.
          5    1    1    2  502    0  0.34342760359E+01  0.69204355670E+02 -0.14271424604E+03  0.15870055299E+03  0.41800000000E+01 0.  1.
         -5    1    1    2    0  502 -0.35072419353E+02 -0.37855427288E+02 -0.32479819438E+02  0.61118892702E+02  0.41800000000E+01 0.  1.
        -11    1    3    3    0    0  0.14301951544E+02 -0.27596534458E+02 -0.39997987814E+01  0.31338680929E+02  0.00000000000E+00 0.  1.
         11    1    3    3    0    0  0.17336191773E+02 -0.37523939236E+01 -0.77809028962E+02  0.79805194025E+02  0.00000000000E+00 0. -1.
</event>
<event>
 7    1  0.6684706E-006  0.9900265E+02  0.7561462E-02  0.1282407E+00
         -2   -1    0    0    0  501 -0.00000000000E+00  0.00000000000E+00  0.16211886526E+02  0.16211886526E+02  0.00000000000E+00 0.  1.
          2   -1    0    0  501    0  0.00000000000E+00 -0.00000000000E+00 -0.82225234025E+03  0.82225234025E+03  0.00000000000E+00 0. -1.
         23    2    1    2    0    0 -0.42621071137E+01  0.24697074819E+01 -0.29932650131E+03  0.31268004947E+03  0.90267347049E+02 0.  0.
          5    1    1    2  502    0  0.49967580093E+02 -0.25899262344E+02 -0.42798773878E+03  0.43169260799E+03  0.41800000000E+01 0. -1.
         -5    1    1    2    0  502 -0.45705472979E+02  0.23429554862E+02 -0.78726213643E+02  0.94091569313E+02  0.41800000000E+01 0.  1.
        -11    1    3    3    0    0 -0.70309404558E+01 -0.43460341428E+02 -0.13239557478E+03  0.13952355938E+03  0.00000000000E+00 0.  1.
         11    1    3    3    0    0  0.27688333421E+01  0.45930048910E+02 -0.16693092653E+03  0.17315649009E+03  0.00000000000E+00 0. -1.
</event>
<event>
 7    1  0.6684706E-006  0.9373550E+02  0.7561462E-02  0.1294050E+00
         -1   -1    0    0    0  501 -0.00000000000E+00  0.00000000000E+00  0.25935350816E+02  0.25935350816E+02  0.00000000000E+00 0.  1.
          1   -1    0    0  501    0  0.00000000000E+00 -0.00000000000E+00 -0.49621510629E+03  0.49621510629E+03  0.00000000000E+00 0. -1.
         23    2    1    2    0    0 -0.44178181972E+01 -0.42464047293E+01 -0.10307479170E+03  0.13731709105E+03  0.90520835938E+02 0.  0.
          5    1    1    2  502    0  0.11892288012E+02 -0.52702569569E+02 -0.22447476933E+03  0.23092289150E+03  0.41800000000E+01 0. -1.
         -5    1    1    2    0  502 -0.74744698144E+01  0.56948974299E+02 -0.14273019445E+03  0.15391047456E+03  0.41800000000E+01 0.  1.
        -11    1    3    3    0    0 -0.14966183719E+02 -0.37728339184E+02 -0.91921365578E+02  0.10048358912E+03  0.00000000000E+00 0. -1.
         11    1    3    3    0    0  0.10548365522E+02  0.33481934454E+02 -0.11153426122E+02  0.36833501927E+02  0.00000000000E+00 0.  1.
</event>
<event>
 7    1  0.6684706E-006  0.7845221E+02  0.7561462E-02  0.1333502E+00
         -3   -1    0    0    0  501 -0.00000000000E+00  0.00000000000E+00  0.49969032573E+02  0.49969032573E+02  0.00000000000E+00 0.  1.
          3   -1    0    0  501    0  0.00000000000E+00 -0.00000000000E+00 -0.28428285429E+03  0.28428285429E+03  0.00000000000E+00 0. -1.
         23    2    1    2    0    0  0.35981183152E+02  0.17404625388E+02 -0.56308122815E+02  0.11304824937E+03  0.89508298303E+02 0.  0.
          5    1    1    2  502    0  0.22042899174E+02  0.32913925768E+02 -0.11523165993E+03  0.12192220373E+03  0.41800000000E+01 0. -1.
         -5    1    1    2    0  502 -0.58024082326E+02 -0.50318551155E+02 -0.62774038978E+02  0.99281433762E+02  0.41800000000E+01 0. -1.
        -11    1    3    3    0    0  0.15500042961E+02  0.96247669204E+01 -0.79251399556E+02  0.81324484638E+02  0.00000000000E+00 0. -1.
         11    1    3    3    0    0  0.20481140191E+02  0.77798584675E+01  0.22943276741E+02  0.31723764734E+02  0.00000000000E+00 0.  1.
</event>
<event>
 7    1  0.6684706E-006  0.1235746E+03  0.7561462E-02  0.1237314E+00
          1   -1    0    0  501    0  0.00000000000E+00  0.00000000000E+00  0.12316681324E+03  0.12316681324E+03  0.00000000000E+00 0. -1.
         -1   -1    0    0    0  501 -0.00000000000E+00 -0.00000000000E+00 -0.19616524831E+03  0.19616524831E+03  0.00000000000E+00 0.  1.
         23    2    1    2    0    0 -0.12396254953E+02  0.10621514906E+03 -0.35635103928E+01  0.14071551898E+03  0.91393838133E+02 0.  0.
          5    1    1    2  502    0  0.14069900349E+02 -0.12114824264E+03 -0.16152844381E+02  0.12309851978E+03  0.41800000000E+01 0.  1.
         -5    1    1    2    0  502 -0.16736453964E+01  0.14933093585E+02 -0.53282080302E+02  0.55518022787E+02  0.41800000000E+01 0.  1.
        -11    1    3    3    0    0 -0.19370085319E+02  0.85264640102E+02  0.36674598296E+02  0.94817114580E+02  0.00000000000E+00 0.  1.
         11    1    3    3    0    0  0.69738303663E+01  0.20950508957E+02 -0.40238108689E+02  0.45898404399E+02  0.00000000000E+00 0. -1.
</event>
<event>
 7    1  0.6684706E-006  0.1851343E+03  0.7561462E-02  0.1162925E+00
         -2   -1    0    0    0  501 -0.00000000000E+00  0.00000000000E+00  0.19645529076E+02  0.19645529076E+02  0.00000000000E+00 0.  1.
          2   -1    0    0  501    0  0.00000000000E+00 -0.00000000000E+00 -0.17568825265E+04  0.17568825265E+04  0.00000000000E+00 0. -1.
         23    2    1    2    0    0  0.14938116482E+03  0.13733746193E+02 -0.86468038718E+03  0.88237405331E+03  0.91697599729E+02 0.  0.
          5    1    1    2  502    0 -0.13365757834E+03 -0.59223585409E+02 -0.68855720830E+03  0.70391780970E+03  0.41800000000E+01 0. -1.
         -5    1    1    2    0  502 -0.15723586485E+02  0.45489839216E+02 -0.18399940190E+03  0.19023619252E+03  0.41800000000E+01 0. -1.
        -11    1    3    3    0    0  0.12509352491E+03  0.47760190106E+02 -0.64528906577E+03  0.65903520706E+03  0.00000000000E+00 0.  1.
         11    1    3    3    0    0  0.24287639908E+02 -0.34026443914E+02 -0.21939132141E+03  0.22333884625E+03  0.00000000000E+00 0. -1.
</event>
<event>
 7    1  0.6684706E-006  0.6702901E+02  0.7561462E-02  0.1370498E+00
          1   -1    0    0  501    0  0.00000000000E+00  0.00000000000E+00  0.74433295924E+02  0.74433295924E+02  0.00000000000E+00 0. -1.
         -1   -1    0    0    0  501 -0.00000000000E+00 -0.00000000000E+00 -0.29943114892E+03  0.29943114892E+03  0.00000000000E+00 0.  1.
         23    2    1    2    0    0 -0.44419670349E+02 -0.45478747519E+02 -0.20252585061E+03  0.23185190626E+03  0.93258579681E+02 0.  0.
          5    1    1    2  502    0  0.43167080157E+02  0.26250660673E+02  0.47405608287E+02  0.69406470103E+02  0.41800000000E+01 0. -1.
         -5    1    1    2    0  502  0.12525901913E+01  0.19228086846E+02 -0.69877610674E+02  0.72606068476E+02  0.41800000000E+01 0. -1.
        -11    1    3    3    0    0 -0.34260430543E+02 -0.36862363333E+02 -0.21042883171E+03  0.21636289919E+03  0.00000000000E+00 0.  1.
         11    1    3    3    0    0 -0.10159239805E+02 -0.86163841858E+01  0.79029811012E+01  0.15489007074E+02  0.00000000000E+00 0. -1.
</event>
<event>
 7    1  0.6684706E-006  0.1111962E+03  0.7561462E-02  0.1258371E+00
          1   -1    0    0  501    0  0.00000000000E+00  0.00000000000E+00  0.42726590935E+03  0.42726590935E+03  0.00000000000E+00 0. -1.
         -1   -1    0    0    0  501 -0.00000000000E+00 -0.00000000000E+00 -0.56393696140E+02  0.56393696140E+02  0.00000000000E+00 0.  1.
         23    2    1    2    0    0 -0.37632104623E+02 -0.26478517755E+02  0.26411693340E+02  0.10596772460E+03  0.91729460426E+02 0.  0.
          5    1    1    2  502    0  0.59600008823E+02  0.56876986404E+02  0.96834058816E+02  0.12720636769E+03  0.41800000000E+01 0. -1.
         -5    1    1    2    0  502 -0.21967904200E+02 -0.30398468649E+02  0.24762646106E+03  0.25048551321E+03  0.41800000000E+01 0.  1.
        -11    1    3    3    0    0 -0.66428819919E+01  0.33768021801E+02  0.42018402609E+01  0.34670775000E+02  0.00000000000E+00 0. -1.
         11    1    3    3    0    0 -0.30989222631E+02 -0.60246539556E+02  0.22209853080E+02  0.71296949596E+02  0.00000000000E+00 0.  1.
</event>
<event>
 7    1  0.6684706E-006  0.1913596E+03  0.7561462E-02  0.1157241E+00
          2   -1    0    0  501    0  0.00000000000E+00  0.00000000000E+00  0.11799526256E+04  0.11799526256E+04  0.00000000000E+00 0. -1.
         -2   -1    0    0    0  501 -0.00000000000E+00 -0.00000000000E+00 -0.42288693129E+02  0.42288693129E+02  0.00000000000E+00 0.  1.
         23    2    1    2    0    0  0.17910319531E+02  0.16222690466E+03  0.25676916387E+03  0.31766299448E+03  0.91329219898E+02 0.  0.
          5    1    1    2  502    0  0.47301019350E+02 -0.52152262365E+02  0.20849506740E+03  0.22010204549E+03  0.41800000000E+01 0.  1.
         -5    1    1    2    0  502 -0.65211338880E+02 -0.11007464230E+03  0.67239970124E+03  0.68447627879E+03  0.41800000000E+01 0.  1.
        -11    1    3    3    0    0  0.39993335655E+02  0.29677747846E+02  0.95848861514E+02  0.10801499835E+03  0.00000000000E+00 0. -1.
         11    1    3    3    0    0 -0.22083016125E+02  0.13254915682E+03  0.16092030236E+03  0.20964799614E+03  0.00000000000E+00 0.  1.
</event>
<event>
 7    1  0.6684706E-006  0.1314461E+03  0.7561462E-02  0.1225326E+00
         -1   -1    0    0    0  501 -0.00000000000E+00  0.00000000000E+00  0.18590734881E+02  0.18590734881E+02  0.00000000000E+00 0.  1.
          1   -1    0    0  501    0  0.00000000000E+00 -0.00000000000E+00 -0.94171347204E+03  0.94171347204E+03  0.00000000000E+00 0. -1.
         23    2    1    2    0    0 -0.17868474087E+02 -0.73137950483E+02 -0.40958896788E+03  0.42642025221E+03  0.91666060896E+02 0.  0.
          5    1    1    2  502    0  0.66367971954E+02  0.70356227333E+02 -0.32173243386E+03  0.33598204985E+03  0.41800000000E+01 0.  1.
         -5    1    1    2    0  502 -0.48499497867E+02  0.27817231502E+01 -0.19180133542E+03  0.19790190485E+03  0.41800000000E+01 0.  1.
        -11    1    3    3    0    0  0.17335322758E+02 -0.79656662498E+02 -0.31189011392E+03  0.32236802021E+03  0.00000000000E+00 0. -1.
         11    1    3    3    0    0 -0.35203796845E+02  0.65187120150E+01 -0.97698853958E+02  0.10405223200E+03  0.00000000000E+00 0.  1.
</event>
<event>
 6    1  0.7528658E-006  0.6374934E+02  0.7561462E-02  0.1382739E+00
         -2   -1    0    0    0  501 -0.00000000000E+00  0.00000000000E+00  0.63851340924E+01  0.63851340924E+01  0.00000000000E+00 0.  1.
          2   -1    0    0  501    0  0.00000000000E+00 -0.00000000000E+00 -0.93693376478E+03  0.93693376478E+03  0.00000000000E+00 0. -1.
          5    1    1    2  502    0  0.42254741998E+02 -0.20765222902E+02 -0.60616654632E+03  0.60800658876E+03  0.41800000000E+01 0. -1.
         -5    1    1    2    0  502 -0.40748272913E+02 -0.14690264152E+02 -0.12029681517E+03  0.12792584471E+03  0.41800000000E+01 0.  1.
        -11    1    1    2    0    0 -0.55119520095E+01  0.19396798083E+02 -0.12100759958E+03  0.12267622650E+03  0.00000000000E+00 0.  1.
         11    1    1    2    0    0  0.40054829241E+01  0.16058688972E+02 -0.83077669614E+02  0.84710238894E+02  0.00000000000E+00 0. -1.
</event>
<event>
 7    1  0.6684706E-006  0.1070543E+03  0.7561462E-02  0.1266124E+00
         -2   -1    0    0    0  501 -0.00000000000E+00  0.00000000000E+00  0.28163807486E+02  0.28163807486E+02  0.00000000000E+00 0.  1.
          2   -1    0    0  501    0  0.00000000000E+00 -0.00000000000E+00 -0.42908180006E+03  0.42908180006E+03  0.00000000000E+00 0. -1.
         23    2    1    2    0    0 -0.99039932704E+01 -0.21522010653E+02 -0.19976513912E+03  0.21919068851E+03  0.87046890234E+02 0.  0.
          5    1    1    2  502    0  0.65363923762E+02  0.20451697596E+02 -0.84762796325E+02  0.10905465834E+03  0.41800000000E+01 0.  1.
         -5    1    1    2    0  502 -0.55459930491E+02  0.10703130567E+01 -0.11639005713E+03  0.12900026069E+03  0.41800000000E+01 0.  1.
        -11    1    3    3    0    0 -0.44430120367E+02  0.71298857322E+01 -0.10965211055E+03  0.11852618366E+03  0.00000000000E+00 0. -1.
         11    1    3    3    0    0  0.34526127096E+02 -0.28651896385E+02 -0.90113028570E+02  0.10066450485E+03  0.00000000000E+00 0.  1.
</event>
<event>
 7    1  0.6684706E-006  0.1214212E+03  0.7561462E-02  0.1240771E+00
          1   -1    0    0  501    0  0.00000000000E+00  0.00000000000E+00  0.14697328797E+04  0.14697328797E+04  0.00000000000E+00 0. -1.
         -1   -1    0    0    0  501 -0.00000000000E+00 -0.00000000000E+00 -0.17286746876E+02  0.17286746876E+02  0.00000000000E+00 0.  1.
         23    2    1    2    0    0  0.71925191910E+02 -0.59940693125E+02  0.36197318616E+03  0.38540947567E+03  0.93540133160E+02 0.  0.
          5    1    1    2  502    0 -0.11335354116E+02 -0.26844527006E+02  0.55389557922E+03  0.55467729714E+03  0.41800000000E+01 0. -1.
         -5    1    1    2    0  502 -0.60589837794E+02  0.86785220131E+02  0.53657736741E+03  0.54693285373E+03  0.41800000000E+01 0. -1.
        -11    1    3    3    0    0  0.21788074840E+02 -0.52436558418E+02  0.30007639626E+03  0.30540163139E+03  0.00000000000E+00 0. -1.
         11    1    3    3    0    0  0.50137117070E+02 -0.75041347074E+01  0.61896789901E+02  0.80007844277E+02  0.00000000000E+00 0.  1.
</event>
<event>
 7    1  0.6684706E-006  0.1161658E+03  0.7561462E-02  0.1249560E+00
         -2   -1    0    0    0  501 -0.00000000000E+00  0.00000000000E+00  0.17498813771E+03  0.17498813771E+03  0.00000000000E+00 0. -1.
          2   -1    0    0  501    0  0.00000000000E+00 -0.00000000000E+00 -0.21289863155E+03  0.21289863155E+03  0.00000000000E+00 0.  1.
         23    2    1    2    0    0 -0.63046520955E+02  0.53238836895E+02  0.12527950362E+03  0.16633371876E+03  0.71852031364E+02 0.  0.
          5    1    1    2  502    0 -0.32999148005E+02  0.10007613566E+02 -0.35752713575E+02  0.49848019282E+02  0.41800000000E+01 0. -1.
         -5    1    1    2    0  502  0.96045668960E+02 -0.63246450461E+02 -0.12743728389E+03  0.17170503122E+03  0.41800000000E+01 0. -1.
        -11    1    3    3    0    0 -0.12822124055E+02  0.10498402081E+02  0.90055690589E+02  0.91567738418E+02  0.00000000000E+00 0. -1.
         11    1    3    3    0    0 -0.50224396900E+02  0.42740434814E+02  0.35223813028E+02  0.74765980341E+02  0.00000000000E+00 0.  1.
</event>
<event>
 7    1  0.6684706E-006  0.1270096E+03  0.7561462E-02  0.1231962E+00
          1   -1    0    0  501    0  0.00000000000E+00  0.00000000000E+00  0.10998311903E+04  0.10998311903E+04  0.00000000000E+00 0. -1.
         -1   -1    0    0    0  501 -0.00000000000E+00 -0.00000000000E+00 -0.23499807676E+02  0.23499807676E+02  0.00000000000E+00 0.  1.
         23    2    1    2    0    0 -0.30930918739E+01  0.44736124444E+02  0.15285338391E+03  0.18374752487E+03  0.91586614068E+02 0.  0.
          5    1    1    2  502    0 -0.21684031265E+02 -0.10131897721E+03  0.70189862155E+03  0.70951735686E+03  0.41800000000E+01 0. -1.
         -5    1    1    2    0  502  0.24777123139E+02  0.56582852767E+02  0.22157937717E+03  0.23006611625E+03  0.41800000000E+01 0.  1.
        -11    1    3    3    0    0 -0.27499330502E+01  0.66543506010E+02  0.64397558150E+02  0.92642570234E+02  0.00000000000E+00 0.  1.
         11    1    3    3    0    0 -0.34315882374E+00 -0.21807381566E+02  0.88455825761E+02  0.91104954639E+02  0.00000000000E+00 0. -1.
</event>
<event>
 7    1  0.6684706E-006  0.1518552E+03  0.7561462E-02  0.1198212E+00
          2   -1    0    0  501    0  0.00000000000E+00  0.00000000000E+00  0.80086000545E+02  0.80086000545E+02  0.00000000000E+00 0. -1.
         -2   -1    0    0    0  501 -0.00000000000E+00 -0.00000000000E+00 -0.45791694361E+03  0.45791694361E+03  0.00000000000E+00 0.  1.
         23    2    1    2    0    0 -0.36312651258E+02  0.12087791676E+03 -0.31274832321E+03  0.34875444893E+03  0.88814821831E+02 0.  0.
          5    1    1    2  502    0  0.43810539568E+02  0.10530115233E+02 -0.91149000224E+01  0.46160594737E+02  0.41800000000E+01 0. -1.
         -5    1    1    2    0  502 -0.74978883099E+01 -0.13140803200E+03 -0.55967719833E+02  0.14308790049E+03  0.41800000000E+01 0. -1.
        -11    1    3    3    0    0 -0.24136786988E+02  0.59734767947E+02 -0.58665244476E+02  0.87134596443E+02  0.00000000000E+00 0. -1.
         11    1    3    3    0    0 -0.12175864271E+02  0.61143148816E+02 -0.25408307873E+03  0.26161985249E+03  0.00000000000E+00 0.  1.
</event>
<event>
 7    1  0.6684706E-006  0.1374294E+03  0.7561462E-02  0.1216830E+00
         -1   -1    0    0    0  501 -0.00000000000E+00  0.00000000000E+00  0.14019414071E+02  0.14019414071E+02  0.00000000000E+00 0.  1.
          1   -1    0    0  501    0  0.00000000000E+00 -0.00000000000E+00 -0.24320020916E+04  0.24320020916E+04  0.00000000000E+00 0. -1.
         23    2    1    2    0    0  0.14276665150E+02 -0.71346317912E+02 -0.29815914730E+03  0.31836605460E+03  0.84640104866E+02 0.  0.
          5    1    1    2  502    0  0.41634653166E+02  0.10552396151E+03 -0.11414015363E+04  0.11470325585E+04  0.41800000000E+01 0. -1.
         -5    1    1    2    0  502 -0.55911318315E+02 -0.34177643602E+02 -0.97842199401E+03  0.98062289265E+03  0.41800000000E+01 0.  1.
        -11    1    3    3    0    0 -0.23506711120E+02 -0.40817772945E+02 -0.22936020304E+03  0.23414687441E+03  0.00000000000E+00 0. -1.
         11    1    3    3    0    0  0.37783376270E+02 -0.30528544968E+02 -0.68798944262E+02  0.84219180189E+02  0.00000000000E+00 0.  1.
</event>
<event>
 7    1  0.6684706E-006  0.8848379E+02  0.7561462E-02  0.1306566E+00
         -1   -1    0    0    0  501 -0.00000000000E+00  0.00000000000E+00  0.26883984090E+02  0.26883984090E+02  0.00000000000E+00 0.  1.
          1   -1    0    0  501    0  0.00000000000E+00 -0.00000000000E+00 -0.50929729526E+03  0.50929729526E+03  0.00000000000E+00 0. -1.
         23    2    1    2    0    0 -0.43047012567E+02  0.70093519353E+01 -0.12873326803E+03  0.15944222025E+03  0.83351010774E+02 0.  0.
          5    1    1    2  502    0  0.36738113777E+02  0.28629758993E+02 -0.32997557919E+03  0.33327272220E+03  0.41800000000E+01 0. -1.
         -5    1    1    2    0  502  0.63088987901E+01 -0.35639110929E+02 -0.23704463960E+02  0.43466336898E+02  0.41800000000E+01 0.  1.
        -11    1    3    3    0    0 -0.30470225354E+02  0.44665801561E+02 -0.80472366535E+02  0.96949833615E+02  0.00000000000E+00 0. -1.
         11    1    3    3    0    0 -0.12576787214E+02 -0.37656449626E+02 -0.48260901491E+02  0.62492386638E+02  0.00000000000E+00 0.  1.
</event>
<event>
 7    1  0.6684706E-006  0.1577771E+03  0.7561462E-02  0.1191229E+00
         -1   -1    0    0    0  501 -0.00000000000E+00  0.00000000000E+00  0.18601329529E+02  0.18601329529E+02  0.00000000000E+00 0.  1.
          1   -1    0    0  501    0  0.00000000000E+00 -0.00000000000E+00 -0.14682584022E+04  0.14682584022E+04  0.00000000000E+00 0. -1.
         23    2    1    2    0    0  0.12141448229E+03 -0.65521220879E+01 -0.59031494772E+03  0.60998974411E+03  0.93975228673E+02 0.  0.
          5    1    1    2  502    0 -0.39575079937E+02 -0.49577191877E+02 -0.50098203489E+03  0.50499956098E+03  0.41800000000E+01 0. -1.
         -5    1    1    2    0  502 -0.81839402349E+02  0.56129313965E+02 -0.35836009009E+03  0.37187042667E+03  0.41800000000E+01 0. -1.
        -11    1    3    3    0    0  0.12628044583E+03  0.18061017419E+02 -0.46454213242E+03  0.48173887547E+03  0.00000000000E+00 0.  1.
         11    1    3    3    0    0 -0.48659635402E+01 -0.24613139507E+02 -0.12577281531E+03  0.12825086864E+03  0.00000000000E+00 0. -1.
</event>
<event>
 7    1  0.6684706E-006  0.1069117E+03  0.7561462E-02  0.1266398E+00
         -1   -1    0    0    0  501 -0.00000000000E+00  0.00000000000E+00  0.87952781660E+02  0.87952781660E+02  0.00000000000E+00 0.  1.
          1   -1    0    0  501    0  0.00000000000E+00 -0.00000000000E+00 -0.16985292713E+03  0.16985292713E+03  0.00000000000E+00 0. -1.
         23    2    1    2    0    0  0.36582607759E+02 -0.17674641049E+02 -0.21846631499E+02  0.11320068320E+03  0.10337523515E+03 0.  0.
          5    1    1    2  502    0  0.33512998570E+02 -0.11744940320E+02  0.13996761891E+02  0.38398521322E+02  0.41800000000E+01 0.  1.
         -5    1    1    2    0  502 -0.70095606329E+02  0.29419581369E+02 -0.74050275863E+02  0.10620650427E+03  0.41800000000E+01 0.  1.
        -11    1    3    3    0    0 -0.31689992456E+02 -0.12619507348E+01 -0.28538412292E+02  0.42664846392E+02  0.00000000000E+00 0. -1.
         11    1    3    3    0    0  0.68272600215E+02 -0.16412690314E+02  0.66917807927E+01  0.70535836804E+02  0.00000000000E+00 0.  1.
</event>
<event>
 7    1  0.6684706E-006  0.9597476E+02  0.7561462E-02  0.1288996E+00
         -1   -1    0    0    0  501 -0.00000000000E+00  0.00000000000E+00  0.30584484590E+03  0.30584484590E+03  0.00000000000E+00 0.  1.
          1   -1    0    0  501    0  0.00000000000E+00 -0.00000000000E+00 -0.54472941614E+02  0.54472941614E+02  0.00000000000E+00 0. -1.
         23    2    1    2    0    0  0.24714602042E+02  0.62276857772E+02  0.13933162990E+03  0.17951059263E+03  0.91222427110E+02 0.  0.
          5    1    1    2  502    0 -0.32493793276E+02 -0.21020729766E+02 -0.18875722971E+02  0.43260640298E+02  0.41800000000E+01 0.  1.
         -5    1    1    2    0  502  0.77791912339E+01 -0.41256128006E+02  0.13091599736E+03  0.13754655459E+03  0.41800000000E+01 0.  1.
        -11    1    3    3    0    0  0.44746164580E+02 -0.69567186086E+00  0.38936206537E+02  0.59318895670E+02  0.00000000000E+00 0. -1.
         11    1    3    3    0    0 -0.20031562538E+02  0.62972529633E+02  0.10039542336E+03  0.12019169696E+03  0.00000000000E+00 0.  1.
</event>
<event>
 7    1  0.6684706E-006  0.1457008E+03  0.7561462E-02  0.1205858E+00
          2   -1    0    0  501    0  0.00000000000E+00  0.00000000000E+00  0.77317952092E+03  0.77317952092E+03  0.00000000000E+00 0.  1.
         -2   -1    0    0    0  501 -0.00000000000E+00 -0.00000000000E+00 -0.37086925570E+02  0.37086925570E+02  0.00000000000E+00 0. -1.
         23    2    1    2    0    0 -0.62494948794E+02 -0.93270675150E+02  0.18161761839E+03  0.23087459500E+03  0.87824152942E+02 0.  0.
          5    1    1    2  502    0  0.29795436008E+02 -0.17059546423E+02  0.27437216389E+03  0.27654358219E+03  0.41800000000E+01 0.  1.
         -5    1    1    2    0  502  0.32699512786E+02  0.11033022157E+03  0.28010281307E+03  0.30284826930E+03  0.41800000000E+01 0.  1.
        -11    1    3    3    0    0 -0.67667205882E+02 -0.10722008664E+03  0.15374549143E+03  0.19928039006E+03  0.00000000000E+00 0. -1.
         11    1    3    3    0    0  0.51722570880E+01  0.13949411486E+02  0.27872126961E+02  0.31594204936E+02  0.00000000000E+00 0.  1.
</event>
<event>
 7    1  0.6684706E-006  0.1334338E+03  0.7561462E-02  0.1222448E+00
         -1   -1    0    0    0  501 -0.00000000000E+00  0.00000000000E+00  0.30915989194E+02  0.30915989194E+02  0.00000000000E+00 0.  1.
          1   -1    0    0  501    0  0.00000000000E+00 -0.00000000000E+00 -0.74864898941E+03  0.74864898941E+03  0.00000000000E+00 0. -1.
         23    2    1    2    0    0 -0.31066685098E+02  0.76752822225E+02 -0.16582684907E+03  0.20763481101E+03  0.93581708823E+02 0.  0.
          5    1    1    2  502    0 -0.42809356479E+02 -0.50215037688E+02 -0.17881264562E+03  0.19064528750E+03  0.41800000000E+01 0.  1.
         -5    1    1    2    0  502  0.73876041577E+02 -0.26537784536E+02 -0.37309350553E+03  0.38128488010E+03  0.41800000000E+01 0.  1.
        -11    1    3    3    0    0  0.31181056045E+02  0.36527125092E+02 -0.44564239222E+02  0.65516872186E+02  0.00000000000E+00 0.  1.
         11    1    3    3    0    0 -0.62247741143E+02  0.40225697133E+02 -0.12126260985E+03  0.14211793882E+03  0.00000000000E+00 0. -1.
</event>
<event>
 7    1  0.6684706E-006  0.1624449E+03  0.7561462E-02  0.1185964E+00
         -2   -1    0    0    0  501 -0.00000000000E+00  0.00000000000E+00  0.95245513667E+02  0.95245513667E+02  0.00000000000E+00 0.  1.
          2   -1    0    0  501    0  0.00000000000E+00 -0.00000000000E+00 -0.37929021308E+03  0.37929021308E+03  0.00000000000E+00 0. -1.
         23    2    1    2    0    0  0.18157182590E+02  0.15431419672E+03 -0.15551575020E+03  0.23724027697E+03  0.89192185020E+02 0.  0.
          5    1    1    2  502    0 -0.22932114602E+02 -0.13757068643E+03 -0.15293714951E+03  0.20702371783E+03  0.41800000000E+01 0. -1.
         -5    1    1    2    0  502  0.47749320125E+01 -0.16743510293E+02  0.24408200302E+02  0.30271731940E+02  0.41800000000E+01 0. -1.
        -11    1    3    3    0    0  0.19618883104E+02  0.80908545581E+01  0.31641399442E+01  0.21456334341E+02  0.00000000000E+00 0. -1.
         11    1    3    3    0    0 -0.14617005146E+01  0.14622334216E+03 -0.15867989014E+03  0.21578394263E+03  0.00000000000E+00 0.  1.
</event>
<event>
 7    1  0.6684706E-006  0.1276375E+03  0.7561462E-02  0.1231004E+00
          1   -1    0    0  501    0  0.00000000000E+00  0.00000000000E+00  0.42590758448E+03  0.42590758448E+03  0.00000000000E+00 0. -1.
         -1   -1    0    0    0  501 -0.00000000000E+00 -0.00000000000E+00 -0.44244710956E+02  0.44244710956E+02  0.00000000000E+00 0.  1.
         23    2    1    2    0    0 -0.71639352740E+02  0.17764399282E+02  0.10619862930E+03  0.15874289354E+03  0.92051000219E+02 0.  0.
          5    1    1    2  502    0 -0.33747123338E+02  0.10759571544E+02  0.59233006007E+02  0.69142303361E+02  0.41800000000E+01 0. -1.
         -5    1    1    2    0  502  0.10538647608E+03 -0.28523970826E+02  0.21623123822E+03  0.24226709854E+03  0.41800000000E+01 0. -1.
        -11    1    3    3    0    0 -0.64427964474E+02 -0.23409691972E+02  0.36995725152E+02  0.77895185757E+02  0.00000000000E+00 0.  1.
         11    1    3    3    0    0 -0.72113882656E+01  0.41174091254E+02  0.69202904145E+02  0.80847707781E+02  0.00000000000E+00 0. -1.
</event>
<event>
 7    1  0.9721068E-006  0.1429944E+03  0.7561462E-02  0.1209356E+00
         -1   -1    0    0    0  501 -0.00000000000E+00  0.00000000000E+00  0.18261968290E+03  0.18261968290E+03  0.00000000000E+00 0.  1.
          1   -1    0    0  501    0  0.00000000000E+00 -0.00000000000E+00 -0.17551526454E+03  0.17551526454E+03  0.00000000000E+00 0. -1.
         23    2    1    2    0    0 -0.63001505607E+02 -0.11658086930E+03  0.55214722014E+02  0.16966146970E+03  0.90421568091E+02 0.  0.
          5    1    1    2  502    0  0.34682299676E+02  0.75804170102E+02  0.35853496786E+02  0.90840958535E+02  0.41800000000E+01 0.  1.
         -5    1    1    2    0  502  0.28319205931E+02  0.40776699201E+02 -0.83963800438E+02  0.97632519205E+02  0.41800000000E+01 0.  1.
        -11    1    3    3    0    0  0.10358513685E+02 -0.57731888437E+02  0.47174949984E+02  0.75271147555E+02  0.00000000000E+00 0.  1.
         11    1    3    3    0    0 -0.73360019292E+02 -0.58848980866E+02  0.80397720293E+01  0.94390322141E+02  0.00000000000E+00 0. -1.
</event>
<event>
 7    1  0.6684706E-006  0.1136989E+03  0.7561462E-02  0.1253869E+00
          2   -1    0    0  501    0  0.00000000000E+00  0.00000000000E+00  0.14769268869E+04  0.14769268869E+04  0.00000000000E+00 0. -1.
         -2   -1    0    0    0  501 -0.00000000000E+00 -0.00000000000E+00 -0.16691296216E+02  0.16691296216E+02  0.00000000000E+00 0.  1.
         23    2    1    2    0    0 -0.34760923915E+02  0.92296831860E+02  0.40189255622E+03  0.42390895575E+03  0.91946446430E+02 0.  0.
          5    1    1    2  502    0  0.21111030128E+02 -0.57718694176E+02  0.98902102971E+03  0.99093753227E+03  0.41800000000E+01 0. -1.
         -5    1    1    2    0  502  0.13649893787E+02 -0.34578137685E+02  0.69322004734E+02  0.78771695085E+02  0.41800000000E+01 0.  1.
        -11    1    3    3    0    0 -0.46810976368E+01  0.97712820647E+02  0.24025769561E+03  0.25940984618E+03  0.00000000000E+00 0.  1.
         11    1    3    3    0    0 -0.30079826278E+02 -0.54159887866E+01  0.16163486061E+03  0.16449910957E+03  0.00000000000E+00 0. -1.
</event>
<event>
 7    1  0.6684706E-006  0.7669706E+02  0.7561462E-02  0.1338695E+00
          1   -1    0    0  501    0  0.00000000000E+00  0.00000000000E+00  0.23064744389E+03  0.23064744389E+03  0.00000000000E+00 0. -1.
         -1   -1    0    0    0  501 -0.00000000000E+00 -0.00000000000E+00 -0.96700580885E+02  0.96700580885E+02  0.00000000000E+00 0.  1.
         23    2    1    2    0    0 -0.13669267948E+02  0.24513499195E+02 -0.45841454417E+02  0.10653397152E+03  0.91979821790E+02 0.  0.
          5    1    1    2  502    0 -0.35982263806E+02  0.10822102406E+01  0.41714969185E+01  0.36479696739E+02  0.41800000000E+01 0. -1.
         -5    1    1    2    0  502  0.49651531755E+02 -0.25595709435E+02  0.17561682050E+03  0.18433435651E+03  0.41800000000E+01 0. -1.
        -11    1    3    3    0    0  0.20114249204E+02  0.13189526409E+01 -0.59907381125E+02  0.63207728724E+02  0.00000000000E+00 0.  1.
         11    1    3    3    0    0 -0.33783517152E+02  0.23194546554E+02  0.14065926709E+02  0.43326242800E+02  0.00000000000E+00 0. -1.
</event>
<event>
 7    1  0.6684706E-006  0.1464602E+03  0.7561462E-02  0.1204891E+00
          2   -1    0    0  501    0  0.00000000000E+00  0.00000000000E+00  0.12535986308E+04  0.12535986308E+04  0.00000000000E+00 0.  1.
         -2   -1    0    0    0  501 -0.00000000000E+00 -0.00000000000E+00 -0.23096118037E+02  0.23096118037E+02  0.00000000000E+00 0. -1.
         23    2    1    2    0    0 -0.30150737385E+01 -0.11264432007E+03  0.32249854602E+03  0.35321426211E+03  0.89761736045E+02 0.  0.
          5    1    1    2  502    0 -0.52122284793E+02  0.16153118592E+02  0.37735708914E+03  0.38130499726E+03  0.41800000000E+01 0.  1.
         -5    1    1    2    0  502  0.55137358532E+02  0.96491201480E+02  0.53064687757E+03  0.54217548943E+03  0.41800000000E+01 0.  1.
        -11    1    3    3    0    0 -0.26800297783E+02 -0.90848632201E+02  0.14769129605E+03  0.17545497674E+03  0.00000000000E+00 0. -1.
         11    1    3    3    0    0  0.23785224044E+02 -0.21795687870E+02  0.17480724997E+03  0.17775928537E+03  0.00000000000E+00 0.  1.
</event>
<event>
 7    1  0.6684706E-006  0.1065268E+03  0.7561462E-02  0.1267140E+00
         -2   -1    0    0    0  501 -0.00000000000E+00  0.00000000000E+00  0.25547697798E+02  0.25547697798E+02  0.00000000000E+00 0. -1.
          2   -1    0    0  501    0  0.00000000000E+00 -0.00000000000E+00 -0.79934272691E+03  0.79934272691E+03  0.00000000000E+00 0.  1.
         23    2    1    2    0    0  0.52805906688E+02  0.46508992518E+02 -0.18329830022E+03  0.21720188288E+03  0.92880788627E+02 0.  0.
          5    1    1    2  502    0 -0.61636975474E+02 -0.83586449372E+02 -0.46448960685E+03  0.47597676260E+03  0.41800000000E+01 0. -1.
         -5    1    1    2    0  502  0.88310687858E+01  0.37077456855E+02 -0.12600712204E+03  0.13171177922E+03  0.41800000000E+01 0. -1.
        -11    1    3    3    0    0  0.25099796695E+02  0.17124164425E+02 -0.17282971197E+03  0.17548032978E+03  0.00000000000E+00 0.  1.
         11    1    3    3    0    0  0.27706109994E+02  0.29384828093E+02 -0.10468588257E+02  0.41721553100E+02  0.00000000000E+00 0. -1.
</event>
<event>
 7    1  0.6684706E-006  0.1194273E+03  0.7561462E-02  0.1244045E+00
         -2   -1    0    0    0  501 -0.00000000000E+00  0.00000000000E+00  0.42006151154E+02  0.42006151154E+02  0.00000000000E+00 0.  1.
          2   -1    0    0  501    0  0.00000000000E+00 -0.00000000000E+00 -0.50090239107E+03  0.50090239107E+03  0.00000000000E+00 0. -1.
         23    2    1    2    0    0 -0.69968074019E+02 -0.62672196699E+02 -0.23256656075E+03  0.26777752478E+03  0.93777726440E+02 0.  0.
          5    1    1    2  502    0  0.68389140220E+02  0.71486927355E+02 -0.76896592153E+02  0.12537150221E+03  0.41800000000E+01 0. -1.
         -5    1    1    2    0  502  0.15789337988E+01 -0.88147306565E+01 -0.14943308701E+03  0.14975951523E+03  0.41800000000E+01 0. -1.
        -11    1    3    3    0    0 -0.91486927713E+02 -0.56651877092E+02 -0.21030330271E+03  0.23623457040E+03  0.00000000000E+00 0. -1.
         11    1    3    3    0    0  0.21518853694E+02 -0.60203196067E+01 -0.22263258040E+02  0.31542954380E+02  0.00000000000E+00 0.  1.
</event>
<event>
 7    1  0.6684706E-006  0.8221392E+02  0.7561462E-02  0.1322884E+00
          2   -1    0    0  501    0  0.00000000000E+00  0.00000000000E+00  0.45336369019E+02  0.45336369019E+02  0.00000000000E+00 0. -1.
         -2   -1    0    0    0  501 -0.00000000000E+00 -0.00000000000E+00 -0.29924564141E+03  0.29924564141E+03  0.00000000000E+00 0.  1.
         23    2    1    2    0    0  0.17084685151E+02 -0.24254289306E+02 -0.19661597320E+03  0.21673469926E+03  0.86231849853E+02 0.  0.
          5    1    1    2  502    0 -0.56375447932E+02  0.13240056459E+02 -0.63857951895E+02  0.86306434551E+02  0.41800000000E+01 0. -1.
         -5    1    1    2    0  502  0.39290762781E+02  0.11014232847E+02  0.65646527043E+01  0.41540876619E+02  0.41800000000E+01 0.  1.
        -11    1    3    3    0    0  0.32103796669E+02  0.49747597029E+01 -0.22434776011E+02  0.39480642970E+02  0.00000000000E+00 0. -1.
         11    1    3    3    0    0 -0.15019111518E+02 -0.29229049009E+02 -0.17418119719E+03  0.17725405629E+03  0.00000000000E+00 0.  1.
</event>
<event>
 7    1  0.6684706E-006  0.1907346E+03  0.7561462E-02  0.1157800E+00
          1   -1    0    0  501    0  0.00000000000E+00  0.00000000000E+00  0.79310272542E+03  0.79310272542E+03  0.00000000000E+00 0. -1.
         -1   -1    0    0    0  501 -0.00000000000E+00 -0.00000000000E+00 -0.99445437315E+02  0.99445437315E+02  0.00000000000E+00 0.  1.
         23    2    1    2    0    0  0.18643695357E+03 -0.18744951045E+02  0.63150979047E+02  0.22299915385E+03  0.10310414937E+03 0.  0.
          5    1    1    2  502    0 -0.32770438124E+02 -0.15665869506E+02  0.26024139174E+02  0.44878160635E+02  0.41800000000E+01 0. -1.
         -5    1    1    2    0  502 -0.15366651545E+03  0.34410820551E+02  0.60448216989E+03  0.62467084825E+03  0.41800000000E+01 0. -1.
        -11    1    3    3    0    0  0.99131403857E+02 -0.10442711964E+02 -0.20540628942E+02  0.10177427426E+03  0.00000000000E+00 0. -1.
         11    1    3    3    0    0  0.87305549714E+02 -0.83022390814E+01  0.83691607988E+02  0.12122487959E+03  0.00000000000E+00 0.  1.
</event>
<event>
 7    1  0.6684706E-006  0.1238320E+03  0.7561462E-02  0.1236906E+00
         -2   -1    0    0    0  501 -0.00000000000E+00  0.00000000000E+00  0.11086980783E+02  0.11086980783E+02  0.00000000000E+00 0.  1.
          2   -1    0    0  501    0  0.00000000000E+00 -0.00000000000E+00 -0.16575077137E+04  0.16575077137E+04  0.00000000000E+00 0. -1.
         23    2    1    2    0    0 -0.56492030206E+02  0.42117207651E+02 -0.46629213817E+03  0.47976569875E+03  0.88213144834E+02 0.  0.
          5    1    1    2  502    0  0.66611951044E+02  0.27666248412E+02 -0.53897238931E+03  0.54379341865E+03  0.41800000000E+01 0. -1.
         -5    1    1    2    0  502 -0.10119920838E+02 -0.69783456064E+02 -0.64115620544E+03  0.64503557709E+03  0.41800000000E+01 0. -1.
        -11    1    3    3    0    0  0.13448375340E+02  0.31219219469E+02 -0.78161870727E+02  0.85233658253E+02  0.00000000000E+00 0.  1.
         11    1    3    3    0    0 -0.69940405546E+02  0.10897988182E+02 -0.38813026744E+03  0.39453204050E+03  0.00000000000E+00 0. -1.
</event>
<event>
 7    1  0.6684706E-006  0.1249462E+03  0.7561462E-02  0.1235153E+00
          1   -1    0    0  501    0  0.00000000000E+00  0.00000000000E+00  0.61083334750E+03  0.61083334750E+03  0.00000000000E+00 0. -1.
         -1   -1    0    0    0  501 -0.00000000000E+00 -0.00000000000E+00 -0.34313336077E+02  0.34313336077E+02  0.00000000000E+00 0.  1.
         23    2    1    2    0    0 -0.16043931057E+02 -0.88872512056E+02  0.32913886868E+03  0.35359704632E+03  0.92426972111E+02 0.  0.
          5    1    1    2  502    0  0.63626435840E+02  0.61130030923E+02  0.20051335512E+03  0.21910792318E+03  0.41800000000E+01 0. -1.
         -5    1    1    2    0  502 -0.47582504783E+02  0.27742481133E+02  0.46867787628E+02  0.72441714074E+02  0.41800000000E+01 0. -1.
        -11    1    3    3    0    0 -0.69051211378E+01 -0.95043892539E+02  0.32904813844E+03  0.34256926251E+03  0.00000000000E+00 0. -1.
         11    1    3    3    0    0 -0.91388099187E+01  0.61713804833E+01  0.90730233138E-01  0.11027783811E+02  0.00000000000E+00 0.  1.
</event>
<event>
 7    1  0.6684706E-006  0.7263240E+02  0.7561462E-02  0.1351364E+00
          1   -1    0    0  501    0  0.00000000000E+00  0.00000000000E+00  0.76933336551E+03  0.76933336551E+03  0.00000000000E+00 0. -1.
         -1   -1    0    0    0  501 -0.00000000000E+00 -0.00000000000E+00 -0.24748058490E+02  0.24748058490E+02  0.00000000000E+00 0.  1.
         23    2    1    2    0    0  0.17616024510E+02  0.44213277567E+02  0.12245361848E+03  0.15771609709E+03  0.87260187766E+02 0.  0.
          5    1    1    2  502    0 -0.10042225940E+02  0.42766428483E+01  0.54320170438E+03  0.54332743352E+03  0.41800000000E+01 0.  1.
         -5    1    1    2    0  502 -0.75737985702E+01 -0.48489920416E+02  0.78929984153E+02  0.93037893383E+02  0.41800000000E+01 0.  1.
        -11    1    3    3    0    0 -0.62493260253E+01  0.56935010390E+02  0.11679870864E+03  0.13008684723E+03  0.00000000000E+00 0.  1.
         11    1    3    3    0    0  0.23865350535E+02 -0.12721732823E+02  0.56549098426E+01  0.27629249854E+02  0.00000000000E+00 0. -1.
</event>
<event>
 7    1  0.6684706E-006  0.1500382E+03  0.7561462E-02  0.1200426E+00
          2   -1    0    0  501    0  0.00000000000E+00  0.00000000000E+00  0.78647144140E+03  0.78647144140E+03  0.00000000000E+00 0. -1.
         -2   -1    0    0    0  501 -0.00000000000E+00 -0.00000000000E+00 -0.87419867542E+02  0.87419867542E+02  0.00000000000E+00 0.  1.
         23    2    1    2    0    0  0.83012429984E+02 -0.83237820884E+02 -0.63418270411E+01  0.14818625195E+03  0.89996378474E+02 0.  0.
          5    1    1    2  502    0 -0.70540753651E+02  0.10873527272E+03  0.43848613932E+03  0.45726023688E+03  0.41800000000E+01 0. -1.
         -5    1    1    2    0  502 -0.12471676334E+02 -0.25497451835E+02  0.26690726158E+03  0.26844482011E+03  0.41800000000E+01 0.  1.
        -11    1    3    3    0    0  0.47435222217E+02 -0.93357957827E+02 -0.23639543405E+02  0.10735286027E+03  0.00000000000E+00 0.  1.
         11    1    3    3    0    0  0.35577207767E+02  0.10120136942E+02  0.17297716364E+02  0.40833391675E+02  0.00000000000E+00 0. -1.
</event>
<event>
 7    1  0.6684706E-006  0.1358812E+03  0.7561462E-02  0.1218981E+00
         -1   -1    0    0    0  501 -0.00000000000E+00  0.00000000000E+00  0.22318630327E+02  0.22318630327E+02  0.00000000000E+00 0.  1.
          1   -1    0    0  501    0  0.00000000000E+00 -0.00000000000E+00 -0.15488485620E+04  0.15488485620E+04  0.00000000000E+00 0. -1.
         23    2    1    2    0    0  0.77684622259E+02 -0.45952714470E+02 -0.21192699916E+03  0.24754544191E+03  0.90659474613E+02 0.  0.
          5    1    1    2  502    0  0.31313759405E+02  0.18116346046E+02 -0.49286238791E+03  0.49420598878E+03  0.41800000000E+01 0. -1.
         -5    1    1    2    0  502 -0.10899838166E+03  0.27836368423E+02 -0.82174054457E+03  0.82941576161E+03  0.41800000000E+01 0. -1.
        -11    1    3    3    0    0  0.64941602350E+02  0.97139328194E+01 -0.78052856558E+02  0.10200010110E+03  0.00000000000E+00 0.  1.
         11    1    3    3    0    0  0.12743019909E+02 -0.55666647289E+02 -0.13387414260E+03  0.14554534082E+03  0.00000000000E+00 0. -1.
</event>
<event>
 7    1  0.6684706E-006  0.1248960E+03  0.7561462E-02  0.1235232E+00
          1   -1    0    0  501    0  0.00000000000E+00  0.00000000000E+00  0.39506413784E+02  0.39506413784E+02  0.00000000000E+00 0. -1.
         -1   -1    0    0    0  501 -0.00000000000E+00 -0.00000000000E+00 -0.51579207528E+03  0.51579207528E+03  0.00000000000E+00 0.  1.
         23    2    1    2    0    0  0.86328039782E+02  0.29652028580E+02 -0.23027528101E+03  0.26460905945E+03  0.93056305793E+02 0.  0.
          5    1    1    2  502    0 -0.35465663218E+01 -0.49651964262E+02 -0.16747706386E+03  0.17476823226E+03  0.41800000000E+01 0. -1.
         -5    1    1    2    0  502 -0.82781473461E+02  0.19999935682E+02 -0.78533316628E+02  0.11592119735E+03  0.41800000000E+01 0. -1.
        -11    1    3    3    0    0  0.20696807847E+01  0.30241409476E+02 -0.13069196326E+03  0.13416115566E+03  0.00000000000E+00 0.  1.
         11    1    3    3    0    0  0.84258358998E+02 -0.58938089547E+00 -0.99583317744E+02  0.13044790379E+03  0.00000000000E+00 0. -1.
</event>
<event>
 7    1  0.6684706E-006  0.1229066E+03  0.7561462E-02  0.1238378E+00
         -2   -1    0    0    0  501 -0.00000000000E+00  0.00000000000E+00  0.11065110868E+03  0.11065110868E+03  0.00000000000E+00 0.  1.
          2   -1    0    0  501    0  0.00000000000E+00 -0.00000000000E+00 -0.17356626907E+03  0.17356626907E+03  0.00000000000E+00 0. -1.
         23    2    1    2    0    0 -0.44831071688E+02  0.73187163899E+02 -0.22426867478E+02  0.12720373675E+03  0.91168197908E+02 0.  0.
          5    1    1    2  502    0  0.65580057048E+02 -0.20589595358E+02  0.22329902633E+02  0.72393178346E+02  0.41800000000E+01 0. -1.
         -5    1    1    2    0  502 -0.20748985359E+02 -0.52597568541E+02 -0.62818195543E+02  0.84620462662E+02  0.41800000000E+01 0. -1.
        -11    1    3    3    0    0 -0.46967270907E+02  0.90950733711E+02 -0.31558867949E+02  0.10711639765E+03  0.00000000000E+00 0.  1.
         11    1    3    3    0    0  0.21361992183E+01 -0.17763569812E+02  0.91320004702E+01  0.20087339101E+02  0.00000000000E+00 0. -1.
</event>
<event>
 7    1  0.6684706E-006  0.1025254E+03  0.7561462E-02  0.1275073E+00
         -1   -1    0    0    0  501 -0.00000000000E+00  0.00000000000E+00  0.29481477346E+03  0.29481477346E+03  0.00000000000E+00 0.  1.
          1   -1    0    0  501    0  0.00000000000E+00 -0.00000000000E+00 -0.48480547068E+02  0.48480547068E+02  0.00000000000E+00 0. -1.
         23    2    1    2    0    0 -0.34204923664E+02  0.14936010268E+02  0.15548118800E+03  0.18425043353E+03  0.91546497638E+02 0.  0.
          5    1    1    2  502    0 -0.35486091524E+02  0.17212750609E+02  0.68233888010E+02  0.78923237061E+02  0.41800000000E+01 0. -1.
         -5    1    1    2    0  502  0.69691015188E+02 -0.32148760878E+02  0.22619150380E+02  0.80121649932E+02  0.41800000000E+01 0. -1.
        -11    1    3    3    0    0 -0.41798838052E+02 -0.24443871986E+02  0.42731732345E+02  0.64580544201E+02  0.00000000000E+00 0.  1.
         11    1    3    3    0    0  0.75939143879E+01  0.39379882255E+02  0.11274945566E+03  0.11966988933E+03  0.00000000000E+00 0. -1.
</event>
<event>
 7    1  0.6684706E-006  0.1284525E+03  0.7561462E-02  0.1229770E+00
         -2   -1    0    0    0  501 -0.00000000000E+00  0.00000000000E+00  0.20993840203E+02  0.20993840203E+02  0.00000000000E+00 0.  1.
          2   -1    0    0  501    0  0.00000000000E+00 -0.00000000000E+00 -0.10113689569E+04  0.10113689569E+04  0.00000000000E+00 0. -1.
         23    2    1    2    0    0 -0.20789882508E+02 -0.86503148993E+02 -0.32076064964E+03  0.34537902136E+03  0.92110043086E+02 0.  0.
          5    1    1    2  502    0  0.23342662886E+02  0.10858728534E+03 -0.36541951710E+03  0.38194891586E+03  0.41800000000E+01 0. -1.
         -5    1    1    2    0  502 -0.25527803778E+01 -0.22084136343E+02 -0.30419494998E+03  0.30503485991E+03  0.41800000000E+01 0. -1.
        -11    1    3    3    0    0  0.25370901019E+02 -0.32226554909E+00 -0.11231511842E+03  0.11514543977E+03  0.00000000000E+00 0.  1.
         11    1    3    3    0    0 -0.46160783527E+02 -0.86180883444E+02 -0.20844553122E+03  0.23023358159E+03  0.00000000000E+00 0. -1.
</event>
<event>
 7    1  0.6684706E-006  0.1072074E+03  0.7561462E-02  0.1265831E+00
          4   -1    0    0  501    0  0.00000000000E+00  0.00000000000E+00  0.54152330587E+03  0.54152330587E+03  0.00000000000E+00 0. -1.
         -4   -1    0    0    0  501 -0.00000000000E+00 -0.00000000000E+00 -0.23069695443E+02  0.23069695443E+02  0.00000000000E+00 0.  1.
         23    2    1    2    0    0 -0.27906921180E+02  0.42883220846E+01  0.19389265580E+03  0.21561455504E+03  0.89989379465E+02 0.  0.
          5    1    1    2  502    0  0.54023559401E+02  0.40819122444E+02  0.12008622154E+03  0.13792359744E+03  0.41800000000E+01 0.  1.
         -5    1    1    2    0  502 -0.26116638221E+02 -0.45107444529E+02  0.20447473309E+03  0.21105484883E+03  0.41800000000E+01 0.  1.
        -11    1    3    3    0    0  0.24646720471E+02  0.27417492593E+02  0.73194411314E+02  0.81954875253E+02  0.00000000000E+00 0. -1.
         11    1    3    3    0    0 -0.52553641651E+02 -0.23129170508E+02  0.12069824449E+03  0.13365967979E+03  0.00000000000E+00 0.  1.
</event>
<event>
 7    1  0.6684706E-006  0.7201634E+02  0.7561462E-02  0.1353368E+00
         -3   -1    0    0    0  501 -0.00000000000E+00  0.00000000000E+00  0.19877186270E+03  0.19877186270E+03  0.00000000000E+00 0.  1.
          3   -1    0    0  501    0  0.00000000000E+00 -0.00000000000E+00 -0.69853119345E+02  0.69853119345E+02  0.00000000000E+00 0. -1.
         23    2    1    2    0    0 -0.12149495485E+02  0.41745220452E+02  0.11097158729E+03  0.14880247462E+03  0.89091018595E+02 0.  0.
          5    1    1    2  502    0  0.12970172343E+02 -0.16285605512E+02 -0.46107353705E+02  0.50762257467E+02  0.41800000000E+01 0. -1.
         -5    1    1    2    0  502 -0.82067685796E+00 -0.25459614940E+02  0.64054509769E+02  0.69060249965E+02  0.41800000000E+01 0.  1.
        -11    1    3    3    0    0  0.22372395794E+02 -0.17507557822E+02  0.19403895227E+02  0.34402758965E+02  0.00000000000E+00 0. -1.
         11    1    3    3    0    0 -0.34521891278E+02  0.59252778274E+02  0.91567692067E+02  0.11439971565E+03  0.00000000000E+00 0.  1.
</event>
<event>
 7    1  0.6684706E-006  0.1266747E+03  0.7561462E-02  0.1232475E+00
          1   -1    0    0  501    0  0.00000000000E+00  0.00000000000E+00  0.47419165112E+03  0.47419165112E+03  0.00000000000E+00 0. -1.
         -1   -1    0    0    0  501 -0.00000000000E+00 -0.00000000000E+00 -0.60071026427E+02  0.60071026427E+02  0.00000000000E+00 0.  1.
         23    2    1    2    0    0 -0.26954305392E+02  0.74694675669E+02  0.34898399139E+02  0.12712221339E+03  0.92931855259E+02 0.  0.
          5    1    1    2  502    0  0.59733017073E+02  0.61195174699E+01  0.17405342891E+03  0.18416718041E+03  0.41800000000E+01 0.  1.
         -5    1    1    2    0  502 -0.32778711681E+02 -0.80814193139E+02  0.20516879664E+03  0.22297328375E+03  0.41800000000E+01 0.  1.
        -11    1    3    3    0    0  0.22751432583E+02  0.11631324397E+02 -0.17742526992E+02  0.31108080235E+02  0.00000000000E+00 0.  1.
         11    1    3    3    0    0 -0.49705737975E+02  0.63063351272E+02  0.52640926131E+02  0.96014133154E+02  0.00000000000E+00 0. -1.
</event>
<event>
 7    1  0.6684706E-006  0.1650706E+03  0.7561462E-02  0.1183088E+00
         -1   -1    0    0    0  501 -0.00000000000E+00  0.00000000000E+00  0.29549797992E+02  0.29549797992E+02  0.00000000000E+00 0.  1.
          1   -1    0    0  501    0  0.00000000000E+00 -0.00000000000E+00 -0.17152415091E+04  0.17152415091E+04  0.00000000000E+00 0. -1.
         23    2    1    2    0    0 -0.93802494980E+02  0.10166108703E+03 -0.26941157244E+03  0.31628501273E+03  0.91212549752E+02 0.  0.
          5    1    1    2  502    0 -0.29309646509E+02 -0.27167782360E+02 -0.22501407800E+03  0.22857373312E+03  0.41800000000E+01 0.  1.
         -5    1    1    2    0  502  0.12311214149E+03 -0.74493304665E+02 -0.11912660606E+04  0.11999325612E+04  0.41800000000E+01 0.  1.
        -11    1    3    3    0    0 -0.28912524437E+02  0.65779163713E+02 -0.20782156859E+03  0.21989233006E+03  0.00000000000E+00 0. -1.
         11    1    3    3    0    0 -0.64889970543E+02  0.35881923313E+02 -0.61590003850E+02  0.96392682668E+02  0.00000000000E+00 0.  1.
</event>
<event>
 7    1  0.6684706E-006  0.1434504E+03  0.7561462E-02  0.1208760E+00
          2   -1    0    0  501    0  0.00000000000E+00  0.00000000000E+00  0.61851163958E+03  0.61851163958E+03  0.00000000000E+00 0.  1.
         -2   -1    0    0    0  501 -0.00000000000E+00 -0.00000000000E+00 -0.34415722972E+02  0.34415722972E+02  0.00000000000E+00 0. -1.
         23    2    1    2    0    0  0.37211580237E+02 -0.85867747972E+02  0.23818164502E+03  0.27337185348E+03  0.96144175105E+02 0.  0.
          5    1    1    2  502    0 -0.48760879705E+02 -0.15607999908E+02  0.84772666668E+02  0.99121695227E+02  0.41800000000E+01 0. -1.
         -5    1    1    2    0  502  0.11549299468E+02  0.10147574788E+03  0.26114160492E+03  0.28043381384E+03  0.41800000000E+01 0. -1.
        -11    1    3    3    0    0  0.36607810287E+01  0.20994250648E+02  0.27754271972E+02  0.34992277586E+02  0.00000000000E+00 0. -1.
         11    1    3    3    0    0  0.33550799208E+02 -0.10686199862E+03  0.21042737305E+03  0.23837957589E+03  0.00000000000E+00 0.  1.
</event>
<event>
 7    1  0.6684706E-006  0.1585677E+03  0.7561462E-02  0.1190323E+00
          3   -1    0    0  501    0  0.00000000000E+00  0.00000000000E+00  0.15082300198E+04  0.15082300198E+04  0.00000000000E+00 0. -1.
         -3   -1    0    0    0  501 -0.00000000000E+00 -0.00000000000E+00 -0.11092800471E+03  0.11092800471E+03  0.00000000000E+00 0.  1.
         23    2    1    2    0    0 -0.97624227058E+02 -0.10247083940E+03 -0.37680370774E+02  0.17219292094E+03  0.90552907425E+02 0.  0.
          5    1    1    2  502    0  0.33337263050E+02  0.89263932276E+02  0.11723920695E+04  0.11762653016E+04  0.41800000000E+01 0. -1.
         -5    1    1    2    0  502  0.64286964008E+02  0.13206907125E+02  0.26259031639E+03  0.27069980200E+03  0.41800000000E+01 0.  1.
        -11    1    3    3    0    0 -0.84462140353E+02 -0.11161346846E+03 -0.10148863160E+02  0.14033680529E+03  0.00000000000E+00 0.  1.
         11    1    3    3    0    0 -0.13162086705E+02  0.91426290634E+01 -0.27531507615E+02  0.31856115648E+02  0.00000000000E+00 0. -1.
</event>
<event>
 7    1  0.6684706E-006  0.1532083E+03  0.7561462E-02  0.1196585E+00
         -2   -1    0    0    0  501 -0.00000000000E+00  0.00000000000E+00  0.22611282467E+02  0.22611282467E+02  0.00000000000E+00 0. -1.
          2   -1    0    0  501    0  0.00000000000E+00 -0.00000000000E+00 -0.13915823555E+04  0.13915823555E+04  0.00000000000E+00 0.  1.
         23    2    1    2    0    0  0.55966029294E+02 -0.11890555459E+03 -0.45797009217E+03  0.48530178607E+03  0.92252321869E+02 0.  0.
          5    1    1    2  502    0  0.23913381607E+02  0.74321768433E+02 -0.58748872826E+03  0.59266858641E+03  0.41800000000E+01 0. -1.
         -5    1    1    2    0  502 -0.79879410901E+02  0.44583786157E+02 -0.32351225264E+03  0.33622326553E+03  0.41800000000E+01 0. -1.
        -11    1    3    3    0    0  0.37399923553E+02 -0.36768945873E+02 -0.65556095687E+02  0.83954221717E+02  0.00000000000E+00 0. -1.
         11    1    3    3    0    0  0.18566105741E+02 -0.82136608717E+02 -0.39241399648E+03  0.40134756435E+03  0.00000000000E+00 0.  1.
</event>
<event>
 7    1  0.6684706E-006  0.9418323E+02  0.7561462E-02  0.1293026E+00
          1   -1    0    0  501    0  0.00000000000E+00  0.00000000000E+00  0.29410670855E+03  0.29410670855E+03  0.00000000000E+00 0. -1.
         -1   -1    0    0    0  501 -0.00000000000E+00 -0.00000000000E+00 -0.56693999716E+02  0.56693999716E+02  0.00000000000E+00 0.  1.
         23    2    1    2    0    0  0.53330377967E+02 -0.18868286066E+00  0.36578775429E+02  0.10826446678E+03  0.86827548281E+02 0.  0.
          5    1    1    2  502    0  0.15570817727E+02  0.32944002691E+02  0.14042266087E+03  0.14513357215E+03  0.41800000000E+01 0. -1.
         -5    1    1    2    0  502 -0.68901195693E+02 -0.32755319830E+02  0.60411272538E+02  0.97402669342E+02  0.41800000000E+01 0. -1.
        -11    1    3    3    0    0  0.32372322499E+02 -0.26365694583E+02  0.55740349682E+02  0.69642685886E+02  0.00000000000E+00 0. -1.
         11    1    3    3    0    0  0.20958055468E+02  0.26177011723E+02 -0.19161574253E+02  0.38621780896E+02  0.00000000000E+00 0.  1.
</event>
<event>
 7    1  0.6684706E-006  0.8170083E+02  0.7561462E-02  0.1324293E+00
         -1   -1    0    0    0  501 -0.00000000000E+00  0.00000000000E+00  0.14244074633E+03  0.14244074633E+03  0.00000000000E+00 0.  1.
          1   -1    0    0  501    0  0.00000000000E+00 -0.00000000000E+00 -0.16707069409E+03  0.16707069409E+03  0.00000000000E+00 0. -1.
         23    2    1    2    0    0  0.16482462226E+02  0.13387560057E+02  0.95883513513E+02  0.13452180050E+03  0.91932411696E+02 0.  0.
          5    1    1    2  502    0  0.16133978401E+02 -0.57086889911E+02 -0.10045345801E+03  0.11673726005E+03  0.41800000000E+01 0.  1.
         -5    1    1    2    0  502 -0.32616440627E+02  0.43699329854E+02 -0.20060003263E+02  0.58252379863E+02  0.41800000000E+01 0.  1.
        -11    1    3    3    0    0  0.72892983615E+00  0.27848314589E+02  0.10689749561E+03  0.11046779862E+03  0.00000000000E+00 0.  1.
         11    1    3    3    0    0  0.15753532390E+02 -0.14460754533E+02 -0.11013982102E+02  0.24054001874E+02  0.00000000000E+00 0. -1.
</event>
<event>
 7    1  0.6684706E-006  0.1551278E+03  0.7561462E-02  0.1194310E+00
         -1   -1    0    0    0  501 -0.00000000000E+00  0.00000000000E+00  0.36640869311E+02  0.36640869311E+02  0.00000000000E+00 0.  1.
          1   -1    0    0  501    0  0.00000000000E+00 -0.00000000000E+00 -0.11297917746E+04  0.11297917746E+04  0.00000000000E+00 0. -1.
         23    2    1    2    0    0 -0.17558944509E+02 -0.12479189437E+03 -0.18523966042E+03  0.24132074459E+03  0.89669596529E+02 0.  0.
          5    1    1    2  502    0 -0.37805015246E+02  0.53226936087E+02 -0.17873028188E+03  0.19032685561E+03  0.41800000000E+01 0. -1.
         -5    1    1    2    0  502  0.55363959755E+02  0.71564958285E+02 -0.72918096300E+03  0.73478504373E+03  0.41800000000E+01 0. -1.
        -11    1    3    3    0    0 -0.16054825717E+02  0.10354141811E+02 -0.17513143356E+02  0.25916710278E+02  0.00000000000E+00 0. -1.
         11    1    3    3    0    0 -0.15041187920E+01 -0.13514603618E+03 -0.16772651707E+03  0.21540403431E+03  0.00000000000E+00 0.  1.
</event>
<event>
 7    1  0.6684706E-006  0.1673760E+03  0.7561462E-02  0.1180612E+00
         -1   -1    0    0    0  501 -0.00000000000E+00  0.00000000000E+00  0.17694741506E+02  0.17694741506E+02  0.00000000000E+00 0. -1.
          1   -1    0    0  501    0  0.00000000000E+00 -0.00000000000E+00 -0.29434095433E+04  0.29434095433E+04  0.00000000000E+00 0.  1.
         23    2    1    2    0    0 -0.97491709913E+02 -0.99394499598E+02 -0.46492608800E+03  0.49320796800E+03  0.87828994859E+02 0.  0.
          5    1    1    2  502    0 -0.82115718939E+01  0.77814216269E+02 -0.11521904100E+04  0.11548518067E+04  0.41800000000E+01 0.  1.
         -5    1    1    2    0  502  0.10570328181E+03  0.21580283330E+02 -0.13085983038E+04  0.13130445101E+04  0.41800000000E+01 0.  1.
        -11    1    3    3    0    0 -0.84308185601E+02 -0.51589464557E+02 -0.39692234848E+03  0.40904363305E+03  0.00000000000E+00 0.  1.
         11    1    3    3    0    0 -0.13183524312E+02 -0.47805035041E+02 -0.68003739520E+02  0.84164334948E+02  0.00000000000E+00 0. -1.
</event>
<event>
 7    1  0.6684706E-006  0.9401073E+02  0.7561462E-02  0.1293420E+00
         -2   -1    0    0    0  501 -0.00000000000E+00  0.00000000000E+00  0.21532919121E+02  0.21532919121E+02  0.00000000000E+00 0.  1.
          2   -1    0    0  501    0  0.00000000000E+00 -0.00000000000E+00 -0.14172918891E+04  0.14172918891E+04  0.00000000000E+00 0. -1.
         23    2    1    2    0    0  0.33615653947E+02  0.32041351182E+02 -0.20528029158E+03  0.24089188108E+03  0.11718464013E+03 0.  0.
          5    1    1    2  502    0  0.85987177412E+01 -0.51206390206E+02 -0.21051023715E+03  0.21685955061E+03  0.41800000000E+01 0.  1.
         -5    1    1    2    0  502 -0.42214371689E+02  0.19165039024E+02 -0.97996844120E+03  0.98107337649E+03  0.41800000000E+01 0.  1.
        -11    1    3    3    0    0  0.39346357884E+01  0.52936571041E+02 -0.28158204618E+02  0.60088654500E+02  0.00000000000E+00 0.  1.
         11    1    3    3    0    0  0.29681018159E+02 -0.20895219859E+02 -0.17712208696E+03  0.18080322658E+03  0.00000000000E+00 0. -1.
</event>
<event>
 7    1  0.6684706E-006  0.1079711E+03  0.7561462E-02  0.1264374E+00
          1   -1    0    0  501    0  0.00000000000E+00  0.00000000000E+00  0.11757963574E+04  0.11757963574E+04  0.00000000000E+00 0. -1.
         -1   -1    0    0    0  501 -0.00000000000E+00 -0.00000000000E+00 -0.18875206745E+02  0.18875206745E+02  0.00000000000E+00 0.  1.
         23    2    1    2    0    0  0.46425677544E+02 -0.12843449109E+02  0.16974254036E+03  0.19842809496E+03  0.90779299075E+02 0.  0.
          5    1    1    2  502    0  0.19914856701E+02  0.50505934624E+02  0.52204974390E+03  0.52488175665E+03  0.41800000000E+01 0. -1.
         -5    1    1    2    0  502 -0.66340534245E+02 -0.37662485514E+02  0.46512886636E+03  0.47136171251E+03  0.41800000000E+01 0. -1.
        -11    1    3    3    0    0  0.44354156151E+02 -0.38873633814E+02  0.16005646941E+03  0.17057703238E+03  0.00000000000E+00 0. -1.
         11    1    3    3    0    0  0.20715213928E+01  0.26030184704E+02  0.96860709507E+01  0.27851062584E+02  0.00000000000E+00 0.  1.
</event>
<event>
 7    1  0.6684706E-006  0.9321857E+02  0.7561462E-02  0.1295239E+00
         -2   -1    0    0    0  501 -0.00000000000E+00  0.00000000000E+00  0.99404761379E+02  0.99404761379E+02  0.00000000000E+00 0.  1.
          2   -1    0    0  501    0  0.00000000000E+00 -0.00000000000E+00 -0.16262246047E+03  0.16262246047E+03  0.00000000000E+00 0. -1.
         23    2    1    2    0    0  0.34285690129E+02  0.35060633341E+02  0.21274178075E+02  0.10331584946E+03  0.88412767970E+02 0.  0.
          5    1    1    2  502    0 -0.66778167526E+02 -0.11824642861E+02 -0.95371721226E+02  0.11709988662E+03  0.41800000000E+01 0. -1.
         -5    1    1    2    0  502  0.32492477397E+02 -0.23235990479E+02  0.10879844058E+02  0.41611485766E+02  0.41800000000E+01 0. -1.
        -11    1    3    3    0    0  0.12408783731E+02 -0.17467116449E+02 -0.22840180892E+02  0.31316959206E+02  0.00000000000E+00 0. -1.
         11    1    3    3    0    0  0.21876906398E+02  0.52527749790E+02  0.44114358967E+02  0.71998890259E+02  0.00000000000E+00 0.  1.
</event>
<event>
 7    1  0.6684706E-006  0.1009288E+03  0.7561462E-02  0.1278355E+00
          1   -1    0    0  501    0  0.00000000000E+00  0.00000000000E+00  0.13573144470E+03  0.13573144470E+03  0.00000000000E+00 0. -1.
         -1   -1    0    0    0  501 -0.00000000000E+00 -0.00000000000E+00 -0.13170334054E+03  0.13170334054E+03  0.00000000000E+00 0.  1.
         23    2    1    2    0    0 -0.41265300628E+02 -0.12168445871E+02 -0.63928450548E+02  0.11874073655E+03  0.90341682601E+02 0.  0.
          5    1    1    2  502    0  0.20590489751E+02  0.52522247053E+02 -0.10924535811E+02  0.57613996445E+02  0.41800000000E+01 0.  1.
         -5    1    1    2    0  502  0.20674810877E+02 -0.40353801182E+02  0.78881090529E+02  0.91080052249E+02  0.41800000000E+01 0.  1.
        -11    1    3    3    0    0  0.20820525260E+02 -0.28745866000E+02 -0.27259469309E+02  0.44753745667E+02  0.00000000000E+00 0.  1.
         11    1    3    3    0    0 -0.62085825888E+02  0.16577420129E+02 -0.36668981239E+02  0.73986990879E+02  0.00000000000E+00 0. -1.
</event>
<event>
 7    1  0.6684706E-006  0.8748176E+02  0.7561462E-02  0.1309067E+00
         -3   -1    0    0    0  501 -0.00000000000E+00  0.00000000000E+00  0.18611694316E+02  0.18611694316E+02  0.00000000000E+00 0.  1.
          3   -1    0    0  501    0  0.00000000000E+00 -0.00000000000E+00 -0.73637094074E+03  0.73637094074E+03  0.00000000000E+00 0. -1.
         23    2    1    2    0    0  0.25316241754E+02 -0.41212222617E+02 -0.29449420830E+03  0.31097787477E+03  0.87413045290E+02 0.  0.
          5    1    1    2  502    0  0.20910352899E+02  0.12755280026E+02 -0.35865359667E+03  0.35951330271E+03  0.41800000000E+01 0. -1.
         -5    1    1    2    0  502 -0.46226594654E+02  0.28456942590E+02 -0.64611441463E+02  0.84491457573E+02  0.41800000000E+01 0. -1.
        -11    1    3    3    0    0  0.56197516463E+01  0.25500267884E+02 -0.45608260776E+02  0.52554340656E+02  0.00000000000E+00 0. -1.
         11    1    3    3    0    0  0.19696490108E+02 -0.66712490500E+02 -0.24888594752E+03  0.25842353412E+03  0.00000000000E+00 0.  1.
</event>
<event>
 7    1  0.6684706E-006  0.1210290E+03  0.7561462E-02  0.1241409E+00
          1   -1    0    0  501    0  0.00000000000E+00  0.00000000000E+00  0.12934448719E+03  0.12934448719E+03  0.00000000000E+00 0. -1.
         -1   -1    0    0    0  501 -0.00000000000E+00 -0.00000000000E+00 -0.14351575174E+03  0.14351575174E+03  0.00000000000E+00 0.  1.
         23    2    1    2    0    0 -0.37175818022E+02 -0.43124263883E+02 -0.66900003337E+02  0.12565445904E+03  0.89842579268E+02 0.  0.
          5    1    1    2  502    0 -0.37259502171E+02  0.49855295939E+02  0.20002146535E+02  0.65508620053E+02  0.41800000000E+01 0.  1.
         -5    1    1    2    0  502  0.74435320192E+02 -0.67310320567E+01  0.32726592251E+02  0.81697159835E+02  0.41800000000E+01 0.  1.
        -11    1    3    3    0    0 -0.85937173764E+01  0.27405211368E+02 -0.28311407408E+02  0.40329063687E+02  0.00000000000E+00 0.  1.
         11    1    3    3    0    0 -0.28582100645E+02 -0.70529475251E+02 -0.38588595930E+02  0.85325395354E+02  0.00000000000E+00 0. -1.
</event>
<event>
 7    1  0.6684706E-006  0.1747917E+03  0.7561462E-02  0.1172941E+00
          2   -1    0    0  501    0  0.00000000000E+00  0.00000000000E+00  0.11740111292E+04  0.11740111292E+04  0.00000000000E+00 0.  1.
         -2   -1    0    0    0  501 -0.00000000000E+00 -0.00000000000E+00 -0.27852279368E+02  0.27852279368E+02  0.00000000000E+00 0. -1.
         23    2    1    2    0    0 -0.72988242701E+00 -0.13835113436E+03  0.67322391526E+03  0.69347680796E+03  0.92401699112E+02 0.  0.
          5    1    1    2  502    0 -0.15460916228E+02 -0.19135447502E+02  0.37484936141E+02  0.45031079481E+02  0.41800000000E+01 0. -1.
         -5    1    1    2    0  502  0.16190798655E+02  0.15748658186E+03  0.43544999847E+03  0.46335552117E+03  0.41800000000E+01 0. -1.
        -11    1    3    3    0    0 -0.32266281790E+02 -0.12956263760E+03  0.53017168959E+03  0.54672626647E+03  0.00000000000E+00 0.  1.
         11    1    3    3    0    0  0.31536399363E+02 -0.87884967518E+01  0.14305222566E+03  0.14675054149E+03  0.00000000000E+00 0. -1.
</event>
<event>
 7    1  0.6684706E-006  0.6560949E+02  0.7561462E-02  0.1375693E+00
         -1   -1    0    0    0  501 -0.00000000000E+00  0.00000000000E+00  0.10655944638E+03  0.10655944638E+03  0.00000000000E+00 0.  1.
          1   -1    0    0  501    0  0.00000000000E+00 -0.00000000000E+00 -0.12203988078E+03  0.12203988078E+03  0.00000000000E+00 0. -1.
         23    2    1    2    0    0 -0.22124193885E+02 -0.23135433816E+02  0.61251283226E+01  0.97679140016E+02  0.92081317022E+02 0.  0.
          5    1    1    2  502    0  0.32055498473E+02 -0.88032328502E+01 -0.66687182627E+02  0.74630453688E+02  0.41800000000E+01 0. -1.
         -5    1    1    2    0  502 -0.99313045876E+01  0.31938666666E+02  0.45081619901E+02  0.56289733452E+02  0.41800000000E+01 0. -1.
        -11    1    3    3    0    0 -0.38402602709E+02 -0.27405316169E+02 -0.31318529537E+02  0.56627392148E+02  0.00000000000E+00 0. -1.
         11    1    3    3    0    0  0.16278408824E+02  0.42698823529E+01  0.37443657859E+02  0.41051747868E+02  0.00000000000E+00 0.  1.
</event>
<event>
 7    1  0.6684706E-006  0.1157020E+03  0.7561462E-02  0.1250361E+00
         -2   -1    0    0    0  501 -0.00000000000E+00  0.00000000000E+00  0.26097575040E+02  0.26097575040E+02  0.00000000000E+00 0.  1.
          2   -1    0    0  501    0  0.00000000000E+00 -0.00000000000E+00 -0.68513681122E+03  0.68513681122E+03  0.00000000000E+00 0. -1.
         23    2    1    2    0    0 -0.36888267903E+02  0.66953731025E+02 -0.33997441859E+03  0.36010236370E+03  0.90816081382E+02 0.  0.
          5    1    1    2  502    0 -0.29425667897E+02 -0.28450198819E+02 -0.27171813354E+02  0.49305816948E+02  0.41800000000E+01 0.  1.
         -5    1    1    2    0  502  0.66313935800E+02 -0.38503532206E+02 -0.29189300424E+03  0.30182620562E+03  0.41800000000E+01 0.  1.
        -11    1    3    3    0    0 -0.57060497443E+02  0.16916821513E+02 -0.12475584236E+03  0.13822481478E+03  0.00000000000E+00 0.  1.
         11    1    3    3    0    0  0.20172229540E+02  0.50036909512E+02 -0.21521857623E+03  0.22187754892E+03  0.00000000000E+00 0. -1.
</event>
<event>
 7    1  0.6684706E-006  0.1201029E+03  0.7561462E-02  0.1242927E+00
          1   -1    0    0  501    0  0.00000000000E+00  0.00000000000E+00  0.55196724907E+02  0.55196724907E+02  0.00000000000E+00 0. -1.
         -1   -1    0    0    0  501 -0.00000000000E+00 -0.00000000000E+00 -0.30638317003E+03  0.30638317003E+03  0.00000000000E+00 0.  1.
         23    2    1    2    0    0 -0.18514316241E+02  0.57974381416E+02 -0.16294030050E+03  0.19684113685E+03  0.92157923272E+02 0.  0.
          5    1    1    2  502    0 -0.23665837346E+02  0.26363116251E+02 -0.53199181990E+02  0.64052409168E+02  0.41800000000E+01 0.  1.
         -5    1    1    2    0  502  0.42180153587E+02 -0.84337497667E+02 -0.35046962633E+02  0.10068634892E+03  0.41800000000E+01 0.  1.
        -11    1    3    3    0    0  0.37547002202E+02  0.24881204520E+02 -0.59625226396E+02  0.74726296145E+02  0.00000000000E+00 0.  1.
         11    1    3    3    0    0 -0.56061318443E+02  0.33093176896E+02 -0.10331507410E+03  0.12211484070E+03  0.00000000000E+00 0. -1.
</event>
<event>
 7    1  0.6684706E-006  0.9947497E+02  0.7561462E-02  0.1281404E+00
         -2   -1    0    0    0  501 -0.00000000000E+00  0.00000000000E+00  0.50400135942E+02  0.50400135942E+02  0.00000000000E+00 0.  1.
          2   -1    0    0  501    0  0.00000000000E+00 -0.00000000000E+00 -0.48872552381E+03  0.48872552381E+03  0.00000000000E+00 0. -1.
         23    2    1    2    0    0 -0.32023594816E+02 -0.77473869223E+02 -0.68818207535E+02  0.14011338135E+03  0.88702327526E+02 0.  0.
          5    1    1    2  502    0 -0.39615554930E+01  0.45536233197E+02 -0.33854976456E+03  0.34164697853E+03  0.41800000000E+01 0.  1.
         -5    1    1    2    0  502  0.35985150309E+02  0.31937636025E+02 -0.30957415774E+02  0.57365299869E+02  0.41800000000E+01 0.  1.
        -11    1    3    3    0    0 -0.45360624604E+02 -0.27528315777E+02 -0.70684889687E+02  0.88384093953E+02  0.00000000000E+00 0. -1.
         11    1    3    3    0    0  0.13337029788E+02 -0.49945553446E+02  0.18666821517E+01  0.51729287400E+02  0.00000000000E+00 0.  1.
</event>
<event>
 7    1  0.6684706E-006  0.1260438E+03  0.7561462E-02  0.1233447E+00
          2   -1    0    0  501    0  0.00000000000E+00  0.00000000000E+00  0.12764843632E+04  0.12764843632E+04  0.00000000000E+00 0. -1.
         -2   -1    0    0    0  501 -0.00000000000E+00 -0.00000000000E+00 -0.31787812140E+02  0.31787812140E+02  0.00000000000E+00 0.  1.
         23    2    1    2    0    0  0.47478652052E+02  0.61588678320E+01  0.83036820219E+02  0.13331091900E+03  0.92652757963E+02 0.  0.
          5    1    1    2  502    0 -0.55501852258E+02  0.67418191514E+02  0.85546146943E+03  0.85991712753E+03  0.41800000000E+01 0. -1.
         -5    1    1    2    0  502  0.80232002063E+01 -0.73577059346E+02  0.30619826140E+03  0.31504412879E+03  0.41800000000E+01 0.  1.
        -11    1    3    3    0    0 -0.14325541903E+02  0.22436165875E+02 -0.22724940777E+01  0.26716416663E+02  0.00000000000E+00 0. -1.
         11    1    3    3    0    0  0.61804193955E+02 -0.16277298043E+02  0.85309314296E+02  0.10659450233E+03  0.00000000000E+00 0.  1.
</event>
<event>
 7    1  0.6684706E-006  0.1078284E+03  0.7561462E-02  0.1264645E+00
          1   -1    0    0  501    0  0.00000000000E+00  0.00000000000E+00  0.18449338213E+03  0.18449338213E+03  0.00000000000E+00 0. -1.
         -1   -1    0    0    0  501 -0.00000000000E+00 -0.00000000000E+00 -0.84640735794E+02  0.84640735794E+02  0.00000000000E+00 0.  1.
         23    2    1    2    0    0  0.19250979838E+02  0.50012785195E+02  0.11824016913E+02  0.10706027483E+03  0.91925057317E+02 0.  0.
          5    1    1    2  502    0 -0.49051593015E+02 -0.65944387347E+02  0.96661169212E+02  0.12694713480E+03  0.41800000000E+01 0.  1.
         -5    1    1    2    0  502  0.29800613177E+02  0.15931602153E+02 -0.86325397867E+01  0.35126708301E+02  0.41800000000E+01 0.  1.
        -11    1    3    3    0    0  0.50031427508E+02  0.46553060933E+02 -0.10141279560E+02  0.69088181130E+02  0.00000000000E+00 0.  1.
         11    1    3    3    0    0 -0.30780447670E+02  0.34597242621E+01  0.21965296473E+02  0.37972093699E+02  0.00000000000E+00 0. -1.
</event>
<event>
 7    1  0.6684706E-006  0.2259419E+03  0.7561462E-02  0.1129529E+00
          1   -1    0    0  501    0  0.00000000000E+00  0.00000000000E+00  0.11374622873E+03  0.11374622873E+03  0.00000000000E+00 0. -1.
         -1   -1    0    0    0  501 -0.00000000000E+00 -0.00000000000E+00 -0.64626182394E+03  0.64626182394E+03  0.00000000000E+00 0.  1.
         23    2    1    2    0    0 -0.10670105330E+03  0.16943229163E+03 -0.46466961412E+03  0.51436211004E+03  0.92510073708E+02 0.  0.
          5    1    1    2  502    0  0.22263555538E+02 -0.14006413159E+03 -0.65102799903E+02  0.15610725101E+03  0.41800000000E+01 0.  1.
         -5    1    1    2    0  502  0.84437497764E+02 -0.29368160040E+02 -0.27431811772E+01  0.89538691613E+02  0.41800000000E+01 0.  1.
        -11    1    3    3    0    0 -0.11929930712E+03  0.17023912258E+03 -0.43502758042E+03  0.48214383670E+03  0.00000000000E+00 0.  1.
         11    1    3    3    0    0  0.12598253823E+02 -0.80683094882E+00 -0.29642033700E+02  0.32218273347E+02  0.00000000000E+00 0. -1.
</event>
<event>
 7    1  0.6684706E-006  0.9907474E+02  0.7561462E-02  0.1282254E+00
          3   -1    0    0  501    0  0.00000000000E+00  0.00000000000E+00  0.47826869609E+02  0.47826869609E+02  0.00000000000E+00 0. -1.
         -3   -1    0    0    0  501 -0.00000000000E+00 -0.00000000000E+00 -0.31939160457E+03  0.31939160457E+03  0.00000000000E+00 0.  1.
         23    2    1    2    0    0  0.13478777066E+01  0.56056743508E+02 -0.14329624921E+03  0.17948244163E+03  0.92390240542E+02 0.  0.
          5    1    1    2  502    0 -0.12977998377E+02  0.30821396171E+02 -0.17294684815E+01  0.33746857114E+02  0.41800000000E+01 0. -1.
         -5    1    1    2    0  502  0.11630120671E+02 -0.86878139679E+02 -0.12653901727E+03  0.15398917544E+03  0.41800000000E+01 0. -1.
        -11    1    3    3    0    0  0.25001580287E+02  0.42830998017E+02 -0.14407424333E+03  0.15237112915E+03  0.00000000000E+00 0.  1.
         11    1    3    3    0    0 -0.23653702581E+02  0.13225745491E+02  0.77799411262E+00  0.27111312480E+02  0.00000000000E+00 0. -1.
</event>
<event>
 7    1  0.6684706E-006  0.2264946E+03  0.7561462E-02  0.1129132E+00
         -3   -1    0    0    0  501 -0.00000000000E+00  0.00000000000E+00  0.22934439232E+03  0.22934439232E+03  0.00000000000E+00 0.  1.
          3   -1    0    0  501    0  0.00000000000E+00 -0.00000000000E+00 -0.25995380665E+03  0.25995380665E+03  0.00000000000E+00 0. -1.
         23    2    1    2    0    0 -0.19768833342E+03 -0.39949523693E+02  0.69329461049E+02  0.23178725431E+03  0.90786097389E+02 0.  0.
          5    1    1    2  502    0  0.15866619408E+03 -0.25000618986E+02 -0.58132101892E+02  0.17087072823E+03  0.41800000000E+01 0.  1.
         -5    1    1    2    0  502  0.39022139335E+02  0.64950142679E+02 -0.41806773487E+02  0.86640216423E+02  0.41800000000E+01 0.  1.
        -11    1    3    3    0    0 -0.15093902428E+03 -0.63887574574E+02  0.31104838327E+02  0.16682842145E+03  0.00000000000E+00 0. -1.
         11    1    3    3    0    0 -0.46749309141E+02  0.23938050881E+02  0.38224622722E+02  0.64958832866E+02  0.00000000000E+00 0.  1.
</event>
<event>
 7    1  0.6684706E-006  0.8400744E+02  0.7561462E-02  0.1318049E+00
         -1   -1    0    0    0  501 -0.00000000000E+00  0.00000000000E+00  0.19357772997E+03  0.19357772997E+03  0.00000000000E+00 0.  1.
          1   -1    0    0  501    0  0.00000000000E+00 -0.00000000000E+00 -0.62070029225E+02  0.62070029225E+02  0.00000000000E+00 0. -1.
         23    2    1    2    0    0  0.70837344058E+01 -0.78759593774E+01  0.70478348782E+02  0.11606130163E+03  0.91601408614E+02 0.  0.
          5    1    1    2  502    0  0.41301809114E+02  0.38534304952E+02  0.59477009081E+02  0.82132326787E+02  0.41800000000E+01 0. -1.
         -5    1    1    2    0  502 -0.48385543519E+02 -0.30658345575E+02  0.15523428833E+01  0.57454130778E+02  0.41800000000E+01 0. -1.
        -11    1    3    3    0    0  0.30046412314E+02 -0.13853007383E+01  0.83587929794E+02  0.88834947844E+02  0.00000000000E+00 0.  1.
         11    1    3    3    0    0 -0.22962677908E+02 -0.64906586391E+01 -0.13109581012E+02  0.27226353788E+02  0.00000000000E+00 0. -1.
</event>
<event>
 7    1  0.6684706E-006  0.9311067E+02  0.7561462E-02  0.1295489E+00
          2   -1    0    0  501    0  0.00000000000E+00  0.00000000000E+00  0.27932307782E+03  0.27932307782E+03  0.00000000000E+00 0. -1.
         -2   -1    0    0    0  501 -0.00000000000E+00 -0.00000000000E+00 -0.54862557311E+02  0.54862557311E+02  0.00000000000E+00 0.  1.
         23    2    1    2    0    0 -0.43938518848E+02  0.19420091229E+02  0.47106025034E+02  0.11189863699E+03  0.89412493444E+02 0.  0.
          5    1    1    2  502    0 -0.43918358066E+02 -0.17638122025E+01  0.53777576845E+02  0.69580409456E+02  0.41800000000E+01 0. -1.
         -5    1    1    2    0  502  0.87856876914E+02 -0.17656279026E+02  0.12357691863E+03  0.15270658869E+03  0.41800000000E+01 0. -1.
        -11    1    3    3    0    0 -0.17159996446E+02 -0.30161765398E+01 -0.25755234313E+02  0.31094933566E+02  0.00000000000E+00 0.  1.
         11    1    3    3    0    0 -0.26778522402E+02  0.22436267768E+02  0.72861259347E+02  0.80803703424E+02  0.00000000000E+00 0. -1.
</event>
<event>
 7    1  0.6684706E-006  0.1356389E+03  0.7561462E-02  0.1219321E+00
         -2   -1    0    0    0  501 -0.00000000000E+00  0.00000000000E+00  0.65054922343E+02  0.65054922343E+02  0.00000000000E+00 0. -1.
          2   -1    0    0  501    0  0.00000000000E+00 -0.00000000000E+00 -0.45321843882E+03  0.45321843882E+03  0.00000000000E+00 0.  1.
         23    2    1    2    0    0  0.12094276216E+03 -0.31400268554E+02 -0.11568850479E+03  0.19346095677E+03  0.91816028395E+02 0.  0.
          5    1    1    2  502    0 -0.10390474554E+03  0.13285485252E+02 -0.83125201173E+02  0.13379077597E+03  0.41800000000E+01 0. -1.
         -5    1    1    2    0  502 -0.17038016621E+02  0.18114783303E+02 -0.18934981051E+03  0.19102162842E+03  0.41800000000E+01 0. -1.
        -11    1    3    3    0    0  0.55615383668E+02 -0.48396510726E+02 -0.20053919795E+02  0.76403225391E+02  0.00000000000E+00 0. -1.
         11    1    3    3    0    0  0.65327378492E+02  0.16996242172E+02 -0.95634584998E+02  0.11705773138E+03  0.00000000000E+00 0.  1.
</event>
<event>
 7    1  0.6684706E-006  0.8914514E+02  0.7561462E-02  0.1304935E+00
          1   -1    0    0  501    0  0.00000000000E+00  0.00000000000E+00  0.33497892753E+03  0.33497892753E+03  0.00000000000E+00 0. -1.
         -1   -1    0    0    0  501 -0.00000000000E+00 -0.00000000000E+00 -0.35466233774E+02  0.35466233774E+02  0.00000000000E+00 0.  1.
         23    2    1    2    0    0  0.84089538352E+01  0.82295180417E+01  0.93556631604E+02  0.12919352798E+03  0.88315847292E+02 0.  0.
          5    1    1    2  502    0 -0.51017780397E+02 -0.21573533264E+02  0.37730170916E+02  0.67151094195E+02  0.41800000000E+01 0. -1.
         -5    1    1    2    0  502  0.42608826562E+02  0.13344015223E+02  0.16822589124E+03  0.17410053913E+03  0.41800000000E+01 0. -1.
        -11    1    3    3    0    0 -0.61017126862E+01  0.41317970944E+02  0.18073333353E+02  0.45508801338E+02  0.00000000000E+00 0.  1.
         11    1    3    3    0    0  0.14510666521E+02 -0.33088452903E+02  0.75483298251E+02  0.83684726642E+02  0.00000000000E+00 0. -1.
</event>
<event>
 7    1  0.6684706E-006  0.1072850E+03  0.7561462E-02  0.1265682E+00
         -2   -1    0    0    0  501 -0.00000000000E+00  0.00000000000E+00  0.27162189136E+02  0.27162189136E+02  0.00000000000E+00 0.  1.
          2   -1    0    0  501    0  0.00000000000E+00 -0.00000000000E+00 -0.53891894878E+03  0.53891894878E+03  0.00000000000E+00 0. -1.
         23    2    1    2    0    0  0.27995808575E+02  0.42483704211E+02 -0.16508545672E+03  0.19403572692E+03  0.88363028921E+02 0.  0.
          5    1    1    2  502    0 -0.60840227310E+02 -0.53444612104E+02 -0.13470024417E+03  0.15722432382E+03  0.41800000000E+01 0. -1.
         -5    1    1    2    0  502  0.32844418735E+02  0.10960907894E+02 -0.21197105875E+03  0.21482108717E+03  0.41800000000E+01 0. -1.
        -11    1    3    3    0    0  0.57351308995E+02  0.17234806437E+02 -0.12327018876E+03  0.13704652726E+03  0.00000000000E+00 0. -1.
         11    1    3    3    0    0 -0.29355500420E+02  0.25248897773E+02 -0.41815267957E+02  0.56989199661E+02  0.00000000000E+00 0.  1.
</event>
<event>
 7    1  0.6684706E-006  0.1886021E+03  0.7561462E-02  0.1159728E+00
         -2   -1    0    0    0  501 -0.00000000000E+00  0.00000000000E+00  0.87377838954E+02  0.87377838954E+02  0.00000000000E+00 0.  1.
          2   -1    0    0  501    0  0.00000000000E+00 -0.00000000000E+00 -0.50828912512E+03  0.50828912512E+03  0.00000000000E+00 0. -1.
         23    2    1    2    0    0 -0.14442972319E+03  0.88482625792E+02 -0.18251968612E+03  0.27759792706E+03  0.12271125979E+03 0.  0.
          5    1    1    2  502    0 -0.89874384959E-02 -0.19169404650E+02 -0.11270251164E+03  0.11439752919E+03  0.41800000000E+01 0.  1.
         -5    1    1    2    0  502  0.14443871063E+03 -0.69313221143E+02 -0.12568908841E+03  0.20367150783E+03  0.41800000000E+01 0.  1.
        -11    1    3    3    0    0 -0.12810348671E+03  0.11100273944E+03 -0.18344343471E+03  0.24976710193E+03  0.00000000000E+00 0. -1.
         11    1    3    3    0    0 -0.16326236481E+02 -0.22520113643E+02  0.92374858665E+00  0.27830825133E+02  0.00000000000E+00 0.  1.
</event>
<event>
 7    1  0.7755874E-006  0.3117757E+03  0.7561462E-02  0.1079498E+00
          2   -1    0    0  501    0  0.00000000000E+00  0.00000000000E+00  0.99378749095E+02  0.99378749095E+02  0.00000000000E+00 0. -1.
         -2   -1    0    0    0  501 -0.00000000000E+00 -0.00000000000E+00 -0.10350955373E+04  0.10350955373E+04  0.00000000000E+00 0.  1.
         23    2    1    2    0    0  0.96479060239E+02 -0.28188803461E+03 -0.54194970743E+03  0.62509325041E+03  0.90901117738E+02 0.  0.
          5    1    1    2  502    0  0.49271532688E+01 -0.93892947007E+01 -0.34736036518E+01  0.11915285000E+02  0.41800000000E+01 0.  1.
         -5    1    1    2    0  502 -0.10140621351E+03  0.29127732931E+03 -0.39029347707E+03  0.49746575093E+03  0.41800000000E+01 0.  1.
        -11    1    3    3    0    0  0.14980661817E+02 -0.13407152202E+03 -0.31132022760E+03  0.33929320264E+03  0.00000000000E+00 0.  1.
         11    1    3    3    0    0  0.81498398422E+02 -0.14781651259E+03 -0.23062947983E+03  0.28580004777E+03  0.00000000000E+00 0. -1.
</event>
<event>
 7    1  0.6684706E-006  0.2923710E+03  0.7561462E-02  0.1089118E+00
          2   -1    0    0  501    0  0.00000000000E+00  0.00000000000E+00  0.16687793136E+03  0.16687793136E+03  0.00000000000E+00 0. -1.
         -2   -1    0    0    0  501 -0.00000000000E+00 -0.00000000000E+00 -0.57282309199E+03  0.57282309199E+03  0.00000000000E+00 0.  1.
         23    2    1    2    0    0 -0.16331920352E+03  0.22250568019E+03 -0.10911607925E+03  0.31551096040E+03  0.10704628636E+03 0.  0.
          5    1    1    2  502    0  0.16751273821E+03 -0.17786998080E+03 -0.28903629232E+03  0.37849398702E+03  0.41800000000E+01 0.  1.
         -5    1    1    2    0  502 -0.41935346908E+01 -0.44635699393E+02 -0.77927890609E+01  0.45696075924E+02  0.41800000000E+01 0.  1.
        -11    1    3    3    0    0 -0.13467587272E+03  0.95368506994E+02 -0.50211461058E+02  0.17249328578E+03  0.00000000000E+00 0. -1.
         11    1    3    3    0    0 -0.28643330805E+02  0.12713717320E+03 -0.58904618196E+02  0.14301767462E+03  0.00000000000E+00 0.  1.
</event>
<event>
 7    1  0.6684706E-006  0.9131051E+02  0.7561462E-02  0.1299709E+00
         -1   -1    0    0    0  501 -0.00000000000E+00  0.00000000000E+00  0.17953956684E+02  0.17953956684E+02  0.00000000000E+00 0.  1.
          1   -1    0    0  501    0  0.00000000000E+00 -0.00000000000E+00 -0.58615179639E+03  0.58615179639E+03  0.00000000000E+00 0. -1.
         23    2    1    2    0    0 -0.52982335389E+01  0.48196782682E+01 -0.18881202820E+03  0.20456660252E+03  0.78397782466E+02 0.  0.
          5    1    1    2  502    0  0.18970197605E+02 -0.55898870677E+02 -0.10927967623E+03  0.12427418145E+03  0.41800000000E+01 0. -1.
         -5    1    1    2    0  502 -0.13671964066E+02  0.51079192408E+02 -0.27010613527E+03  0.27526496909E+03  0.41800000000E+01 0. -1.
        -11    1    3    3    0    0 -0.31254812699E+02 -0.17802817015E+02 -0.14182105245E+03  0.14631136158E+03  0.00000000000E+00 0. -1.
         11    1    3    3    0    0  0.25956579160E+02  0.22622495283E+02 -0.46990975759E+02  0.58255240942E+02  0.00000000000E+00 0.  1.
</event>
<event>
 7    1  0.6684706E-006  0.8608564E+02  0.7561462E-02  0.1312618E+00
          1   -1    0    0  501    0  0.00000000000E+00  0.00000000000E+00  0.56009262441E+03  0.56009262441E+03  0.00000000000E+00 0. -1.
         -1   -1    0    0    0  501 -0.00000000000E+00 -0.00000000000E+00 -0.28024825583E+02  0.28024825583E+02  0.00000000000E+00 0.  1.
         23    2    1    2    0    0 -0.37565169162E+02 -0.48838843315E+02  0.26333402725E+03  0.28536101678E+03  0.91047929360E+02 0.  0.
          5    1    1    2  502    0  0.23009978620E+02  0.70730139994E+01 -0.54197109829E+01  0.25026632020E+02  0.41800000000E+01 0. -1.
         -5    1    1    2    0  502  0.14555190542E+02  0.41765829315E+02  0.27415348256E+03  0.27772980119E+03  0.41800000000E+01 0. -1.
        -11    1    3    3    0    0 -0.59615468251E+02 -0.12662678713E+02  0.20065650226E+03  0.20970784293E+03  0.00000000000E+00 0. -1.
         11    1    3    3    0    0  0.22050299090E+02 -0.36176164601E+02  0.62677524997E+02  0.75653173859E+02  0.00000000000E+00 0.  1.
</event>
<event>
 7    1  0.6684706E-006  0.1019429E+03  0.7561462E-02  0.1276262E+00
          2   -1    0    0  501    0  0.00000000000E+00  0.00000000000E+00  0.30957782587E+03  0.30957782587E+03  0.00000000000E+00 0. -1.
         -2   -1    0    0    0  501 -0.00000000000E+00 -0.00000000000E+00 -0.50831297302E+02  0.50831297302E+02  0.00000000000E+00 0.  1.
         23    2    1    2    0    0 -0.27692233423E+02 -0.26909042562E+02  0.78215939521E+02  0.13758455758E+03  0.10639934646E+03 0.  0.
          5    1    1    2  502    0  0.24197833363E+02  0.71752662453E+02  0.15065267679E+03  0.16866440387E+03  0.41800000000E+01 0.  1.
         -5    1    1    2    0  502  0.34944000602E+01 -0.44843619891E+02  0.29877912260E+02  0.54160161721E+02  0.41800000000E+01 0.  1.
        -11    1    3    3    0    0  0.10707215819E+01  0.24202010202E+02 -0.14236350501E+02  0.28099064364E+02  0.00000000000E+00 0.  1.
         11    1    3    3    0    0 -0.28762955005E+02 -0.51111052764E+02  0.92452290022E+02  0.10948549322E+03  0.00000000000E+00 0. -1.
</event>
<event>
 7    1  0.6684706E-006  0.1410719E+03  0.7561462E-02  0.1211894E+00
         -1   -1    0    0    0  501 -0.00000000000E+00  0.00000000000E+00  0.11136843009E+03  0.11136843009E+03  0.00000000000E+00 0.  1.
          1   -1    0    0  501    0  0.00000000000E+00 -0.00000000000E+00 -0.25170446752E+03  0.25170446752E+03  0.00000000000E+00 0. -1.
         23    2    1    2    0    0 -0.18144388101E+02 -0.10782126859E+03  0.49332824309E+01  0.14238035800E+03  0.91066922030E+02 0.  0.
          5    1    1    2  502    0  0.71995766979E+02  0.59566273004E+02 -0.76855492894E+02  0.12106101986E+03  0.41800000000E+01 0.  1.
         -5    1    1    2    0  502 -0.53851378878E+02  0.48254995585E+02 -0.68413826970E+02  0.99631519745E+02  0.41800000000E+01 0.  1.
        -11    1    3    3    0    0  0.92345352204E+01 -0.62876976136E+02  0.43605037668E+02  0.77072628596E+02  0.00000000000E+00 0.  1.
         11    1    3    3    0    0 -0.27378923321E+02 -0.44944292453E+02 -0.38671755237E+02  0.65307729401E+02  0.00000000000E+00 0. -1.
</event>
<event>
 7    1  0.6684706E-006  0.2091800E+03  0.7561462E-02  0.1142217E+00
          1   -1    0    0  501    0  0.00000000000E+00  0.00000000000E+00  0.87925586942E+03  0.87925586942E+03  0.00000000000E+00 0. -1.
         -1   -1    0    0    0  501 -0.00000000000E+00 -0.00000000000E+00 -0.62121416707E+02  0.62121416707E+02  0.00000000000E+00 0.  1.
         23    2    1    2    0    0  0.81975332196E+02 -0.18592914043E+03  0.32400564266E+03  0.39355197657E+03  0.92811106213E+02 0.  0.
          5    1    1    2  502    0 -0.88484757610E+02  0.14367419448E+03  0.46923727844E+03  0.49867115654E+03  0.41800000000E+01 0.  1.
         -5    1    1    2    0  502  0.65094254143E+01  0.42254945948E+02  0.23891531622E+02  0.49154153025E+02  0.41800000000E+01 0.  1.
        -11    1    3    3    0    0  0.21636962948E+02 -0.95383588604E+02  0.79900016954E+02  0.12629410061E+03  0.00000000000E+00 0.  1.
         11    1    3    3    0    0  0.60338369248E+02 -0.90545551823E+02  0.24410562570E+03  0.26725787595E+03  0.00000000000E+00 0. -1.
</event>
<event>
 7    1  0.6684706E-006  0.8687156E+02  0.7561462E-02  0.1310610E+00
          2   -1    0    0  501    0  0.00000000000E+00  0.00000000000E+00  0.14007318505E+04  0.14007318505E+04  0.00000000000E+00 0.  1.
         -2   -1    0    0    0  501 -0.00000000000E+00 -0.00000000000E+00 -0.15440280585E+02  0.15440280585E+02  0.00000000000E+00 0. -1.
         23    2    1    2    0    0  0.31409035895E+02  0.25649407705E+02  0.22978338924E+03  0.25320589460E+03  0.98328019610E+02 0.  0.
          5    1    1    2  502    0 -0.16218339246E+02 -0.46923788086E+02  0.17121016205E+03  0.17831227778E+03  0.41800000000E+01 0.  1.
         -5    1    1    2    0  502 -0.15190696649E+02  0.21274380381E+02  0.98429801867E+03  0.98465395875E+03  0.41800000000E+01 0.  1.
        -11    1    3    3    0    0  0.24705378666E+02 -0.31428621901E+02  0.47532114659E+02  0.62108098776E+02  0.00000000000E+00 0.  1.
         11    1    3    3    0    0  0.67036572288E+01  0.57078029606E+02  0.18225127458E+03  0.19109779583E+03  0.00000000000E+00 0. -1.
</event>
<event>
 7    1  0.6684706E-006  0.1108722E+03  0.7561462E-02  0.1258963E+00
         -1   -1    0    0    0  501 -0.00000000000E+00  0.00000000000E+00  0.67093794042E+02  0.67093794042E+02  0.00000000000E+00 0.  1.
          1   -1    0    0  501    0  0.00000000000E+00 -0.00000000000E+00 -0.23729457093E+03  0.23729457093E+03  0.00000000000E+00 0. -1.
         23    2    1    2    0    0 -0.32563793235E+02  0.41220278116E+02 -0.31386828832E+02  0.11028582805E+03  0.91751397190E+02 0.  0.
          5    1    1    2  502    0  0.68010471001E+02 -0.42504718748E+02 -0.41409222742E+02  0.90356357882E+02  0.41800000000E+01 0.  1.
         -5    1    1    2    0  502 -0.35446677766E+02  0.12844406317E+01 -0.97404725316E+02  0.10374617904E+03  0.41800000000E+01 0.  1.
        -11    1    3    3    0    0  0.31330248568E+02  0.24226941788E+02 -0.12297114154E+02  0.41469846880E+02  0.00000000000E+00 0.  1.
         11    1    3    3    0    0 -0.63894041804E+02  0.16993336328E+02 -0.19089714678E+02  0.68815981167E+02  0.00000000000E+00 0. -1.
</event>
<event>
 7    1  0.6684706E-006  0.6109407E+02  0.7561462E-02  0.1393297E+00
         -2   -1    0    0    0  501 -0.00000000000E+00  0.00000000000E+00  0.66983063669E+02  0.66983063669E+02  0.00000000000E+00 0.  1.
          2   -1    0    0  501    0  0.00000000000E+00 -0.00000000000E+00 -0.21198480629E+03  0.21198480629E+03  0.00000000000E+00 0. -1.
         23    2    1    2    0    0 -0.24785897310E+02  0.31491328516E+02 -0.47680125811E+02  0.11549259143E+03  0.97257903541E+02 0.  0.
          5    1    1    2  502    0  0.58951520332E+01  0.14112226921E+02  0.26069026074E+02  0.30511871241E+02  0.41800000000E+01 0.  1.
         -5    1    1    2    0  502  0.18890745277E+02 -0.45603555437E+02 -0.12339064288E+03  0.13296340728E+03  0.41800000000E+01 0.  1.
        -11    1    3    3    0    0 -0.66219321463E+01  0.37176965385E+02 -0.73961086877E+02  0.83043477243E+02  0.00000000000E+00 0. -1.
         11    1    3    3    0    0 -0.18163965163E+02 -0.56856368687E+01  0.26280961066E+02  0.32449114189E+02  0.00000000000E+00 0.  1.
</event>
<event>
 7    1  0.6684706E-006  0.1334308E+03  0.7561462E-02  0.1222452E+00
          2   -1    0    0  501    0  0.00000000000E+00  0.00000000000E+00  0.41076193930E+03  0.41076193930E+03  0.00000000000E+00 0. -1.
         -2   -1    0    0    0  501 -0.00000000000E+00 -0.00000000000E+00 -0.62991592855E+02  0.62991592855E+02  0.00000000000E+00 0.  1.
         23    2    1    2    0    0  0.41991468503E+02  0.10836158401E+03  0.19459456636E+03  0.24437130686E+03  0.91349734779E+02 0.  0.
          5    1    1    2  502    0  0.11913338727E+02 -0.17019373402E+01 -0.17092531863E+02  0.21317862835E+02  0.41800000000E+01 0. -1.
         -5    1    1    2    0  502 -0.53904807231E+02 -0.10665964667E+03  0.17026831195E+03  0.20806436246E+03  0.41800000000E+01 0. -1.
        -11    1    3    3    0    0 -0.14219345181E+02  0.55804847858E+02  0.13586953388E+03  0.14756998698E+03  0.00000000000E+00 0. -1.
         11    1    3    3    0    0  0.56210813685E+02  0.52556736155E+02  0.58725032479E+02  0.96801319878E+02  0.00000000000E+00 0.  1.
</event>
<event>
 7    1  0.6684706E-006  0.1767474E+03  0.7561462E-02  0.1170989E+00
         -2   -1    0    0    0  501 -0.00000000000E+00  0.00000000000E+00  0.79867067203E+02  0.79867067203E+02  0.00000000000E+00 0.  1.
          2   -1    0    0  501    0  0.00000000000E+00 -0.00000000000E+00 -0.10938269907E+04  0.10938269907E+04  0.00000000000E+00 0. -1.
         23    2    1    2    0    0  0.17135048698E+03  0.11009461431E+02 -0.69664930719E+02  0.20579840166E+03  0.89540951095E+02 0.  0.
          5    1    1    2  502    0 -0.14617663187E+03  0.10754403053E+02 -0.46827599278E+03  0.49069658926E+03  0.41800000000E+01 0.  1.
         -5    1    1    2    0  502 -0.25173855116E+02 -0.21763864485E+02 -0.47601900004E+03  0.47719906703E+03  0.41800000000E+01 0.  1.
        -11    1    3    3    0    0  0.58448267396E+02  0.15033413366E+02  0.17802949122E+02  0.62921764728E+02  0.00000000000E+00 0.  1.
         11    1    3    3    0    0  0.11290221959E+03 -0.40239519349E+01 -0.87467879841E+02  0.14287663693E+03  0.00000000000E+00 0. -1.
</event>
<event>
 7    1  0.6684706E-006  0.9327442E+02  0.7561462E-02  0.1295110E+00
          1   -1    0    0  501    0  0.00000000000E+00  0.00000000000E+00  0.75683512903E+03  0.75683512903E+03  0.00000000000E+00 0. -1.
         -1   -1    0    0    0  501 -0.00000000000E+00 -0.00000000000E+00 -0.24826859906E+02  0.24826859906E+02  0.00000000000E+00 0.  1.
         23    2    1    2    0    0 -0.46887160525E+02  0.66482807401E+02  0.29601557063E+03  0.32084007942E+03  0.93245745248E+02 0.  0.
          5    1    1    2  502    0  0.39757095256E+02 -0.17202858447E+02  0.39151308844E+03  0.39392453057E+03  0.41800000000E+01 0.  1.
         -5    1    1    2    0  502  0.71300652695E+01 -0.49279948954E+02  0.44479610058E+02  0.66897378951E+02  0.41800000000E+01 0.  1.
        -11    1    3    3    0    0 -0.48122673665E+02  0.30323680056E+02  0.27087522688E+03  0.27678277734E+03  0.00000000000E+00 0. -1.
         11    1    3    3    0    0  0.12355131393E+01  0.36159127345E+02  0.25140343743E+02  0.44057302080E+02  0.00000000000E+00 0.  1.
</event>
<event>
 7    1  0.6684706E-006  0.1159143E+03  0.7561462E-02  0.1249994E+00
          2   -1    0    0  501    0  0.00000000000E+00  0.00000000000E+00  0.13204964132E+03  0.13204964132E+03  0.00000000000E+00 0. -1.
         -2   -1    0    0    0  501 -0.00000000000E+00 -0.00000000000E+00 -0.12713349455E+03  0.12713349455E+03  0.00000000000E+00 0.  1.
         23    2    1    2    0    0 -0.19772595408E+02 -0.66274778940E+02  0.17049457861E+02  0.11573172012E+03  0.91213185322E+02 0.  0.
          5    1    1    2  502    0  0.65994236978E+02  0.53406744026E+01 -0.56715188958E+01  0.66583786645E+02  0.41800000000E+01 0. -1.
         -5    1    1    2    0  502 -0.46221641570E+02  0.60934104538E+02 -0.64617921874E+01  0.76867629100E+02  0.41800000000E+01 0. -1.
        -11    1    3    3    0    0  0.11314370836E+02  0.40376110373E+01 -0.25266567870E+02  0.27977075298E+02  0.00000000000E+00 0.  1.
         11    1    3    3    0    0 -0.31086966244E+02 -0.70312389977E+02  0.42316025731E+02  0.87754644825E+02  0.00000000000E+00 0. -1.
</event>
<event>
 7    1  0.6684706E-006  0.1658203E+03  0.7561462E-02  0.1182278E+00
          2   -1    0    0  501    0  0.00000000000E+00  0.00000000000E+00  0.19723852724E+04  0.19723852724E+04  0.00000000000E+00 0. -1.
         -2   -1    0    0    0  501 -0.00000000000E+00 -0.00000000000E+00 -0.18402705231E+02  0.18402705231E+02  0.00000000000E+00 0.  1.
         23    2    1    2    0    0 -0.78494060007E+02  0.11546728702E+03  0.56190877626E+03  0.58614905504E+03  0.91297481141E+02 0.  0.
          5    1    1    2  502    0  0.18295070302E+02  0.21450224307E+02  0.43571950201E+03  0.43665063672E+03  0.41800000000E+01 0. -1.
         -5    1    1    2    0  502  0.60198989704E+02 -0.13691751133E+03  0.95635428885E+03  0.96798828581E+03  0.41800000000E+01 0. -1.
        -11    1    3    3    0    0 -0.50168298175E+02  0.11468476811E+03  0.52443667540E+03  0.53916906502E+03  0.00000000000E+00 0. -1.
         11    1    3    3    0    0 -0.28325761831E+02  0.78251891231E+00  0.37472100865E+02  0.46979990021E+02  0.00000000000E+00 0.  1.
</event>
<event>
 7    1  0.6684706E-006  0.1361608E+03  0.7561462E-02  0.1218590E+00
         -2   -1    0    0    0  501 -0.00000000000E+00  0.00000000000E+00  0.28308262238E+02  0.28308262238E+02  0.00000000000E+00 0.  1.
          2   -1    0    0  501    0  0.00000000000E+00 -0.00000000000E+00 -0.73495400490E+03  0.73495400490E+03  0.00000000000E+00 0. -1.
         23    2    1    2    0    0  0.91820916935E+02  0.18231411352E+02 -0.29677804961E+03  0.32462322755E+03  0.92409761334E+02 0.  0.
          5    1    1    2  502    0 -0.59838865928E+02  0.50929158975E+02 -0.23565259382E+03  0.24844332650E+03  0.41800000000E+01 0. -1.
         -5    1    1    2    0  502 -0.31982051007E+02 -0.69160570327E+02 -0.17421509923E+03  0.19019571308E+03  0.41800000000E+01 0. -1.
        -11    1    3    3    0    0  0.26446736580E+01  0.27533921939E+02 -0.21270209101E+02  0.34893164822E+02  0.00000000000E+00 0.  1.
         11    1    3    3    0    0  0.89176243277E+02 -0.93025105865E+01 -0.27550784051E+03  0.28973006273E+03  0.00000000000E+00 0. -1.
</event>
<event>
 7    1  0.6684706E-006  0.8489024E+02  0.7561462E-02  0.1315720E+00
          1   -1    0    0  501    0  0.00000000000E+00  0.00000000000E+00  0.82700971349E+03  0.82700971349E+03  0.00000000000E+00 0. -1.
         -1   -1    0    0    0  501 -0.00000000000E+00 -0.00000000000E+00 -0.23638655416E+02  0.23638655416E+02  0.00000000000E+00 0.  1.
         23    2    1    2    0    0  0.99738653216E+01  0.32746122504E+02  0.12687158768E+03  0.16183073759E+03  0.94451052607E+02 0.  0.
          5    1    1    2  502    0 -0.27186017301E+02 -0.45823887474E+02  0.11420082511E+03  0.12608810038E+03  0.41800000000E+01 0. -1.
         -5    1    1    2    0  502  0.17212151979E+02  0.13077764970E+02  0.56229864528E+03  0.56272953094E+03  0.41800000000E+01 0. -1.
        -11    1    3    3    0    0 -0.32144922731E+02  0.40276491720E+02  0.96378515710E+02  0.10929002760E+03  0.00000000000E+00 0.  1.
         11    1    3    3    0    0  0.42118788052E+02 -0.75303692163E+01  0.30493071973E+02  0.52540709986E+02  0.00000000000E+00 0. -1.
</event>
<event>
 7    1  0.6684706E-006  0.1975720E+03  0.7561462E-02  0.1151804E+00
          2   -1    0    0  501    0  0.00000000000E+00  0.00000000000E+00  0.59899954379E+03  0.59899954379E+03  0.00000000000E+00 0. -1.
         -2   -1    0    0    0  501 -0.00000000000E+00 -0.00000000000E+00 -0.74712414400E+02  0.74712414400E+02  0.00000000000E+00 0.  1.
         23    2    1    2    0    0 -0.14462720207E+03 -0.89272186563E+02  0.14798702417E+03  0.24228617995E+03  0.88971247056E+02 0.  0.
          5    1    1    2  502    0  0.90100542544E+02 -0.16238312088E+02  0.14888676826E+03  0.17483287079E+03  0.41800000000E+01 0. -1.
         -5    1    1    2    0  502  0.54526659521E+02  0.10551049865E+03  0.22741333696E+03  0.25659290744E+03  0.41800000000E+01 0. -1.
        -11    1    3    3    0    0 -0.62808803576E+01 -0.35781570342E+02  0.59075996934E+02  0.69352315376E+02  0.00000000000E+00 0. -1.
         11    1    3    3    0    0 -0.13834632171E+03 -0.53490616221E+02  0.88911027239E+02  0.17293386458E+03  0.00000000000E+00 0.  1.
</event>
<event>
 7    1  0.6684706E-006  0.1211995E+03  0.7561462E-02  0.1241131E+00
         -2   -1    0    0    0  501 -0.00000000000E+00  0.00000000000E+00  0.57874844430E+02  0.57874844430E+02  0.00000000000E+00 0.  1.
          2   -1    0    0  501    0  0.00000000000E+00 -0.00000000000E+00 -0.15318171811E+04  0.15318171811E+04  0.00000000000E+00 0. -1.
         23    2    1    2    0    0 -0.63945871981E+02 -0.59523003909E+02 -0.19846780835E+02  0.12761142562E+03  0.90877492818E+02 0.  0.
          5    1    1    2  502    0  0.55993383868E+02 -0.26378375044E+02 -0.78225655487E+03  0.78471260200E+03  0.41800000000E+01 0.  1.
         -5    1    1    2    0  502  0.79524881122E+01  0.85901378953E+02 -0.67183900092E+03  0.67736799787E+03  0.41800000000E+01 0.  1.
        -11    1    3    3    0    0 -0.56270043245E+00 -0.18463584731E+02  0.31340020628E+02  0.36378805449E+02  0.00000000000E+00 0.  1.
         11    1    3    3    0    0 -0.63383171548E+02 -0.41059419178E+02 -0.51186801463E+02  0.91232620168E+02  0.00000000000E+00 0. -1.
</event>
<event>
 7    1  0.6684706E-006  0.1247461E+03  0.7561462E-02  0.1235467E+00
          1   -1    0    0  501    0  0.00000000000E+00  0.00000000000E+00  0.63882147983E+03  0.63882147983E+03  0.00000000000E+00 0. -1.
         -1   -1    0    0    0  501 -0.00000000000E+00 -0.00000000000E+00 -0.28785746659E+02  0.28785746659E+02  0.00000000000E+00 0.  1.
         23    2    1    2    0    0  0.26986474698E+02  0.56992821372E+02  0.17955216450E+03  0.21490336597E+03  0.99839999114E+02 0.  0.
          5    1    1    2  502    0  0.43057179917E+02 -0.42450535889E+02  0.27354616941E+03  0.28018020619E+03  0.41800000000E+01 0. -1.
         -5    1    1    2    0  502 -0.70043654614E+02 -0.14542285483E+02  0.15693739926E+03  0.17252365433E+03  0.41800000000E+01 0. -1.
        -11    1    3    3    0    0  0.90629367020E+01  0.84176556466E+02  0.14073317787E+03  0.16423658799E+03  0.00000000000E+00 0. -1.
         11    1    3    3    0    0  0.17923537996E+02 -0.27183735094E+02  0.38818986631E+02  0.50666777981E+02  0.00000000000E+00 0.  1.
</event>
<event>
 7    1  0.6684706E-006  0.7447632E+02  0.7561462E-02  0.1345500E+00
          1   -1    0    0  501    0  0.00000000000E+00  0.00000000000E+00  0.59491829641E+03  0.59491829641E+03  0.00000000000E+00 0. -1.
         -1   -1    0    0    0  501 -0.00000000000E+00 -0.00000000000E+00 -0.27665411931E+02  0.27665411931E+02  0.00000000000E+00 0.  1.
         23    2    1    2    0    0 -0.92403597355E+01  0.60709967240E+02  0.18176601784E+03  0.21268383441E+03  0.91784768920E+02 0.  0.
          5    1    1    2  502    0  0.12658053211E+02 -0.47999387401E+02  0.39162977037E+03  0.39478540620E+03  0.41800000000E+01 0. -1.
         -5    1    1    2    0  502 -0.34176934758E+01 -0.12710579840E+02 -0.61429037396E+01  0.15114467735E+02  0.41800000000E+01 0. -1.
        -11    1    3    3    0    0  0.25358738653E+02  0.25738509204E+02  0.14961201630E+03  0.15391326098E+03  0.00000000000E+00 0. -1.
         11    1    3    3    0    0 -0.34599098389E+02  0.34971458037E+02  0.32154001540E+02  0.58770573432E+02  0.00000000000E+00 0.  1.
</event>
<event>
 7    1  0.6684706E-006  0.1007706E+03  0.7561462E-02  0.1278684E+00
         -1   -1    0    0    0  501 -0.00000000000E+00  0.00000000000E+00  0.23633059903E+02  0.23633059903E+02  0.00000000000E+00 0.  1.
          1   -1    0    0  501    0  0.00000000000E+00 -0.00000000000E+00 -0.53220408643E+03  0.53220408643E+03  0.00000000000E+00 0. -1.
         23    2    1    2    0    0 -0.12654822777E+02  0.19404292036E+02 -0.17955810609E+03  0.20308668704E+03  0.92013139833E+02 0.  0.
          5    1    1    2  502    0  0.47836563631E+02 -0.54646422624E+02 -0.23863694086E+03  0.24947871707E+03  0.41800000000E+01 0.  1.
         -5    1    1    2    0  502 -0.35181740854E+02  0.35242130587E+02 -0.90375979566E+02  0.10327174222E+03  0.41800000000E+01 0.  1.
        -11    1    3    3    0    0 -0.39148164795E+02  0.30967554727E+02 -0.51167053540E+02  0.71481715288E+02  0.00000000000E+00 0.  1.
         11    1    3    3    0    0  0.26493342018E+02 -0.11563262690E+02 -0.12839105255E+03  0.13160497176E+03  0.00000000000E+00 0. -1.
</event>
<event>
 7    1  0.6684706E-006  0.1586859E+03  0.7561462E-02  0.1190188E+00
         -2   -1    0    0    0  501 -0.00000000000E+00  0.00000000000E+00  0.70332993196E+02  0.70332993196E+02  0.00000000000E+00 0.  1.
          2   -1    0    0  501    0  0.00000000000E+00 -0.00000000000E+00 -0.38084481966E+03  0.38084481966E+03  0.00000000000E+00 0. -1.
         23    2    1    2    0    0 -0.50814042233E+01 -0.11677307413E+03 -0.90283371667E+02  0.17223012502E+03  0.88602241817E+02 0.  0.
          5    1    1    2  502    0 -0.59158781875E+02  0.42888087331E+02 -0.96273258528E+02  0.12093453690E+03  0.41800000000E+01 0. -1.
         -5    1    1    2    0  502  0.64240186099E+02  0.73884986802E+02 -0.12395519627E+03  0.15801315093E+03  0.41800000000E+01 0. -1.
        -11    1    3    3    0    0 -0.22491420640E+02 -0.12494567889E+03 -0.73445047305E+02  0.14666786168E+03  0.00000000000E+00 0.  1.
         11    1    3    3    0    0  0.17410016417E+02  0.81726047555E+01 -0.16838324362E+02  0.25562263347E+02  0.00000000000E+00 0. -1.
</event>
<event>
 7    1  0.6684706E-006  0.1706963E+03  0.7561462E-02  0.1177124E+00
         -1   -1    0    0    0  501 -0.00000000000E+00  0.00000000000E+00  0.23506884619E+03  0.23506884619E+03  0.00000000000E+00 0.  1.
          1   -1    0    0  501    0  0.00000000000E+00 -0.00000000000E+00 -0.29637426468E+03  0.29637426468E+03  0.00000000000E+00 0. -1.
         23    2    1    2    0    0 -0.36166861375E+02 -0.16155042165E+03  0.13858151031E+03  0.24333071727E+03  0.11224269406E+03 0.  0.
          5    1    1    2  502    0 -0.15335090765E+02  0.27869288076E+02  0.10314852723E+02  0.33700605534E+02  0.41800000000E+01 0.  1.
         -5    1    1    2    0  502  0.51501952140E+02  0.13368113358E+03 -0.21020178153E+03  0.25441178807E+03  0.41800000000E+01 0.  1.
        -11    1    3    3    0    0 -0.24763852989E+02 -0.82994075318E+02  0.35344291658E+01  0.86681930887E+02  0.00000000000E+00 0. -1.
         11    1    3    3    0    0 -0.11403008386E+02 -0.78556346337E+02  0.13504708114E+03  0.15664878638E+03  0.00000000000E+00 0.  1.
</event>
<event>
 7    1  0.6684706E-006  0.1289142E+03  0.7561462E-02  0.1229076E+00
          2   -1    0    0  501    0  0.00000000000E+00  0.00000000000E+00  0.11631442857E+04  0.11631442857E+04  0.00000000000E+00 0. -1.
         -2   -1    0    0    0  501 -0.00000000000E+00 -0.00000000000E+00 -0.19817772230E+02  0.19817772230E+02  0.00000000000E+00 0.  1.
         23    2    1    2    0    0  0.26169978992E+02 -0.17290482836E+02  0.19310874064E+03  0.21570878797E+03  0.90859599943E+02 0.  0.
          5    1    1    2  502    0  0.30748538871E+02 -0.66930169894E+02  0.28967541116E+03  0.29892212450E+03  0.41800000000E+01 0. -1.
         -5    1    1    2    0  502 -0.56918517863E+02  0.84220652730E+02  0.66054236172E+03  0.66833114551E+03  0.41800000000E+01 0.  1.
        -11    1    3    3    0    0  0.10409030194E+02  0.30377871022E+02  0.26297026970E+02  0.41505380191E+02  0.00000000000E+00 0. -1.
         11    1    3    3    0    0  0.15760948799E+02 -0.47668353858E+02  0.16681171367E+03  0.17420340778E+03  0.00000000000E+00 0.  1.
</event>
<event>
 7    1  0.6684706E-006  0.8414936E+02  0.7561462E-02  0.1317672E+00
         -2   -1    0    0    0  501 -0.00000000000E+00  0.00000000000E+00  0.36225722343E+02  0.36225722343E+02  0.00000000000E+00 0.  1.
          2   -1    0    0  501    0  0.00000000000E+00 -0.00000000000E+00 -0.35114506742E+03  0.35114506742E+03  0.00000000000E+00 0. -1.
         23    2    1    2    0    0 -0.24300930433E+02  0.55838911587E+01 -0.10297081420E+03  0.14000195051E+03  0.91519629091E+02 0.  0.
          5    1    1    2  502    0 -0.32336459466E+01 -0.49660880484E+02 -0.17866242831E+03  0.18551117273E+03  0.41800000000E+01 0. -1.
         -5    1    1    2    0  502  0.27534576379E+02  0.44076989326E+02 -0.33286102572E+02  0.61857666533E+02  0.41800000000E+01 0. -1.
        -11    1    3    3    0    0 -0.14842097826E+02 -0.27803861830E+02 -0.18667328624E+00  0.31517890910E+02  0.00000000000E+00 0.  1.
         11    1    3    3    0    0 -0.94588326062E+01  0.33387752988E+02 -0.10278414091E+03  0.10848405960E+03  0.00000000000E+00 0. -1.
</event>
<event>
 7    1  0.6684706E-006  0.1173030E+03  0.7561462E-02  0.1247614E+00
         -1   -1    0    0    0  501 -0.00000000000E+00  0.00000000000E+00  0.87518231408E+02  0.87518231408E+02  0.00000000000E+00 0.  1.
          1   -1    0    0  501    0  0.00000000000E+00 -0.00000000000E+00 -0.22989709228E+03  0.22989709228E+03  0.00000000000E+00 0. -1.
         23    2    1    2    0    0  0.52699054675E+02 -0.41464348246E+02  0.26349341189E+00  0.11619232977E+03  0.94889965383E+02 0.  0.
          5    1    1    2  502    0 -0.87935007230E+02  0.50410485169E+02 -0.12382566596E+03  0.16007514005E+03  0.41800000000E+01 0. -1.
         -5    1    1    2    0  502  0.35235952555E+02 -0.89461369225E+01 -0.18816688326E+02  0.41147853866E+02  0.41800000000E+01 0. -1.
        -11    1    3    3    0    0  0.18241999535E+02 -0.56203432180E+02  0.31897188234E+02  0.67149288553E+02  0.00000000000E+00 0.  1.
         11    1    3    3    0    0  0.34457055141E+02  0.14739083934E+02 -0.31633694822E+02  0.49043041222E+02  0.00000000000E+00 0. -1.
</event>
<event>
 7    1  0.6684706E-006  0.2606968E+03  0.7561462E-02  0.1106725E+00
         -2   -1    0    0    0  501 -0.00000000000E+00  0.00000000000E+00  0.37525839437E+03  0.37525839437E+03  0.00000000000E+00 0.  1.
          2   -1    0    0  501    0  0.00000000000E+00 -0.00000000000E+00 -0.19653577663E+03  0.19653577663E+03  0.00000000000E+00 0. -1.
         23    2    1    2    0    0  0.15671468872E+03  0.47543635595E+02  0.91342237096E+02  0.20859065765E+03  0.91360643795E+02 0.  0.
          5    1    1    2  502    0  0.10878142860E+02 -0.14158118648E+03 -0.19301354905E+02  0.14336520170E+03  0.41800000000E+01 0. -1.
         -5    1    1    2    0  502 -0.16759283158E+03  0.94037550884E+02  0.10668173555E+03  0.21983831166E+03  0.41800000000E+01 0.  1.
        -11    1    3    3    0    0  0.82025222167E+00  0.30253877305E+02  0.20010813898E+02  0.36282262589E+02  0.00000000000E+00 0.  1.
         11    1    3    3    0    0  0.15589443650E+03  0.17289758290E+02  0.71331423198E+02  0.17230839506E+03  0.00000000000E+00 0. -1.
</event>
<event>
 7    1  0.6684706E-006  0.9709943E+02  0.7561462E-02  0.1286516E+00
          1   -1    0    0  501    0  0.00000000000E+00  0.00000000000E+00  0.27832640150E+03  0.27832640150E+03  0.00000000000E+00 0. -1.
         -1   -1    0    0    0  501 -0.00000000000E+00 -0.00000000000E+00 -0.52996697825E+02  0.52996697825E+02  0.00000000000E+00 0.  1.
         23    2    1    2    0    0 -0.43787324575E+02 -0.30620079261E+02  0.75114932316E+02  0.12867252575E+03  0.89774421626E+02 0.  0.
          5    1    1    2  502    0 -0.36435293036E+01  0.46995080069E+02  0.14440971242E+03  0.15196529307E+03  0.41800000000E+01 0. -1.
         -5    1    1    2    0  502  0.47430853879E+02 -0.16375000808E+02  0.58050589437E+01  0.50685280511E+02  0.41800000000E+01 0. -1.
        -11    1    3    3    0    0 -0.65176031691E+02 -0.36018684258E+02  0.33674695588E+02  0.81726653214E+02  0.00000000000E+00 0.  1.
         11    1    3    3    0    0  0.21388707116E+02  0.53986049971E+01  0.41440236727E+02  0.46945872534E+02  0.00000000000E+00 0. -1.
</event>
<event>
 7    1  0.6684706E-006  0.1702658E+03  0.7561462E-02  0.1177571E+00
          4   -1    0    0  501    0  0.00000000000E+00  0.00000000000E+00  0.58751350215E+03  0.58751350215E+03  0.00000000000E+00 0. -1.
         -4   -1    0    0    0  501 -0.00000000000E+00 -0.00000000000E+00 -0.61929876081E+02  0.61929876081E+02  0.00000000000E+00 0.  1.
         23    2    1    2    0    0 -0.14984258145E+03  0.40823559770E+02  0.21390353941E+03  0.27942691145E+03  0.90583179561E+02 0.  0.
          5    1    1    2  502    0  0.30334994765E+02  0.86709364327E+01  0.18910425025E+03  0.19176362248E+03  0.41800000000E+01 0. -1.
         -5    1    1    2    0  502  0.11950758669E+03 -0.49494496202E+02  0.12257583640E+03  0.17825284430E+03  0.41800000000E+01 0. -1.
        -11    1    3    3    0    0 -0.12754064793E+03 -0.57277891779E+01  0.14259695421E+03  0.19139831711E+03  0.00000000000E+00 0.  1.
         11    1    3    3    0    0 -0.22301933525E+02  0.46551348947E+02  0.71306585205E+02  0.88028594339E+02  0.00000000000E+00 0. -1.
</event>
<event>
 7    1  0.6684706E-006  0.1213628E+03  0.7561462E-02  0.1240866E+00
         -2   -1    0    0    0  501 -0.00000000000E+00  0.00000000000E+00  0.27815723918E+02  0.27815723918E+02  0.00000000000E+00 0.  1.
          2   -1    0    0  501    0  0.00000000000E+00 -0.00000000000E+00 -0.83276494900E+03  0.83276494900E+03  0.00000000000E+00 0. -1.
         23    2    1    2    0    0  0.27195349258E+02  0.99042635889E+02 -0.43839172119E+03  0.45988002106E+03  0.93559081978E+02 0.  0.
          5    1    1    2  502    0 -0.15447902529E+02 -0.23164631847E+02 -0.21153038907E+01  0.28234460712E+02  0.41800000000E+01 0.  1.
         -5    1    1    2    0  502 -0.11747446730E+02 -0.75878004042E+02 -0.36444220001E+03  0.37246619115E+03  0.41800000000E+01 0.  1.
        -11    1    3    3    0    0 -0.33392653232E+02  0.47882012102E+02 -0.15596399620E+03  0.16653085144E+03  0.00000000000E+00 0. -1.
         11    1    3    3    0    0  0.60588002491E+02  0.51160623787E+02 -0.28242772499E+03  0.29334916962E+03  0.00000000000E+00 0.  1.
</event>
<event>
 7    1  0.6684706E-006  0.1121940E+03  0.7561462E-02  0.1256560E+00
          3   -1    0    0  501    0  0.00000000000E+00  0.00000000000E+00  0.12350464460E+03  0.12350464460E+03  0.00000000000E+00 0. -1.
         -3   -1    0    0    0  501 -0.00000000000E+00 -0.00000000000E+00 -0.14779450530E+03  0.14779450530E+03  0.00000000000E+00 0.  1.
         23    2    1    2    0    0 -0.78666989290E+02 -0.15783124801E+02 -0.18805481619E+02  0.12259262047E+03  0.90761788344E+02 0.  0.
          5    1    1    2  502    0  0.13254000055E+02 -0.32949210597E+02  0.41259139169E+02  0.54599523454E+02  0.41800000000E+01 0.  1.
         -5    1    1    2    0  502  0.65412989235E+02  0.48732335399E+02 -0.46743518256E+02  0.94107005972E+02  0.41800000000E+01 0.  1.
        -11    1    3    3    0    0 -0.43842002932E+02  0.27227675706E+02 -0.37920808018E+02  0.64042604774E+02  0.00000000000E+00 0.  1.
         11    1    3    3    0    0 -0.34824986358E+02 -0.43010800508E+02  0.19115326399E+02  0.58550015700E+02  0.00000000000E+00 0. -1.
</event>
<event>
 7    1  0.6684706E-006  0.3196506E+03  0.7561462E-02  0.1075810E+00
          1   -1    0    0  501    0  0.00000000000E+00  0.00000000000E+00  0.71393286467E+03  0.71393286467E+03  0.00000000000E+00 0. -1.
         -1   -1    0    0    0  501 -0.00000000000E+00 -0.00000000000E+00 -0.15360723083E+03  0.15360723083E+03  0.00000000000E+00 0.  1.
         23    2    1    2    0    0 -0.36487024321E+02  0.31042159990E+03  0.26922456672E+03  0.42247334925E+03  0.91153666246E+02 0.  0.
          5    1    1    2  502    0  0.31620535411E+02 -0.11833757498E+03  0.40138214144E+02  0.12896584256E+03  0.41800000000E+01 0.  1.
         -5    1    1    2    0  502  0.48664889102E+01 -0.19208402492E+03  0.25096285297E+03  0.31610090369E+03  0.41800000000E+01 0.  1.
        -11    1    3    3    0    0  0.28523319764E+02  0.72594716507E+02  0.79505980387E+02  0.11137671908E+03  0.00000000000E+00 0. -1.
         11    1    3    3    0    0 -0.65010344086E+02  0.23782688340E+03  0.18971858633E+03  0.31109663017E+03  0.00000000000E+00 0.  1.
</event>
<event>
 7    1  0.6684706E-006  0.1674075E+03  0.7561462E-02  0.1180579E+00
         -1   -1    0    0    0  501 -0.00000000000E+00  0.00000000000E+00  0.29658642313E+02  0.29658642313E+02  0.00000000000E+00 0.  1.
          1   -1    0    0  501    0  0.00000000000E+00 -0.00000000000E+00 -0.12174222146E+04  0.12174222146E+04  0.00000000000E+00 0. -1.
         23    2    1    2    0    0 -0.53908178025E+02  0.13429725071E+03 -0.37282144303E+03  0.40999043154E+03  0.90302172524E+02 0.  0.
          5    1    1    2  502    0  0.26577463220E+02 -0.14198724898E+03 -0.77221033811E+03  0.78561633073E+03  0.41800000000E+01 0.  1.
         -5    1    1    2    0  502  0.27330714805E+02  0.76899982723E+01 -0.42731791150E+02  0.51474094650E+02  0.41800000000E+01 0.  1.
        -11    1    3    3    0    0 -0.18266907553E+02  0.12280343747E+03 -0.21967750458E+03  0.25233424299E+03  0.00000000000E+00 0.  1.
         11    1    3    3    0    0 -0.35641270471E+02  0.11493813239E+02 -0.15314393845E+03  0.15765618855E+03  0.00000000000E+00 0. -1.
</event>
<event>
 7    1  0.6684706E-006  0.1078530E+03  0.7561462E-02  0.1264598E+00
          1   -1    0    0  501    0  0.00000000000E+00  0.00000000000E+00  0.30833608189E+03  0.30833608189E+03  0.00000000000E+00 0. -1.
         -1   -1    0    0    0  501 -0.00000000000E+00 -0.00000000000E+00 -0.43104545172E+02  0.43104545172E+02  0.00000000000E+00 0.  1.
         23    2    1    2    0    0 -0.17809244933E+02 -0.11861745648E+02  0.62400620748E+02  0.11217852639E+03  0.90732100705E+02 0.  0.
          5    1    1    2  502    0  0.70765170541E+02 -0.52964508630E+01  0.11339426485E+03  0.13383382777E+03  0.41800000000E+01 0. -1.
         -5    1    1    2    0  502 -0.52955925608E+02  0.17158196511E+02  0.89436651116E+02  0.10542827290E+03  0.41800000000E+01 0. -1.
        -11    1    3    3    0    0  0.23839663128E+02 -0.34081228407E+02  0.46454038096E+02  0.62352524594E+02  0.00000000000E+00 0. -1.
         11    1    3    3    0    0 -0.41648908061E+02  0.22219482759E+02  0.15946582652E+02  0.49826001796E+02  0.00000000000E+00 0.  1.
</event>
<event>
 7    1  0.6684706E-006  0.9712075E+02  0.7561462E-02  0.1286470E+00
          3   -1    0    0  501    0  0.00000000000E+00  0.00000000000E+00  0.35542983258E+03  0.35542983258E+03  0.00000000000E+00 0. -1.
         -3   -1    0    0    0  501 -0.00000000000E+00 -0.00000000000E+00 -0.52650468854E+02  0.52650468854E+02  0.00000000000E+00 0.  1.
         23    2    1    2    0    0  0.53688891002E+02 -0.61425167179E+02  0.15975042522E+03  0.20129653306E+03  0.91348495785E+02 0.  0.
          5    1    1    2  502    0 -0.39000803706E+02  0.48592027677E+02  0.77991595780E-01  0.62447788802E+02  0.41800000000E+01 0.  1.
         -5    1    1    2    0  502 -0.14688087296E+02  0.12833139501E+02  0.14295094691E+03  0.14433597957E+03  0.41800000000E+01 0.  1.
        -11    1    3    3    0    0  0.66474378902E+02 -0.21408471967E+02  0.56509816825E+02  0.89836101429E+02  0.00000000000E+00 0. -1.
         11    1    3    3    0    0 -0.12785487900E+02 -0.40016695212E+02  0.10324060840E+03  0.11146043163E+03  0.00000000000E+00 0.  1.
</event>
<event>
 7    1  0.6684706E-006  0.1090970E+03  0.7561462E-02  0.1262251E+00
          1   -1    0    0  501    0  0.00000000000E+00  0.00000000000E+00  0.11722824220E+03  0.11722824220E+03  0.00000000000E+00 0. -1.
         -1   -1    0    0    0  501 -0.00000000000E+00 -0.00000000000E+00 -0.12146540278E+03  0.12146540278E+03  0.00000000000E+00 0.  1.
         23    2    1    2    0    0 -0.45785710202E+02 -0.18716161923E+02  0.96308944713E+01  0.10346651731E+03  0.90365591353E+02 0.  0.
          5    1    1    2  502    0  0.34998990642E+02  0.71198030205E+02  0.10536333056E+01  0.79452321516E+02  0.41800000000E+01 0. -1.
         -5    1    1    2    0  502  0.10786719560E+02 -0.52481868282E+02 -0.14921688361E+02  0.55774806147E+02  0.41800000000E+01 0. -1.
        -11    1    3    3    0    0  0.64364830304E+01  0.19344159366E+02  0.29501566116E+02  0.35860385088E+02  0.00000000000E+00 0. -1.
         11    1    3    3    0    0 -0.52222193233E+02 -0.38060321289E+02 -0.19870671645E+02  0.67606132224E+02  0.00000000000E+00 0.  1.
</event>
<event>
 7    1  0.6684706E-006  0.1569437E+03  0.7561462E-02  0.1192191E+00
         -2   -1    0    0    0  501 -0.00000000000E+00  0.00000000000E+00  0.95540975668E+02  0.95540975668E+02  0.00000000000E+00 0.  1.
          2   -1    0    0  501    0  0.00000000000E+00 -0.00000000000E+00 -0.31930837564E+03  0.31930837564E+03  0.00000000000E+00 0. -1.
         23    2    1    2    0    0 -0.11730164800E+03  0.58146847698E+02 -0.58791728390E+02  0.16989043395E+03  0.90915123598E+02 0.  0.
          5    1    1    2  502    0  0.12841626055E+03 -0.61835631663E+02 -0.17725125924E+03  0.22748596136E+03  0.41800000000E+01 0.  1.
         -5    1    1    2    0  502 -0.11114612544E+02  0.36887839652E+01  0.12275587653E+02  0.17472956000E+02  0.41800000000E+01 0.  1.
        -11    1    3    3    0    0 -0.28349073481E+01  0.43351598495E+02 -0.99884597447E+01  0.44577652695E+02  0.00000000000E+00 0. -1.
         11    1    3    3    0    0 -0.11446674065E+03  0.14795249202E+02 -0.48803268645E+02  0.12531278125E+03  0.00000000000E+00 0.  1.
</event>
<event>
 7    1  0.6684706E-006  0.1042358E+03  0.7561462E-02  0.1271633E+00
          2   -1    0    0  501    0  0.00000000000E+00  0.00000000000E+00  0.64116113616E+03  0.64116113616E+03  0.00000000000E+00 0. -1.
         -2   -1    0    0    0  501 -0.00000000000E+00 -0.00000000000E+00 -0.40025265640E+02  0.40025265640E+02  0.00000000000E+00 0.  1.
         23    2    1    2    0    0 -0.67933314996E+02 -0.67411260479E+01  0.75226609873E+02  0.13631165722E+03  0.90892502408E+02 0.  0.
          5    1    1    2  502    0  0.48026363537E+02 -0.54736611725E+02  0.34762420559E+03  0.35519387518E+03  0.41800000000E+01 0.  1.
         -5    1    1    2    0  502  0.19906951459E+02  0.61477737772E+02  0.17828505506E+03  0.18968086940E+03  0.41800000000E+01 0.  1.
        -11    1    3    3    0    0 -0.28552280685E+02  0.64011206623E+01  0.88110664060E+02  0.92842319011E+02  0.00000000000E+00 0. -1.
         11    1    3    3    0    0 -0.39381034311E+02 -0.13142246710E+02 -0.12884054188E+02  0.43469338208E+02  0.00000000000E+00 0.  1.
</event>
<event>
 7    1  0.6684706E-006  0.8753930E+02  0.7561462E-02  0.1308922E+00
          4   -1    0    0  501    0  0.00000000000E+00  0.00000000000E+00  0.73186403488E+02  0.73186403488E+02  0.00000000000E+00 0. -1.
         -4   -1    0    0    0  501 -0.00000000000E+00 -0.00000000000E+00 -0.16243754054E+03  0.16243754054E+03  0.00000000000E+00 0.  1.
         23    2    1    2    0    0  0.11812876455E+02  0.17685788671E+01 -0.41345673952E+02  0.10113297880E+03  0.91519083942E+02 0.  0.
          5    1    1    2  502    0 -0.67044055115E+02 -0.37565062313E+01 -0.11700694072E+02  0.68289057009E+02  0.41800000000E+01 0. -1.
         -5    1    1    2    0  502  0.55231178660E+02  0.19879273642E+01 -0.36204769028E+02  0.66201908219E+02  0.41800000000E+01 0. -1.
        -11    1    3    3    0    0 -0.17918082655E+02 -0.98583564483E+01  0.22098674066E+02  0.30109737185E+02  0.00000000000E+00 0. -1.
         11    1    3    3    0    0  0.29730959110E+02  0.11626935315E+02 -0.63444348018E+02  0.71023241617E+02  0.00000000000E+00 0.  1.
</event>
<event>
 7    1  0.6684706E-006  0.1386733E+03  0.7561462E-02  0.1215125E+00
         -3   -1    0    0    0  501 -0.00000000000E+00  0.00000000000E+00  0.56339617206E+03  0.56339617206E+03  0.00000000000E+00 0.  1.
          3   -1    0    0  501    0  0.00000000000E+00 -0.00000000000E+00 -0.35107594537E+02  0.35107594537E+02  0.00000000000E+00 0. -1.
         23    2    1    2    0    0  0.82377422164E+02  0.19702275159E+02  0.28879439570E+03  0.31534401131E+03  0.94156376040E+02 0.  0.
          5    1    1    2  502    0 -0.14827439428E+02 -0.66755885897E+02  0.11457640859E+03  0.13349691782E+03  0.41800000000E+01 0. -1.
         -5    1    1    2    0  502 -0.67549982736E+02  0.47053610738E+02  0.12491777322E+03  0.14966283747E+03  0.41800000000E+01 0. -1.
        -11    1    3    3    0    0  0.33518029057E+02 -0.38084426960E+02  0.10649627408E+03  0.11796329192E+03  0.00000000000E+00 0.  1.
         11    1    3    3    0    0  0.48859393107E+02  0.57786702119E+02  0.18229812163E+03  0.19738071939E+03  0.00000000000E+00 0. -1.
</event>
<event>
 7    1  0.6684706E-006  0.1486096E+03  0.7561462E-02  0.1202192E+00
         -2   -1    0    0    0  501 -0.00000000000E+00  0.00000000000E+00  0.17172200280E+02  0.17172200280E+02  0.00000000000E+00 0.  1.
          2   -1    0    0  501    0  0.00000000000E+00 -0.00000000000E+00 -0.14520303065E+04  0.14520303065E+04  0.00000000000E+00 0. -1.
         23    2    1    2    0    0  0.61389092889E+02 -0.49155595762E+02 -0.34518289142E+03  0.36471053525E+03  0.87622215602E+02 0.  0.
          5    1    1    2  502    0 -0.41153669467E+02  0.10883894331E+03 -0.65831185481E+03  0.66852936411E+03  0.41800000000E+01 0. -1.
         -5    1    1    2    0  502 -0.20235423422E+02 -0.59683347549E+02 -0.43136335998E+03  0.43596260742E+03  0.41800000000E+01 0.  1.
        -11    1    3    3    0    0  0.73421750571E+02 -0.64773563346E+02 -0.28111437752E+03  0.29767710899E+03  0.00000000000E+00 0.  1.
         11    1    3    3    0    0 -0.12032657682E+02  0.15617967584E+02 -0.64068513903E+02  0.67033426260E+02  0.00000000000E+00 0. -1.
</event>
<event>
 7    1  0.6684706E-006  0.1209684E+03  0.7561462E-02  0.1241508E+00
         -1   -1    0    0    0  501 -0.00000000000E+00  0.00000000000E+00  0.57709557545E+02  0.57709557545E+02  0.00000000000E+00 0.  1.
          1   -1    0    0  501    0  0.00000000000E+00 -0.00000000000E+00 -0.27358128336E+03  0.27358128336E+03  0.00000000000E+00 0. -1.
         23    2    1    2    0    0  0.25329730285E+02 -0.53632732887E+02 -0.99116997056E+02  0.15019065044E+03  0.95994724332E+02 0.  0.
          5    1    1    2  502    0 -0.55786801753E+02  0.74791217149E+02 -0.10796717226E+03  0.14275950441E+03  0.41800000000E+01 0.  1.
         -5    1    1    2    0  502  0.30457071468E+02 -0.21158484262E+02 -0.87875564996E+01  0.38340686065E+02  0.41800000000E+01 0.  1.
        -11    1    3    3    0    0 -0.20279577947E+02 -0.61658288480E+02 -0.45091215567E+02  0.79033053474E+02  0.00000000000E+00 0. -1.
         11    1    3    3    0    0  0.45609308231E+02  0.80255555937E+01 -0.54025781489E+02  0.71157596962E+02  0.00000000000E+00 0.  1.
</event>
<event>
 7    1  0.6684706E-006  0.1116459E+03  0.7561462E-02  0.1257552E+00
          2   -1    0    0  501    0  0.00000000000E+00  0.00000000000E+00  0.26220600627E+03  0.26220600627E+03  0.00000000000E+00 0. -1.
         -2   -1    0    0    0  501 -0.00000000000E+00 -0.00000000000E+00 -0.67994088461E+02  0.67994088461E+02  0.00000000000E+00 0.  1.
         23    2    1    2    0    0  0.36628307457E+02 -0.67222353471E+02  0.88532605269E+02  0.14944466857E+03  0.92925825559E+02 0.  0.
          5    1    1    2  502    0 -0.16842764524E+02  0.80538119439E+02  0.11105836673E+02  0.83131699175E+02  0.41800000000E+01 0. -1.
         -5    1    1    2    0  502 -0.19785542933E+02 -0.13315765968E+02  0.94573475865E+02  0.97623726981E+02  0.41800000000E+01 0. -1.
        -11    1    3    3    0    0  0.57836314619E+02 -0.14153247311E+02  0.26727730724E+02  0.65266570983E+02  0.00000000000E+00 0.  1.
         11    1    3    3    0    0 -0.21208007162E+02 -0.53069106159E+02  0.61804874545E+02  0.84178097590E+02  0.00000000000E+00 0. -1.
</event>
<event>
 7    1  0.6684706E-006  0.9665110E+02  0.7561462E-02  0.1287500E+00
         -2   -1    0    0    0  501 -0.00000000000E+00  0.00000000000E+00  0.94416382555E+02  0.94416382555E+02  0.00000000000E+00 0.  1.
          2   -1    0    0  501    0  0.00000000000E+00 -0.00000000000E+00 -0.18169465203E+03  0.18169465203E+03  0.00000000000E+00 0. -1.
         23    2    1    2    0    0  0.12728782267E+02 -0.60129832567E+02  0.21458149083E+00  0.11147481886E+03  0.92999841576E+02 0.  0.
          5    1    1    2  502    0  0.36794050393E+02 -0.10914683063E+02 -0.64109350147E+02  0.74835911346E+02  0.41800000000E+01 0. -1.
         -5    1    1    2    0  502 -0.49522832660E+02  0.71044515630E+02 -0.23383500823E+02  0.89800304379E+02  0.41800000000E+01 0. -1.
        -11    1    3    3    0    0  0.22224333741E+02 -0.40934937501E+02 -0.42906407850E+02  0.63328902983E+02  0.00000000000E+00 0. -1.
         11    1    3    3    0    0 -0.94955514741E+01 -0.19194895066E+02  0.43120989341E+02  0.48145915882E+02  0.00000000000E+00 0.  1.
</event>
<event>
 7    1  0.6684706E-006  0.8567107E+02  0.7561462E-02  0.1313687E+00
         -3   -1    0    0    0  501 -0.00000000000E+00  0.00000000000E+00  0.45921036089E+02  0.45921036089E+02  0.00000000000E+00 0.  1.
          3   -1    0    0  501    0  0.00000000000E+00 -0.00000000000E+00 -0.32442216615E+03  0.32442216615E+03  0.00000000000E+00 0. -1.
         23    2    1    2    0    0  0.46631055410E+02 -0.10670803782E+02 -0.78956896743E+02  0.13002254971E+03  0.91560638422E+02 0.  0.
          5    1    1    2  502    0 -0.49548140986E+02 -0.90919760329E+01 -0.21096268444E+03  0.21693411195E+03  0.41800000000E+01 0.  1.
         -5    1    1    2    0  502  0.29170855755E+01  0.19762779815E+02  0.11418451118E+02  0.23386540578E+02  0.41800000000E+01 0.  1.
        -11    1    3    3    0    0  0.11759679448E+02  0.38413801151E+02 -0.16981902370E+02  0.43615309098E+02  0.00000000000E+00 0. -1.
         11    1    3    3    0    0  0.34871375963E+02 -0.49084604933E+02 -0.61974994374E+02  0.86407240614E+02  0.00000000000E+00 0.  1.
</event>
<event>
 7    1  0.6684706E-006  0.8282663E+02  0.7561462E-02  0.1321216E+00
         -4   -1    0    0    0  501 -0.00000000000E+00  0.00000000000E+00  0.10611772670E+02  0.10611772670E+02  0.00000000000E+00 0. -1.
          4   -1    0    0  501    0  0.00000000000E+00 -0.00000000000E+00 -0.18286110280E+04  0.18286110280E+04  0.00000000000E+00 0.  1.
         23    2    1    2    0    0  0.23335651975E+02 -0.42195291310E+02 -0.34855782753E+03  0.36367859661E+03  0.91894326468E+02 0.  0.
          5    1    1    2  502    0 -0.37762029539E+00 -0.11842637061E+02 -0.11854707089E+04  0.11855372894E+04  0.41800000000E+01 0.  1.
         -5    1    1    2    0  502 -0.22958031679E+02  0.54037928371E+02 -0.28397071889E+03  0.29000691459E+03  0.41800000000E+01 0.  1.
        -11    1    3    3    0    0  0.38821382597E+02  0.97468769958E+01 -0.22814025497E+03  0.23162486330E+03  0.00000000000E+00 0.  1.
         11    1    3    3    0    0 -0.15485730622E+02 -0.51942168306E+02 -0.12041757256E+03  0.13205373331E+03  0.00000000000E+00 0. -1.
</event>
<event>
 7    1  0.6684706E-006  0.9186860E+02  0.7561462E-02  0.1298389E+00
         -2   -1    0    0    0  501 -0.00000000000E+00  0.00000000000E+00  0.55315063948E+02  0.55315063948E+02  0.00000000000E+00 0.  1.
          2   -1    0    0  501    0  0.00000000000E+00 -0.00000000000E+00 -0.26346017061E+03  0.26346017061E+03  0.00000000000E+00 0. -1.
         23    2    1    2    0    0  0.49537439477E+02 -0.18760664037E+02 -0.93356871642E+02  0.14092718988E+03  0.91318382263E+02 0.  0.
          5    1    1    2  502    0  0.14908511608E+02  0.27046771299E+02  0.13514826835E+02  0.33969317044E+02  0.41800000000E+01 0.  1.
         -5    1    1    2    0  502 -0.64445951085E+02 -0.82861072619E+01 -0.12830306186E+03  0.14387872764E+03  0.41800000000E+01 0.  1.
        -11    1    3    3    0    0 -0.16089726534E+02  0.62065654247E+01 -0.61409428686E+02  0.63784940902E+02  0.00000000000E+00 0. -1.
         11    1    3    3    0    0  0.65627166011E+02 -0.24967229461E+02 -0.31947442956E+02  0.77142248976E+02  0.00000000000E+00 0.  1.
</event>
<event>
 7    1  0.6684706E-006  0.1622365E+03  0.7561462E-02  0.1186195E+00
         -2   -1    0    0    0  501 -0.00000000000E+00  0.00000000000E+00  0.68046720014E+02  0.68046720014E+02  0.00000000000E+00 0.  1.
          2   -1    0    0  501    0  0.00000000000E+00 -0.00000000000E+00 -0.48957767672E+03  0.48957767672E+03  0.00000000000E+00 0. -1.
         23    2    1    2    0    0  0.12023636998E+03 -0.67797707587E+02 -0.12542820334E+03  0.20779892009E+03  0.91623376819E+02 0.  0.
          5    1    1    2  502    0 -0.13227066609E+03  0.89196420740E+02 -0.23736612817E+03  0.28602741439E+03  0.41800000000E+01 0.  1.
         -5    1    1    2    0  502  0.12034296112E+02 -0.21398713153E+02 -0.58736625193E+02  0.63798062248E+02  0.41800000000E+01 0.  1.
        -11    1    3    3    0    0  0.83698063026E+02 -0.34449602911E+02 -0.21994763139E+02  0.93144567746E+02  0.00000000000E+00 0.  1.
         11    1    3    3    0    0  0.36538306950E+02 -0.33348104675E+02 -0.10343344020E+03  0.11465435235E+03  0.00000000000E+00 0. -1.
</event>
<event>
 7    1  0.6684706E-006  0.9943569E+02  0.7561462E-02  0.1281487E+00
         -3   -1    0    0    0  501 -0.00000000000E+00  0.00000000000E+00  0.37004208940E+02  0.37004208940E+02  0.00000000000E+00 0.  1.
          3   -1    0    0  501    0  0.00000000000E+00 -0.00000000000E+00 -0.52023722023E+03  0.52023722023E+03  0.00000000000E+00 0. -1.
         23    2    1    2    0    0  0.66056720468E+02  0.27915198777E+02 -0.12850263075E+03  0.17432684701E+03  0.93456807329E+02 0.  0.
          5    1    1    2  502    0  0.12271463516E+02  0.14551493991E+02 -0.22285899800E+03  0.22370949953E+03  0.41800000000E+01 0.  1.
         -5    1    1    2    0  502 -0.78328183983E+02 -0.42466692768E+02 -0.13187138254E+03  0.15920508263E+03  0.41800000000E+01 0.  1.
        -11    1    3    3    0    0  0.26892525633E+02 -0.16040481060E+02 -0.10726350945E+03  0.11174061673E+03  0.00000000000E+00 0. -1.
         11    1    3    3    0    0  0.39164194834E+02  0.43955679837E+02 -0.21239121303E+02  0.62586230280E+02  0.00000000000E+00 0.  1.
</event>
<event>
 7    1  0.6684706E-006  0.1768379E+03  0.7561462E-02  0.1170899E+00
          2   -1    0    0  501    0  0.00000000000E+00  0.00000000000E+00  0.70281269950E+03  0.70281269950E+03  0.00000000000E+00 0. -1.
         -2   -1    0    0    0  501 -0.00000000000E+00 -0.00000000000E+00 -0.70279682438E+02  0.70279682438E+02  0.00000000000E+00 0.  1.
         23    2    1    2    0    0  0.11343108868E+03 -0.10541310071E+03  0.99913797297E+02  0.20448949349E+03  0.88626476716E+02 0.  0.
          5    1    1    2  502    0 -0.99112406288E+02  0.11999441880E+03  0.52290864855E+03  0.54559404025E+03  0.41800000000E+01 0.  1.
         -5    1    1    2    0  502 -0.14318682392E+02 -0.14581318083E+02  0.97105712160E+01  0.23008848207E+02  0.41800000000E+01 0.  1.
        -11    1    3    3    0    0  0.19384228854E+02 -0.76229665985E+02  0.56656127413E+02  0.96936201071E+02  0.00000000000E+00 0.  1.
         11    1    3    3    0    0  0.94046859827E+02 -0.29183434727E+02  0.43257669883E+02  0.10755329242E+03  0.00000000000E+00 0. -1.
</event>
<event>
 7    1  0.6684706E-006  0.9545546E+02  0.7561462E-02  0.1290154E+00
          2   -1    0    0  501    0  0.00000000000E+00  0.00000000000E+00  0.38457164692E+03  0.38457164692E+03  0.00000000000E+00 0. -1.
         -2   -1    0    0    0  501 -0.00000000000E+00 -0.00000000000E+00 -0.52628003038E+02  0.52628003038E+02  0.00000000000E+00 0.  1.
         23    2    1    2    0    0 -0.43268170557E+02  0.20297116877E+02  0.43277354973E+02  0.11085735084E+03  0.90179350438E+02 0.  0.
          5    1    1    2  502    0  0.55740995942E+02 -0.40853887554E+02  0.29342035662E+03  0.30147815317E+03  0.41800000000E+01 0. -1.
         -5    1    1    2    0  502 -0.12472825385E+02  0.20556770677E+02 -0.47540677165E+01  0.24864145945E+02  0.41800000000E+01 0.  1.
        -11    1    3    3    0    0 -0.13612778899E+02 -0.33322541973E+02  0.27054765748E+00  0.35996843597E+02  0.00000000000E+00 0.  1.
         11    1    3    3    0    0 -0.29655391658E+02  0.53619658850E+02  0.43006807316E+02  0.74860507246E+02  0.00000000000E+00 0. -1.
</event>
<event>
 7    1  0.6684706E-006  0.9182476E+02  0.7561462E-02  0.1298492E+00
         -1   -1    0    0    0  501 -0.00000000000E+00  0.00000000000E+00  0.84652864460E+02  0.84652864460E+02  0.00000000000E+00 0.  1.
          1   -1    0    0  501    0  0.00000000000E+00 -0.00000000000E+00 -0.18208629431E+03  0.18208629431E+03  0.00000000000E+00 0. -1.
         23    2    1    2    0    0 -0.12580796805E+02  0.58164697040E+02 -0.29068590180E+02  0.11226626636E+03  0.90649452269E+02 0.  0.
          5    1    1    2  502    0 -0.21257694862E+02 -0.72632972971E+02  0.10412740717E+01  0.75802341687E+02  0.41800000000E+01 0. -1.
         -5    1    1    2    0  502  0.33838491666E+02  0.14468275931E+02 -0.69406113744E+02  0.78670550727E+02  0.41800000000E+01 0. -1.
        -11    1    3    3    0    0 -0.26309223992E+02  0.33593992966E+02 -0.57932734264E+02  0.71950909166E+02  0.00000000000E+00 0. -1.
         11    1    3    3    0    0  0.13728427187E+02  0.24570704075E+02  0.28864144084E+02  0.40315357192E+02  0.00000000000E+00 0.  1.
</event>
<event>
 7    1  0.6684706E-006  0.1071107E+03  0.7561462E-02  0.1266016E+00
         -1   -1    0    0    0  501 -0.00000000000E+00  0.00000000000E+00  0.15992410758E+02  0.15992410758E+02  0.00000000000E+00 0.  1.
          1   -1    0    0  501    0  0.00000000000E+00 -0.00000000000E+00 -0.11894090924E+04  0.11894090924E+04  0.00000000000E+00 0. -1.
         23    2    1    2    0    0  0.81364257638E+02  0.21392273699E+02 -0.51284410903E+03  0.52784646668E+03  0.92385282501E+02 0.  0.
          5    1    1    2  502    0 -0.59739008600E+02 -0.20031885011E+00 -0.10298907733E+03  0.11913442712E+03  0.41800000000E+01 0. -1.
         -5    1    1    2    0  502 -0.21625249038E+02 -0.21191954849E+02 -0.55758349532E+03  0.55842060940E+03  0.41800000000E+01 0. -1.
        -11    1    3    3    0    0 -0.19323665954E+02  0.11765712217E+02 -0.68648664382E+02  0.72280531067E+02  0.00000000000E+00 0.  1.
         11    1    3    3    0    0  0.10068792359E+03  0.96265614814E+01 -0.44419544465E+03  0.45556593561E+03  0.00000000000E+00 0. -1.
</event>
<event>
 7    1  0.6684706E-006  0.1141496E+03  0.7561462E-02  0.1253073E+00
         -1   -1    0    0    0  501 -0.00000000000E+00  0.00000000000E+00  0.10228117625E+04  0.10228117625E+04  0.00000000000E+00 0.  1.
          1   -1    0    0  501    0  0.00000000000E+00 -0.00000000000E+00 -0.13081548892E+02  0.13081548892E+02  0.00000000000E+00 0. -1.
         23    2    1    2    0    0 -0.33251835234E+02  0.13010131625E+02  0.48844650824E+03  0.49862232465E+03  0.93644450767E+02 0.  0.
          5    1    1    2  502    0 -0.28182733140E+02 -0.49862166045E+02  0.20076519762E+03  0.20881723833E+03  0.41800000000E+01 0.  1.
         -5    1    1    2    0  502  0.61434568374E+02  0.36852034421E+02  0.32051850778E+03  0.32845374844E+03  0.41800000000E+01 0.  1.
        -11    1    3    3    0    0  0.24302180025E+01  0.48630435831E+02  0.20304056855E+03  0.20879726465E+03  0.00000000000E+00 0.  1.
         11    1    3    3    0    0 -0.35682053237E+02 -0.35620304206E+02  0.28540593969E+03  0.28982506000E+03  0.00000000000E+00 0. -1.
</event>
<event>
 7    1  0.6684706E-006  0.7180483E+02  0.7561462E-02  0.1354061E+00
          2   -1    0    0  501    0  0.00000000000E+00  0.00000000000E+00  0.16488032724E+03  0.16488032724E+03  0.00000000000E+00 0. -1.
         -2   -1    0    0    0  501 -0.00000000000E+00 -0.00000000000E+00 -0.95059601999E+02  0.95059601999E+02  0.00000000000E+00 0.  1.
         23    2    1    2    0    0  0.98982541155E+01 -0.22534626313E+02 -0.35417288048E+02  0.94707139241E+02  0.84316505578E+02 0.  0.
          5    1    1    2  502    0 -0.32355875794E+02  0.13233505636E+02  0.12733825059E+03  0.13211559648E+03  0.41800000000E+01 0. -1.
         -5    1    1    2    0  502  0.22457621679E+02  0.93011206776E+01 -0.22100237306E+02  0.33117193515E+02  0.41800000000E+01 0. -1.
        -11    1    3    3    0    0 -0.24732173641E+02 -0.38377511161E+02 -0.49247798738E+01  0.45921315668E+02  0.00000000000E+00 0. -1.
         11    1    3    3    0    0  0.34630427757E+02  0.15842884848E+02 -0.30492508174E+02  0.48785823573E+02  0.00000000000E+00 0.  1.
</event>
<event>
 7    1  0.6684706E-006  0.9883639E+02  0.7561462E-02  0.1282762E+00
         -2   -1    0    0    0  501 -0.00000000000E+00  0.00000000000E+00  0.10497801395E+02  0.10497801395E+02  0.00000000000E+00 0.  1.
          2   -1    0    0  501    0  0.00000000000E+00 -0.00000000000E+00 -0.20411076723E+04  0.20411076723E+04  0.00000000000E+00 0. -1.
         23    2    1    2    0    0 -0.29295400186E+02  0.33691794184E+02 -0.32529442699E+03  0.34112623875E+03  0.92505616408E+02 0.  0.
          5    1    1    2  502    0  0.16949697260E+02 -0.75317792617E+02 -0.13915819127E+04  0.13937280058E+04  0.41800000000E+01 0. -1.
         -5    1    1    2    0  502  0.12345702926E+02  0.41625998433E+02 -0.31373353121E+03  0.31675122909E+03  0.41800000000E+01 0. -1.
        -11    1    3    3    0    0 -0.43516927205E+02  0.41823867153E+02 -0.31712923020E+03  0.32282178902E+03  0.00000000000E+00 0. -1.
         11    1    3    3    0    0  0.14221527020E+02 -0.81320729688E+01 -0.81651967932E+01  0.18304449738E+02  0.00000000000E+00 0.  1.
</event>
<event>
 6    1  0.6684706E-006  0.6640101E+02  0.7561462E-02  0.1372778E+00
         -2   -1    0    0    0  501 -0.00000000000E+00  0.00000000000E+00  0.95930020864E+01  0.95930020864E+01  0.00000000000E+00 0.  1.
          2   -1    0    0  501    0  0.00000000000E+00 -0.00000000000E+00 -0.11600801346E+04  0.11600801346E+04  0.00000000000E+00 0. -1.
          5    1    1    2  502    0 -0.23027127676E+02  0.60415668025E+02 -0.27752817636E+03  0.28499063603E+03  0.41800000000E+01 0. -1.
         -5    1    1    2    0  502  0.21323243180E+02 -0.30980195510E+02 -0.83464729626E+03  0.83550465873E+03  0.41800000000E+01 0.  1.
        -11    1    1    2    0    0  0.41596579295E+01 -0.17887884379E+02 -0.18191339370E+02  0.25849641964E+02  0.00000000000E+00 0.  1.
         11    1    1    2    0    0 -0.24557734337E+01 -0.11547588136E+02 -0.20120320481E+02  0.23328199913E+02  0.00000000000E+00 0. -1.
</event>
<event>
 7    1  0.6684706E-006  0.1118518E+03  0.7561462E-02  0.1257179E+00
         -1   -1    0    0    0  501 -0.00000000000E+00  0.00000000000E+00  0.21575529518E+02  0.21575529518E+02  0.00000000000E+00 0.  1.
          1   -1    0    0  501    0  0.00000000000E+00 -0.00000000000E+00 -0.73887240010E+03  0.73887240010E+03  0.00000000000E+00 0. -1.
         23    2    1    2    0    0  0.69509719457E+01 -0.43301955930E+02 -0.19611199878E+03  0.22267045659E+03  0.95910587408E+02 0.  0.
          5    1    1    2  502    0 -0.37336131212E+02 -0.33198216005E+02 -0.19680196078E+03  0.20308764711E+03  0.41800000000E+01 0. -1.
         -5    1    1    2    0  502  0.30385159266E+02  0.76500171934E+02 -0.32438291102E+03  0.33468982592E+03  0.41800000000E+01 0. -1.
        -11    1    3    3    0    0  0.37830777762E+02  0.16241226993E+00 -0.30215217814E+02  0.48416459096E+02  0.00000000000E+00 0.  1.
         11    1    3    3    0    0 -0.30879805816E+02 -0.43464368200E+02 -0.16589678096E+03  0.17425399750E+03  0.00000000000E+00 0. -1.
</event>
<event>
 7    1  0.6684706E-006  0.1227893E+03  0.7561462E-02  0.1238565E+00
         -2   -1    0    0    0  501 -0.00000000000E+00  0.00000000000E+00  0.56522535933E+02  0.56522535933E+02  0.00000000000E+00 0.  1.
          2   -1    0    0  501    0  0.00000000000E+00 -0.00000000000E+00 -0.41190427263E+03  0.41190427263E+03  0.00000000000E+00 0. -1.
         23    2    1    2    0    0  0.85049809159E+02 -0.59994480534E+02 -0.20147746756E+03  0.24444214812E+03  0.91246841648E+02 0.  0.
          5    1    1    2  502    0 -0.26178846962E+02  0.40137687663E+02 -0.15439290135E+03  0.16171272796E+03  0.41800000000E+01 0.  1.
         -5    1    1    2    0  502 -0.58870962197E+02  0.19856792871E+02  0.48863221007E+00  0.62271932478E+02  0.41800000000E+01 0.  1.
        -11    1    3    3    0    0  0.46997809450E+02  0.16467292218E+02 -0.10070879640E+03  0.11234868703E+03  0.00000000000E+00 0.  1.
         11    1    3    3    0    0  0.38051999709E+02 -0.76461772752E+02 -0.10076867116E+03  0.13209346109E+03  0.00000000000E+00 0. -1.
</event>
<event>
 7    1  0.6684706E-006  0.1670271E+03  0.7561462E-02  0.1180984E+00
         -1   -1    0    0    0  501 -0.00000000000E+00  0.00000000000E+00  0.43860090242E+02  0.43860090242E+02  0.00000000000E+00 0.  1.
          1   -1    0    0  501    0  0.00000000000E+00 -0.00000000000E+00 -0.69230842280E+03  0.69230842280E+03  0.00000000000E+00 0. -1.
         23    2    1    2    0    0 -0.59392279081E+02 -0.11230244227E+03 -0.20370156844E+03  0.25701627619E+03  0.91781021368E+02 0.  0.
          5    1    1    2  502    0 -0.27433265970E+02 -0.82978466000E+01 -0.58335014911E+02  0.65129752837E+02  0.41800000000E+01 0. -1.
         -5    1    1    2    0  502  0.86825545050E+02  0.12060028887E+03 -0.38641174920E+03  0.41402248402E+03  0.41800000000E+01 0. -1.
        -11    1    3    3    0    0 -0.40384651350E+02 -0.12644381199E+03 -0.17827442229E+03  0.22226274384E+03  0.00000000000E+00 0.  1.
         11    1    3    3    0    0 -0.19007627730E+02  0.14141369714E+02 -0.25427146150E+02  0.34753532348E+02  0.00000000000E+00 0. -1.
</event>
<event>
 7    1  0.6684706E-006  0.1943280E+03  0.7561462E-02  0.1154615E+00
         -2   -1    0    0    0  501 -0.00000000000E+00  0.00000000000E+00  0.16061250803E+03  0.16061250803E+03  0.00000000000E+00 0.  1.
          2   -1    0    0  501    0  0.00000000000E+00 -0.00000000000E+00 -0.30950315145E+03  0.30950315145E+03  0.00000000000E+00 0. -1.
         23    2    1    2    0    0  0.80557511345E+02  0.44953040262E+02  0.40200707082E+01  0.12935034883E+03  0.90581804529E+02 0.  0.
          5    1    1    2  502    0 -0.16874299614E+03 -0.20260478873E+02 -0.17757225530E+03  0.24583340701E+03  0.41800000000E+01 0. -1.
         -5    1    1    2    0  502  0.88185484791E+02 -0.24692561389E+02  0.24661541170E+02  0.94931903639E+02  0.41800000000E+01 0.  1.
        -11    1    3    3    0    0  0.50410069007E+02 -0.20884745771E+02  0.13794457656E+02  0.56281744156E+02  0.00000000000E+00 0. -1.
         11    1    3    3    0    0  0.30147442338E+02  0.65837786033E+02 -0.97743869477E+01  0.73068604677E+02  0.00000000000E+00 0.  1.
</event>
<event>
 7    1  0.6684706E-006  0.5962149E+02  0.7561462E-02  0.1399427E+00
         -2   -1    0    0    0  501 -0.00000000000E+00  0.00000000000E+00  0.10601539904E+02  0.10601539904E+02  0.00000000000E+00 0.  1.
          2   -1    0    0  501    0  0.00000000000E+00 -0.00000000000E+00 -0.90492991735E+03  0.90492991735E+03  0.00000000000E+00 0. -1.
         23    2    1    2    0    0  0.19981176435E+02 -0.56752563036E+01 -0.24216548399E+03  0.25115477359E+03  0.63270393668E+02 0.  0.
          5    1    1    2  502    0  0.11522310265E+02 -0.12198680045E+02 -0.77788440174E+01  0.18961915592E+02  0.41800000000E+01 0.  1.
         -5    1    1    2    0  502 -0.31503486700E+02  0.17873936348E+02 -0.64438404944E+03  0.64541476807E+03  0.41800000000E+01 0.  1.
        -11    1    3    3    0    0  0.31493327088E+02 -0.26851065245E+02 -0.12999726910E+03  0.13642616805E+03  0.00000000000E+00 0. -1.
         11    1    3    3    0    0 -0.11512150653E+02  0.21175808942E+02 -0.11216821489E+03  0.11472860554E+03  0.00000000000E+00 0.  1.
</event>
<event>
 7    1  0.6684706E-006  0.1668714E+03  0.7561462E-02  0.1181150E+00
         -1   -1    0    0    0  501 -0.00000000000E+00  0.00000000000E+00  0.62231780227E+02  0.62231780227E+02  0.00000000000E+00 0.  1.
          1   -1    0    0  501    0  0.00000000000E+00 -0.00000000000E+00 -0.55704301472E+03  0.55704301472E+03  0.00000000000E+00 0. -1.
         23    2    1    2    0    0  0.68639176423E+02  0.12897209287E+03 -0.16794272020E+03  0.24001734357E+03  0.89768762214E+02 0.  0.
          5    1    1    2  502    0 -0.10365830944E+02 -0.12724881573E+03 -0.26480145118E+03  0.29400168793E+03  0.41800000000E+01 0. -1.
         -5    1    1    2    0  502 -0.58273345479E+02 -0.17232771362E+01 -0.62067063119E+02  0.85255763451E+02  0.41800000000E+01 0. -1.
        -11    1    3    3    0    0  0.17211229121E+02  0.16314486688E+02  0.78526997145E+01  0.24981068363E+02  0.00000000000E+00 0. -1.
         11    1    3    3    0    0  0.51427947302E+02  0.11265760618E+03 -0.17579541991E+03  0.21503627521E+03  0.00000000000E+00 0.  1.
</event>
<event>
 7    1  0.6684706E-006  0.1032147E+03  0.7561462E-02  0.1273678E+00
          1   -1    0    0  501    0  0.00000000000E+00  0.00000000000E+00  0.12824182979E+03  0.12824182979E+03  0.00000000000E+00 0. -1.
         -1   -1    0    0    0  501 -0.00000000000E+00 -0.00000000000E+00 -0.12481559965E+03  0.12481559965E+03  0.00000000000E+00 0.  1.
         23    2    1    2    0    0 -0.63444053607E+02  0.11032476591E+02  0.11850324722E+01  0.11234389547E+03  0.92048264897E+02 0.  0.
          5    1    1    2  502    0  0.22248224548E+02 -0.66928030800E+02 -0.46822337731E+01  0.70807771574E+02  0.41800000000E+01 0. -1.
         -5    1    1    2    0  502  0.41195829060E+02  0.55895554208E+02  0.69234314479E+01  0.69905762389E+02  0.41800000000E+01 0. -1.
        -11    1    3    3    0    0 -0.37235548626E+02  0.14124004711E+02 -0.44417124611E+02  0.59656135890E+02  0.00000000000E+00 0.  1.
         11    1    3    3    0    0 -0.26208504981E+02 -0.30915281200E+01  0.45602157083E+02  0.52687759585E+02  0.00000000000E+00 0. -1.
</event>
<event>
 7    1  0.6684706E-006  0.1558737E+03  0.7561462E-02  0.1193436E+00
         -1   -1    0    0    0  501 -0.00000000000E+00  0.00000000000E+00  0.23387791895E+02  0.23387791895E+02  0.00000000000E+00 0.  1.
          1   -1    0    0  501    0  0.00000000000E+00 -0.00000000000E+00 -0.10646454897E+04  0.10646454897E+04  0.00000000000E+00 0. -1.
         23    2    1    2    0    0 -0.20660128338E+02 -0.11439692296E+03 -0.46136799323E+03  0.48352252592E+03  0.86140066247E+02 0.  0.
          5    1    1    2  502    0  0.71814448079E+02  0.50699967645E+02 -0.26848182430E+03  0.28253807540E+03  0.41800000000E+01 0.  1.
         -5    1    1    2    0  502 -0.51154319740E+02  0.63696955312E+02 -0.31140788032E+03  0.32197268032E+03  0.41800000000E+01 0.  1.
        -11    1    3    3    0    0 -0.40804235374E+02 -0.20048502394E+02 -0.19476419496E+03  0.20000004928E+03  0.00000000000E+00 0.  1.
         11    1    3    3    0    0  0.20144107036E+02 -0.94348420563E+02 -0.26660379826E+03  0.28352247664E+03  0.00000000000E+00 0. -1.
</event>
<event>
 7    1  0.6684706E-006  0.9731424E+02  0.7561462E-02  0.1286047E+00
          2   -1    0    0  501    0  0.00000000000E+00  0.00000000000E+00  0.14680501660E+03  0.14680501660E+03  0.00000000000E+00 0. -1.
         -2   -1    0    0    0  501 -0.00000000000E+00 -0.00000000000E+00 -0.92987704641E+02  0.92987704641E+02  0.00000000000E+00 0.  1.
         23    2    1    2    0    0 -0.20708852782E+02  0.44596163936E+02  0.31136641702E+02  0.10348497065E+03  0.85568535524E+02 0.  0.
          5    1    1    2  502    0 -0.87968905314E+01 -0.78847987676E+02  0.38428569015E+02  0.88253145893E+02  0.41800000000E+01 0. -1.
         -5    1    1    2    0  502  0.29505743313E+02  0.34251823740E+02 -0.15747898756E+02  0.48054604704E+02  0.41800000000E+01 0. -1.
        -11    1    3    3    0    0  0.16293493888E+02  0.17548312836E+02  0.48805202567E+02  0.54363305860E+02  0.00000000000E+00 0. -1.
         11    1    3    3    0    0 -0.37002346670E+02  0.27047851100E+02 -0.17668560865E+02  0.49121664785E+02  0.00000000000E+00 0.  1.
</event>
<event>
 7    1  0.6684706E-006  0.1017048E+03  0.7561462E-02  0.1276751E+00
          2   -1    0    0  501    0  0.00000000000E+00  0.00000000000E+00  0.32910334070E+03  0.32910334070E+03  0.00000000000E+00 0. -1.
         -2   -1    0    0    0  501 -0.00000000000E+00 -0.00000000000E+00 -0.47526753934E+02  0.47526753934E+02  0.00000000000E+00 0.  1.
         23    2    1    2    0    0 -0.58828520042E+02  0.40182136649E+01  0.10006249984E+03  0.14843810027E+03  0.92436058586E+02 0.  0.
          5    1    1    2  502    0  0.18515807404E+02  0.33931433201E+02  0.53088594417E+00  0.38883563659E+02  0.41800000000E+01 0. -1.
         -5    1    1    2    0  502  0.40312712638E+02 -0.37949646866E+02  0.18098320099E+03  0.18930843071E+03  0.41800000000E+01 0. -1.
        -11    1    3    3    0    0  0.23631536944E+02  0.11361033852E+02  0.17536214289E+02  0.31544277454E+02  0.00000000000E+00 0. -1.
         11    1    3    3    0    0 -0.82460056985E+02 -0.73428201871E+01  0.82526285550E+02  0.11689382282E+03  0.00000000000E+00 0.  1.
</event>
<event>
 7    1  0.6684706E-006  0.1302307E+03  0.7561462E-02  0.1227114E+00
         -3   -1    0    0    0  501 -0.00000000000E+00  0.00000000000E+00  0.11278415982E+04  0.11278415982E+04  0.00000000000E+00 0.  1.
          3   -1    0    0  501    0  0.00000000000E+00 -0.00000000000E+00 -0.18026468363E+02  0.18026468363E+02  0.00000000000E+00 0. -1.
         23    2    1    2    0    0  0.47971065642E+02  0.78256752951E+02  0.56326238448E+03  0.57772087177E+03  0.89841802005E+02 0.  0.
          5    1    1    2  502    0 -0.65029232205E+02 -0.15435483570E+02  0.42456950723E+03  0.42981832681E+03  0.41800000000E+01 0.  1.
         -5    1    1    2    0  502  0.17058166562E+02 -0.62821269382E+02  0.12198323814E+03  0.13832886800E+03  0.41800000000E+01 0.  1.
        -11    1    3    3    0    0  0.18037587803E+02  0.93115248000E+02  0.42940212943E+03  0.43975219469E+03  0.00000000000E+00 0.  1.
         11    1    3    3    0    0  0.29933477839E+02 -0.14858495049E+02  0.13386025506E+03  0.13796867708E+03  0.00000000000E+00 0. -1.
</event>
<event>
 7    1  0.6684706E-006  0.1079912E+03  0.7561462E-02  0.1264336E+00
          1   -1    0    0  501    0  0.00000000000E+00  0.00000000000E+00  0.34163111660E+03  0.34163111660E+03  0.00000000000E+00 0. -1.
         -1   -1    0    0    0  501 -0.00000000000E+00 -0.00000000000E+00 -0.50146785685E+02  0.50146785685E+02  0.00000000000E+00 0.  1.
         23    2    1    2    0    0 -0.33423321529E+02  0.33196705492E+02  0.46651083778E+02  0.11286320177E+03  0.91338048028E+02 0.  0.
          5    1    1    2  502    0 -0.35743796727E+02 -0.48800847457E+02  0.13664286307E+03  0.14949209392E+03  0.41800000000E+01 0. -1.
         -5    1    1    2    0  502  0.69167118256E+02  0.15604141965E+02  0.10819038407E+03  0.12942260660E+03  0.41800000000E+01 0. -1.
        -11    1    3    3    0    0  0.16413493542E+02  0.30224156590E+02  0.52325083947E+02  0.62616426135E+02  0.00000000000E+00 0. -1.
         11    1    3    3    0    0 -0.49836815071E+02  0.29725489018E+01 -0.56740001688E+01  0.50246775631E+02  0.00000000000E+00 0.  1.
</event>
<event>
 7    1  0.6684706E-006  0.1092139E+03  0.7561462E-02  0.1262033E+00
          2   -1    0    0  501    0  0.00000000000E+00  0.00000000000E+00  0.60152153855E+03  0.60152153855E+03  0.00000000000E+00 0. -1.
         -2   -1    0    0    0  501 -0.00000000000E+00 -0.00000000000E+00 -0.40552428003E+02  0.40552428003E+02  0.00000000000E+00 0.  1.
         23    2    1    2    0    0  0.12337952338E+02 -0.57059275927E+02  0.64050439233E+02  0.12634081698E+03  0.91932351393E+02 0.  0.
          5    1    1    2  502    0 -0.21897915053E+02 -0.21839586063E+02  0.32260177010E+03  0.32410779175E+03  0.41800000000E+01 0. -1.
         -5    1    1    2    0  502  0.95599627144E+01  0.78898861989E+02  0.17431690121E+03  0.19162535782E+03  0.41800000000E+01 0. -1.
        -11    1    3    3    0    0 -0.38118969546E+02 -0.37634331730E+02  0.41491011691E+02  0.67756201304E+02  0.00000000000E+00 0. -1.
         11    1    3    3    0    0  0.50456921885E+02 -0.19424944196E+02  0.22559427542E+02  0.58584615678E+02  0.00000000000E+00 0.  1.
</event>
<event>
 7    1  0.6684706E-006  0.1036307E+03  0.7561462E-02  0.1272841E+00
          2   -1    0    0  501    0  0.00000000000E+00  0.00000000000E+00  0.30898073532E+03  0.30898073532E+03  0.00000000000E+00 0. -1.
         -2   -1    0    0    0  501 -0.00000000000E+00 -0.00000000000E+00 -0.66365168128E+02  0.66365168128E+02  0.00000000000E+00 0.  1.
         23    2    1    2    0    0 -0.55690439275E+02  0.43762990293E+02  0.30838750568E+02  0.11939424869E+03  0.91034794100E+02 0.  0.
          5    1    1    2  502    0 -0.19975120642E+02 -0.14035455732E+02  0.15436497619E+03  0.15633943116E+03  0.41800000000E+01 0. -1.
         -5    1    1    2    0  502  0.75665559917E+02 -0.29727534561E+02  0.57411840440E+02  0.99612223604E+02  0.41800000000E+01 0. -1.
        -11    1    3    3    0    0 -0.54636163659E+02 -0.26161540455E+01 -0.12278513947E+02  0.56059937086E+02  0.00000000000E+00 0.  1.
         11    1    3    3    0    0 -0.10542756167E+01  0.46379144338E+02  0.43117264515E+02  0.63334311601E+02  0.00000000000E+00 0. -1.
</event>
<event>
 7    1  0.6684706E-006  0.1323402E+03  0.7561462E-02  0.1224024E+00
          2   -1    0    0  501    0  0.00000000000E+00  0.00000000000E+00  0.33721582767E+03  0.33721582767E+03  0.00000000000E+00 0. -1.
         -2   -1    0    0    0  501 -0.00000000000E+00 -0.00000000000E+00 -0.97396316605E+02  0.97396316605E+02  0.00000000000E+00 0.  1.
         23    2    1    2    0    0 -0.66303722284E+02  0.46786565333E+02 -0.30609894430E+02  0.12580235065E+03  0.91126831991E+02 0.  0.
          5    1    1    2  502    0 -0.30424780901E+02 -0.33084250534E+02  0.48301691212E+02  0.66111728915E+02  0.41800000000E+01 0. -1.
         -5    1    1    2    0  502  0.96728503184E+02 -0.13702314799E+02  0.22212771428E+03  0.24269806470E+03  0.41800000000E+01 0. -1.
        -11    1    3    3    0    0 -0.71843403375E+02  0.68548815971E+02 -0.28144984921E+02  0.10321121526E+03  0.00000000000E+00 0. -1.
         11    1    3    3    0    0  0.55396810909E+01 -0.21762250638E+02 -0.24649095087E+01  0.22591135393E+02  0.00000000000E+00 0.  1.
</event>
<event>
 7    1  0.6684706E-006  0.1304737E+03  0.7561462E-02  0.1226754E+00
          2   -1    0    0  501    0  0.00000000000E+00  0.00000000000E+00  0.11899382962E+04  0.11899382962E+04  0.00000000000E+00 0. -1.
         -2   -1    0    0    0  501 -0.00000000000E+00 -0.00000000000E+00 -0.22908800410E+02  0.22908800410E+02  0.00000000000E+00 0.  1.
         23    2    1    2    0    0 -0.67538889626E+02 -0.28511403593E+02  0.17607524355E+03  0.21134194599E+03  0.91041336758E+02 0.  0.
          5    1    1    2  502    0  0.81103109220E+02  0.65852575038E+02  0.67877895113E+03  0.68678425496E+03  0.41800000000E+01 0.  1.
         -5    1    1    2    0  502 -0.13564219595E+02 -0.37341171445E+02  0.31217530114E+03  0.31472089568E+03  0.41800000000E+01 0.  1.
        -11    1    3    3    0    0 -0.31089264168E+01 -0.48797651291E+02  0.83124612051E+02  0.96439500847E+02  0.00000000000E+00 0.  1.
         11    1    3    3    0    0 -0.64429963209E+02  0.20286247698E+02  0.92950631494E+02  0.11490244514E+03  0.00000000000E+00 0. -1.
</event>
<event>
 7    1  0.6684706E-006  0.9587292E+02  0.7561462E-02  0.1289222E+00
         -2   -1    0    0    0  501 -0.00000000000E+00  0.00000000000E+00  0.26695080040E+02  0.26695080040E+02  0.00000000000E+00 0.  1.
          2   -1    0    0  501    0  0.00000000000E+00 -0.00000000000E+00 -0.78060400606E+03  0.78060400606E+03  0.00000000000E+00 0. -1.
         23    2    1    2    0    0  0.15860915185E+02  0.18537455629E+01 -0.80868791914E+02  0.12254713502E+03  0.90680945033E+02 0.  0.
          5    1    1    2  502    0 -0.37459731461E+02  0.38936137035E+02 -0.55949154958E+03  0.56210988312E+03  0.41800000000E+01 0. -1.
         -5    1    1    2    0  502  0.21598816276E+02 -0.40789882598E+02 -0.11354858453E+03  0.12264206797E+03  0.41800000000E+01 0. -1.
        -11    1    3    3    0    0  0.19511829065E+02 -0.42469160305E+02 -0.33036265071E+02  0.57234044591E+02  0.00000000000E+00 0.  1.
         11    1    3    3    0    0 -0.36509138793E+01  0.44322905868E+02 -0.47832526843E+02  0.65313090425E+02  0.00000000000E+00 0. -1.
</event>
<event>
 7    1  0.6684706E-006  0.6284677E+02  0.7561462E-02  0.1386259E+00
          4   -1    0    0  501    0  0.00000000000E+00  0.00000000000E+00  0.88701307572E+02  0.88701307572E+02  0.00000000000E+00 0. -1.
         -4   -1    0    0    0  501 -0.00000000000E+00 -0.00000000000E+00 -0.16022859164E+03  0.16022859164E+03  0.00000000000E+00 0.  1.
         23    2    1    2    0    0 -0.32684724909E+02 -0.27522227824E+02 -0.58179411809E+02  0.11606528941E+03  0.90887530391E+02 0.  0.
          5    1    1    2  502    0  0.34303242746E+01  0.15647326819E+02 -0.67794896022E+02  0.69787006584E+02  0.41800000000E+01 0. -1.
         -5    1    1    2    0  502  0.29254400634E+02  0.11874901006E+02  0.54447023766E+02  0.63077603215E+02  0.41800000000E+01 0. -1.
        -11    1    3    3    0    0 -0.16495887874E+02 -0.48248607246E+02 -0.70512562670E+02  0.87017606909E+02  0.00000000000E+00 0.  1.
         11    1    3    3    0    0 -0.16188837035E+02  0.20726379422E+02  0.12333150861E+02  0.29047682501E+02  0.00000000000E+00 0. -1.
</event>
<event>
 7    1  0.6684706E-006  0.8549832E+02  0.7561462E-02  0.1314135E+00
         -4   -1    0    0    0  501 -0.00000000000E+00  0.00000000000E+00  0.29805106152E+03  0.29805106152E+03  0.00000000000E+00 0. -1.
          4   -1    0    0  501    0  0.00000000000E+00 -0.00000000000E+00 -0.69971849738E+02  0.69971849738E+02  0.00000000000E+00 0.  1.
         23    2    1    2    0    0 -0.35660956881E+02  0.14267043406E+02  0.20235313399E+03  0.23466602008E+03  0.11245486993E+03 0.  0.
          5    1    1    2  502    0 -0.38268682868E+01 -0.35730493279E+02 -0.39802329785E+02  0.53786717015E+02  0.41800000000E+01 0. -1.
         -5    1    1    2    0  502  0.39487825168E+02  0.21463449873E+02  0.65528407577E+02  0.79570174164E+02  0.41800000000E+01 0. -1.
        -11    1    3    3    0    0 -0.28918373885E+01 -0.32471434531E+02  0.10116345590E+02  0.34133520651E+02  0.00000000000E+00 0.  1.
         11    1    3    3    0    0 -0.32769119493E+02  0.46738477937E+02  0.19223678840E+03  0.20053249943E+03  0.00000000000E+00 0. -1.
</event>
<event>
 7    1  0.6684706E-006  0.1092411E+03  0.7561462E-02  0.1261982E+00
         -1   -1    0    0    0  501 -0.00000000000E+00  0.00000000000E+00  0.37755873201E+02  0.37755873201E+02  0.00000000000E+00 0.  1.
          1   -1    0    0  501    0  0.00000000000E+00 -0.00000000000E+00 -0.45267179765E+03  0.45267179765E+03  0.00000000000E+00 0. -1.
         23    2    1    2    0    0 -0.46142429896E+02  0.39083312286E+02 -0.10663221304E+03  0.15228195360E+03  0.90347857749E+02 0.  0.
          5    1    1    2  502    0  0.95508880592E+00 -0.75440343874E+02 -0.21831339999E+03  0.23102028200E+03  0.41800000000E+01 0.  1.
         -5    1    1    2    0  502  0.45187341090E+02  0.36357031588E+02 -0.89970311415E+02  0.10712543525E+03  0.41800000000E+01 0.  1.
        -11    1    3    3    0    0 -0.21458476870E+01  0.40689573500E+02 -0.44124473143E+01  0.40984335363E+02  0.00000000000E+00 0.  1.
         11    1    3    3    0    0 -0.43996582209E+02 -0.16062612139E+01 -0.10221976572E+03  0.11129761824E+03  0.00000000000E+00 0. -1.
</event>
<event>
 7    1  0.6684706E-006  0.1255650E+03  0.7561462E-02  0.1234189E+00
          1   -1    0    0  501    0  0.00000000000E+00  0.00000000000E+00  0.46243177970E+02  0.46243177970E+02  0.00000000000E+00 0. -1.
         -1   -1    0    0    0  501 -0.00000000000E+00 -0.00000000000E+00 -0.53728787986E+03  0.53728787986E+03  0.00000000000E+00 0.  1.
         23    2    1    2    0    0 -0.74404949099E+02 -0.41785578147E+02 -0.37133202587E+03  0.39049855444E+03  0.85554173428E+02 0.  0.
          5    1    1    2  502    0  0.82461999016E+02  0.78260363351E+02 -0.92615403060E+02  0.14669611800E+03  0.41800000000E+01 0. -1.
         -5    1    1    2    0  502 -0.80570499168E+01 -0.36474785204E+02 -0.27097272963E+02  0.46336385391E+02  0.41800000000E+01 0. -1.
        -11    1    3    3    0    0 -0.14874543109E+02 -0.37210372158E+02 -0.52087771567E+02  0.65719097496E+02  0.00000000000E+00 0. -1.
         11    1    3    3    0    0 -0.59530405990E+02 -0.45752059889E+01 -0.31924425430E+03  0.32477945694E+03  0.00000000000E+00 0.  1.
</event>
<event>
 7    1  0.6684706E-006  0.7668064E+02  0.7561462E-02  0.1338744E+00
          1   -1    0    0  501    0  0.00000000000E+00  0.00000000000E+00  0.22419437770E+03  0.22419437770E+03  0.00000000000E+00 0. -1.
         -1   -1    0    0    0  501 -0.00000000000E+00 -0.00000000000E+00 -0.54705873427E+02  0.54705873427E+02  0.00000000000E+00 0.  1.
         23    2    1    2    0    0 -0.13252255466E+02 -0.68959955571E+01  0.53880052557E+02  0.10791042930E+03  0.92295306805E+02 0.  0.
          5    1    1    2  502    0  0.62109574629E+02  0.47904149145E+01  0.23669437605E+02  0.66770218003E+02  0.41800000000E+01 0. -1.
         -5    1    1    2    0  502 -0.48857319163E+02  0.21055806426E+01  0.91939014113E+02  0.10421960383E+03  0.41800000000E+01 0. -1.
        -11    1    3    3    0    0 -0.58016254627E+00 -0.22069464303E+02 -0.20997038318E+02  0.30467580497E+02  0.00000000000E+00 0.  1.
         11    1    3    3    0    0 -0.12672092920E+02  0.15173468746E+02  0.74877090874E+02  0.77442848802E+02  0.00000000000E+00 0. -1.
</event>
<event>
 7    1  0.6684706E-006  0.1389262E+03  0.7561462E-02  0.1214781E+00
         -2   -1    0    0    0  501 -0.00000000000E+00  0.00000000000E+00  0.95470437874E+03  0.95470437874E+03  0.00000000000E+00 0. -1.
          2   -1    0    0  501    0  0.00000000000E+00 -0.00000000000E+00 -0.21567663405E+02  0.21567663405E+02  0.00000000000E+00 0.  1.
         23    2    1    2    0    0  0.99079891964E+01 -0.86550830442E+02  0.54490190299E+03  0.55918323433E+03  0.90435563672E+02 0.  0.
          5    1    1    2  502    0  0.49730982148E+02  0.35300163981E+01  0.13461848155E+03  0.14361490025E+03  0.41800000000E+01 0. -1.
         -5    1    1    2    0  502 -0.59638971345E+02  0.83020814044E+02  0.25361633080E+03  0.27347390756E+03  0.41800000000E+01 0. -1.
        -11    1    3    3    0    0  0.50369714499E+02 -0.45568070303E+02  0.28656561070E+03  0.29450535888E+03  0.00000000000E+00 0.  1.
         11    1    3    3    0    0 -0.40461725303E+02 -0.40982760138E+02  0.25833629229E+03  0.26467787546E+03  0.00000000000E+00 0. -1.
</event>
<event>
 7    1  0.6684706E-006  0.1182108E+03  0.7561462E-02  0.1246078E+00
          2   -1    0    0  501    0  0.00000000000E+00  0.00000000000E+00  0.15400980058E+03  0.15400980058E+03  0.00000000000E+00 0. -1.
         -2   -1    0    0    0  501 -0.00000000000E+00 -0.00000000000E+00 -0.17712136305E+03  0.17712136305E+03  0.00000000000E+00 0.  1.
         23    2    1    2    0    0  0.67281536839E+02  0.57262932508E+02 -0.99800493488E+02  0.15985839780E+03  0.88253726316E+02 0.  0.
          5    1    1    2  502    0 -0.10042696188E+02  0.31762665079E+02  0.52993206902E+02  0.62733364467E+02  0.41800000000E+01 0. -1.
         -5    1    1    2    0  502 -0.57238840651E+02 -0.89025597587E+02  0.23695724119E+02  0.10853940135E+03  0.41800000000E+01 0. -1.
        -11    1    3    3    0    0  0.48727107756E+02  0.15345604348E+02 -0.11745068191E+01  0.51099883262E+02  0.00000000000E+00 0. -1.
         11    1    3    3    0    0  0.18554429083E+02  0.41917328160E+02 -0.98625986669E+02  0.10875851454E+03  0.00000000000E+00 0.  1.
</event>
<event>
 7    1  0.6684706E-006  0.1049636E+03  0.7561462E-02  0.1270191E+00
         -2   -1    0    0    0  501 -0.00000000000E+00  0.00000000000E+00  0.10604349346E+02  0.10604349346E+02  0.00000000000E+00 0.  1.
          2   -1    0    0  501    0  0.00000000000E+00 -0.00000000000E+00 -0.19466124933E+04  0.19466124933E+04  0.00000000000E+00 0. -1.
         23    2    1    2    0    0  0.11684930733E+02  0.56510242117E+02 -0.38100783276E+03  0.39612639604E+03  0.91756242005E+02 0.  0.
          5    1    1    2  502    0 -0.35528461207E+02 -0.66434658488E+02 -0.49058491587E+03  0.49635357104E+03  0.41800000000E+01 0. -1.
         -5    1    1    2    0  502  0.23843530473E+02  0.99244163713E+01 -0.10644153954E+04  0.10647368756E+04  0.41800000000E+01 0. -1.
        -11    1    3    3    0    0  0.10772368364E+02  0.82050241238E+02 -0.28437751436E+03  0.29617369343E+03  0.00000000000E+00 0.  1.
         11    1    3    3    0    0  0.91256236909E+00 -0.25539999121E+02 -0.96630318400E+02  0.99952702611E+02  0.00000000000E+00 0. -1.
</event>
<event>
 7    1  0.6684706E-006  0.1079455E+03  0.7561462E-02  0.1264422E+00
         -2   -1    0    0    0  501 -0.00000000000E+00  0.00000000000E+00  0.50996370913E+03  0.50996370913E+03  0.00000000000E+00 0.  1.
          2   -1    0    0  501    0  0.00000000000E+00 -0.00000000000E+00 -0.33559547671E+02  0.33559547671E+02  0.00000000000E+00 0. -1.
         23    2    1    2    0    0 -0.47853487216E+02  0.39027635548E+02  0.28740570719E+03  0.30861563251E+03  0.93959861268E+02 0.  0.
          5    1    1    2  502    0  0.74966686712E+02 -0.10785535628E+02  0.17881606176E+03  0.19423951256E+03  0.41800000000E+01 0. -1.
         -5    1    1    2    0  502 -0.27113199496E+02 -0.28242099919E+02  0.10182392511E+02  0.40668111734E+02  0.41800000000E+01 0. -1.
        -11    1    3    3    0    0  0.22467627663E+02  0.97517255797E+01  0.23523153083E+02  0.33959228136E+02  0.00000000000E+00 0. -1.
         11    1    3    3    0    0 -0.70321114879E+02  0.29275909968E+02  0.26388255411E+03  0.27465640438E+03  0.00000000000E+00 0.  1.
</event>
<event>
 7    1  0.6684706E-006  0.1061581E+03  0.7561462E-02  0.1267855E+00
         -2   -1    0    0    0  501 -0.00000000000E+00  0.00000000000E+00  0.15846234212E+03  0.15846234212E+03  0.00000000000E+00 0.  1.
          2   -1    0    0  501    0  0.00000000000E+00 -0.00000000000E+00 -0.13664615738E+03  0.13664615738E+03  0.00000000000E+00 0. -1.
         23    2    1    2    0    0  0.20092239294E+02 -0.66304159554E+02  0.83535410613E+02  0.13920810519E+03  0.87182521582E+02 0.  0.
          5    1    1    2  502    0 -0.72950825390E+02  0.45131510014E+02 -0.40928286744E+02  0.95138179386E+02  0.41800000000E+01 0.  1.
         -5    1    1    2    0  502  0.52858586096E+02  0.21172649541E+02 -0.20790939131E+02  0.60762214925E+02  0.41800000000E+01 0.  1.
        -11    1    3    3    0    0  0.16631662586E+02 -0.50868630367E+02 -0.67707930749E+00  0.53522781992E+02  0.00000000000E+00 0. -1.
         11    1    3    3    0    0  0.34605767087E+01 -0.15435529188E+02  0.84212489921E+02  0.85685323196E+02  0.00000000000E+00 0.  1.
</event>
<event>
 7    1  0.6684706E-006  0.1429057E+03  0.7561462E-02  0.1209472E+00
          1   -1    0    0  501    0  0.00000000000E+00  0.00000000000E+00  0.43502305503E+03  0.43502305503E+03  0.00000000000E+00 0. -1.
         -1   -1    0    0    0  501 -0.00000000000E+00 -0.00000000000E+00 -0.82655767621E+02  0.82655767621E+02  0.00000000000E+00 0.  1.
         23    2    1    2    0    0 -0.10962852625E+03 -0.83554561087E+02  0.68438739499E+02  0.17817429795E+03  0.89791096102E+02 0.  0.
          5    1    1    2  502    0  0.89856197007E+02  0.53504053239E+02  0.28465154322E+03  0.30328335482E+03  0.41800000000E+01 0.  1.
         -5    1    1    2    0  502  0.19772329243E+02  0.30050507848E+02 -0.72299530710E+00  0.36221169885E+02  0.41800000000E+01 0.  1.
        -11    1    3    3    0    0 -0.40235051660E+02 -0.58820214146E+02 -0.83605321042E+01  0.71753574624E+02  0.00000000000E+00 0.  1.
         11    1    3    3    0    0 -0.69393474590E+02 -0.24734346941E+02  0.76799271603E+02  0.10642072333E+03  0.00000000000E+00 0. -1.
</event>
<event>
 7    1  0.6684706E-006  0.8113311E+02  0.7561462E-02  0.1325866E+00
         -3   -1    0    0    0  501 -0.00000000000E+00  0.00000000000E+00  0.18936201031E+03  0.18936201031E+03  0.00000000000E+00 0.  1.
          3   -1    0    0  501    0  0.00000000000E+00 -0.00000000000E+00 -0.24527490404E+03  0.24527490404E+03  0.00000000000E+00 0. -1.
         23    2    1    2    0    0  0.82605320009E+01 -0.21869939540E+02  0.16086486606E+03  0.18676650172E+03  0.91965702227E+02 0.  0.
          5    1    1    2  502    0  0.35171269919E+02 -0.16606702313E+02 -0.16633241443E+03  0.17087055123E+03  0.41800000000E+01 0. -1.
         -5    1    1    2    0  502 -0.43431801920E+02  0.38476641853E+02 -0.50445345367E+02  0.76999861399E+02  0.41800000000E+01 0.  1.
        -11    1    3    3    0    0  0.69364880385E+01  0.20983027887E+02  0.19680810998E+01  0.22187286198E+02  0.00000000000E+00 0. -1.
         11    1    3    3    0    0  0.13240439624E+01 -0.42852967426E+02  0.15889678496E+03  0.16457921552E+03  0.00000000000E+00 0.  1.
</event>
<event>
 7    1  0.6684706E-006  0.1235075E+03  0.7561462E-02  0.1237420E+00
         -1   -1    0    0    0  501 -0.00000000000E+00  0.00000000000E+00  0.23320271702E+02  0.23320271702E+02  0.00000000000E+00 0.  1.
          1   -1    0    0  501    0  0.00000000000E+00 -0.00000000000E+00 -0.17103362132E+04  0.17103362132E+04  0.00000000000E+00 0. -1.
         23    2    1    2    0    0 -0.43388133603E+02  0.47944770330E+02 -0.13717318107E+03  0.17745684091E+03  0.92158654729E+02 0.  0.
          5    1    1    2  502    0  0.84525583094E+02 -0.24212766270E+02 -0.11832692751E+04  0.11865388666E+04  0.41800000000E+01 0. -1.
         -5    1    1    2    0  502 -0.41137449491E+02 -0.23732004060E+02 -0.36657348529E+03  0.36966077731E+03  0.41800000000E+01 0.  1.
        -11    1    3    3    0    0 -0.71622331425E+02  0.39760024966E+02 -0.11196019581E+03  0.13872888449E+03  0.00000000000E+00 0.  1.
         11    1    3    3    0    0  0.28234197821E+02  0.81847453637E+01 -0.25212985256E+02  0.38727956424E+02  0.00000000000E+00 0. -1.
</event>
<event>
 7    1  0.6684706E-006  0.1943978E+03  0.7561462E-02  0.1154554E+00
         -2   -1    0    0    0  501 -0.00000000000E+00  0.00000000000E+00  0.28123936611E+02  0.28123936611E+02  0.00000000000E+00 0.  1.
          2   -1    0    0  501    0  0.00000000000E+00 -0.00000000000E+00 -0.14296169038E+04  0.14296169038E+04  0.00000000000E+00 0. -1.
         23    2    1    2    0    0  0.15870203135E+03  0.51420513701E+02 -0.59601152739E+03  0.62571025540E+03  0.91941171177E+02 0.  0.
          5    1    1    2  502    0 -0.80903252398E+02  0.33233092886E+02 -0.25379671702E+03  0.26847722562E+03  0.41800000000E+01 0. -1.
         -5    1    1    2    0  502 -0.77798778949E+02 -0.84653606588E+02 -0.55168472280E+03  0.56355335940E+03  0.41800000000E+01 0. -1.
        -11    1    3    3    0    0  0.73594706424E+02 -0.18673946530E+02 -0.31052084077E+03  0.31966871859E+03  0.00000000000E+00 0. -1.
         11    1    3    3    0    0  0.85107324923E+02  0.70094460231E+02 -0.28549068661E+03  0.30604153681E+03  0.00000000000E+00 0.  1.
</event>
<event>
 7    1  0.6684706E-006  0.1395357E+03  0.7561462E-02  0.1213955E+00
          2   -1    0    0  501    0  0.00000000000E+00  0.00000000000E+00  0.93200495253E+03  0.93200495253E+03  0.00000000000E+00 0.  1.
         -2   -1    0    0    0  501 -0.00000000000E+00 -0.00000000000E+00 -0.23814683311E+02  0.23814683311E+02  0.00000000000E+00 0. -1.
         23    2    1    2    0    0 -0.88602634814E+02 -0.41777567980E+02  0.32559686579E+03  0.35195054934E+03  0.90884971735E+02 0.  0.
          5    1    1    2  502    0  0.11164817273E+03  0.28358251257E+01  0.37187423705E+03  0.38830564889E+03  0.41800000000E+01 0. -1.
         -5    1    1    2    0  502 -0.23045537919E+02  0.38941742854E+02  0.21071916638E+03  0.21556343761E+03  0.41800000000E+01 0. -1.
        -11    1    3    3    0    0 -0.74751340248E+02 -0.62162368307E+02  0.30404684027E+03  0.31921216140E+03  0.00000000000E+00 0. -1.
         11    1    3    3    0    0 -0.13851294566E+02  0.20384800326E+02  0.21550025513E+02  0.32738387943E+02  0.00000000000E+00 0.  1.
</event>
<event>
 6    1  0.6684706E-006  0.4116870E+02  0.7561462E-02  0.1499783E+00
         -2   -1    0    0    0  501 -0.00000000000E+00  0.00000000000E+00  0.21722840768E+03  0.21722840768E+03  0.00000000000E+00 0.  1.
          2   -1    0    0  501    0  0.00000000000E+00 -0.00000000000E+00 -0.33744888812E+02  0.33744888812E+02  0.00000000000E+00 0. -1.
          5    1    1    2  502    0  0.11291583140E+02 -0.14652411294E+01 -0.25343943351E+02  0.28096879648E+02  0.41800000000E+01 0. -1.
         -5    1    1    2    0  502  0.53381679468E+01  0.32158770276E+02  0.14670152825E+03  0.15033793045E+03  0.41800000000E+01 0.  1.
        -11    1    1    2    0    0 -0.16470611089E+02 -0.17079373095E+02  0.42023597506E+02  0.48259390406E+02  0.00000000000E+00 0.  1.
         11    1    1    2    0    0 -0.15913999764E+00 -0.13614156052E+02  0.20102336463E+02  0.24279095984E+02  0.00000000000E+00 0. -1.
</event>
<event>
 7    1  0.6684706E-006  0.1139459E+03  0.7561462E-02  0.1253432E+00
         -1   -1    0    0    0  501 -0.00000000000E+00  0.00000000000E+00  0.20337360637E+02  0.20337360637E+02  0.00000000000E+00 0.  1.
          1   -1    0    0  501    0  0.00000000000E+00 -0.00000000000E+00 -0.11692740147E+04  0.11692740147E+04  0.00000000000E+00 0. -1.
         23    2    1    2    0    0  0.60436576356E+02 -0.78793589547E+02 -0.46563794614E+03  0.48789526808E+03  0.10659308711E+03 0.  0.
          5    1    1    2  502    0  0.16643585155E+02  0.21002127304E+01 -0.10612962618E+02  0.20286133093E+02  0.41800000000E+01 0.  1.
         -5    1    1    2    0  502 -0.77080161511E+02  0.76693376817E+02 -0.67268574531E+03  0.68142997416E+03  0.41800000000E+01 0.  1.
        -11    1    3    3    0    0  0.47192250063E+02 -0.73871357497E+02 -0.46558554482E+03  0.47376574958E+03  0.00000000000E+00 0. -1.
         11    1    3    3    0    0  0.13244326294E+02 -0.49222320501E+01 -0.52401315433E-01  0.14129518507E+02  0.00000000000E+00 0.  1.
</event>
<event>
 7    1  0.6684706E-006  0.3594135E+02  0.7561462E-02  0.1540397E+00
          1   -1    0    0  501    0  0.00000000000E+00  0.00000000000E+00  0.16561226554E+03  0.16561226554E+03  0.00000000000E+00 0. -1.
         -1   -1    0    0    0  501 -0.00000000000E+00 -0.00000000000E+00 -0.78310113251E+02  0.78310113251E+02  0.00000000000E+00 0.  1.
         23    2    1    2    0    0 -0.17649781405E+01 -0.19991505055E+01  0.53527536953E+00  0.91665647743E+02  0.91625284206E+02 0.  0.
          5    1    1    2  502    0  0.36309216124E+00 -0.24024648692E+02  0.11266744416E+03  0.11527680146E+03  0.41800000000E+01 0.  1.
         -5    1    1    2    0  502  0.14018859793E+01  0.26023799197E+02 -0.25900567242E+02  0.36979929589E+02  0.41800000000E+01 0.  1.
        -11    1    3    3    0    0  0.38791168729E+01 -0.10331543809E+02 -0.44331260596E+02  0.45684231538E+02  0.00000000000E+00 0.  1.
         11    1    3    3    0    0 -0.56440950134E+01  0.83323933039E+01  0.44866535966E+02  0.45981416205E+02  0.00000000000E+00 0. -1.
</event>
<event>
 7    1  0.6684706E-006  0.1052366E+03  0.7561462E-02  0.1269654E+00
          1   -1    0    0  501    0  0.00000000000E+00  0.00000000000E+00  0.10186003161E+03  0.10186003161E+03  0.00000000000E+00 0. -1.
         -1   -1    0    0    0  501 -0.00000000000E+00 -0.00000000000E+00 -0.23170216541E+03  0.23170216541E+03  0.00000000000E+00 0.  1.
         23    2    1    2    0    0  0.49376779281E+02  0.42595892418E+02 -0.15236767707E+03  0.19070855697E+03  0.94347063040E+02 0.  0.
          5    1    1    2  502    0 -0.67377226121E+02 -0.74537987190E+02  0.19071792339E+01  0.10058186649E+03  0.41800000000E+01 0. -1.
         -5    1    1    2    0  502  0.18000446841E+02  0.31942094772E+02  0.20618364033E+02  0.42271773564E+02  0.41800000000E+01 0. -1.
        -11    1    3    3    0    0  0.41626130242E+02  0.14844657868E+02 -0.98117933020E+01  0.45269966578E+02  0.00000000000E+00 0. -1.
         11    1    3    3    0    0  0.77506490382E+01  0.27751234550E+02 -0.14255588377E+03  0.14543859039E+03  0.00000000000E+00 0.  1.
</event>
<event>
 7    1  0.6684706E-006  0.1461209E+03  0.7561462E-02  0.1205322E+00
          2   -1    0    0  501    0  0.00000000000E+00  0.00000000000E+00  0.84311172974E+03  0.84311172974E+03  0.00000000000E+00 0. -1.
         -2   -1    0    0    0  501 -0.00000000000E+00 -0.00000000000E+00 -0.27672345557E+02  0.27672345557E+02  0.00000000000E+00 0.  1.
         23    2    1    2    0    0 -0.35776658825E+01  0.11442762957E+03  0.34753191073E+03  0.37309861352E+03  0.72922317088E+02 0.  0.
          5    1    1    2  502    0 -0.42827791435E+02 -0.10183892237E+02  0.22467634226E+03  0.22898659907E+03  0.41800000000E+01 0. -1.
         -5    1    1    2    0  502  0.46405457318E+02 -0.10424373734E+03  0.24323113119E+03  0.26869886271E+03  0.41800000000E+01 0. -1.
        -11    1    3    3    0    0 -0.35952587876E+02  0.71929830584E+02  0.17738103503E+03  0.19475759469E+03  0.00000000000E+00 0.  1.
         11    1    3    3    0    0  0.32374921994E+02  0.42497798990E+02  0.17015087571E+03  0.17834101883E+03  0.00000000000E+00 0. -1.
</event>
<event>
 7    1  0.6684706E-006  0.1262720E+03  0.7561462E-02  0.1233095E+00
          2   -1    0    0  501    0  0.00000000000E+00  0.00000000000E+00  0.86914830723E+02  0.86914830723E+02  0.00000000000E+00 0. -1.
         -2   -1    0    0    0  501 -0.00000000000E+00 -0.00000000000E+00 -0.29442635984E+03  0.29442635984E+03  0.00000000000E+00 0.  1.
         23    2    1    2    0    0  0.88523775338E+02  0.26158972926E+02 -0.18526507407E+03  0.22429706605E+03  0.86401825820E+02 0.  0.
          5    1    1    2  502    0 -0.56909997197E+02 -0.73500914529E+02  0.62200721359E+01  0.93259283264E+02  0.41800000000E+01 0.  1.
         -5    1    1    2    0  502 -0.31613778142E+02  0.47341941604E+02 -0.28466527186E+02  0.63784841249E+02  0.41800000000E+01 0.  1.
        -11    1    3    3    0    0  0.88404433828E+02  0.13120189756E+02 -0.19036132591E+03  0.21029721278E+03  0.00000000000E+00 0.  1.
         11    1    3    3    0    0  0.11934151049E+00  0.13038783170E+02  0.50962518395E+01  0.13999853276E+02  0.00000000000E+00 0. -1.
</event>
<event>
 7    1  0.6684706E-006  0.1656453E+03  0.7561462E-02  0.1182467E+00
          1   -1    0    0  501    0  0.00000000000E+00  0.00000000000E+00  0.34616944673E+03  0.34616944673E+03  0.00000000000E+00 0. -1.
         -1   -1    0    0    0  501 -0.00000000000E+00 -0.00000000000E+00 -0.94108027126E+02  0.94108027126E+02  0.00000000000E+00 0.  1.
         23    2    1    2    0    0 -0.13603276852E+03  0.37569776816E+02  0.13114978098E+03  0.21625817115E+03  0.98239143393E+02 0.  0.
          5    1    1    2  502    0  0.14736070026E+03 -0.14097685438E+01  0.11124769459E+03  0.18469078316E+03  0.41800000000E+01 0.  1.
         -5    1    1    2    0  502 -0.11327931740E+02 -0.36160008272E+02  0.96639440226E+01  0.39328519548E+02  0.41800000000E+01 0.  1.
        -11    1    3    3    0    0 -0.50841633016E+02 -0.39033452452E+01  0.10692384432E+03  0.11846018840E+03  0.00000000000E+00 0. -1.
         11    1    3    3    0    0 -0.85191135509E+02  0.41473122061E+02  0.24225936665E+02  0.97797982750E+02  0.00000000000E+00 0.  1.
</event>
<event>
 7    1  0.6684706E-006  0.2580140E+03  0.7561462E-02  0.1108342E+00
         -2   -1    0    0    0  501 -0.00000000000E+00  0.00000000000E+00  0.43248849745E+03  0.43248849745E+03  0.00000000000E+00 0. -1.
          2   -1    0    0  501    0  0.00000000000E+00 -0.00000000000E+00 -0.16756754262E+03  0.16756754262E+03  0.00000000000E+00 0.  1.
         23    2    1    2    0    0 -0.23737724714E+03 -0.72048903493E+02  0.12255961350E+03  0.28788209469E+03  0.79474773534E+02 0.  0.
          5    1    1    2  502    0  0.50525204421E+02 -0.19072041155E+02 -0.91051235722E+01  0.54926448191E+02  0.41800000000E+01 0.  1.
         -5    1    1    2    0  502  0.18685204272E+03  0.91120944649E+02  0.15146646490E+03  0.25724749719E+03  0.41800000000E+01 0.  1.
        -11    1    3    3    0    0 -0.47675029920E+02  0.74367404889E+01 -0.39211709529E+00  0.48253158890E+02  0.00000000000E+00 0.  1.
         11    1    3    3    0    0 -0.18970221722E+03 -0.79485643982E+02  0.12295173059E+03  0.23962893580E+03  0.00000000000E+00 0. -1.
</event>
<event>
 7    1  0.6684706E-006  0.1054936E+03  0.7561462E-02  0.1269150E+00
         -2   -1    0    0    0  501 -0.00000000000E+00  0.00000000000E+00  0.31347278573E+02  0.31347278573E+02  0.00000000000E+00 0.  1.
          2   -1    0    0  501    0  0.00000000000E+00 -0.00000000000E+00 -0.50423819662E+03  0.50423819662E+03  0.00000000000E+00 0. -1.
         23    2    1    2    0    0  0.31419332063E+02  0.20449451442E+02 -0.10331515221E+03  0.14361706699E+03  0.92447210691E+02 0.  0.
          5    1    1    2  502    0 -0.29950152424E+02 -0.71389411297E+02 -0.18876039664E+03  0.20406229298E+03  0.41800000000E+01 0. -1.
         -5    1    1    2    0  502 -0.14691796387E+01  0.50939959855E+02 -0.18081536920E+03  0.18790611522E+03  0.41800000000E+01 0. -1.
        -11    1    3    3    0    0 -0.18246652931E+02 -0.13035915752E+02  0.19426932867E+01  0.22508876025E+02  0.00000000000E+00 0.  1.
         11    1    3    3    0    0  0.49665984994E+02  0.33485367194E+02 -0.10525784549E+03  0.12110819097E+03  0.00000000000E+00 0. -1.
</event>
<event>
 7    1  0.6684706E-006  0.6230747E+02  0.7561462E-02  0.1388396E+00
         -1   -1    0    0    0  501 -0.00000000000E+00  0.00000000000E+00  0.39198727502E+02  0.39198727502E+02  0.00000000000E+00 0.  1.
          1   -1    0    0  501    0  0.00000000000E+00 -0.00000000000E+00 -0.33360395868E+03  0.33360395868E+03  0.00000000000E+00 0. -1.
         23    2    1    2    0    0  0.59025970923E+01 -0.19953346864E+02 -0.77021578391E+02  0.12113548591E+03  0.91151004960E+02 0.  0.
          5    1    1    2  502    0  0.10592036764E+02  0.41776762791E+01  0.14341694903E+02  0.18782993228E+02  0.41800000000E+01 0. -1.
         -5    1    1    2    0  502 -0.16494633856E+02  0.15775670584E+02 -0.23172534769E+03  0.23288420704E+03  0.41800000000E+01 0. -1.
        -11    1    3    3    0    0  0.30666025356E+02  0.23927154968E+02 -0.16149282556E+02  0.42115474390E+02  0.00000000000E+00 0.  1.
         11    1    3    3    0    0 -0.24763428264E+02 -0.43880501831E+02 -0.60872295836E+02  0.79020011520E+02  0.00000000000E+00 0. -1.
</event>
<event>
 7    1  0.6684706E-006  0.1046186E+03  0.7561462E-02  0.1270873E+00
         -1   -1    0    0    0  501 -0.00000000000E+00  0.00000000000E+00  0.27889517560E+02  0.27889517560E+02  0.00000000000E+00 0.  1.
          1   -1    0    0  501    0  0.00000000000E+00 -0.00000000000E+00 -0.59075580472E+03  0.59075580472E+03  0.00000000000E+00 0. -1.
         23    2    1    2    0    0 -0.66518137164E+01  0.58093357738E+02 -0.16465678545E+03  0.19717701762E+03  0.91366484257E+02 0.  0.
          5    1    1    2  502    0  0.34700942513E+02 -0.62999864501E+02 -0.38138684923E+03  0.38813211604E+03  0.41800000000E+01 0. -1.
         -5    1    1    2    0  502 -0.28049128797E+02  0.49065067635E+01 -0.16822652485E+02  0.33336188617E+02  0.41800000000E+01 0. -1.
        -11    1    3    3    0    0 -0.14121140927E+01  0.82973318335E+02 -0.12310914211E+03  0.14846692053E+03  0.00000000000E+00 0. -1.
         11    1    3    3    0    0 -0.52396996237E+01 -0.24879960597E+02 -0.41547643340E+02  0.48710097090E+02  0.00000000000E+00 0.  1.
</event>
<event>
 7    1  0.6684706E-006  0.9571074E+02  0.7561462E-02  0.1289583E+00
         -1   -1    0    0    0  501 -0.00000000000E+00  0.00000000000E+00  0.13159101593E+03  0.13159101593E+03  0.00000000000E+00 0.  1.
          1   -1    0    0  501    0  0.00000000000E+00 -0.00000000000E+00 -0.15605745194E+03  0.15605745194E+03  0.00000000000E+00 0. -1.
         23    2    1    2    0    0 -0.16666853854E+02  0.26373734880E+02  0.79553994779E+02  0.12999109096E+03  0.97956560449E+02 0.  0.
          5    1    1    2  502    0  0.39923886990E+02  0.33419160586E+02 -0.60960437118E+02  0.80277047406E+02  0.41800000000E+01 0. -1.
         -5    1    1    2    0  502 -0.23257033136E+02 -0.59792895466E+02 -0.43059993679E+02  0.77380329504E+02  0.41800000000E+01 0.  1.
        -11    1    3    3    0    0 -0.43151553568E+02  0.12128412101E+02  0.87997222815E+02  0.98755588088E+02  0.00000000000E+00 0.  1.
         11    1    3    3    0    0  0.26484699714E+02  0.14245322779E+02 -0.84432280362E+01  0.31235502873E+02  0.00000000000E+00 0. -1.
</event>
<event>
 7    1  0.6684706E-006  0.1293587E+03  0.7561462E-02  0.1228410E+00
          2   -1    0    0  501    0  0.00000000000E+00  0.00000000000E+00  0.19853503957E+03  0.19853503957E+03  0.00000000000E+00 0. -1.
         -2   -1    0    0    0  501 -0.00000000000E+00 -0.00000000000E+00 -0.85059002644E+02  0.85059002644E+02  0.00000000000E+00 0.  1.
         23    2    1    2    0    0 -0.31699030198E+02  0.62366021196E+02  0.41849884956E+02  0.12335956140E+03  0.92584120684E+02 0.  0.
          5    1    1    2  502    0  0.79864928498E+02 -0.39382840436E+02  0.52094694968E+02  0.10325088168E+03  0.41800000000E+01 0.  1.
         -5    1    1    2    0  502 -0.48165898300E+02 -0.22983180760E+02  0.19531457000E+02  0.56983599127E+02  0.41800000000E+01 0.  1.
        -11    1    3    3    0    0 -0.57221363593E+01 -0.24610708652E+02  0.95132951315E+01  0.26998751992E+02  0.00000000000E+00 0.  1.
         11    1    3    3    0    0 -0.25976893839E+02  0.86976729848E+02  0.32336589825E+02  0.96360809409E+02  0.00000000000E+00 0. -1.
</event>
<event>
 7    1  0.6684706E-006  0.1406013E+03  0.7561462E-02  0.1212522E+00
          2   -1    0    0  501    0  0.00000000000E+00  0.00000000000E+00  0.43247991019E+03  0.43247991019E+03  0.00000000000E+00 0. -1.
         -2   -1    0    0    0  501 -0.00000000000E+00 -0.00000000000E+00 -0.55125960058E+02  0.55125960058E+02  0.00000000000E+00 0.  1.
         23    2    1    2    0    0 -0.89400129166E+02  0.44048633910E+02  0.24413725634E+03  0.27945591222E+03  0.92519952970E+02 0.  0.
          5    1    1    2  502    0 -0.30911181952E+02 -0.20260611656E+00  0.19096995959E+02  0.36574716315E+02  0.41800000000E+01 0.  1.
         -5    1    1    2    0  502  0.12031131112E+03 -0.43846027794E+02  0.11411969784E+03  0.17157524172E+03  0.41800000000E+01 0.  1.
        -11    1    3    3    0    0 -0.87507765356E+02  0.10327497168E+02  0.22258345653E+03  0.23939018634E+03  0.00000000000E+00 0. -1.
         11    1    3    3    0    0 -0.18923638107E+01  0.33721136742E+02  0.21553799806E+02  0.40065725877E+02  0.00000000000E+00 0.  1.
</event>
<event>
 7    1  0.6684706E-006  0.2574890E+03  0.7561462E-02  0.1108661E+00
          2   -1    0    0  501    0  0.00000000000E+00  0.00000000000E+00  0.42115806568E+03  0.42115806568E+03  0.00000000000E+00 0. -1.
         -2   -1    0    0    0  501 -0.00000000000E+00 -0.00000000000E+00 -0.22279932544E+03  0.22279932544E+03  0.00000000000E+00 0.  1.
         23    2    1    2    0    0  0.20742675758E+03  0.12451839499E+03 -0.63745689174E+02  0.26596660086E+03  0.90244276451E+02 0.  0.
          5    1    1    2  502    0 -0.17565841551E+03 -0.14085224504E+03  0.25693623814E+03  0.34165616743E+03  0.41800000000E+01 0. -1.
         -5    1    1    2    0  502 -0.31768342068E+02  0.16333850049E+02  0.51681912731E+01  0.36334622831E+02  0.41800000000E+01 0. -1.
        -11    1    3    3    0    0  0.70806929617E+02  0.86937234509E+02 -0.40105433568E+01  0.11219531400E+03  0.00000000000E+00 0.  1.
         11    1    3    3    0    0  0.13661982796E+03  0.37581160483E+02 -0.59735145817E+02  0.15377128685E+03  0.00000000000E+00 0. -1.
</event>
<event>
 7    1  0.6684706E-006  0.1220501E+03  0.7561462E-02  0.1239753E+00
         -2   -1    0    0    0  501 -0.00000000000E+00  0.00000000000E+00  0.82845816272E+02  0.82845816272E+02  0.00000000000E+00 0.  1.
          2   -1    0    0  501    0  0.00000000000E+00 -0.00000000000E+00 -0.42195188190E+03  0.42195188190E+03  0.00000000000E+00 0. -1.
         23    2    1    2    0    0  0.34558181426E+02 -0.68765418704E+02  0.14513104479E+02  0.12189204700E+03  0.93402838325E+02 0.  0.
          5    1    1    2  502    0 -0.11779055913E+02  0.91461801911E+02 -0.14576084777E+03  0.17253319828E+03  0.41800000000E+01 0.  1.
         -5    1    1    2    0  502 -0.22779125513E+02 -0.22696383207E+02 -0.20785832234E+03  0.21037245290E+03  0.41800000000E+01 0.  1.
        -11    1    3    3    0    0 -0.17535184140E+02 -0.64785455727E+02  0.18128876343E+02  0.69521896652E+02  0.00000000000E+00 0.  1.
         11    1    3    3    0    0  0.52093365566E+02 -0.39799629766E+01 -0.36157718646E+01  0.52370150348E+02  0.00000000000E+00 0. -1.
</event>
<event>
 7    1  0.6684706E-006  0.1877992E+03  0.7561462E-02  0.1160461E+00
         -4   -1    0    0    0  501 -0.00000000000E+00  0.00000000000E+00  0.37689679280E+03  0.37689679280E+03  0.00000000000E+00 0.  1.
          4   -1    0    0  501    0  0.00000000000E+00 -0.00000000000E+00 -0.13402022329E+03  0.13402022329E+03  0.00000000000E+00 0. -1.
         23    2    1    2    0    0 -0.17621030752E+03  0.93859754901E+01  0.21505659377E+03  0.29283015908E+03  0.91443941996E+02 0.  0.
          5    1    1    2  502    0  0.17323134128E+03 -0.14962237774E+02 -0.15027238521E+02  0.17457450117E+03  0.41800000000E+01 0.  1.
         -5    1    1    2    0  502  0.29789662390E+01  0.55762622843E+01  0.42847214260E+02  0.43512355840E+02  0.41800000000E+01 0.  1.
        -11    1    3    3    0    0 -0.16935893962E+03 -0.13795718853E+02  0.16312086039E+03  0.23554444885E+03  0.00000000000E+00 0. -1.
         11    1    3    3    0    0 -0.68513679007E+01  0.23181694343E+02  0.51935733379E+02  0.57285710229E+02  0.00000000000E+00 0.  1.
</event>
<event>
 7    1  0.6684706E-006  0.1567729E+03  0.7561462E-02  0.1192389E+00
          2   -1    0    0  501    0  0.00000000000E+00  0.00000000000E+00  0.28777317549E+03  0.28777317549E+03  0.00000000000E+00 0. -1.
         -2   -1    0    0    0  501 -0.00000000000E+00 -0.00000000000E+00 -0.93191412489E+02  0.93191412489E+02  0.00000000000E+00 0.  1.
         23    2    1    2    0    0  0.28847233971E+02 -0.11758326970E+03  0.77316996992E+02  0.17106372831E+03  0.92881068568E+02 0.  0.
          5    1    1    2  502    0  0.36158162381E+02  0.89292950765E+02  0.95276409457E+02  0.13555703730E+03  0.41800000000E+01 0. -1.
         -5    1    1    2    0  502 -0.65005396352E+02  0.28290318931E+02  0.21988356548E+02  0.74343822364E+02  0.41800000000E+01 0. -1.
        -11    1    3    3    0    0  0.57590570289E+02 -0.84728784583E+02  0.75697883185E+02  0.12738057247E+03  0.00000000000E+00 0.  1.
         11    1    3    3    0    0 -0.28743336318E+02 -0.32854485114E+02  0.16191138077E+01  0.43683155842E+02  0.00000000000E+00 0. -1.
</event>
<event>
 7    1  0.6684706E-006  0.8853909E+02  0.7561462E-02  0.1306429E+00
          2   -1    0    0  501    0  0.00000000000E+00  0.00000000000E+00  0.49542046532E+02  0.49542046532E+02  0.00000000000E+00 0. -1.
         -2   -1    0    0    0  501 -0.00000000000E+00 -0.00000000000E+00 -0.37039530160E+03  0.37039530160E+03  0.00000000000E+00 0.  1.
         23    2    1    2    0    0  0.32913215595E+02  0.55395330654E+02 -0.24835464436E+03  0.27172904011E+03  0.89469097704E+02 0.  0.
          5    1    1    2  502    0 -0.25328937829E+02 -0.27448180188E+02  0.25840640477E+02  0.45608867421E+02  0.41800000000E+01 0. -1.
         -5    1    1    2    0  502 -0.75842777657E+01 -0.27947150466E+02 -0.98339251188E+02  0.10259944061E+03  0.41800000000E+01 0.  1.
        -11    1    3    3    0    0 -0.29752477889E+02  0.31065363714E+02 -0.94431063331E+02  0.10376652873E+03  0.00000000000E+00 0. -1.
         11    1    3    3    0    0  0.62665693484E+02  0.24329966940E+02 -0.15392358103E+03  0.16796251137E+03  0.00000000000E+00 0.  1.
</event>
<event>
 7    1  0.6684706E-006  0.1049013E+03  0.7561462E-02  0.1270314E+00
          1   -1    0    0  501    0  0.00000000000E+00  0.00000000000E+00  0.37370031848E+04  0.37370031848E+04  0.00000000000E+00 0. -1.
         -1   -1    0    0    0  501 -0.00000000000E+00 -0.00000000000E+00 -0.30299075044E+02  0.30299075044E+02  0.00000000000E+00 0.  1.
         23    2    1    2    0    0  0.40845037126E+02  0.55274176485E+02  0.67986687765E+02  0.12578660074E+03  0.80476875994E+02 0.  0.
          5    1    1    2  502    0 -0.26363127725E+02 -0.85110359949E+02  0.32877954536E+04  0.32890051999E+04  0.41800000000E+01 0.  1.
         -5    1    1    2    0  502 -0.14481909401E+02  0.29836183464E+02  0.35092196837E+03  0.35251045917E+03  0.41800000000E+01 0.  1.
        -11    1    3    3    0    0  0.41498310274E+02  0.11044695916E+02 -0.20037487897E+01  0.42989650763E+02  0.00000000000E+00 0.  1.
         11    1    3    3    0    0 -0.65327314853E+00  0.44229480569E+02  0.69990436555E+02  0.82796949982E+02  0.00000000000E+00 0. -1.
</event>
<event>
 7    1  0.6684706E-006  0.1211828E+03  0.7561462E-02  0.1241159E+00
          4   -1    0    0  501    0  0.00000000000E+00  0.00000000000E+00  0.62278588540E+02  0.62278588540E+02  0.00000000000E+00 0. -1.
         -4   -1    0    0    0  501 -0.00000000000E+00 -0.00000000000E+00 -0.32552073819E+03  0.32552073819E+03  0.00000000000E+00 0.  1.
         23    2    1    2    0    0 -0.68182086962E+02  0.21770668341E+01 -0.20344299062E+03  0.23327433364E+03  0.91511352857E+02 0.  0.
          5    1    1    2  502    0  0.99979388993E+02  0.20950060082E+02 -0.49903380441E+02  0.11376556166E+03  0.41800000000E+01 0. -1.
         -5    1    1    2    0  502 -0.31797302031E+02 -0.23127126917E+02 -0.98957785846E+01  0.40759431420E+02  0.41800000000E+01 0. -1.
        -11    1    3    3    0    0 -0.34600529897E+02 -0.35872471246E+02 -0.45887658592E+02  0.67747384256E+02  0.00000000000E+00 0. -1.
         11    1    3    3    0    0 -0.33581557065E+02  0.38049538080E+02 -0.15755533203E+03  0.16552694939E+03  0.00000000000E+00 0.  1.
</event>
<event>
 7    1  0.6684706E-006  0.1114478E+03  0.7561462E-02  0.1257912E+00
          2   -1    0    0  501    0  0.00000000000E+00  0.00000000000E+00  0.43154991547E+03  0.43154991547E+03  0.00000000000E+00 0. -1.
         -2   -1    0    0    0  501 -0.00000000000E+00 -0.00000000000E+00 -0.30949472853E+02  0.30949472853E+02  0.00000000000E+00 0.  1.
         23    2    1    2    0    0  0.18320635554E+02 -0.34482013359E+02  0.14902699464E+03  0.17884329962E+03  0.90836257933E+02 0.  0.
          5    1    1    2  502    0  0.51472461804E+02 -0.16863977020E+01  0.11377457459E+03  0.12495753072E+03  0.41800000000E+01 0.  1.
         -5    1    1    2    0  502 -0.69793097358E+02  0.36168411061E+02  0.13779887339E+03  0.15869855798E+03  0.41800000000E+01 0.  1.
        -11    1    3    3    0    0  0.49737591987E+02 -0.59945795109E+01  0.48461812995E+02  0.69701580750E+02  0.00000000000E+00 0.  1.
         11    1    3    3    0    0 -0.31416956434E+02 -0.28487433848E+02  0.10056518164E+03  0.10914171887E+03  0.00000000000E+00 0. -1.
</event>
<event>
 7    1  0.6684706E-006  0.1288463E+03  0.7561462E-02  0.1229178E+00
          1   -1    0    0  501    0  0.00000000000E+00  0.00000000000E+00  0.40023964527E+03  0.40023964527E+03  0.00000000000E+00 0. -1.
         -1   -1    0    0    0  501 -0.00000000000E+00 -0.00000000000E+00 -0.47983087450E+02  0.47983087450E+02  0.00000000000E+00 0.  1.
         23    2    1    2    0    0  0.64495130773E+02 -0.56658497343E+02  0.14995837442E+03  0.19535568967E+03  0.91140135016E+02 0.  0.
          5    1    1    2  502    0  0.15553877303E+02 -0.29220867361E+02  0.34123830811E+02  0.47725154979E+02  0.41800000000E+01 0. -1.
         -5    1    1    2    0  502 -0.80049008076E+02  0.85879364704E+02  0.16817435259E+03  0.20514188808E+03  0.41800000000E+01 0. -1.
        -11    1    3    3    0    0  0.77530036165E+02 -0.47565232915E+02  0.15409087539E+03  0.17893394248E+03  0.00000000000E+00 0. -1.
         11    1    3    3    0    0 -0.13034905392E+02 -0.90932644276E+01 -0.41325009710E+01  0.16421747191E+02  0.00000000000E+00 0.  1.
</event>
<event>
 7    1  0.6684706E-006  0.7519722E+02  0.7561462E-02  0.1343261E+00
         -2   -1    0    0    0  501 -0.00000000000E+00  0.00000000000E+00  0.42063595671E+02  0.42063595671E+02  0.00000000000E+00 0.  1.
          2   -1    0    0  501    0  0.00000000000E+00 -0.00000000000E+00 -0.37723673877E+03  0.37723673877E+03  0.00000000000E+00 0. -1.
         23    2    1    2    0    0  0.23090265186E+01 -0.19988200274E+02 -0.48407484872E+02  0.10579316780E+03  0.91891512163E+02 0.  0.
          5    1    1    2  502    0  0.40406726832E+02 -0.15159549880E+02 -0.35058177108E+02  0.55758978721E+02  0.41800000000E+01 0. -1.
         -5    1    1    2    0  502 -0.42715753351E+02  0.35147750154E+02 -0.25170748112E+03  0.25774818792E+03  0.41800000000E+01 0. -1.
        -11    1    3    3    0    0 -0.13781007762E+02  0.10339859727E+02 -0.65297052974E+02  0.67531725886E+02  0.00000000000E+00 0. -1.
         11    1    3    3    0    0  0.16090034281E+02 -0.30328060001E+02  0.16889568102E+02  0.38261441913E+02  0.00000000000E+00 0.  1.
</event>
<event>
 7    1  0.6684706E-006  0.8740990E+02  0.7561462E-02  0.1309248E+00
         -1   -1    0    0    0  501 -0.00000000000E+00  0.00000000000E+00  0.13723783812E+03  0.13723783812E+03  0.00000000000E+00 0.  1.
          1   -1    0    0  501    0  0.00000000000E+00 -0.00000000000E+00 -0.93499082513E+02  0.93499082513E+02  0.00000000000E+00 0. -1.
         23    2    1    2    0    0  0.41141212500E+02  0.14875590687E+02  0.38088711581E+02  0.11188726475E+03  0.95677204700E+02 0.  0.
          5    1    1    2  502    0  0.13616116007E+02 -0.40744823504E+01 -0.42507033418E+02  0.45014667738E+02  0.41800000000E+01 0. -1.
         -5    1    1    2    0  502 -0.54757328508E+02 -0.10801108337E+02  0.48157077448E+02  0.73834988149E+02  0.41800000000E+01 0.  1.
        -11    1    3    3    0    0 -0.27102674142E+02  0.22689852226E+02  0.20960568947E+02  0.41094157618E+02  0.00000000000E+00 0.  1.
         11    1    3    3    0    0  0.68243886642E+02 -0.78142615391E+01  0.17128142634E+02  0.70793107133E+02  0.00000000000E+00 0. -1.
</event>
<event>
 7    1  0.6684706E-006  0.7416051E+02  0.7561462E-02  0.1346491E+00
          1   -1    0    0  501    0  0.00000000000E+00  0.00000000000E+00  0.61198111145E+02  0.61198111145E+02  0.00000000000E+00 0. -1.
         -1   -1    0    0    0  501 -0.00000000000E+00 -0.00000000000E+00 -0.22307275672E+03  0.22307275672E+03  0.00000000000E+00 0.  1.
         23    2    1    2    0    0 -0.41196214265E-01  0.44088797596E+02 -0.81014233194E+02  0.12893072603E+03  0.90088858156E+02 0.  0.
          5    1    1    2  502    0 -0.73094463285E+01 -0.33143789813E+02 -0.11421878741E+03  0.11922811164E+03  0.41800000000E+01 0.  1.
         -5    1    1    2    0  502  0.73506425427E+01 -0.10945007783E+02  0.33358375020E+02  0.36112030200E+02  0.41800000000E+01 0.  1.
        -11    1    3    3    0    0  0.33472372338E+02  0.55566018462E+02 -0.53034915923E+02  0.83789524552E+02  0.00000000000E+00 0.  1.
         11    1    3    3    0    0 -0.33513568553E+02 -0.11477220865E+02 -0.27979317271E+02  0.45141201478E+02  0.00000000000E+00 0. -1.
</event>
<event>
 7    1  0.6684706E-006  0.8282604E+02  0.7561462E-02  0.1321218E+00
         -2   -1    0    0    0  501 -0.00000000000E+00  0.00000000000E+00  0.63383604877E+02  0.63383604877E+02  0.00000000000E+00 0.  1.
          2   -1    0    0  501    0  0.00000000000E+00 -0.00000000000E+00 -0.19819058730E+03  0.19819058730E+03  0.00000000000E+00 0. -1.
         23    2    1    2    0    0 -0.35642489746E+01  0.27354898019E+02 -0.43981195771E+02  0.10454341925E+03  0.90741317002E+02 0.  0.
          5    1    1    2  502    0 -0.50863030842E+00 -0.70207728764E+02 -0.18442983130E+02  0.72711759088E+02  0.41800000000E+01 0.  1.
         -5    1    1    2    0  502  0.40728792830E+01  0.42852830745E+02 -0.72382803518E+02  0.84319013832E+02  0.41800000000E+01 0.  1.
        -11    1    3    3    0    0  0.14319552299E+02  0.30700428442E+02  0.19101081436E+02  0.38889808390E+02  0.00000000000E+00 0.  1.
         11    1    3    3    0    0 -0.17883801274E+02 -0.33455304235E+01 -0.63082277207E+02  0.65653610863E+02  0.00000000000E+00 0. -1.
</event>
<event>
 7    1  0.6684706E-006  0.1504898E+03  0.7561462E-02  0.1199872E+00
         -2   -1    0    0    0  501 -0.00000000000E+00  0.00000000000E+00  0.36108247401E+02  0.36108247401E+02  0.00000000000E+00 0.  1.
          2   -1    0    0  501    0  0.00000000000E+00 -0.00000000000E+00 -0.16162808446E+04  0.16162808446E+04  0.00000000000E+00 0. -1.
         23    2    1    2    0    0  0.13234179300E+02  0.77030700638E+02 -0.94877793184E+02  0.15316408473E+03  0.91370503280E+02 0.  0.
          5    1    1    2  502    0 -0.88423730592E+02 -0.96852462488E+01 -0.97281420134E+03  0.97688151935E+03  0.41800000000E+01 0. -1.
         -5    1    1    2    0  502  0.75189551292E+02 -0.67345454389E+02 -0.51248060272E+03  0.52234348796E+03  0.41800000000E+01 0.  1.
        -11    1    3    3    0    0 -0.30187919782E+02  0.53714618224E+02 -0.81357982586E+02  0.10205729784E+03  0.00000000000E+00 0.  1.
         11    1    3    3    0    0  0.43422099083E+02  0.23316082414E+02 -0.13519810598E+02  0.51106786892E+02  0.00000000000E+00 0. -1.
</event>
<event>
 7    1  0.6684706E-006  0.1331017E+03  0.7561462E-02  0.1222925E+00
         -1   -1    0    0    0  501 -0.00000000000E+00  0.00000000000E+00  0.22543025766E+02  0.22543025766E+02  0.00000000000E+00 0.  1.
          1   -1    0    0  501    0  0.00000000000E+00 -0.00000000000E+00 -0.11305448246E+04  0.11305448246E+04  0.00000000000E+00 0. -1.
         23    2    1    2    0    0  0.51494022527E+02 -0.95180809717E+02 -0.35592565820E+03  0.38303702266E+03  0.91231933386E+02 0.  0.
          5    1    1    2  502    0 -0.72062352636E+02  0.83776688137E+02 -0.72721070539E+03  0.73557079780E+03  0.41800000000E+01 0.  1.
         -5    1    1    2    0  502  0.20568330108E+02  0.11404121580E+02 -0.24865435253E+02  0.34480029913E+02  0.41800000000E+01 0.  1.
        -11    1    3    3    0    0 -0.95459060985E+01 -0.61061482376E+02 -0.98509376141E+02  0.11629155662E+03  0.00000000000E+00 0.  1.
         11    1    3    3    0    0  0.61039928626E+02 -0.34119327341E+02 -0.25741628206E+03  0.26674546604E+03  0.00000000000E+00 0. -1.
</event>
<event>
 7    1  0.6684706E-006  0.1293241E+03  0.7561462E-02  0.1228462E+00
         -2   -1    0    0    0  501 -0.00000000000E+00  0.00000000000E+00  0.60520910124E+02  0.60520910124E+02  0.00000000000E+00 0.  1.
          2   -1    0    0  501    0  0.00000000000E+00 -0.00000000000E+00 -0.33428698669E+03  0.33428698669E+03  0.00000000000E+00 0. -1.
         23    2    1    2    0    0 -0.40936081650E+02 -0.82823388048E+02 -0.11993284605E+03  0.17606626304E+03  0.89888625689E+02 0.  0.
          5    1    1    2  502    0 -0.28730523572E+02  0.63210525151E+02 -0.12008388039E+03  0.13877544525E+03  0.41800000000E+01 0.  1.
         -5    1    1    2    0  502  0.69666605222E+02  0.19612862897E+02 -0.33749350125E+02  0.79966188530E+02  0.41800000000E+01 0.  1.
        -11    1    3    3    0    0 -0.59047822297E+02 -0.43631104662E+02 -0.36201109433E+02  0.81858652177E+02  0.00000000000E+00 0.  1.
         11    1    3    3    0    0  0.18111740647E+02 -0.39192283386E+02 -0.83731736620E+02  0.94207610859E+02  0.00000000000E+00 0. -1.
</event>
<event>
 7    1  0.6684706E-006  0.1166932E+03  0.7561462E-02  0.1248654E+00
         -2   -1    0    0    0  501 -0.00000000000E+00  0.00000000000E+00  0.46882576623E+02  0.46882576623E+02  0.00000000000E+00 0.  1.
          2   -1    0    0  501    0  0.00000000000E+00 -0.00000000000E+00 -0.41938859937E+03  0.41938859937E+03  0.00000000000E+00 0. -1.
         23    2    1    2    0    0  0.23196917717E+02 -0.62520586949E+02 -0.68582640052E+02  0.13091517049E+03  0.89377192635E+02 0.  0.
          5    1    1    2  502    0 -0.69409113643E+02  0.46133553702E+02 -0.24366160945E+03  0.25755461975E+03  0.41800000000E+01 0.  1.
         -5    1    1    2    0  502  0.46212195926E+02  0.16387033247E+02 -0.60261773242E+02  0.77801385754E+02  0.41800000000E+01 0.  1.
        -11    1    3    3    0    0 -0.27864812415E+02 -0.23841811884E+02  0.53734094510E+00  0.36676538824E+02  0.00000000000E+00 0.  1.
         11    1    3    3    0    0  0.51061730133E+02 -0.38678775065E+02 -0.69119980997E+02  0.94238631663E+02  0.00000000000E+00 0. -1.
</event>
<event>
 7    1  0.6684706E-006  0.1982138E+03  0.7561462E-02  0.1151255E+00
          2   -1    0    0  501    0  0.00000000000E+00  0.00000000000E+00  0.13287207140E+04  0.13287207140E+04  0.00000000000E+00 0. -1.
         -2   -1    0    0    0  501 -0.00000000000E+00 -0.00000000000E+00 -0.75431059907E+02  0.75431059907E+02  0.00000000000E+00 0.  1.
         23    2    1    2    0    0 -0.16795219379E+03 -0.92820853160E+02  0.11081412164E+03  0.23893867393E+03  0.89377123287E+02 0.  0.
          5    1    1    2  502    0  0.67375253589E+02  0.68939080023E+02  0.84021970511E+03  0.84574147752E+03  0.41800000000E+01 0. -1.
         -5    1    1    2    0  502  0.10057694020E+03  0.23881773137E+02  0.30225582740E+03  0.31947162250E+03  0.41800000000E+01 0. -1.
        -11    1    3    3    0    0 -0.38073221636E+01 -0.13787232758E+02  0.41706081194E+02  0.44090596477E+02  0.00000000000E+00 0. -1.
         11    1    3    3    0    0 -0.16414487162E+03 -0.79033620401E+02  0.69108040446E+02  0.19484807746E+03  0.00000000000E+00 0.  1.
</event>
<event>
 7    1  0.6684706E-006  0.1826013E+03  0.7561462E-02  0.1165309E+00
          1   -1    0    0  501    0  0.00000000000E+00  0.00000000000E+00  0.11476490148E+03  0.11476490148E+03  0.00000000000E+00 0.  1.
         -1   -1    0    0    0  501 -0.00000000000E+00 -0.00000000000E+00 -0.41849131670E+03  0.41849131670E+03  0.00000000000E+00 0. -1.
         23    2    1    2    0    0  0.85716130263E+02 -0.14905911494E+03 -0.24496493727E+03  0.31265249641E+03  0.90431677437E+02 0.  0.
          5    1    1    2  502    0 -0.91914884138E+02  0.76244226164E+02 -0.80695858215E+02  0.14419022811E+03  0.41800000000E+01 0. -1.
         -5    1    1    2    0  502  0.61987538754E+01  0.72814888774E+02  0.21934380267E+02  0.76413493668E+02  0.41800000000E+01 0. -1.
        -11    1    3    3    0    0  0.51137529782E+02 -0.10213419743E+03 -0.22264825250E+03  0.25023725857E+03  0.00000000000E+00 0. -1.
         11    1    3    3    0    0  0.34578600481E+02 -0.46924917511E+02 -0.22316684767E+02  0.62415237832E+02  0.00000000000E+00 0.  1.
</event>
<event>
 7    1  0.6684706E-006  0.1251146E+03  0.7561462E-02  0.1234890E+00
          1   -1    0    0  501    0  0.00000000000E+00  0.00000000000E+00  0.76812288004E+02  0.76812288004E+02  0.00000000000E+00 0. -1.
         -1   -1    0    0    0  501 -0.00000000000E+00 -0.00000000000E+00 -0.26017131804E+03  0.26017131804E+03  0.00000000000E+00 0.  1.
         23    2    1    2    0    0  0.51382196721E+02  0.29329455350E+02 -0.16158252063E+03  0.19690770097E+03  0.95725569401E+02 0.  0.
          5    1    1    2  502    0  0.36428124193E+02  0.14946513423E+02 -0.10752284878E+02  0.41030361025E+02  0.41800000000E+01 0. -1.
         -5    1    1    2    0  502 -0.87810320914E+02 -0.44275968773E+02 -0.11024224530E+02  0.99045544051E+02  0.41800000000E+01 0. -1.
        -11    1    3    3    0    0 -0.23214876454E+02 -0.12821808196E+02 -0.32026706696E+02  0.41581717088E+02  0.00000000000E+00 0.  1.
         11    1    3    3    0    0  0.74597073175E+02  0.42151263546E+02 -0.12955581393E+03  0.15532598388E+03  0.00000000000E+00 0. -1.
</event>
<event>
 7    1  0.6684706E-006  0.9428021E+02  0.7561462E-02  0.1292806E+00
         -2   -1    0    0    0  501 -0.00000000000E+00  0.00000000000E+00  0.27790546939E+02  0.27790546939E+02  0.00000000000E+00 0.  1.
          2   -1    0    0  501    0  0.00000000000E+00 -0.00000000000E+00 -0.56129524506E+03  0.56129524506E+03  0.00000000000E+00 0. -1.
         23    2    1    2    0    0 -0.11854792510E+02 -0.30297537189E+02 -0.10611041822E+03  0.14257594787E+03  0.89498621176E+02 0.  0.
          5    1    1    2  502    0  0.24757558829E+02 -0.41749956810E+02 -0.24751891899E+03  0.25226787999E+03  0.41800000000E+01 0. -1.
         -5    1    1    2    0  502 -0.12902766319E+02  0.72047493999E+02 -0.17987536090E+03  0.19424196413E+03  0.41800000000E+01 0. -1.
        -11    1    3    3    0    0  0.60220613471E+01  0.15895270862E+02 -0.88328887887E+02  0.89949526369E+02  0.00000000000E+00 0. -1.
         11    1    3    3    0    0 -0.17876853857E+02 -0.46192808051E+02 -0.17781530332E+02  0.52626421505E+02  0.00000000000E+00 0.  1.
</event>
<event>
 7    1  0.6684706E-006  0.9551192E+02  0.7561462E-02  0.1290027E+00
         -1   -1    0    0    0  501 -0.00000000000E+00  0.00000000000E+00  0.30212216075E+02  0.30212216075E+02  0.00000000000E+00 0.  1.
          1   -1    0    0  501    0  0.00000000000E+00 -0.00000000000E+00 -0.61570035086E+03  0.61570035086E+03  0.00000000000E+00 0. -1.
         23    2    1    2    0    0  0.58542906021E+02 -0.59147061093E+02 -0.27257974066E+03  0.29878164506E+03  0.89694535628E+02 0.  0.
          5    1    1    2  502    0 -0.99512598737E+01  0.52690381772E+02 -0.28608514642E+03  0.29109704105E+03  0.41800000000E+01 0.  1.
         -5    1    1    2    0  502 -0.48591646148E+02  0.64566793213E+01 -0.26823247693E+02  0.56033880822E+02  0.41800000000E+01 0.  1.
        -11    1    3    3    0    0  0.52910483162E+02 -0.35457290108E+02 -0.26605475332E+03  0.27357242261E+03  0.00000000000E+00 0. -1.
         11    1    3    3    0    0  0.56324228597E+01 -0.23689770986E+02 -0.65249873491E+01  0.25209222450E+02  0.00000000000E+00 0.  1.
</event>
<event>
 7    1  0.6684706E-006  0.9073665E+02  0.7561462E-02  0.1301078E+00
          3   -1    0    0  501    0  0.00000000000E+00  0.00000000000E+00  0.21289041137E+03  0.21289041137E+03  0.00000000000E+00 0. -1.
         -3   -1    0    0    0  501 -0.00000000000E+00 -0.00000000000E+00 -0.59719748701E+02  0.59719748701E+02  0.00000000000E+00 0.  1.
         23    2    1    2    0    0 -0.18325792642E+02 -0.21919937075E+02  0.85236591470E+02  0.12742604956E+03  0.90309486013E+02 0.  0.
          5    1    1    2  502    0  0.27532436670E+00  0.68807273772E+02  0.12155957824E+02  0.69998260250E+02  0.41800000000E+01 0. -1.
         -5    1    1    2    0  502  0.18050468275E+02 -0.46887336697E+02  0.55778113370E+02  0.75185850255E+02  0.41800000000E+01 0. -1.
        -11    1    3    3    0    0  0.21953965700E+01 -0.36742881805E+02  0.93750813588E+02  0.10071779474E+03  0.00000000000E+00 0. -1.
         11    1    3    3    0    0 -0.20521189212E+02  0.14822944730E+02 -0.85142221181E+01  0.26708254818E+02  0.00000000000E+00 0.  1.
</event>
<event>
 7    1  0.6684706E-006  0.1182019E+03  0.7561462E-02  0.1246093E+00
          1   -1    0    0  501    0  0.00000000000E+00  0.00000000000E+00  0.15601487038E+03  0.15601487038E+03  0.00000000000E+00 0. -1.
         -1   -1    0    0    0  501 -0.00000000000E+00 -0.00000000000E+00 -0.13608262970E+03  0.13608262970E+03  0.00000000000E+00 0.  1.
         23    2    1    2    0    0  0.94139373378E+02 -0.45130688837E+01 -0.15093460447E+02  0.13160512171E+03  0.90606324841E+02 0.  0.
          5    1    1    2  502    0 -0.52758514248E+02  0.45675137802E+02  0.64370729384E+02  0.95030217512E+02  0.41800000000E+01 0.  1.
         -5    1    1    2    0  502 -0.41380859130E+02 -0.41162068918E+02 -0.29345028261E+02  0.65462160853E+02  0.41800000000E+01 0.  1.
        -11    1    3    3    0    0  0.84432251751E+02  0.15400908173E+02 -0.42983221051E+02  0.95987240820E+02  0.00000000000E+00 0.  1.
         11    1    3    3    0    0  0.97071216268E+01 -0.19913977057E+02  0.27889760604E+02  0.35617880890E+02  0.00000000000E+00 0. -1.
</event>
<event>
 7    1  0.6684706E-006  0.1192853E+03  0.7561462E-02  0.1244281E+00
          2   -1    0    0  501    0  0.00000000000E+00  0.00000000000E+00  0.74809281598E+03  0.74809281598E+03  0.00000000000E+00 0. -1.
         -2   -1    0    0    0  501 -0.00000000000E+00 -0.00000000000E+00 -0.48891269528E+02  0.48891269528E+02  0.00000000000E+00 0.  1.
         23    2    1    2    0    0 -0.81054159387E+02 -0.44821564796E+02  0.67818170365E+02  0.14669777406E+03  0.91335553089E+02 0.  0.
          5    1    1    2  502    0  0.10849857180E+03  0.30237265229E+02  0.36348571268E+03  0.38055954595E+03  0.41800000000E+01 0. -1.
         -5    1    1    2    0  502 -0.27444412411E+02  0.14584299566E+02  0.26789766340E+03  0.26972676549E+03  0.41800000000E+01 0. -1.
        -11    1    3    3    0    0 -0.38426269802E+02 -0.31945645717E+02  0.85299692189E+02  0.98859192687E+02  0.00000000000E+00 0. -1.
         11    1    3    3    0    0 -0.42627889585E+02 -0.12875919079E+02 -0.17481521824E+02  0.47838581374E+02  0.00000000000E+00 0.  1.
</event>
<event>
 7    1  0.6684706E-006  0.8718320E+02  0.7561462E-02  0.1309820E+00
         -2   -1    0    0    0  501 -0.00000000000E+00  0.00000000000E+00  0.45985895552E+02  0.45985895552E+02  0.00000000000E+00 0. -1.
          2   -1    0    0  501    0  0.00000000000E+00 -0.00000000000E+00 -0.27099694581E+03  0.27099694581E+03  0.00000000000E+00 0.  1.
         23    2    1    2    0    0 -0.13139431960E+02 -0.14597708391E+02 -0.11339671483E+03  0.14818819293E+03  0.93355170332E+02 0.  0.
          5    1    1    2  502    0  0.38606507785E+02 -0.18578799662E+02 -0.11861348803E+03  0.12618346240E+03  0.41800000000E+01 0.  1.
         -5    1    1    2    0  502 -0.25467075826E+02  0.33176508053E+02  0.69991526028E+01  0.42611186030E+02  0.41800000000E+01 0.  1.
        -11    1    3    3    0    0  0.16108056860E+02 -0.44580205532E+02 -0.85818520609E+02  0.98039189617E+02  0.00000000000E+00 0.  1.
         11    1    3    3    0    0 -0.29247488819E+02  0.29982497141E+02 -0.27578194219E+02  0.50149003314E+02  0.00000000000E+00 0. -1.
</event>
<event>
 7    1  0.6684706E-006  0.9889167E+02  0.7561462E-02  0.1282644E+00
          2   -1    0    0  501    0  0.00000000000E+00  0.00000000000E+00  0.58439590518E+02  0.58439590518E+02  0.00000000000E+00 0. -1.
         -2   -1    0    0    0  501 -0.00000000000E+00 -0.00000000000E+00 -0.28875242383E+03  0.28875242383E+03  0.00000000000E+00 0.  1.
         23    2    1    2    0    0  0.66014706391E+02  0.52634302999E+01 -0.13613857941E+03  0.17724708585E+03  0.92180103479E+02 0.  0.
          5    1    1    2  502    0 -0.30850231671E+02  0.54106349530E+02 -0.13798322700E+02  0.63930430648E+02  0.41800000000E+01 0. -1.
         -5    1    1    2    0  502 -0.35164474721E+02 -0.59369779830E+02 -0.80375931201E+02  0.10601449786E+03  0.41800000000E+01 0. -1.
        -11    1    3    3    0    0  0.55686428546E+02  0.40940108220E+01 -0.14992280615E+03  0.15998308365E+03  0.00000000000E+00 0.  1.
         11    1    3    3    0    0  0.10328277845E+02  0.11694194779E+01  0.13784226737E+02  0.17264002199E+02  0.00000000000E+00 0. -1.
</event>
<event>
 7    1  0.6684706E-006  0.1009516E+03  0.7561462E-02  0.1278308E+00
         -2   -1    0    0    0  501 -0.00000000000E+00  0.00000000000E+00  0.50892601534E+02  0.50892601534E+02  0.00000000000E+00 0.  1.
          2   -1    0    0  501    0  0.00000000000E+00 -0.00000000000E+00 -0.27115034486E+03  0.27115034486E+03  0.00000000000E+00 0. -1.
         23    2    1    2    0    0  0.17472764093E+02 -0.33548577015E+02 -0.11724896543E+03  0.15563894943E+03  0.95107087971E+02 0.  0.
          5    1    1    2  502    0 -0.50899955229E+02  0.52059636088E+02 -0.10508286546E+03  0.12790970317E+03  0.41800000000E+01 0.  1.
         -5    1    1    2    0  502  0.33427191137E+02 -0.18511059073E+02  0.20740875593E+01  0.38494293792E+02  0.41800000000E+01 0.  1.
        -11    1    3    3    0    0  0.46400105473E+02 -0.39579196401E+02 -0.40009141947E+02  0.72939797196E+02  0.00000000000E+00 0.  1.
         11    1    3    3    0    0 -0.28927341381E+02  0.60306193860E+01 -0.77239823481E+02  0.82699152238E+02  0.00000000000E+00 0. -1.
</event>
<event>
 7    1  0.6684706E-006  0.1218958E+03  0.7561462E-02  0.1240002E+00
         -3   -1    0    0    0  501 -0.00000000000E+00  0.00000000000E+00  0.22229848050E+03  0.22229848050E+03  0.00000000000E+00 0.  1.
          3   -1    0    0  501    0  0.00000000000E+00 -0.00000000000E+00 -0.13175867493E+03  0.13175867493E+03  0.00000000000E+00 0. -1.
         23    2    1    2    0    0 -0.15611061753E+02  0.73274536148E+02  0.15382811835E+03  0.19510317505E+03  0.93751245445E+02 0.  0.
          5    1    1    2  502    0  0.49080474938E+02  0.96213690432E+01 -0.45425350385E+02  0.67693416371E+02  0.41800000000E+01 0.  1.
         -5    1    1    2    0  502 -0.33469413185E+02 -0.82895905191E+02 -0.17862962404E+02  0.91260564004E+02  0.41800000000E+01 0.  1.
        -11    1    3    3    0    0  0.27554553347E+02  0.44122923489E+02  0.12540308922E+03  0.13576457776E+03  0.00000000000E+00 0.  1.
         11    1    3    3    0    0 -0.43165615101E+02  0.29151612659E+02  0.28425029131E+02  0.59338597293E+02  0.00000000000E+00 0. -1.
</event>
<event>
 7    1  0.6684706E-006  0.2574989E+03  0.7561462E-02  0.1108655E+00
          1   -1    0    0  501    0  0.00000000000E+00  0.00000000000E+00  0.14750409052E+04  0.14750409052E+04  0.00000000000E+00 0. -1.
         -1   -1    0    0    0  501 -0.00000000000E+00 -0.00000000000E+00 -0.96031732108E+02  0.96031732108E+02  0.00000000000E+00 0.  1.
         23    2    1    2    0    0  0.12839354331E+03 -0.21624370397E+03  0.14199677643E+03  0.30257250045E+03  0.90226337868E+02 0.  0.
          5    1    1    2  502    0 -0.12271702557E+03  0.19960097489E+03  0.86898302208E+03  0.90002721215E+03  0.41800000000E+01 0.  1.
         -5    1    1    2    0  502 -0.56765177383E+01  0.16642729079E+02  0.36802937464E+03  0.36847292476E+03  0.41800000000E+01 0.  1.
        -11    1    3    3    0    0  0.51273709003E+02 -0.15749471759E+03  0.11596105089E+03  0.20218937812E+03  0.00000000000E+00 0.  1.
         11    1    3    3    0    0  0.77119834307E+02 -0.58748986383E+02  0.26035725537E+02  0.10038312233E+03  0.00000000000E+00 0. -1.
</event>
<event>
 7    1  0.6684706E-006  0.1234593E+03  0.7561462E-02  0.1237497E+00
         -2   -1    0    0    0  501 -0.00000000000E+00  0.00000000000E+00  0.54365450366E+02  0.54365450366E+02  0.00000000000E+00 0.  1.
          2   -1    0    0  501    0  0.00000000000E+00 -0.00000000000E+00 -0.79453382726E+03  0.79453382726E+03  0.00000000000E+00 0. -1.
         23    2    1    2    0    0  0.36985130841E+02  0.85205616641E+02 -0.31696365145E+02  0.12349632452E+03  0.74958559187E+02 0.  0.
          5    1    1    2  502    0  0.22700275654E+01  0.17677366336E+02 -0.16291946818E+02  0.24505963291E+02  0.41800000000E+01 0. -1.
         -5    1    1    2    0  502 -0.39255158406E+02 -0.10288298298E+03 -0.69218006493E+03  0.70089698982E+03  0.41800000000E+01 0. -1.
        -11    1    3    3    0    0  0.37581217978E+02  0.46614484055E+01 -0.17464257686E+02  0.41702246252E+02  0.00000000000E+00 0. -1.
         11    1    3    3    0    0 -0.59608713677E+00  0.80544168235E+02 -0.14232107459E+02  0.81794078266E+02  0.00000000000E+00 0.  1.
</event>
<event>
 7    1  0.6684706E-006  0.1166595E+03  0.7561462E-02  0.1248712E+00
          2   -1    0    0  501    0  0.00000000000E+00  0.00000000000E+00  0.68649757921E+02  0.68649757921E+02  0.00000000000E+00 0. -1.
         -2   -1    0    0    0  501 -0.00000000000E+00 -0.00000000000E+00 -0.29483302897E+03  0.29483302897E+03  0.00000000000E+00 0.  1.
         23    2    1    2    0    0 -0.55266252837E+02  0.62289341396E+02 -0.13101243753E+03  0.18560805899E+03  0.10174365838E+03 0.  0.
          5    1    1    2  502    0  0.66585932079E+01  0.37607704497E+02 -0.32037817625E+02  0.50025697988E+02  0.41800000000E+01 0.  1.
         -5    1    1    2    0  502  0.48607659629E+02 -0.99897045893E+02 -0.63133015893E+02  0.12784902991E+03  0.41800000000E+01 0.  1.
        -11    1    3    3    0    0 -0.24290281469E+02  0.21013781212E+02 -0.13008737182E+03  0.13399373523E+03  0.00000000000E+00 0.  1.
         11    1    3    3    0    0 -0.30975971367E+02  0.41275560184E+02 -0.92506571036E+00  0.51614323760E+02  0.00000000000E+00 0. -1.
</event>
<event>
 7    1  0.6684706E-006  0.6059376E+02  0.7561462E-02  0.1395357E+00
          2   -1    0    0  501    0  0.00000000000E+00  0.00000000000E+00  0.14030947876E+03  0.14030947876E+03  0.00000000000E+00 0. -1.
         -2   -1    0    0    0  501 -0.00000000000E+00 -0.00000000000E+00 -0.70087118974E+02  0.70087118974E+02  0.00000000000E+00 0.  1.
         23    2    1    2    0    0 -0.19825044788E+02  0.36423374220E+01 -0.45975652123E-01  0.65504863067E+02  0.62326446625E+02 0.  0.
          5    1    1    2  502    0  0.59105531597E+02 -0.54702154121E+01 -0.51574923401E+01  0.59728211502E+02  0.41800000000E+01 0. -1.
         -5    1    1    2    0  502 -0.39280486809E+02  0.18278779901E+01  0.75425827781E+02  0.85163523167E+02  0.41800000000E+01 0. -1.
        -11    1    3    3    0    0 -0.90709036280E+01  0.63198704144E+01 -0.30848304358E+02  0.32769497043E+02  0.00000000000E+00 0.  1.
         11    1    3    3    0    0 -0.10754141160E+02 -0.26775329924E+01  0.30802328706E+02  0.32735366024E+02  0.00000000000E+00 0. -1.
</event>
<event>
 7    1  0.6684706E-006  0.1025470E+03  0.7561462E-02  0.1275029E+00
          2   -1    0    0  501    0  0.00000000000E+00  0.00000000000E+00  0.62846884988E+02  0.62846884988E+02  0.00000000000E+00 0. -1.
         -2   -1    0    0    0  501 -0.00000000000E+00 -0.00000000000E+00 -0.24593513970E+03  0.24593513970E+03  0.00000000000E+00 0.  1.
         23    2    1    2    0    0 -0.43232171940E+02  0.35710754475E+02 -0.12528713236E+03  0.16001299254E+03  0.82237543561E+02 0.  0.
          5    1    1    2  502    0  0.66086674277E+02 -0.40454182686E+01  0.13187551359E+02  0.67640208728E+02  0.41800000000E+01 0. -1.
         -5    1    1    2    0  502 -0.22854502337E+02 -0.31665336207E+02 -0.70988673711E+02  0.81128823420E+02  0.41800000000E+01 0. -1.
        -11    1    3    3    0    0 -0.22569447522E+02  0.62034474791E+02 -0.80532195833E+02  0.10413016177E+03  0.00000000000E+00 0.  1.
         11    1    3    3    0    0 -0.20662724418E+02 -0.26323720316E+02 -0.44754936529E+02  0.55882830775E+02  0.00000000000E+00 0. -1.
</event>
<event>
 7    1  0.6684706E-006  0.1190929E+03  0.7561462E-02  0.1244601E+00
          2   -1    0    0  501    0  0.00000000000E+00  0.00000000000E+00  0.10589830536E+03  0.10589830536E+03  0.00000000000E+00 0. -1.
         -2   -1    0    0    0  501 -0.00000000000E+00 -0.00000000000E+00 -0.19496089942E+03  0.19496089942E+03  0.00000000000E+00 0.  1.
         23    2    1    2    0    0 -0.75187236741E+02  0.23711477006E+02 -0.93375115548E+02  0.15292775256E+03  0.91938188950E+02 0.  0.
          5    1    1    2  502    0 -0.12568572732E+02 -0.40724214541E+02 -0.29789718643E+02  0.52166372380E+02  0.41800000000E+01 0.  1.
         -5    1    1    2    0  502  0.87755809473E+02  0.17012737535E+02  0.34102240130E+02  0.95765079839E+02  0.41800000000E+01 0.  1.
        -11    1    3    3    0    0 -0.15441694284E+02 -0.24596575882E+02  0.35343243791E+01  0.29256262856E+02  0.00000000000E+00 0. -1.
         11    1    3    3    0    0 -0.59745542457E+02  0.48308052888E+02 -0.96909439927E+02  0.12367148970E+03  0.00000000000E+00 0.  1.
</event>
<event>
 7    1  0.6684706E-006  0.1056017E+03  0.7561462E-02  0.1268939E+00
          1   -1    0    0  501    0  0.00000000000E+00  0.00000000000E+00  0.14691365158E+03  0.14691365158E+03  0.00000000000E+00 0. -1.
         -1   -1    0    0    0  501 -0.00000000000E+00 -0.00000000000E+00 -0.82970320113E+02  0.82970320113E+02  0.00000000000E+00 0.  1.
         23    2    1    2    0    0 -0.11142410920E+02 -0.14122772262E+02  0.10098377210E+02  0.87352231616E+02  0.84881264885E+02 0.  0.
          5    1    1    2  502    0  0.66253059224E+02 -0.56169945810E+01  0.61470308676E+01  0.66904983918E+02  0.41800000000E+01 0. -1.
         -5    1    1    2    0  502 -0.55110648304E+02  0.19739766843E+02  0.47697923389E+02  0.75626756159E+02  0.41800000000E+01 0.  1.
        -11    1    3    3    0    0  0.25302427884E+02 -0.35535620165E+02  0.11308052756E+02  0.45065121929E+02  0.00000000000E+00 0. -1.
         11    1    3    3    0    0 -0.36444838804E+02  0.21412847903E+02 -0.12096755455E+01  0.42287109687E+02  0.00000000000E+00 0.  1.
</event>
<event>
 7    1  0.6684706E-006  0.1084058E+03  0.7561462E-02  0.1263551E+00
         -2   -1    0    0    0  501 -0.00000000000E+00  0.00000000000E+00  0.48061287321E+02  0.48061287321E+02  0.00000000000E+00 0. -1.
          2   -1    0    0  501    0  0.00000000000E+00 -0.00000000000E+00 -0.27851295516E+03  0.27851295516E+03  0.00000000000E+00 0.  1.
         23    2    1    2    0    0 -0.39055603217E+01  0.39535085159E+02 -0.10138031348E+03  0.14248094581E+03  0.91894371962E+02 0.  0.
          5    1    1    2  502    0  0.44186698848E+02 -0.63659333003E+02 -0.50894855589E+02  0.92804815386E+02  0.41800000000E+01 0.  1.
         -5    1    1    2    0  502 -0.40281138527E+02  0.24124247843E+02 -0.78176498766E+02  0.91288481279E+02  0.41800000000E+01 0.  1.
        -11    1    3    3    0    0 -0.39872941715E+02  0.39465439002E+02 -0.32656150126E+02  0.64913762005E+02  0.00000000000E+00 0. -1.
         11    1    3    3    0    0  0.35967381394E+02  0.69646157833E-01 -0.68724163358E+02  0.77567183809E+02  0.00000000000E+00 0.  1.
</event>
<event>
 7    1  0.6684706E-006  0.7526240E+02  0.7561462E-02  0.1343060E+00
          2   -1    0    0  501    0  0.00000000000E+00  0.00000000000E+00  0.80212539786E+03  0.80212539786E+03  0.00000000000E+00 0. -1.
         -2   -1    0    0    0  501 -0.00000000000E+00 -0.00000000000E+00 -0.22500706713E+02  0.22500706713E+02  0.00000000000E+00 0.  1.
         23    2    1    2    0    0 -0.50951100953E+02 -0.50256027417E+02  0.25286203577E+03  0.27850499280E+03  0.92217888185E+02 0.  0.
          5    1    1    2  502    0  0.49127786223E+02  0.38682765938E+02  0.92790618061E+02  0.11197083084E+03  0.41800000000E+01 0. -1.
         -5    1    1    2    0  502  0.18233147297E+01  0.11573261479E+02  0.43397203732E+03  0.43415028093E+03  0.41800000000E+01 0. -1.
        -11    1    3    3    0    0 -0.39525534945E+01 -0.17963764415E+02 -0.89950407431E+00  0.18415445112E+02  0.00000000000E+00 0.  1.
         11    1    3    3    0    0 -0.46998547458E+02 -0.32292263001E+02  0.25376153984E+03  0.26008954769E+03  0.00000000000E+00 0. -1.
</event>
<event>
 7    1  0.6684706E-006  0.1264614E+03  0.7561462E-02  0.1232803E+00
          4   -1    0    0  501    0  0.00000000000E+00  0.00000000000E+00  0.14003592468E+03  0.14003592468E+03  0.00000000000E+00 0.  1.
         -4   -1    0    0    0  501 -0.00000000000E+00 -0.00000000000E+00 -0.18028667442E+03  0.18028667442E+03  0.00000000000E+00 0. -1.
         23    2    1    2    0    0  0.32653875526E+02  0.71247833447E+02 -0.10461212082E+03  0.15927665815E+03  0.91010046971E+02 0.  0.
          5    1    1    2  502    0 -0.72139771993E+02 -0.78197071797E+02  0.38837778458E+02  0.11333478802E+03  0.41800000000E+01 0. -1.
         -5    1    1    2    0  502  0.39485896467E+02  0.69492383498E+01  0.25523592619E+02  0.47711152927E+02  0.41800000000E+01 0. -1.
        -11    1    3    3    0    0  0.52610616769E+02  0.30612164708E+02 -0.21352978559E+02  0.64505281321E+02  0.00000000000E+00 0.  1.
         11    1    3    3    0    0 -0.19956741243E+02  0.40635668739E+02 -0.83259142265E+02  0.94771376826E+02  0.00000000000E+00 0. -1.
</event>
<event>
 7    1  0.7461581E-006  0.1940705E+03  0.7561462E-02  0.1154840E+00
         -2   -1    0    0    0  501 -0.00000000000E+00  0.00000000000E+00  0.59484720748E+02  0.59484720748E+02  0.00000000000E+00 0.  1.
          2   -1    0    0  501    0  0.00000000000E+00 -0.00000000000E+00 -0.75125928119E+03  0.75125928119E+03  0.00000000000E+00 0. -1.
         23    2    1    2    0    0 -0.90660272975E+02 -0.15376615853E+03 -0.26222854720E+03  0.32905881338E+03  0.87478997994E+02 0.  0.
          5    1    1    2  502    0  0.11378063479E+03  0.10437290747E+03 -0.36937846561E+03  0.40037190201E+03  0.41800000000E+01 0.  1.
         -5    1    1    2    0  502 -0.23120361819E+02  0.49393251056E+02 -0.60167547637E+02  0.81313286547E+02  0.41800000000E+01 0.  1.
        -11    1    3    3    0    0 -0.54187965477E+02 -0.10420087216E+03 -0.23300983524E+03  0.26093627705E+03  0.00000000000E+00 0. -1.
         11    1    3    3    0    0 -0.36472307498E+02 -0.49565286368E+02 -0.29218711956E+02  0.68122536326E+02  0.00000000000E+00 0.  1.
</event>
<event>
 7    1  0.6684706E-006  0.1002154E+03  0.7561462E-02  0.1279844E+00
          1   -1    0    0  501    0  0.00000000000E+00  0.00000000000E+00  0.39237750517E+03  0.39237750517E+03  0.00000000000E+00 0. -1.
         -1   -1    0    0    0  501 -0.00000000000E+00 -0.00000000000E+00 -0.33679668422E+02  0.33679668422E+02  0.00000000000E+00 0.  1.
         23    2    1    2    0    0 -0.30325817455E+02 -0.17668792716E+01  0.14702308731E+03  0.17547336464E+03  0.90842371333E+02 0.  0.
          5    1    1    2  502    0  0.33331876258E+02 -0.47531940042E+02  0.36898804430E+02  0.68915117843E+02  0.41800000000E+01 0. -1.
         -5    1    1    2    0  502 -0.30060588033E+01  0.49298819313E+02  0.17477594501E+03  0.18166869111E+03  0.41800000000E+01 0.  1.
        -11    1    3    3    0    0  0.28934964921E+02  0.12791684775E+02  0.72859729989E+02  0.79431729481E+02  0.00000000000E+00 0.  1.
         11    1    3    3    0    0 -0.59260782375E+02 -0.14558564047E+02  0.74163357318E+02  0.96041635156E+02  0.00000000000E+00 0. -1.
</event>
<event>
 7    1  0.6684706E-006  0.1642309E+03  0.7561462E-02  0.1184001E+00
          1   -1    0    0  501    0  0.00000000000E+00  0.00000000000E+00  0.13697983735E+03  0.13697983735E+03  0.00000000000E+00 0. -1.
         -1   -1    0    0    0  501 -0.00000000000E+00 -0.00000000000E+00 -0.26967231830E+03  0.26967231830E+03  0.00000000000E+00 0.  1.
         23    2    1    2    0    0 -0.36204466841E+02  0.13965768389E+03 -0.13231499982E+03  0.21569902468E+03  0.90574709390E+02 0.  0.
          5    1    1    2  502    0  0.77852490852E+02 -0.94845894469E+02  0.23757450562E+02  0.12505455964E+03  0.41800000000E+01 0. -1.
         -5    1    1    2    0  502 -0.41648024011E+02 -0.44811789423E+02 -0.24134931690E+02  0.65898571327E+02  0.41800000000E+01 0. -1.
        -11    1    3    3    0    0 -0.31378738079E+02  0.12697932870E+03 -0.63203855385E+02  0.14526906917E+03  0.00000000000E+00 0. -1.
         11    1    3    3    0    0 -0.48257287619E+01  0.12678355192E+02 -0.69111144440E+02  0.70429955517E+02  0.00000000000E+00 0.  1.
</event>
<event>
 7    1  0.6684706E-006  0.1364682E+03  0.7561462E-02  0.1218162E+00
         -1   -1    0    0    0  501 -0.00000000000E+00  0.00000000000E+00  0.35138682128E+02  0.35138682128E+02  0.00000000000E+00 0.  1.
          1   -1    0    0  501    0  0.00000000000E+00 -0.00000000000E+00 -0.66918406837E+03  0.66918406837E+03  0.00000000000E+00 0. -1.
         23    2    1    2    0    0  0.99004209849E+02 -0.41353757398E+02 -0.27395217576E+03  0.30830953134E+03  0.92157504824E+02 0.  0.
          5    1    1    2  502    0  0.37771730697E+01 -0.26455132798E+02 -0.15032644715E+03  0.15274047990E+03  0.41800000000E+01 0. -1.
         -5    1    1    2    0  502 -0.10278138292E+03  0.67808890196E+02 -0.20976676333E+03  0.24327273925E+03  0.41800000000E+01 0. -1.
        -11    1    3    3    0    0  0.21637207108E+02 -0.39798598422E+02 -0.35313716184E+02  0.57438277469E+02  0.00000000000E+00 0.  1.
         11    1    3    3    0    0  0.77367002740E+02 -0.15551589755E+01 -0.23863845957E+03  0.25087125387E+03  0.00000000000E+00 0. -1.
</event>
<event>
 7    1  0.6684706E-006  0.1465996E+03  0.7561462E-02  0.1204715E+00
         -1   -1    0    0    0  501 -0.00000000000E+00  0.00000000000E+00  0.49153818991E+03  0.49153818991E+03  0.00000000000E+00 0.  1.
          1   -1    0    0  501    0  0.00000000000E+00 -0.00000000000E+00 -0.62653750104E+02  0.62653750104E+02  0.00000000000E+00 0. -1.
         23    2    1    2    0    0 -0.12796332873E+03  0.12788326659E+02  0.27967367790E+03  0.32084868479E+03  0.90489544292E+02 0.  0.
          5    1    1    2  502    0  0.35751595811E+01 -0.14149029290E+02 -0.18855443134E+02  0.24206960397E+02  0.41800000000E+01 0.  1.
         -5    1    1    2    0  502  0.12438816915E+03  0.13607026311E+01  0.16806620504E+03  0.20913629482E+03  0.41800000000E+01 0.  1.
        -11    1    3    3    0    0 -0.70099103688E+02 -0.35143048111E+02  0.17724282582E+03  0.19381418285E+03  0.00000000000E+00 0.  1.
         11    1    3    3    0    0 -0.57864225041E+02  0.47931374771E+02  0.10243085208E+03  0.12703450195E+03  0.00000000000E+00 0. -1.
</event>
<event>
 7    1  0.6684706E-006  0.1613323E+03  0.7561462E-02  0.1187201E+00
          2   -1    0    0  501    0  0.00000000000E+00  0.00000000000E+00  0.50497542643E+03  0.50497542643E+03  0.00000000000E+00 0. -1.
         -2   -1    0    0    0  501 -0.00000000000E+00 -0.00000000000E+00 -0.11332488895E+03  0.11332488895E+03  0.00000000000E+00 0.  1.
         23    2    1    2    0    0 -0.12071673377E+03  0.11076019417E+02 -0.51429339916E+01  0.15803716400E+03  0.10126246796E+03 0.  0.
          5    1    1    2  502    0  0.13290790572E+03 -0.35649213461E+02  0.40780081548E+03  0.43041184386E+03  0.41800000000E+01 0. -1.
         -5    1    1    2    0  502 -0.12191171948E+02  0.24573194044E+02 -0.11007344007E+02  0.29851307527E+02  0.41800000000E+01 0.  1.
        -11    1    3    3    0    0 -0.13779584739E+03  0.17701735790E+02  0.29252237262E+00  0.13892851607E+03  0.00000000000E+00 0.  1.
         11    1    3    3    0    0  0.17079113625E+02 -0.66257163733E+01 -0.54354563642E+01  0.19108647926E+02  0.00000000000E+00 0. -1.
</event>
<event>
 7    1  0.6684706E-006  0.1170731E+03  0.7561462E-02  0.1248005E+00
         -1   -1    0    0    0  501 -0.00000000000E+00  0.00000000000E+00  0.19388567847E+03  0.19388567847E+03  0.00000000000E+00 0.  1.
          1   -1    0    0  501    0  0.00000000000E+00 -0.00000000000E+00 -0.79999642857E+02  0.79999642857E+02  0.00000000000E+00 0. -1.
         23    2    1    2    0    0 -0.52112322203E+02  0.21500072094E+02  0.70029358549E+02  0.12984046819E+03  0.93682916780E+02 0.  0.
          5    1    1    2  502    0  0.61842288596E+01  0.50815731669E+02  0.18742958664E+02  0.54674072202E+02  0.41800000000E+01 0. -1.
         -5    1    1    2    0  502  0.45928093343E+02 -0.72315803764E+02  0.25113718398E+02  0.89370780929E+02  0.41800000000E+01 0. -1.
        -11    1    3    3    0    0 -0.23567915306E+02 -0.29990088515E+02 -0.27224325753E+00  0.38143494299E+02  0.00000000000E+00 0. -1.
         11    1    3    3    0    0 -0.28544406897E+02  0.51490160609E+02  0.70301601806E+02  0.91696973893E+02  0.00000000000E+00 0.  1.
</event>
<event>
 7    1  0.6684706E-006  0.1367578E+03  0.7561462E-02  0.1217759E+00
         -1   -1    0    0    0  501 -0.00000000000E+00  0.00000000000E+00  0.34839639153E+02  0.34839639153E+02  0.00000000000E+00 0.  1.
          1   -1    0    0  501    0  0.00000000000E+00 -0.00000000000E+00 -0.70732481652E+03  0.70732481652E+03  0.00000000000E+00 0. -1.
         23    2    1    2    0    0  0.93766882584E+02 -0.38005359500E+02 -0.19052642114E+03  0.23406179457E+03  0.90818340139E+02 0.  0.
          5    1    1    2  502    0 -0.13533448552E+02  0.56300687638E+02 -0.86670969132E+02  0.10431802792E+03  0.41800000000E+01 0. -1.
         -5    1    1    2    0  502 -0.80233434032E+02 -0.18295328139E+02 -0.39528778710E+03  0.40378463319E+03  0.41800000000E+01 0. -1.
        -11    1    3    3    0    0  0.11039452234E+03 -0.36895273968E+02 -0.17998572217E+03  0.21434335070E+03  0.00000000000E+00 0. -1.
         11    1    3    3    0    0 -0.16627639760E+02 -0.11100855314E+01 -0.10540698965E+02  0.19718443867E+02  0.00000000000E+00 0.  1.
</event>
<event>
 7    1  0.6684706E-006  0.1487974E+03  0.7561462E-02  0.1201959E+00
         -1   -1    0    0    0  501 -0.00000000000E+00  0.00000000000E+00  0.27413964189E+02  0.27413964189E+02  0.00000000000E+00 0.  1.
          1   -1    0    0  501    0  0.00000000000E+00 -0.00000000000E+00 -0.91064257517E+03  0.91064257517E+03  0.00000000000E+00 0. -1.
         23    2    1    2    0    0 -0.10445590413E+03 -0.34829587807E+02 -0.31550349074E+03  0.34637805255E+03  0.91165599474E+02 0.  0.
          5    1    1    2  502    0 -0.42042846059E+01  0.49181351618E+02 -0.10452896612E+03  0.11567306737E+03  0.41800000000E+01 0. -1.
         -5    1    1    2    0  502  0.10866018874E+03 -0.14351763811E+02 -0.46319615412E+03  0.47600541944E+03  0.41800000000E+01 0. -1.
        -11    1    3    3    0    0 -0.23281698989E+02  0.27498905414E+02 -0.48399890226E+02  0.60338848851E+02  0.00000000000E+00 0. -1.
         11    1    3    3    0    0 -0.81174205145E+02 -0.62328493221E+02 -0.26710360051E+03  0.28603920370E+03  0.00000000000E+00 0.  1.
</event>
<event>
 7    1  0.6684706E-006  0.1134867E+03  0.7561462E-02  0.1254246E+00
         -2   -1    0    0    0  501 -0.00000000000E+00  0.00000000000E+00  0.12288059646E+02  0.12288059646E+02  0.00000000000E+00 0.  1.
          2   -1    0    0  501    0  0.00000000000E+00 -0.00000000000E+00 -0.13360882583E+04  0.13360882583E+04  0.00000000000E+00 0. -1.
         23    2    1    2    0    0 -0.22161123944E+02 -0.60989604045E+02 -0.52457672735E+03  0.53682436170E+03  0.93748627835E+02 0.  0.
          5    1    1    2  502    0 -0.20825196630E+02  0.66539511928E+02 -0.69632343821E+03  0.69981783234E+03  0.41800000000E+01 0. -1.
         -5    1    1    2    0  502  0.42986320574E+02 -0.55499078827E+01 -0.10290003309E+03  0.11173412391E+03  0.41800000000E+01 0. -1.
        -11    1    3    3    0    0  0.18225004047E+02 -0.69889365842E+02 -0.35556870511E+03  0.36283023342E+03  0.00000000000E+00 0. -1.
         11    1    3    3    0    0 -0.40386127991E+02  0.88997617973E+01 -0.16900802224E+03  0.17399412828E+03  0.00000000000E+00 0.  1.
</event>
<event>
 7    1  0.6684706E-006  0.1068771E+03  0.7561462E-02  0.1266465E+00
          2   -1    0    0  501    0  0.00000000000E+00  0.00000000000E+00  0.24945060416E+03  0.24945060416E+03  0.00000000000E+00 0. -1.
         -2   -1    0    0    0  501 -0.00000000000E+00 -0.00000000000E+00 -0.55736532904E+02  0.55736532904E+02  0.00000000000E+00 0.  1.
         23    2    1    2    0    0 -0.29747362680E+02 -0.33342212360E+02  0.96352086410E+02  0.14048844708E+03  0.91960157103E+02 0.  0.
          5    1    1    2  502    0 -0.49178795675E+02  0.13092252416E+02  0.33262142788E+02  0.60940984240E+02  0.41800000000E+01 0.  1.
         -5    1    1    2    0  502  0.78926158355E+02  0.20249959944E+02  0.64099842055E+02  0.10375770575E+03  0.41800000000E+01 0.  1.
        -11    1    3    3    0    0 -0.31417860084E+02 -0.52870956371E+02  0.10285329694E+03  0.11983831045E+03  0.00000000000E+00 0. -1.
         11    1    3    3    0    0  0.16704974039E+01  0.19528744011E+02 -0.65012105317E+01  0.20650136624E+02  0.00000000000E+00 0.  1.
</event>
<event>
 7    1  0.6684706E-006  0.1107737E+03  0.7561462E-02  0.1259144E+00
         -2   -1    0    0    0  501 -0.00000000000E+00  0.00000000000E+00  0.45372218640E+02  0.45372218640E+02  0.00000000000E+00 0.  1.
          2   -1    0    0  501    0  0.00000000000E+00 -0.00000000000E+00 -0.32173894708E+03  0.32173894708E+03  0.00000000000E+00 0. -1.
         23    2    1    2    0    0  0.47715328733E+02  0.85847018794E+01 -0.11844106272E+03  0.15989979235E+03  0.95860359648E+02 0.  0.
          5    1    1    2  502    0 -0.47623030958E+02 -0.54974824200E+02 -0.46464822480E+02  0.86409701432E+02  0.41800000000E+01 0. -1.
         -5    1    1    2    0  502 -0.92297774343E-01  0.46390122321E+02 -0.11146084324E+03  0.12080167194E+03  0.41800000000E+01 0. -1.
        -11    1    3    3    0    0  0.89611968212E+01 -0.39416798237E+02 -0.72401489338E+02  0.82921424795E+02  0.00000000000E+00 0. -1.
         11    1    3    3    0    0  0.38754131912E+02  0.48001500117E+02 -0.46039573381E+02  0.76978367551E+02  0.00000000000E+00 0.  1.
</event>
<event>
 7    1  0.6684706E-006  0.1454960E+03  0.7561462E-02  0.1206119E+00
          2   -1    0    0  501    0  0.00000000000E+00  0.00000000000E+00  0.11344704580E+04  0.11344704580E+04  0.00000000000E+00 0. -1.
         -2   -1    0    0    0  501 -0.00000000000E+00 -0.00000000000E+00 -0.10679896359E+03  0.10679896359E+03  0.00000000000E+00 0.  1.
         23    2    1    2    0    0 -0.11758733416E+03  0.11778547565E+02 -0.45315967026E+02  0.15457182863E+03  0.88732170057E+02 0.  0.
          5    1    1    2  502    0  0.41537905316E+00 -0.47930585365E+02  0.36498063995E+03  0.36813836189E+03  0.41800000000E+01 0.  1.
         -5    1    1    2    0  502  0.11717195510E+03  0.36152037800E+02  0.70800682151E+03  0.71855923111E+03  0.41800000000E+01 0.  1.
        -11    1    3    3    0    0 -0.22153965439E+02  0.11029747496E+02  0.25649896243E+02  0.35642259914E+02  0.00000000000E+00 0. -1.
         11    1    3    3    0    0 -0.95433368716E+02  0.74880006866E+00 -0.70965863270E+02  0.11892956872E+03  0.00000000000E+00 0.  1.
</event>
<event>
 7    1  0.6684706E-006  0.1210586E+03  0.7561462E-02  0.1241361E+00
         -2   -1    0    0    0  501 -0.00000000000E+00  0.00000000000E+00  0.13970846862E+02  0.13970846862E+02  0.00000000000E+00 0.  1.
          2   -1    0    0  501    0  0.00000000000E+00 -0.00000000000E+00 -0.15418518978E+04  0.15418518978E+04  0.00000000000E+00 0. -1.
         23    2    1    2    0    0 -0.52968477278E+02  0.59765128631E+02 -0.40882940846E+03  0.42697344715E+03  0.93740648410E+02 0.  0.
          5    1    1    2  502    0  0.85232376874E+02 -0.60063895232E+01 -0.65492777058E+03  0.66049109900E+03  0.41800000000E+01 0. -1.
         -5    1    1    2    0  502 -0.32263899597E+02 -0.53758739108E+02 -0.46412387194E+03  0.46835819855E+03  0.41800000000E+01 0. -1.
        -11    1    3    3    0    0 -0.28999560834E+02 -0.36665738824E+00 -0.26767675429E+02  0.39466662059E+02  0.00000000000E+00 0.  1.
         11    1    3    3    0    0 -0.23968916444E+02  0.60131786019E+02 -0.38206173303E+03  0.38750678509E+03  0.00000000000E+00 0. -1.
</event>
<event>
 7    1  0.6684706E-006  0.1351144E+03  0.7561462E-02  0.1220058E+00
          3   -1    0    0  501    0  0.00000000000E+00  0.00000000000E+00  0.22114420744E+03  0.22114420744E+03  0.00000000000E+00 0. -1.
         -3   -1    0    0    0  501 -0.00000000000E+00 -0.00000000000E+00 -0.95766906691E+02  0.95766906691E+02  0.00000000000E+00 0.  1.
         23    2    1    2    0    0  0.89618638428E+02  0.32899585897E+02  0.72986495362E+02  0.15106217320E+03  0.91536159861E+02 0.  0.
          5    1    1    2  502    0 -0.49181157899E+02  0.46297241214E+02  0.30183321734E+02  0.74099434189E+02  0.41800000000E+01 0.  1.
         -5    1    1    2    0  502 -0.40437480530E+02 -0.79196827112E+02  0.22207483652E+02  0.91749506736E+02  0.41800000000E+01 0.  1.
        -11    1    3    3    0    0  0.25431565708E+02  0.41602178059E+02  0.71159242397E+02  0.86262063111E+02  0.00000000000E+00 0. -1.
         11    1    3    3    0    0  0.64187072721E+02 -0.87025921617E+01  0.18272529650E+01  0.64800110094E+02  0.00000000000E+00 0.  1.
</event>
<event>
 7    1  0.6684706E-006  0.1276447E+03  0.7561462E-02  0.1230993E+00
         -3   -1    0    0    0  501 -0.00000000000E+00  0.00000000000E+00  0.62440618244E+02  0.62440618244E+02  0.00000000000E+00 0.  1.
          3   -1    0    0  501    0  0.00000000000E+00 -0.00000000000E+00 -0.37879942364E+03  0.37879942364E+03  0.00000000000E+00 0. -1.
         23    2    1    2    0    0  0.64070393395E+02  0.64524336113E+02 -0.60150467329E+02  0.14197732442E+03  0.90945459865E+02 0.  0.
          5    1    1    2  502    0 -0.67228068821E+02 -0.98473853004E+02 -0.18392008549E+03  0.21922769718E+03  0.41800000000E+01 0. -1.
         -5    1    1    2    0  502  0.31576754255E+01  0.33949516891E+02 -0.72288252573E+02  0.80035020281E+02  0.41800000000E+01 0. -1.
        -11    1    3    3    0    0  0.44136156438E+02  0.12430274142E+02  0.15129816869E+02  0.48284815200E+02  0.00000000000E+00 0.  1.
         11    1    3    3    0    0  0.19934236957E+02  0.52094061971E+02 -0.75280284199E+02  0.93692509224E+02  0.00000000000E+00 0. -1.
</event>
<event>
 7    1  0.6684706E-006  0.6530321E+02  0.7561462E-02  0.1376835E+00
          1   -1    0    0  501    0  0.00000000000E+00  0.00000000000E+00  0.18275252903E+04  0.18275252903E+04  0.00000000000E+00 0. -1.
         -1   -1    0    0    0  501 -0.00000000000E+00 -0.00000000000E+00 -0.10584607633E+02  0.10584607633E+02  0.00000000000E+00 0.  1.
         23    2    1    2    0    0 -0.22836144225E+02 -0.19963790660E+02  0.29400205506E+03  0.31048157891E+03  0.95087118193E+02 0.  0.
          5    1    1    2  502    0  0.24014847286E+01  0.62710798540E+01  0.14585947860E+04  0.14586162332E+04  0.41800000000E+01 0. -1.
         -5    1    1    2    0  502  0.20434659496E+02  0.13692710806E+02  0.64343841615E+02  0.69012085838E+02  0.41800000000E+01 0.  1.
        -11    1    3    3    0    0 -0.53079631742E+02 -0.35389592436E+02  0.22000625286E+03  0.22906903295E+03  0.00000000000E+00 0. -1.
         11    1    3    3    0    0  0.30243487517E+02  0.15425801777E+02  0.73995802202E+02  0.81412545969E+02  0.00000000000E+00 0.  1.
</event>
<event>
 7    1  0.6684706E-006  0.1138611E+03  0.7561462E-02  0.1253582E+00
         -2   -1    0    0    0  501 -0.00000000000E+00  0.00000000000E+00  0.12072738014E+02  0.12072738014E+02  0.00000000000E+00 0.  1.
          2   -1    0    0  501    0  0.00000000000E+00 -0.00000000000E+00 -0.12722344669E+04  0.12722344669E+04  0.00000000000E+00 0. -1.
         23    2    1    2    0    0  0.48946452209E+02 -0.27542685376E+02 -0.34771968733E+03  0.36161988970E+03  0.81887782766E+02 0.  0.
          5    1    1    2  502    0 -0.83827592906E+02 -0.41601464978E+01 -0.70075310010E+03  0.70577386736E+03  0.41800000000E+01 0.  1.
         -5    1    1    2    0  502  0.34881140697E+02  0.31702831874E+02 -0.21168894142E+03  0.21691344782E+03  0.41800000000E+01 0.  1.
        -11    1    3    3    0    0  0.67041706912E+02 -0.36328080451E+02 -0.30521425341E+03  0.31459507367E+03  0.00000000000E+00 0.  1.
         11    1    3    3    0    0 -0.18095254703E+02  0.87853950747E+01 -0.42505433923E+02  0.47024816027E+02  0.00000000000E+00 0. -1.
</event>
<event>
 7    1  0.6684706E-006  0.1214316E+03  0.7561462E-02  0.1240754E+00
          2   -1    0    0  501    0  0.00000000000E+00  0.00000000000E+00  0.12188333565E+04  0.12188333565E+04  0.00000000000E+00 0.  1.
         -2   -1    0    0    0  501 -0.00000000000E+00 -0.00000000000E+00 -0.13848139194E+02  0.13848139194E+02  0.00000000000E+00 0. -1.
         23    2    1    2    0    0 -0.50964813663E+02  0.15548511663E+02  0.51550532979E+03  0.52992284508E+03  0.11060428678E+03 0.  0.
          5    1    1    2  502    0 -0.36542113222E+02  0.18038643827E+02  0.16936635910E+03  0.17425026457E+03  0.41800000000E+01 0.  1.
         -5    1    1    2    0  502  0.87506926885E+02 -0.33587155489E+02  0.52011352843E+03  0.52850838605E+03  0.41800000000E+01 0.  1.
        -11    1    3    3    0    0 -0.78946997896E+02  0.12386441199E+02  0.46739189329E+03  0.47417426576E+03  0.00000000000E+00 0.  1.
         11    1    3    3    0    0  0.27982184233E+02  0.31620704639E+01  0.48113436499E+02  0.55748579317E+02  0.00000000000E+00 0. -1.
</event>
<event>
 7    1  0.6684706E-006  0.1702485E+03  0.7561462E-02  0.1177589E+00
         -1   -1    0    0    0  501 -0.00000000000E+00  0.00000000000E+00  0.13767158480E+03  0.13767158480E+03  0.00000000000E+00 0.  1.
          1   -1    0    0  501    0  0.00000000000E+00 -0.00000000000E+00 -0.25977299539E+03  0.25977299539E+03  0.00000000000E+00 0. -1.
         23    2    1    2    0    0 -0.70347156310E+02 -0.13691808508E+03 -0.42892075041E+02  0.18386333498E+03  0.90943451792E+02 0.  0.
          5    1    1    2  502    0  0.34322830332E+02 -0.93721661703E+01 -0.47615588011E+02  0.59587001958E+02  0.41800000000E+01 0.  1.
         -5    1    1    2    0  502  0.36024325979E+02  0.14629025126E+03 -0.31593747537E+02  0.15399424326E+03  0.41800000000E+01 0.  1.
        -11    1    3    3    0    0 -0.29746725843E+02 -0.55119170825E+02 -0.64620476312E+02  0.89993314472E+02  0.00000000000E+00 0. -1.
         11    1    3    3    0    0 -0.40600430467E+02 -0.81798914259E+02  0.21728401271E+02  0.93870020507E+02  0.00000000000E+00 0.  1.
</event>
<event>
 7    1  0.6684706E-006  0.1117960E+03  0.7561462E-02  0.1257280E+00
         -2   -1    0    0    0  501 -0.00000000000E+00  0.00000000000E+00  0.49166470541E+03  0.49166470541E+03  0.00000000000E+00 0.  1.
          2   -1    0    0  501    0  0.00000000000E+00 -0.00000000000E+00 -0.58325758805E+02  0.58325758805E+02  0.00000000000E+00 0. -1.
         23    2    1    2    0    0 -0.75841385473E+02 -0.31761848046E+02  0.36683098194E+03  0.38618639093E+03  0.88398124906E+02 0.  0.
          5    1    1    2  502    0  0.81711607801E+02 -0.93331565146E+00  0.90958731130E+02  0.12234631623E+03  0.41800000000E+01 0. -1.
         -5    1    1    2    0  502 -0.58702223272E+01  0.32695163697E+02 -0.24450766462E+02  0.41457757054E+02  0.41800000000E+01 0. -1.
        -11    1    3    3    0    0 -0.74937244813E+02  0.15607037701E+01  0.32026258165E+03  0.32891662722E+03  0.00000000000E+00 0. -1.
         11    1    3    3    0    0 -0.90414066072E+00 -0.33322551816E+02  0.46568400287E+02  0.57269763708E+02  0.00000000000E+00 0.  1.
</event>
<event>
 7    1  0.6684706E-006  0.1131785E+03  0.7561462E-02  0.1254795E+00
         -2   -1    0    0    0  501 -0.00000000000E+00  0.00000000000E+00  0.81841422157E+02  0.81841422157E+02  0.00000000000E+00 0.  1.
          2   -1    0    0  501    0  0.00000000000E+00 -0.00000000000E+00 -0.26328023411E+03  0.26328023411E+03  0.00000000000E+00 0. -1.
         23    2    1    2    0    0  0.14307250091E+02 -0.74138332906E+02 -0.95847054691E+01  0.11955274389E+03  0.92194371743E+02 0.  0.
          5    1    1    2  502    0  0.12898165149E+02  0.10345892202E+03 -0.10852613063E+03  0.15055067133E+03  0.41800000000E+01 0.  1.
         -5    1    1    2    0  502 -0.27205415239E+02 -0.29320589109E+02 -0.63327975853E+02  0.75018241046E+02  0.41800000000E+01 0.  1.
        -11    1    3    3    0    0  0.24274580647E+02 -0.57310136290E+02 -0.46557222847E+02  0.77725684213E+02  0.00000000000E+00 0. -1.
         11    1    3    3    0    0 -0.99673305565E+01 -0.16828196617E+02  0.36972517378E+02  0.41827059675E+02  0.00000000000E+00 0.  1.
</event>
<event>
 7    1  0.6684706E-006  0.1250787E+03  0.7561462E-02  0.1234946E+00
         -2   -1    0    0    0  501 -0.00000000000E+00  0.00000000000E+00  0.12378219935E+02  0.12378219935E+02  0.00000000000E+00 0. -1.
          2   -1    0    0  501    0  0.00000000000E+00 -0.00000000000E+00 -0.31367193584E+04  0.31367193584E+04  0.00000000000E+00 0.  1.
         23    2    1    2    0    0  0.67570459015E+01  0.88287976215E+02 -0.38661970659E+03  0.40708966000E+03  0.91688436261E+02 0.  0.
          5    1    1    2  502    0 -0.74216123715E+01 -0.10605354517E+03 -0.26616257041E+04  0.26637513577E+04  0.41800000000E+01 0. -1.
         -5    1    1    2    0  502  0.66456646999E+00  0.17765568960E+02 -0.76095727770E+02  0.78256560581E+02  0.41800000000E+01 0. -1.
        -11    1    3    3    0    0  0.41584842257E+02  0.14736060392E+02 -0.17171643207E+03  0.17729349572E+03  0.00000000000E+00 0.  1.
         11    1    3    3    0    0 -0.34827796355E+02  0.73551915823E+02 -0.21490327452E+03  0.22979616428E+03  0.00000000000E+00 0. -1.
</event>
<event>
 7    1  0.6684706E-006  0.1017138E+03  0.7561462E-02  0.1276733E+00
         -1   -1    0    0    0  501 -0.00000000000E+00  0.00000000000E+00  0.18664811398E+03  0.18664811398E+03  0.00000000000E+00 0.  1.
          1   -1    0    0  501    0  0.00000000000E+00 -0.00000000000E+00 -0.84740504765E+02  0.84740504765E+02  0.00000000000E+00 0. -1.
         23    2    1    2    0    0  0.43579284846E+02  0.42135377338E+02  0.69284570448E+02  0.12860720966E+03  0.89804891751E+02 0.  0.
          5    1    1    2  502    0 -0.51203477407E+02  0.29009427081E+02  0.39156749327E+02  0.70810072560E+02  0.41800000000E+01 0. -1.
         -5    1    1    2    0  502  0.76241925609E+01 -0.71144804420E+02 -0.65337105590E+01  0.71971336529E+02  0.41800000000E+01 0. -1.
        -11    1    3    3    0    0  0.10865738108E+02  0.38306976309E+02 -0.11434038631E+02  0.41427357362E+02  0.00000000000E+00 0. -1.
         11    1    3    3    0    0  0.32713546738E+02  0.38284010295E+01  0.80718609078E+02  0.87179852295E+02  0.00000000000E+00 0.  1.
</event>
<event>
 7    1  0.6684706E-006  0.1136733E+03  0.7561462E-02  0.1253915E+00
         -1   -1    0    0    0  501 -0.00000000000E+00  0.00000000000E+00  0.67759683364E+02  0.67759683364E+02  0.00000000000E+00 0.  1.
          1   -1    0    0  501    0  0.00000000000E+00 -0.00000000000E+00 -0.36615404561E+03  0.36615404561E+03  0.00000000000E+00 0. -1.
         23    2    1    2    0    0 -0.98132440127E+02  0.29911859129E+02 -0.70844677337E+02  0.15471333086E+03  0.91610868986E+02 0.  0.
          5    1    1    2  502    0  0.81503367777E+02 -0.55198165909E+01 -0.43293820742E+02  0.92547796563E+02  0.41800000000E+01 0.  1.
         -5    1    1    2    0  502  0.16629072350E+02 -0.24392042538E+02 -0.18425586417E+03  0.18665260156E+03  0.41800000000E+01 0.  1.
        -11    1    3    3    0    0 -0.85480918208E+02  0.44544108823E+02 -0.86743237143E+02  0.12967480171E+03  0.00000000000E+00 0. -1.
         11    1    3    3    0    0 -0.12651521919E+02 -0.14632249694E+02  0.15898559806E+02  0.25038529148E+02  0.00000000000E+00 0.  1.
</event>
<event>
 7    1  0.6684706E-006  0.1029348E+03  0.7561462E-02  0.1274243E+00
          2   -1    0    0  501    0  0.00000000000E+00  0.00000000000E+00  0.67190286557E+02  0.67190286557E+02  0.00000000000E+00 0.  1.
         -2   -1    0    0    0  501 -0.00000000000E+00 -0.00000000000E+00 -0.22253345960E+03  0.22253345960E+03  0.00000000000E+00 0. -1.
         23    2    1    2    0    0  0.38051219049E+02 -0.49252975300E+02 -0.79947935720E+02  0.13095913397E+03  0.82975125774E+02 0.  0.
          5    1    1    2  502    0  0.96627013336E+01 -0.17244743406E+02 -0.74097674678E+02  0.76802908571E+02  0.41800000000E+01 0.  1.
         -5    1    1    2    0  502 -0.47713920383E+02  0.66497718706E+02 -0.12975626476E+01  0.81961703620E+02  0.41800000000E+01 0.  1.
        -11    1    3    3    0    0  0.61637925004E+02 -0.51085411496E+02 -0.62472530823E+02  0.10154688658E+03  0.00000000000E+00 0.  1.
         11    1    3    3    0    0 -0.23586705955E+02  0.18324361957E+01 -0.17475404897E+02  0.29412247390E+02  0.00000000000E+00 0. -1.
</event>
<event>
 7    1  0.6684706E-006  0.1303215E+03  0.7561462E-02  0.1226980E+00
         -1   -1    0    0    0  501 -0.00000000000E+00  0.00000000000E+00  0.24702332870E+03  0.24702332870E+03  0.00000000000E+00 0.  1.
          1   -1    0    0  501    0  0.00000000000E+00 -0.00000000000E+00 -0.36915473735E+03  0.36915473735E+03  0.00000000000E+00 0. -1.
         23    2    1    2    0    0  0.88163579730E+01  0.75450610066E+02  0.19960195015E+03  0.23144099526E+03  0.89182246306E+02 0.  0.
          5    1    1    2  502    0  0.26362290627E+02 -0.11660343649E+03 -0.30546568037E+03  0.32805195633E+03  0.41800000000E+01 0. -1.
         -5    1    1    2    0  502 -0.35178648600E+02  0.41152826423E+02 -0.16267678426E+02  0.56685114460E+02  0.41800000000E+01 0.  1.
        -11    1    3    3    0    0 -0.16158788655E+02  0.41816404597E+02  0.17942808525E+03  0.18494365607E+03  0.00000000000E+00 0.  1.
         11    1    3    3    0    0  0.24975146628E+02  0.33634205469E+02  0.20173864897E+02  0.46497339187E+02  0.00000000000E+00 0. -1.
</event>
<event>
 7    1  0.6684706E-006  0.1075385E+03  0.7561462E-02  0.1265197E+00
          2   -1    0    0  501    0  0.00000000000E+00  0.00000000000E+00  0.37884654117E+03  0.37884654117E+03  0.00000000000E+00 0. -1.
         -2   -1    0    0    0  501 -0.00000000000E+00 -0.00000000000E+00 -0.45696173535E+02  0.45696173535E+02  0.00000000000E+00 0.  1.
         23    2    1    2    0    0 -0.73040106304E+02  0.75476155113E+01  0.12555196738E+03  0.17129128668E+03  0.90474221476E+02 0.  0.
          5    1    1    2  502    0  0.38301167351E+02 -0.38848825178E+02  0.19788510512E+03  0.20531000430E+03  0.41800000000E+01 0. -1.
         -5    1    1    2    0  502  0.34738938952E+02  0.31301209667E+02  0.97132951389E+01  0.47941423723E+02  0.41800000000E+01 0. -1.
        -11    1    3    3    0    0 -0.54703533269E+01  0.38646981067E+02  0.25519099934E+02  0.46634090241E+02  0.00000000000E+00 0.  1.
         11    1    3    3    0    0 -0.67569752977E+02 -0.31099365556E+02  0.10003286744E+03  0.12465719644E+03  0.00000000000E+00 0. -1.
</event>
<event>
 7    1  0.6684706E-006  0.1853719E+03  0.7561462E-02  0.1162703E+00
         -1   -1    0    0    0  501 -0.00000000000E+00  0.00000000000E+00  0.13373022071E+03  0.13373022071E+03  0.00000000000E+00 0.  1.
          1   -1    0    0  501    0  0.00000000000E+00 -0.00000000000E+00 -0.34859012616E+03  0.34859012616E+03  0.00000000000E+00 0. -1.
         23    2    1    2    0    0  0.29189110926E+02  0.16523002783E+03 -0.13171810821E+02  0.19166670874E+03  0.91704222078E+02 0.  0.
          5    1    1    2  502    0 -0.40102215263E+01 -0.15170110654E+03 -0.92642442661E+02  0.17784656922E+03  0.41800000000E+01 0.  1.
         -5    1    1    2    0  502 -0.25178889399E+02 -0.13528921293E+02 -0.10904565197E+03  0.11280706891E+03  0.41800000000E+01 0.  1.
        -11    1    3    3    0    0  0.29594374707E+02  0.17640111396E+03 -0.17410282404E+02  0.17971170789E+03  0.00000000000E+00 0. -1.
         11    1    3    3    0    0 -0.40526378132E+00 -0.11171086128E+02  0.42384715831E+01  0.11955000852E+02  0.00000000000E+00 0.  1.
</event>
<event>
 7    1  0.6684706E-006  0.7946288E+02  0.7561462E-02  0.1330583E+00
         -3   -1    0    0    0  501 -0.00000000000E+00  0.00000000000E+00  0.33667705753E+03  0.33667705753E+03  0.00000000000E+00 0.  1.
          3   -1    0    0  501    0  0.00000000000E+00 -0.00000000000E+00 -0.44810230133E+02  0.44810230133E+02  0.00000000000E+00 0. -1.
         23    2    1    2    0    0 -0.45968690373E+02 -0.19607602830E+02  0.16910911131E+03  0.19923833352E+03  0.92738575763E+02 0.  0.
          5    1    1    2  502    0  0.14950682688E+02  0.16881233099E+02 -0.23392913618E+02  0.32759727583E+02  0.41800000000E+01 0. -1.
         -5    1    1    2    0  502  0.31018007685E+02  0.27263697317E+01  0.14615062971E+03  0.14948922655E+03  0.41800000000E+01 0. -1.
        -11    1    3    3    0    0 -0.15316920518E+02 -0.55384242463E+02  0.10478484644E+03  0.11950684671E+03  0.00000000000E+00 0.  1.
         11    1    3    3    0    0 -0.30651769854E+02  0.35776639633E+02  0.64324264872E+02  0.79731486817E+02  0.00000000000E+00 0. -1.
</event>
<event>
 7    1  0.6684706E-006  0.1113546E+03  0.7561462E-02  0.1258082E+00
         -1   -1    0    0    0  501 -0.00000000000E+00  0.00000000000E+00  0.76276407195E+02  0.76276407195E+02  0.00000000000E+00 0.  1.
          1   -1    0    0  501    0  0.00000000000E+00 -0.00000000000E+00 -0.27441282456E+03  0.27441282456E+03  0.00000000000E+00 0. -1.
         23    2    1    2    0    0  0.75200292063E+02  0.18351289332E+02 -0.17990363642E+02  0.11811073330E+03  0.87376417821E+02 0.  0.
          5    1    1    2  502    0  0.79654774312E+01  0.19569069026E+02  0.83096072985E+01  0.23085044221E+02  0.41800000000E+01 0.  1.
         -5    1    1    2    0  502 -0.83165769495E+02 -0.37920358357E+02 -0.18845566102E+03  0.20949345423E+03  0.41800000000E+01 0.  1.
        -11    1    3    3    0    0  0.91042485989E+02  0.95286693521E+01  0.14163399783E+01  0.91550728089E+02  0.00000000000E+00 0.  1.
         11    1    3    3    0    0 -0.15842193925E+02  0.88226199796E+01 -0.19406703620E+02  0.26560005216E+02  0.00000000000E+00 0. -1.
</event>
<event>
 7    1  0.6684706E-006  0.9386748E+02  0.7561462E-02  0.1293747E+00
          3   -1    0    0  501    0  0.00000000000E+00  0.00000000000E+00  0.11784515710E+03  0.11784515710E+03  0.00000000000E+00 0. -1.
         -3   -1    0    0    0  501 -0.00000000000E+00 -0.00000000000E+00 -0.13519193681E+03  0.13519193681E+03  0.00000000000E+00 0.  1.
         23    2    1    2    0    0 -0.60879853108E+02 -0.19905387313E+02  0.45906127537E+01  0.11080058955E+03  0.90294606492E+02 0.  0.
          5    1    1    2  502    0 -0.80605499434E+01 -0.17277015098E+02 -0.54059093232E+02  0.57474565480E+02  0.41800000000E+01 0.  1.
         -5    1    1    2    0  502  0.68940403051E+02  0.37182402411E+02  0.32121700773E+02  0.84761938879E+02  0.41800000000E+01 0.  1.
        -11    1    3    3    0    0 -0.54226051659E+02  0.13364655908E+02 -0.29109246643E+02  0.62979575628E+02  0.00000000000E+00 0.  1.
         11    1    3    3    0    0 -0.66538014486E+01 -0.33270043220E+02  0.33699859397E+02  0.47821013927E+02  0.00000000000E+00 0. -1.
</event>
<event>
 7    1  0.6684706E-006  0.1310241E+03  0.7561462E-02  0.1225944E+00
          1   -1    0    0  501    0  0.00000000000E+00  0.00000000000E+00  0.38686926896E+02  0.38686926896E+02  0.00000000000E+00 0. -1.
         -1   -1    0    0    0  501 -0.00000000000E+00 -0.00000000000E+00 -0.64486669637E+03  0.64486669637E+03  0.00000000000E+00 0.  1.
         23    2    1    2    0    0  0.10382903669E+03  0.38894927210E+01 -0.37196710705E+03  0.39842259103E+03  0.97905236345E+02 0.  0.
          5    1    1    2  502    0 -0.12693132903E+03  0.66916535339E+01 -0.14790417346E+03  0.19506270131E+03  0.41800000000E+01 0. -1.
         -5    1    1    2    0  502  0.23102292338E+02 -0.10581146255E+02 -0.86308488974E+02  0.90068330929E+02  0.41800000000E+01 0. -1.
        -11    1    3    3    0    0  0.65041885409E+02 -0.13799772388E+02 -0.33638694158E+03  0.34289510793E+03  0.00000000000E+00 0.  1.
         11    1    3    3    0    0  0.38787151285E+02  0.17689265109E+02 -0.35580165465E+02  0.55527483099E+02  0.00000000000E+00 0. -1.
</event>
<event>
 7    1  0.6684706E-006  0.1620080E+03  0.7561462E-02  0.1186448E+00
         -2   -1    0    0    0  501 -0.00000000000E+00  0.00000000000E+00  0.78310984830E+02  0.78310984830E+02  0.00000000000E+00 0.  1.
          2   -1    0    0  501    0  0.00000000000E+00 -0.00000000000E+00 -0.46728264402E+03  0.46728264402E+03  0.00000000000E+00 0. -1.
         23    2    1    2    0    0  0.11473642722E+03 -0.89426540151E+02 -0.10202383185E+03  0.20041505215E+03  0.92713413528E+02 0.  0.
          5    1    1    2  502    0 -0.61081246500E+02  0.11575860891E+02 -0.25851839524E+02  0.67458944820E+02  0.41800000000E+01 0.  1.
         -5    1    1    2    0  502 -0.53655180717E+02  0.77850679260E+02 -0.26109598782E+03  0.27771963188E+03  0.41800000000E+01 0.  1.
        -11    1    3    3    0    0  0.10820152345E+03 -0.37179147117E+02 -0.92005943198E+02  0.14681604899E+03  0.00000000000E+00 0. -1.
         11    1    3    3    0    0  0.65349037628E+01 -0.52247393034E+02 -0.10017888649E+02  0.53599003153E+02  0.00000000000E+00 0.  1.
</event>
<event>
 7    1  0.6684706E-006  0.1083289E+03  0.7561462E-02  0.1263696E+00
         -2   -1    0    0    0  501 -0.00000000000E+00  0.00000000000E+00  0.80241974850E+01  0.80241974850E+01  0.00000000000E+00 0.  1.
          2   -1    0    0  501    0  0.00000000000E+00 -0.00000000000E+00 -0.15078552846E+04  0.15078552846E+04  0.00000000000E+00 0. -1.
         23    2    1    2    0    0  0.30778035806E+01  0.80207123442E+01 -0.51843874684E+03  0.52650903292E+03  0.91428785524E+02 0.  0.
          5    1    1    2  502    0 -0.61356571643E+02 -0.21055433600E+02 -0.46561912133E+03  0.47013466019E+03  0.41800000000E+01 0. -1.
         -5    1    1    2    0  502  0.58278768062E+02  0.13034721256E+02 -0.51577321898E+03  0.51923578901E+03  0.41800000000E+01 0. -1.
        -11    1    3    3    0    0  0.44606840481E+02 -0.11255776791E+02 -0.25190537683E+03  0.25607182900E+03  0.00000000000E+00 0. -1.
         11    1    3    3    0    0 -0.41529036900E+02  0.19276489135E+02 -0.26653337001E+03  0.27043720392E+03  0.00000000000E+00 0.  1.
</event>
<event>
 7    1  0.6684706E-006  0.1123214E+03  0.7561462E-02  0.1256330E+00
          3   -1    0    0  501    0  0.00000000000E+00  0.00000000000E+00  0.16980017514E+03  0.16980017514E+03  0.00000000000E+00 0. -1.
         -3   -1    0    0    0  501 -0.00000000000E+00 -0.00000000000E+00 -0.87487553049E+02  0.87487553049E+02  0.00000000000E+00 0.  1.
         23    2    1    2    0    0  0.32765803273E+02  0.42547037392E+02  0.51265995018E+02  0.11766239583E+03  0.91281919853E+02 0.  0.
          5    1    1    2  502    0  0.46140508298E+02 -0.27235562703E+02  0.23916344916E+02  0.58823348560E+02  0.41800000000E+01 0. -1.
         -5    1    1    2    0  502 -0.78906311571E+02 -0.15311474689E+02  0.71302821608E+01  0.80801983803E+02  0.41800000000E+01 0. -1.
        -11    1    3    3    0    0  0.18778742151E+02  0.62942041758E+02  0.62347746659E+02  0.90562593221E+02  0.00000000000E+00 0.  1.
         11    1    3    3    0    0  0.13987061122E+02 -0.20395004367E+02 -0.11081751641E+02  0.27099802608E+02  0.00000000000E+00 0. -1.
</event>
<event>
 7    1  0.6684706E-006  0.1467511E+03  0.7561462E-02  0.1204523E+00
          1   -1    0    0  501    0  0.00000000000E+00  0.00000000000E+00  0.63618189233E+03  0.63618189233E+03  0.00000000000E+00 0. -1.
         -1   -1    0    0    0  501 -0.00000000000E+00 -0.00000000000E+00 -0.57996651410E+02  0.57996651410E+02  0.00000000000E+00 0.  1.
         23    2    1    2    0    0 -0.90709122551E+02  0.97781840572E+02  0.11209516055E+03  0.19350094738E+03  0.84189419518E+02 0.  0.
          5    1    1    2  502    0  0.20579600271E+02 -0.84343622774E+02  0.12551463003E+03  0.15267207145E+03  0.41800000000E+01 0. -1.
         -5    1    1    2    0  502  0.70129522280E+02 -0.13438217798E+02  0.34057545034E+03  0.34800552491E+03  0.41800000000E+01 0. -1.
        -11    1    3    3    0    0 -0.48773957079E+02  0.37039178027E+02  0.10203840230E+03  0.11900687015E+03  0.00000000000E+00 0.  1.
         11    1    3    3    0    0 -0.41935165472E+02  0.60742662544E+02  0.10056758249E+02  0.74494077232E+02  0.00000000000E+00 0. -1.
</event>
<event>
 7    1  0.6684706E-006  0.9060360E+02  0.7561462E-02  0.1301397E+00
          1   -1    0    0  501    0  0.00000000000E+00  0.00000000000E+00  0.12778593173E+03  0.12778593173E+03  0.00000000000E+00 0.  1.
         -1   -1    0    0    0  501 -0.00000000000E+00 -0.00000000000E+00 -0.11298637068E+03  0.11298637068E+03  0.00000000000E+00 0. -1.
         23    2    1    2    0    0 -0.39908793670E+02  0.16582896449E+02 -0.19373938940E+02  0.10408754765E+03  0.92688531105E+02 0.  0.
          5    1    1    2  502    0  0.57404748748E+02  0.26537428428E+01 -0.31685083698E+02  0.65755337874E+02  0.41800000000E+01 0.  1.
         -5    1    1    2    0  502 -0.17495955078E+02 -0.19236639291E+02  0.65858583685E+02  0.70929416890E+02  0.41800000000E+01 0.  1.
        -11    1    3    3    0    0 -0.14075380443E+01 -0.33807546104E+02 -0.22433829761E+02  0.40598128709E+02  0.00000000000E+00 0.  1.
         11    1    3    3    0    0 -0.38501255626E+02  0.50390442552E+02  0.30598908206E+01  0.63489418939E+02  0.00000000000E+00 0. -1.
</event>
<event>
 7    1  0.6684706E-006  0.1152919E+03  0.7561462E-02  0.1251072E+00
         -3   -1    0    0    0  501 -0.00000000000E+00  0.00000000000E+00  0.24583412700E+03  0.24583412700E+03  0.00000000000E+00 0.  1.
          3   -1    0    0  501    0  0.00000000000E+00 -0.00000000000E+00 -0.85048310156E+02  0.85048310156E+02  0.00000000000E+00 0. -1.
         23    2    1    2    0    0 -0.56458542172E+02  0.21028698434E+02  0.15492530306E+03  0.19191763621E+03  0.95920573494E+02 0.  0.
          5    1    1    2  502    0 -0.34691199037E+02  0.14233892921E+02 -0.11860594852E+02  0.39550336390E+02  0.41800000000E+01 0.  1.
         -5    1    1    2    0  502  0.91149741209E+02 -0.35262591355E+02  0.17721108638E+02  0.99414464555E+02  0.41800000000E+01 0.  1.
        -11    1    3    3    0    0  0.10674212452E+01 -0.22729280243E+02  0.96013078110E+02  0.98672542972E+02  0.00000000000E+00 0.  1.
         11    1    3    3    0    0 -0.57525963417E+02  0.43757978677E+02  0.58912224949E+02  0.93245093240E+02  0.00000000000E+00 0. -1.
</event>
<event>
 7    1  0.6684706E-006  0.1103956E+03  0.7561462E-02  0.1259839E+00
          1   -1    0    0  501    0  0.00000000000E+00  0.00000000000E+00  0.20830503539E+02  0.20830503539E+02  0.00000000000E+00 0. -1.
         -1   -1    0    0    0  501 -0.00000000000E+00 -0.00000000000E+00 -0.65513018462E+03  0.65513018462E+03  0.00000000000E+00 0.  1.
         23    2    1    2    0    0 -0.59504139515E+01 -0.32980598082E+02 -0.30905799605E+03  0.32588489021E+03  0.97780312275E+02 0.  0.
          5    1    1    2  502    0 -0.38800679573E+02  0.57331390130E+02 -0.12034186517E+03  0.13889570887E+03  0.41800000000E+01 0. -1.
         -5    1    1    2    0  502  0.44751093524E+02 -0.24350792048E+02 -0.20489981986E+03  0.21118008908E+03  0.41800000000E+01 0. -1.
        -11    1    3    3    0    0 -0.29273606957E+02  0.24572853602E+02 -0.81688004543E+02  0.90187023927E+02  0.00000000000E+00 0. -1.
         11    1    3    3    0    0  0.23323193006E+02 -0.57553451684E+02 -0.22736999150E+03  0.23569786628E+03  0.00000000000E+00 0.  1.
</event>
<event>
 7    1  0.6684706E-006  0.1296027E+03  0.7561462E-02  0.1228046E+00
          1   -1    0    0  501    0  0.00000000000E+00  0.00000000000E+00  0.16381865448E+03  0.16381865448E+03  0.00000000000E+00 0. -1.
         -1   -1    0    0    0  501 -0.00000000000E+00 -0.00000000000E+00 -0.13880663634E+03  0.13880663634E+03  0.00000000000E+00 0.  1.
         23    2    1    2    0    0  0.87249017891E+02  0.52545739311E+01 -0.45071964798E+02  0.13469267143E+03  0.92036036731E+02 0.  0.
          5    1    1    2  502    0  0.27900207117E+02  0.42403626027E+01  0.38799992515E+02  0.48159257172E+02  0.41800000000E+01 0. -1.
         -5    1    1    2    0  502 -0.11514922501E+03 -0.94949365338E+01  0.31283990425E+02  0.11977336222E+03  0.41800000000E+01 0. -1.
        -11    1    3    3    0    0  0.73525804229E+02 -0.28319296566E+02 -0.25901410689E+01  0.78833592309E+02  0.00000000000E+00 0. -1.
         11    1    3    3    0    0  0.13723213661E+02  0.33573870497E+02 -0.42481823729E+02  0.55859079125E+02  0.00000000000E+00 0.  1.
</event>
<event>
 7    1  0.6684706E-006  0.1411139E+03  0.7561462E-02  0.1211838E+00
          1   -1    0    0  501    0  0.00000000000E+00  0.00000000000E+00  0.50274646886E+02  0.50274646886E+02  0.00000000000E+00 0. -1.
         -1   -1    0    0    0  501 -0.00000000000E+00 -0.00000000000E+00 -0.45711303955E+03  0.45711303955E+03  0.00000000000E+00 0.  1.
         23    2    1    2    0    0  0.48014862927E+02  0.88048425523E+02 -0.23369505588E+03  0.27141418202E+03  0.94838424502E+02 0.  0.
          5    1    1    2  502    0  0.35714683001E+02 -0.62719028536E+02 -0.87184395446E+02  0.11325990611E+03  0.41800000000E+01 0. -1.
         -5    1    1    2    0  502 -0.83729545929E+02 -0.25329396987E+02 -0.85958941342E+02  0.12271359831E+03  0.41800000000E+01 0. -1.
        -11    1    3    3    0    0  0.42901785899E+02  0.98865130170E+01 -0.30265749691E+02  0.53425854952E+02  0.00000000000E+00 0. -1.
         11    1    3    3    0    0  0.51130770281E+01  0.78161912506E+02 -0.20342930619E+03  0.21798832707E+03  0.00000000000E+00 0.  1.
</event>
<event>
 7    1  0.6684706E-006  0.1414021E+03  0.7561462E-02  0.1211455E+00
          3   -1    0    0  501    0  0.00000000000E+00  0.00000000000E+00  0.66676752476E+02  0.66676752476E+02  0.00000000000E+00 0. -1.
         -3   -1    0    0    0  501 -0.00000000000E+00 -0.00000000000E+00 -0.37773144770E+03  0.37773144770E+03  0.00000000000E+00 0.  1.
         23    2    1    2    0    0  0.53542535433E+02  0.10177517112E+03 -0.12027328668E+03  0.18892842483E+03  0.89461151710E+02 0.  0.
          5    1    1    2  502    0 -0.23784699875E+01 -0.11460956592E+03 -0.14909946005E+03  0.18811999125E+03  0.41800000000E+01 0. -1.
         -5    1    1    2    0  502 -0.51164065445E+02  0.12834394805E+02 -0.41681948498E+02  0.67359784096E+02  0.41800000000E+01 0. -1.
        -11    1    3    3    0    0  0.33749886676E+02  0.70588306709E+02 -0.12909283744E+03  0.15095272297E+03  0.00000000000E+00 0.  1.
         11    1    3    3    0    0  0.19792648757E+02  0.31186864409E+02  0.88195507585E+01  0.37975701864E+02  0.00000000000E+00 0. -1.
</event>
<event>
 7    1  0.6684706E-006  0.1078149E+03  0.7561462E-02  0.1264671E+00
          2   -1    0    0  501    0  0.00000000000E+00  0.00000000000E+00  0.36129311075E+03  0.36129311075E+03  0.00000000000E+00 0. -1.
         -2   -1    0    0    0  501 -0.00000000000E+00 -0.00000000000E+00 -0.50871375436E+02  0.50871375436E+02  0.00000000000E+00 0.  1.
         23    2    1    2    0    0  0.70367664440E+02 -0.44537896245E+02  0.17629283056E+03  0.21073547585E+03  0.79969033210E+02 0.  0.
          5    1    1    2  502    0 -0.70572734863E+01 -0.14106058372E+02  0.11071863533E+03  0.11191458619E+03  0.41800000000E+01 0. -1.
         -5    1    1    2    0  502 -0.63310390954E+02  0.58643954616E+02  0.23410269413E+02  0.89514424144E+02  0.41800000000E+01 0. -1.
        -11    1    3    3    0    0  0.24793756961E+02 -0.59893011119E+02  0.12240146818E+03  0.13850639905E+03  0.00000000000E+00 0. -1.
         11    1    3    3    0    0  0.45573907479E+02  0.15355114874E+02  0.53891362384E+02  0.72229076799E+02  0.00000000000E+00 0.  1.
</event>
<event>
 6    1  0.6684706E-006  0.6784771E+02  0.7561462E-02  0.1367569E+00
         -2   -1    0    0    0  501 -0.00000000000E+00  0.00000000000E+00  0.19088627940E+02  0.19088627940E+02  0.00000000000E+00 0. -1.
          2   -1    0    0  501    0  0.00000000000E+00 -0.00000000000E+00 -0.33187896529E+03  0.33187896529E+03  0.00000000000E+00 0.  1.
          5    1    1    2  502    0 -0.29952631984E+02  0.13483035995E+02 -0.20685787376E+02  0.39042625703E+02  0.41800000000E+01 0. -1.
         -5    1    1    2    0  502  0.59000558846E+02 -0.17423746651E+01 -0.21436506334E+03  0.22238245119E+03  0.41800000000E+01 0.  1.
        -11    1    1    2    0    0 -0.19591631376E+02 -0.21998254518E+02 -0.61083382312E+02  0.67815446739E+02  0.00000000000E+00 0. -1.
         11    1    1    2    0    0 -0.94562954869E+01  0.10257593188E+02 -0.16656104321E+02  0.21727069602E+02  0.00000000000E+00 0.  1.
</event>
<event>
 7    1  0.6684706E-006  0.9861029E+02  0.7561462E-02  0.1283246E+00
         -1   -1    0    0    0  501 -0.00000000000E+00  0.00000000000E+00  0.73966495484E+02  0.73966495484E+02  0.00000000000E+00 0.  1.
          1   -1    0    0  501    0  0.00000000000E+00 -0.00000000000E+00 -0.23524123770E+03  0.23524123770E+03  0.00000000000E+00 0. -1.
         23    2    1    2    0    0 -0.13854493399E+02  0.74660823435E+02 -0.39376422765E+02  0.11875547406E+03  0.82378239877E+02 0.  0.
          5    1    1    2  502    0  0.26294393841E+02 -0.83549939632E+02 -0.23497797472E+02  0.90783293870E+02  0.41800000000E+01 0. -1.
         -5    1    1    2    0  502 -0.12439900442E+02  0.88891161968E+01 -0.98400521982E+02  0.99668965260E+02  0.41800000000E+01 0. -1.
        -11    1    3    3    0    0  0.17236616648E+02  0.59021188513E+01 -0.39273890521E+02  0.43294046208E+02  0.00000000000E+00 0. -1.
         11    1    3    3    0    0 -0.31091110048E+02  0.68758704583E+02 -0.10253224351E+00  0.75461427848E+02  0.00000000000E+00 0.  1.
</event>
<event>
 7    1  0.6684706E-006  0.1208271E+03  0.7561462E-02  0.1241739E+00
          2   -1    0    0  501    0  0.00000000000E+00  0.00000000000E+00  0.31024496133E+03  0.31024496133E+03  0.00000000000E+00 0. -1.
         -2   -1    0    0    0  501 -0.00000000000E+00 -0.00000000000E+00 -0.61869465875E+02  0.61869465875E+02  0.00000000000E+00 0.  1.
         23    2    1    2    0    0 -0.56949437631E+02 -0.65420180725E+02  0.10550326320E+03  0.16334939176E+03  0.89604948256E+02 0.  0.
          5    1    1    2  502    0 -0.27783677330E+02 -0.17891589023E+02  0.30543982529E+02  0.45193461391E+02  0.41800000000E+01 0.  1.
         -5    1    1    2    0  502  0.84733114961E+02  0.83311769749E+02  0.11232824972E+03  0.16357157405E+03  0.41800000000E+01 0.  1.
        -11    1    3    3    0    0 -0.50457712743E+02 -0.43630857024E+02  0.11935195310E+03  0.13672790925E+03  0.00000000000E+00 0. -1.
         11    1    3    3    0    0 -0.64917248888E+01 -0.21789323701E+02 -0.13848689899E+02  0.26621482515E+02  0.00000000000E+00 0.  1.
</event>
<event>
 7    1  0.6684706E-006  0.1273990E+03  0.7561462E-02  0.1231367E+00
         -3   -1    0    0    0  501 -0.00000000000E+00  0.00000000000E+00  0.16381703889E+03  0.16381703889E+03  0.00000000000E+00 0.  1.
          3   -1    0    0  501    0  0.00000000000E+00 -0.00000000000E+00 -0.18219740455E+03  0.18219740455E+03  0.00000000000E+00 0. -1.
         23    2    1    2    0    0  0.76736668557E+02  0.26461719519E+02  0.98199575307E+02  0.15671752357E+03  0.91260542967E+02 0.  0.
          5    1    1    2  502    0  0.30410147084E+02 -0.14679260067E+01 -0.26285227797E+01  0.30843368565E+02  0.41800000000E+01 0.  1.
         -5    1    1    2    0  502 -0.10714681564E+03 -0.24993793512E+02 -0.11395141818E+03  0.15845355131E+03  0.41800000000E+01 0.  1.
        -11    1    3    3    0    0 -0.67191694248E+01 -0.18135190113E+02  0.43050259628E+02  0.47194885446E+02  0.00000000000E+00 0.  1.
         11    1    3    3    0    0  0.83455837982E+02  0.44596909632E+02  0.55149315678E+02  0.10952263812E+03  0.00000000000E+00 0. -1.
</event>
<event>
 7    1  0.6684706E-006  0.1200246E+03  0.7561462E-02  0.1243056E+00
         -1   -1    0    0    0  501 -0.00000000000E+00  0.00000000000E+00  0.88024792648E+02  0.88024792648E+02  0.00000000000E+00 0.  1.
          1   -1    0    0  501    0  0.00000000000E+00 -0.00000000000E+00 -0.19311203479E+03  0.19311203479E+03  0.00000000000E+00 0. -1.
         23    2    1    2    0    0  0.28629558574E+02  0.64951786445E+02 -0.34863964796E+02  0.12108061749E+03  0.91687696579E+02 0.  0.
          5    1    1    2  502    0  0.35422572083E+02  0.17159638900E+02 -0.20647728118E+02  0.44643173012E+02  0.41800000000E+01 0. -1.
         -5    1    1    2    0  502 -0.64052130657E+02 -0.82111425345E+02 -0.49575549231E+02  0.11541303694E+03  0.41800000000E+01 0. -1.
        -11    1    3    3    0    0 -0.10365097440E+02 -0.82878959055E+01  0.18248364242E+02  0.22563848541E+02  0.00000000000E+00 0.  1.
         11    1    3    3    0    0  0.38994656014E+02  0.73239682350E+02 -0.53112329037E+02  0.98516768949E+02  0.00000000000E+00 0. -1.
</event>
<event>
 7    1  0.6684706E-006  0.1031389E+03  0.7561462E-02  0.1273830E+00
          4   -1    0    0  501    0  0.00000000000E+00  0.00000000000E+00  0.20508024086E+03  0.20508024086E+03  0.00000000000E+00 0. -1.
         -4   -1    0    0    0  501 -0.00000000000E+00 -0.00000000000E+00 -0.12157963916E+03  0.12157963916E+03  0.00000000000E+00 0.  1.
         23    2    1    2    0    0 -0.31598132261E+02  0.80389969728E+02 -0.40086717849E+02  0.13074836517E+03  0.89594647444E+02 0.  0.
          5    1    1    2  502    0  0.30881530721E+02 -0.49574774587E+02  0.14617669147E+03  0.15746880562E+03  0.41800000000E+01 0. -1.
         -5    1    1    2    0  502  0.71660154012E+00 -0.30815195141E+02 -0.22589371924E+02  0.38442709234E+02  0.41800000000E+01 0. -1.
        -11    1    3    3    0    0  0.24755074855E+02  0.10636672431E+02  0.91409565621E+01  0.28451882510E+02  0.00000000000E+00 0. -1.
         11    1    3    3    0    0 -0.56353207116E+02  0.69753297297E+02 -0.49227674411E+02  0.10229648266E+03  0.00000000000E+00 0.  1.
</event>
<event>
 7    1  0.6684706E-006  0.1663590E+03  0.7561462E-02  0.1181699E+00
          2   -1    0    0  501    0  0.00000000000E+00  0.00000000000E+00  0.53008106355E+03  0.53008106355E+03  0.00000000000E+00 0. -1.
         -2   -1    0    0    0  501 -0.00000000000E+00 -0.00000000000E+00 -0.10400252142E+03  0.10400252142E+03  0.00000000000E+00 0.  1.
         23    2    1    2    0    0 -0.14015043254E+03 -0.81246098825E+01 -0.19417539940E+01  0.16658238148E+03  0.89653591028E+02 0.  0.
          5    1    1    2  502    0  0.54521337531E+01  0.45122174012E+02  0.74611577991E+02  0.87464829047E+02  0.41800000000E+01 0. -1.
         -5    1    1    2    0  502  0.13469829879E+03 -0.36997564129E+02  0.35340871814E+03  0.38003637445E+03  0.41800000000E+01 0. -1.
        -11    1    3    3    0    0 -0.34072980308E+02 -0.21681103209E+02 -0.36254959320E+02  0.54272095028E+02  0.00000000000E+00 0.  1.
         11    1    3    3    0    0 -0.10607745223E+03  0.13556493327E+02  0.34313205326E+02  0.11231028645E+03  0.00000000000E+00 0. -1.
</event>
<event>
 7    1  0.6684706E-006  0.1672417E+03  0.7561462E-02  0.1180755E+00
          2   -1    0    0  501    0  0.00000000000E+00  0.00000000000E+00  0.10831961673E+04  0.10831961673E+04  0.00000000000E+00 0. -1.
         -2   -1    0    0    0  501 -0.00000000000E+00 -0.00000000000E+00 -0.31172809371E+02  0.31172809371E+02  0.00000000000E+00 0.  1.
         23    2    1    2    0    0 -0.14305831794E+03 -0.22970060306E+02  0.39415477308E+03  0.42921866691E+03  0.88754565375E+02 0.  0.
          5    1    1    2  502    0  0.15148784162E+03  0.11176614648E+02  0.41724874866E+03  0.44405796191E+03  0.41800000000E+01 0. -1.
         -5    1    1    2    0  502 -0.84295236789E+01  0.11793445658E+02  0.24061983619E+03  0.24109234787E+03  0.41800000000E+01 0. -1.
        -11    1    3    3    0    0 -0.57729973053E+02 -0.51606784011E+02  0.21909988893E+03  0.23238066028E+03  0.00000000000E+00 0.  1.
         11    1    3    3    0    0 -0.85328344887E+02  0.28636723705E+02  0.17505488415E+03  0.19683800662E+03  0.00000000000E+00 0. -1.
</event>
<event>
 7    1  0.6684706E-006  0.1648255E+03  0.7561462E-02  0.1183354E+00
         -1   -1    0    0    0  501 -0.00000000000E+00  0.00000000000E+00  0.48506216880E+03  0.48506216880E+03  0.00000000000E+00 0.  1.
          1   -1    0    0  501    0  0.00000000000E+00 -0.00000000000E+00 -0.68881093285E+02  0.68881093285E+02  0.00000000000E+00 0. -1.
         23    2    1    2    0    0 -0.59584208952E+02  0.12864321036E+03  0.25269556157E+03  0.30399075189E+03  0.91956385684E+02 0.  0.
          5    1    1    2  502    0 -0.22459235713E+02 -0.30708688362E+02 -0.48541483648E+01  0.38580771973E+02  0.41800000000E+01 0.  1.
         -5    1    1    2    0  502  0.82043444665E+02 -0.97934522003E+02  0.16833966231E+03  0.21137173822E+03  0.41800000000E+01 0.  1.
        -11    1    3    3    0    0 -0.62761452481E+02  0.39088165712E+02  0.76937438549E+02  0.10670639187E+03  0.00000000000E+00 0. -1.
         11    1    3    3    0    0  0.31772435286E+01  0.89555044653E+02  0.17575812302E+03  0.19728436001E+03  0.00000000000E+00 0.  1.
</event>
<event>
 7    1  0.6684706E-006  0.1309949E+03  0.7561462E-02  0.1225987E+00
         -1   -1    0    0    0  501 -0.00000000000E+00  0.00000000000E+00  0.39574926768E+02  0.39574926768E+02  0.00000000000E+00 0.  1.
          1   -1    0    0  501    0  0.00000000000E+00 -0.00000000000E+00 -0.52740489839E+03  0.52740489839E+03  0.00000000000E+00 0. -1.
         23    2    1    2    0    0 -0.65902563657E+02 -0.60929805500E+02 -0.28844307348E+03  0.31506981405E+03  0.89520902520E+02 0.  0.
          5    1    1    2  502    0  0.28871003577E+02 -0.28088487778E+02 -0.12095159993E+03  0.12755100909E+03  0.41800000000E+01 0.  1.
         -5    1    1    2    0  502  0.37031560080E+02  0.89018293278E+02 -0.78435298211E+02  0.12435900203E+03  0.41800000000E+01 0.  1.
        -11    1    3    3    0    0  0.11768340952E+02  0.13155626198E+02 -0.62189972536E+02  0.64646400004E+02  0.00000000000E+00 0. -1.
         11    1    3    3    0    0 -0.77670904609E+02 -0.74085431697E+02 -0.22625310095E+03  0.25042341404E+03  0.00000000000E+00 0.  1.
</event>
<event>
 7    1  0.6684706E-006  0.1035871E+03  0.7561462E-02  0.1272929E+00
         -1   -1    0    0    0  501 -0.00000000000E+00  0.00000000000E+00  0.36464373540E+02  0.36464373540E+02  0.00000000000E+00 0.  1.
          1   -1    0    0  501    0  0.00000000000E+00 -0.00000000000E+00 -0.54317530076E+03  0.54317530076E+03  0.00000000000E+00 0. -1.
         23    2    1    2    0    0  0.73421684650E+01  0.55923127117E+02 -0.86869052983E+02  0.13794237986E+03  0.91107432256E+02 0.  0.
          5    1    1    2  502    0 -0.25791133645E+02  0.23910500072E+02 -0.41483792171E+02  0.54546053948E+02  0.41800000000E+01 0. -1.
         -5    1    1    2    0  502  0.18448965180E+02 -0.79833627189E+02 -0.37835808207E+03  0.38715124049E+03  0.41800000000E+01 0. -1.
        -11    1    3    3    0    0  0.38739668209E+02  0.31737668876E+02 -0.94437658993E+01  0.50962988855E+02  0.00000000000E+00 0.  1.
         11    1    3    3    0    0 -0.31397499744E+02  0.24185458242E+02 -0.77425287083E+02  0.86979391010E+02  0.00000000000E+00 0. -1.
</event>
<event>
 7    1  0.6684706E-006  0.2787827E+03  0.7561462E-02  0.1096356E+00
         -2   -1    0    0    0  501 -0.00000000000E+00  0.00000000000E+00  0.75859602457E+02  0.75859602457E+02  0.00000000000E+00 0.  1.
          2   -1    0    0  501    0  0.00000000000E+00 -0.00000000000E+00 -0.15848186865E+04  0.15848186865E+04  0.00000000000E+00 0. -1.
         23    2    1    2    0    0  0.24739785602E+03  0.12286810328E+03 -0.31828687161E+03  0.43199938306E+03  0.94945586290E+02 0.  0.
          5    1    1    2  502    0 -0.94104537309E+02 -0.55527683716E+02 -0.73721344712E+03  0.74527855639E+03  0.41800000000E+01 0.  1.
         -5    1    1    2    0  502 -0.15329331871E+03 -0.67340419563E+02 -0.45345876532E+03  0.48340034952E+03  0.41800000000E+01 0.  1.
        -11    1    3    3    0    0  0.23469455300E+02 -0.33144293532E+01 -0.72834751335E+02  0.76594397811E+02  0.00000000000E+00 0.  1.
         11    1    3    3    0    0  0.22392840072E+03  0.12618253263E+03 -0.24545212028E+03  0.35540498525E+03  0.00000000000E+00 0. -1.
</event>
<event>
 7    1  0.6684706E-006  0.1128965E+03  0.7561462E-02  0.1255298E+00
         -2   -1    0    0    0  501 -0.00000000000E+00  0.00000000000E+00  0.32330660648E+02  0.32330660648E+02  0.00000000000E+00 0.  1.
          2   -1    0    0  501    0  0.00000000000E+00 -0.00000000000E+00 -0.45609622550E+03  0.45609622550E+03  0.00000000000E+00 0. -1.
         23    2    1    2    0    0 -0.10820180022E+02  0.55639274544E+02 -0.19996956810E+03  0.22585261305E+03  0.88367242173E+02 0.  0.
          5    1    1    2  502    0 -0.78896110115E+01 -0.92509866252E+02 -0.17752005636E+03  0.20037755395E+03  0.41800000000E+01 0.  1.
         -5    1    1    2    0  502  0.18709791034E+02  0.36870591708E+02 -0.46275940390E+02  0.62196719145E+02  0.41800000000E+01 0.  1.
        -11    1    3    3    0    0 -0.87734648076E+01 -0.16733864321E+02 -0.10363696278E+03  0.10534522274E+03  0.00000000000E+00 0. -1.
         11    1    3    3    0    0 -0.20467152145E+01  0.72373138865E+02 -0.96332605319E+02  0.12050739031E+03  0.00000000000E+00 0.  1.
</event>
<event>
 7    1  0.6684706E-006  0.1158715E+03  0.7561462E-02  0.1250067E+00
         -1   -1    0    0    0  501 -0.00000000000E+00  0.00000000000E+00  0.68075651245E+02  0.68075651245E+02  0.00000000000E+00 0.  1.
          1   -1    0    0  501    0  0.00000000000E+00 -0.00000000000E+00 -0.28854918150E+03  0.28854918150E+03  0.00000000000E+00 0. -1.
         23    2    1    2    0    0  0.49815706289E+01 -0.17325000557E+02 -0.14866913740E+02  0.96744922597E+02  0.93880686161E+02 0.  0.
          5    1    1    2  502    0  0.35649814159E+02  0.76733742765E+02 -0.13201586096E+03  0.15685865126E+03  0.41800000000E+01 0. -1.
         -5    1    1    2    0  502 -0.40631384788E+02 -0.59408742208E+02 -0.73590755550E+02  0.10302125889E+03  0.41800000000E+01 0.  1.
        -11    1    3    3    0    0  0.12454464847E+02 -0.44779954680E+02  0.20965455299E+02  0.50989296442E+02  0.00000000000E+00 0.  1.
         11    1    3    3    0    0 -0.74728942185E+01  0.27454954123E+02 -0.35832369039E+02  0.45755626155E+02  0.00000000000E+00 0. -1.
</event>
<event>
 7    1  0.6684706E-006  0.1563365E+03  0.7561462E-02  0.1192896E+00
          1   -1    0    0  501    0  0.00000000000E+00  0.00000000000E+00  0.83641511057E+02  0.83641511057E+02  0.00000000000E+00 0. -1.
         -1   -1    0    0    0  501 -0.00000000000E+00 -0.00000000000E+00 -0.36311687202E+03  0.36311687202E+03  0.00000000000E+00 0.  1.
         23    2    1    2    0    0  0.79435518556E+02 -0.95842112859E+02 -0.61445858724E+02  0.16625857466E+03  0.91491026264E+02 0.  0.
          5    1    1    2  502    0 -0.10623078951E+03  0.39285474076E+02 -0.14939341815E+03  0.18752118521E+03  0.41800000000E+01 0. -1.
         -5    1    1    2    0  502  0.26795270956E+02  0.56556638783E+02 -0.68636084087E+02  0.92978623214E+02  0.41800000000E+01 0. -1.
        -11    1    3    3    0    0  0.39798178237E+01 -0.46018218923E+02  0.14247181958E+02  0.48337331500E+02  0.00000000000E+00 0. -1.
         11    1    3    3    0    0  0.75455700733E+02 -0.49823893936E+02 -0.75693040682E+02  0.11792124316E+03  0.00000000000E+00 0.  1.
</event>
<event>
 7    1  0.6684706E-006  0.1119750E+03  0.7561462E-02  0.1256956E+00
         -1   -1    0    0    0  501 -0.00000000000E+00  0.00000000000E+00  0.10368131223E+03  0.10368131223E+03  0.00000000000E+00 0.  1.
          1   -1    0    0  501    0  0.00000000000E+00 -0.00000000000E+00 -0.17042783289E+03  0.17042783289E+03  0.00000000000E+00 0. -1.
         23    2    1    2    0    0 -0.61507668704E+02 -0.22606733619E+02  0.10162496494E+02  0.11330804694E+03  0.91875891574E+02 0.  0.
          5    1    1    2  502    0  0.66279609724E+02 -0.22458350871E+02  0.15225813735E+01  0.70122427533E+02  0.41800000000E+01 0.  1.
         -5    1    1    2    0  502 -0.47719410202E+01  0.45065084490E+02 -0.78431598536E+02  0.90678670646E+02  0.41800000000E+01 0.  1.
        -11    1    3    3    0    0  0.35737273195E+01  0.26541020122E+02 -0.11159526359E+02  0.29012623195E+02  0.00000000000E+00 0. -1.
         11    1    3    3    0    0 -0.65081396024E+02 -0.49147753741E+02  0.21322022854E+02  0.84295423747E+02  0.00000000000E+00 0.  1.
</event>
<event>
 7    1  0.6684706E-006  0.1177568E+03  0.7561462E-02  0.1246844E+00
         -2   -1    0    0    0  501 -0.00000000000E+00  0.00000000000E+00  0.28838705134E+02  0.28838705134E+02  0.00000000000E+00 0. -1.
          2   -1    0    0  501    0  0.00000000000E+00 -0.00000000000E+00 -0.10615872525E+04  0.10615872525E+04  0.00000000000E+00 0.  1.
         23    2    1    2    0    0 -0.99291827029E+02 -0.90757769735E+01 -0.19652344512E+03  0.23903844185E+03  0.92610342611E+02 0.  0.
          5    1    1    2  502    0  0.52377085730E+02  0.19841477292E+02 -0.75347228878E+03  0.75556270798E+03  0.41800000000E+01 0. -1.
         -5    1    1    2    0  502  0.46914741298E+02 -0.10765700318E+02 -0.82752813490E+02  0.95824807826E+02  0.41800000000E+01 0. -1.
        -11    1    3    3    0    0 -0.55346818864E+02 -0.47288629457E+02 -0.14045095617E+03  0.15819594155E+03  0.00000000000E+00 0. -1.
         11    1    3    3    0    0 -0.43945008165E+02  0.38212852484E+02 -0.56072488946E+02  0.80842500296E+02  0.00000000000E+00 0.  1.
</event>
<event>
 7    1  0.6684706E-006  0.1088091E+03  0.7561462E-02  0.1262791E+00
         -2   -1    0    0    0  501 -0.00000000000E+00  0.00000000000E+00  0.56042990436E+02  0.56042990436E+02  0.00000000000E+00 0.  1.
          2   -1    0    0  501    0  0.00000000000E+00 -0.00000000000E+00 -0.61877570080E+03  0.61877570080E+03  0.00000000000E+00 0. -1.
         23    2    1    2    0    0 -0.16806089844E+02  0.93603585211E+02 -0.67007667874E+02  0.14821371416E+03  0.91832465345E+02 0.  0.
          5    1    1    2  502    0  0.28078984330E+01 -0.44398246471E+02 -0.46424883410E+03  0.46639419052E+03  0.41800000000E+01 0. -1.
         -5    1    1    2    0  502  0.13998191411E+02 -0.49205338740E+02 -0.31476208386E+02  0.60210786555E+02  0.41800000000E+01 0.  1.
        -11    1    3    3    0    0 -0.20434108336E+02  0.10638034952E+03 -0.75865213868E+02  0.13224924281E+03  0.00000000000E+00 0.  1.
         11    1    3    3    0    0  0.36280184918E+01 -0.12776764313E+02  0.88575459941E+01  0.15964471352E+02  0.00000000000E+00 0. -1.
</event>
<event>
 7    1  0.6684706E-006  0.1145675E+03  0.7561462E-02  0.1252338E+00
         -2   -1    0    0    0  501 -0.00000000000E+00  0.00000000000E+00  0.41475674559E+02  0.41475674559E+02  0.00000000000E+00 0.  1.
          2   -1    0    0  501    0  0.00000000000E+00 -0.00000000000E+00 -0.53081774604E+03  0.53081774604E+03  0.00000000000E+00 0. -1.
         23    2    1    2    0    0  0.40576014079E+02 -0.75570685909E+02 -0.13473405730E+03  0.18660957942E+03  0.96501437545E+02 0.  0.
          5    1    1    2  502    0 -0.22355978210E+02  0.10379683118E+03 -0.32037794692E+03  0.33753973573E+03  0.41800000000E+01 0. -1.
         -5    1    1    2    0  502 -0.18220035870E+02 -0.28226145275E+02 -0.34230067259E+02  0.48144105441E+02  0.41800000000E+01 0. -1.
        -11    1    3    3    0    0  0.16675270589E+02 -0.55047306857E+02 -0.14292037939E+03  0.15406007103E+03  0.00000000000E+00 0. -1.
         11    1    3    3    0    0  0.23900743491E+02 -0.20523379052E+02  0.81863220895E+01  0.32549508391E+02  0.00000000000E+00 0.  1.
</event>
<event>
 7    1  0.1306617E-005  0.1060048E+03  0.7561462E-02  0.1268152E+00
          2   -1    0    0  501    0  0.00000000000E+00  0.00000000000E+00  0.71497325505E+03  0.71497325505E+03  0.00000000000E+00 0. -1.
         -2   -1    0    0    0  501 -0.00000000000E+00 -0.00000000000E+00 -0.27498035673E+02  0.27498035673E+02  0.00000000000E+00 0.  1.
         23    2    1    2    0    0 -0.93363390938E+02 -0.19684589314E+01  0.27267445193E+03  0.29926963004E+03  0.80562752741E+02 0.  0.
          5    1    1    2  502    0  0.77383704131E+02 -0.28184067267E+02  0.11540966395E+03  0.14184301973E+03  0.41800000000E+01 0. -1.
         -5    1    1    2    0  502  0.15979686807E+02  0.30152526199E+02  0.29939110350E+03  0.30135864096E+03  0.41800000000E+01 0. -1.
        -11    1    3    3    0    0 -0.59980710653E+02  0.75496344950E+01  0.25137660712E+03  0.25854377045E+03  0.00000000000E+00 0. -1.
         11    1    3    3    0    0 -0.33382680284E+02 -0.95180934264E+01  0.21297844808E+02  0.40725859585E+02  0.00000000000E+00 0.  1.
</event>
<event>
 7    1  0.6684706E-006  0.8851905E+02  0.7561462E-02  0.1306478E+00
         -2   -1    0    0    0  501 -0.00000000000E+00  0.00000000000E+00  0.94515520627E+01  0.94515520627E+01  0.00000000000E+00 0.  1.
          2   -1    0    0  501    0  0.00000000000E+00 -0.00000000000E+00 -0.15041428248E+04  0.15041428248E+04  0.00000000000E+00 0. -1.
         23    2    1    2    0    0  0.30024619898E+02 -0.30079388385E+02 -0.51673783631E+03  0.52675729691E+03  0.93000058938E+02 0.  0.
          5    1    1    2  502    0 -0.47288339691E+02  0.89127546915E+01 -0.93175094234E+03  0.93300209819E+03  0.41800000000E+01 0. -1.
         -5    1    1    2    0  502  0.17263719793E+02  0.21166633693E+02 -0.46202494118E+02  0.53834981803E+02  0.41800000000E+01 0. -1.
        -11    1    3    3    0    0  0.38089809972E+02  0.24919192798E+02 -0.19405992876E+03  0.19932650537E+03  0.00000000000E+00 0.  1.
         11    1    3    3    0    0 -0.80651900733E+01 -0.54998581183E+02 -0.32267790756E+03  0.32743079154E+03  0.00000000000E+00 0. -1.
</event>
<event>
 7    1  0.6684706E-006  0.7976724E+02  0.7561462E-02  0.1329713E+00
         -1   -1    0    0    0  501 -0.00000000000E+00  0.00000000000E+00  0.78104339607E+02  0.78104339607E+02  0.00000000000E+00 0.  1.
          1   -1    0    0  501    0  0.00000000000E+00 -0.00000000000E+00 -0.41826680079E+03  0.41826680079E+03  0.00000000000E+00 0. -1.
         23    2    1    2    0    0  0.14067902412E+02 -0.10130455932E+02  0.26600490391E+02  0.11152496649E+03  0.10690977526E+03 0.  0.
          5    1    1    2  502    0 -0.35876146847E+02  0.48035622750E+02 -0.29209444776E+03  0.29821327566E+03  0.41800000000E+01 0. -1.
         -5    1    1    2    0  502  0.21808244436E+02 -0.37905166818E+02 -0.74668503810E+02  0.86632898244E+02  0.41800000000E+01 0.  1.
        -11    1    3    3    0    0  0.32515110598E+02  0.33055534009E+01  0.61605285792E+02  0.69737868751E+02  0.00000000000E+00 0.  1.
         11    1    3    3    0    0 -0.18447208186E+02 -0.13436009333E+02 -0.35004795401E+02  0.41787097742E+02  0.00000000000E+00 0. -1.
</event>
<event>
 7    1  0.6684706E-006  0.1266230E+03  0.7561462E-02  0.1232554E+00
          2   -1    0    0  501    0  0.00000000000E+00  0.00000000000E+00  0.19452394407E+04  0.19452394407E+04  0.00000000000E+00 0. -1.
         -2   -1    0    0    0  501 -0.00000000000E+00 -0.00000000000E+00 -0.12672091172E+02  0.12672091172E+02  0.00000000000E+00 0.  1.
         23    2    1    2    0    0 -0.20387291236E+02  0.10037054811E+03  0.59933733175E+03  0.61491547365E+03  0.91792777131E+02 0.  0.
          5    1    1    2  502    0 -0.21482810875E+02 -0.45003707068E+02  0.15856605159E+03  0.16627540386E+03  0.41800000000E+01 0. -1.
         -5    1    1    2    0  502  0.41870102111E+02 -0.55366841038E+02  0.11746639662E+04  0.11767206544E+04  0.41800000000E+01 0. -1.
        -11    1    3    3    0    0 -0.49715290879E+02  0.89504502206E+02  0.51226065176E+03  0.52239222947E+03  0.00000000000E+00 0.  1.
         11    1    3    3    0    0  0.29327999643E+02  0.10866045900E+02  0.87076679981E+02  0.92523244177E+02  0.00000000000E+00 0. -1.
</event>
<event>
 7    1  0.6684706E-006  0.1086625E+03  0.7561462E-02  0.1263067E+00
          1   -1    0    0  501    0  0.00000000000E+00  0.00000000000E+00  0.28567162584E+03  0.28567162584E+03  0.00000000000E+00 0. -1.
         -1   -1    0    0    0  501 -0.00000000000E+00 -0.00000000000E+00 -0.44267796883E+02  0.44267796883E+02  0.00000000000E+00 0.  1.
         23    2    1    2    0    0 -0.14452723303E+02  0.13462096270E+01  0.61575576553E+02  0.11040273493E+03  0.90479383075E+02 0.  0.
          5    1    1    2  502    0 -0.26444644528E+02  0.52046269789E+02  0.81908701412E+02  0.10067095505E+03  0.41800000000E+01 0.  1.
         -5    1    1    2    0  502  0.40897367832E+02 -0.53392479416E+02  0.97919550988E+02  0.11886573274E+03  0.41800000000E+01 0.  1.
        -11    1    3    3    0    0 -0.16872570678E+01 -0.44137369163E+02  0.25888749641E+02  0.51197476022E+02  0.00000000000E+00 0.  1.
         11    1    3    3    0    0 -0.12765466236E+02  0.45483578790E+02  0.35686826912E+02  0.59205258911E+02  0.00000000000E+00 0. -1.
</event>
<event>
 7    1  0.6684706E-006  0.2034723E+03  0.7561462E-02  0.1146842E+00
          2   -1    0    0  501    0  0.00000000000E+00  0.00000000000E+00  0.35184799571E+03  0.35184799571E+03  0.00000000000E+00 0. -1.
         -2   -1    0    0    0  501 -0.00000000000E+00 -0.00000000000E+00 -0.13320025366E+03  0.13320025366E+03  0.00000000000E+00 0.  1.
         23    2    1    2    0    0  0.10790178639E+03  0.15207324850E+03  0.11612777871E+03  0.23822718660E+03  0.92181684895E+02 0.  0.
          5    1    1    2  502    0 -0.10867555979E+03 -0.52568858418E+02  0.79474641089E+02  0.14459444369E+03  0.41800000000E+01 0.  1.
         -5    1    1    2    0  502  0.77377340093E+00 -0.99504390087E+02  0.23045322255E+02  0.10222661909E+03  0.41800000000E+01 0.  1.
        -11    1    3    3    0    0  0.63493739323E+02  0.94377151588E+02  0.16661397628E+02  0.11496131456E+03  0.00000000000E+00 0.  1.
         11    1    3    3    0    0  0.44408047062E+02  0.57696096917E+02  0.99466381078E+02  0.12326587203E+03  0.00000000000E+00 0. -1.
</event>
<event>
 7    1  0.6684706E-006  0.8417305E+02  0.7561462E-02  0.1317609E+00
         -2   -1    0    0    0  501 -0.00000000000E+00  0.00000000000E+00  0.67111930662E+02  0.67111930662E+02  0.00000000000E+00 0. -1.
          2   -1    0    0  501    0  0.00000000000E+00 -0.00000000000E+00 -0.19513409565E+03  0.19513409565E+03  0.00000000000E+00 0.  1.
         23    2    1    2    0    0 -0.16146583303E+02  0.18801924509E+02 -0.22796484952E+02  0.96927902393E+02  0.90890670690E+02 0.  0.
          5    1    1    2  502    0 -0.36726386527E+02 -0.18003913334E+01 -0.10314500146E+03  0.10958299413E+03  0.41800000000E+01 0. -1.
         -5    1    1    2    0  502  0.52872969830E+02 -0.17001533175E+02 -0.20806785727E+01  0.55735129786E+02  0.41800000000E+01 0. -1.
        -11    1    3    3    0    0 -0.25964835504E+02 -0.21779777666E+02 -0.39422236091E+02  0.51986960830E+02  0.00000000000E+00 0.  1.
         11    1    3    3    0    0  0.98182522004E+01  0.40581702175E+02  0.16625751139E+02  0.44940941563E+02  0.00000000000E+00 0. -1.
</event>
<event>
 7    1  0.6684706E-006  0.8355010E+02  0.7561462E-02  0.1319268E+00
          2   -1    0    0  501    0  0.00000000000E+00  0.00000000000E+00  0.66439440866E+03  0.66439440866E+03  0.00000000000E+00 0. -1.
         -2   -1    0    0    0  501 -0.00000000000E+00 -0.00000000000E+00 -0.25451422746E+02  0.25451422746E+02  0.00000000000E+00 0.  1.
         23    2    1    2    0    0 -0.61731687423E+02  0.18405063138E+02  0.19694879596E+03  0.22599658894E+03  0.90200235045E+02 0.  0.
          5    1    1    2  502    0  0.38305793870E+02 -0.49333771853E+02  0.40588046094E+03  0.41067940764E+03  0.41800000000E+01 0. -1.
         -5    1    1    2    0  502  0.23425893553E+02  0.30928708716E+02  0.36113729013E+02  0.53169834820E+02  0.41800000000E+01 0. -1.
        -11    1    3    3    0    0 -0.31528167512E+02  0.15507668476E+02  0.19207899314E+03  0.19526610749E+03  0.00000000000E+00 0. -1.
         11    1    3    3    0    0 -0.30203519911E+02  0.28973946619E+01  0.48698028198E+01  0.30730481453E+02  0.00000000000E+00 0.  1.
</event>
<event>
 7    1  0.6684706E-006  0.1551209E+03  0.7561462E-02  0.1194318E+00
          1   -1    0    0  501    0  0.00000000000E+00  0.00000000000E+00  0.17205373637E+04  0.17205373637E+04  0.00000000000E+00 0. -1.
         -1   -1    0    0    0  501 -0.00000000000E+00 -0.00000000000E+00 -0.18730063164E+02  0.18730063164E+02  0.00000000000E+00 0.  1.
         23    2    1    2    0    0 -0.11348981210E+03 -0.18418244870E+02  0.40987255823E+03  0.43558487491E+03  0.92301137948E+02 0.  0.
          5    1    1    2  502    0  0.85642166783E+02  0.65963595485E+02  0.10479174836E+04  0.10534867354E+04  0.41800000000E+01 0. -1.
         -5    1    1    2    0  502  0.27847645313E+02 -0.47545350616E+02  0.24401725868E+03  0.25019581661E+03  0.41800000000E+01 0.  1.
        -11    1    3    3    0    0  0.99414782113E+01  0.15842618754E+02  0.67120022904E+02  0.69677249032E+02  0.00000000000E+00 0. -1.
         11    1    3    3    0    0 -0.12343129031E+03 -0.34260863624E+02  0.34275253532E+03  0.36590762588E+03  0.00000000000E+00 0.  1.
</event>
<event>
 7    1  0.6684706E-006  0.1046942E+03  0.7561462E-02  0.1270723E+00
          2   -1    0    0  501    0  0.00000000000E+00  0.00000000000E+00  0.95584491824E+02  0.95584491824E+02  0.00000000000E+00 0. -1.
         -2   -1    0    0    0  501 -0.00000000000E+00 -0.00000000000E+00 -0.18638939974E+03  0.18638939974E+03  0.00000000000E+00 0.  1.
         23    2    1    2    0    0  0.47203391165E+02  0.33201477210E+02 -0.93756654089E+02  0.14417939526E+03  0.93096130985E+02 0.  0.
          5    1    1    2  502    0 -0.54813085124E+02 -0.61026417582E+02 -0.35554475105E+02  0.89500229294E+02  0.41800000000E+01 0.  1.
         -5    1    1    2    0  502  0.76096939599E+01  0.27824940372E+02  0.38506221279E+02  0.48294267010E+02  0.41800000000E+01 0.  1.
        -11    1    3    3    0    0  0.33130392470E+02  0.59600318099E+02 -0.91588477609E+02  0.11418524446E+03  0.00000000000E+00 0.  1.
         11    1    3    3    0    0  0.14072998695E+02 -0.26398840889E+02 -0.21681764797E+01  0.29994150793E+02  0.00000000000E+00 0. -1.
</event>
<event>
 7    1  0.6684706E-006  0.1356383E+03  0.7561462E-02  0.1219321E+00
         -2   -1    0    0    0  501 -0.00000000000E+00  0.00000000000E+00  0.13762102428E+03  0.13762102428E+03  0.00000000000E+00 0.  1.
          2   -1    0    0  501    0  0.00000000000E+00 -0.00000000000E+00 -0.19510722632E+03  0.19510722632E+03  0.00000000000E+00 0. -1.
         23    2    1    2    0    0  0.64610255013E+02  0.10173606312E+03 -0.34345198492E+01  0.15081216112E+03  0.90596911767E+02 0.  0.
          5    1    1    2  502    0  0.75725572121E+01 -0.52203839619E+02  0.29708401013E+02  0.60684808515E+02  0.41800000000E+01 0.  1.
         -5    1    1    2    0  502 -0.72182812225E+02 -0.49532223501E+02 -0.83760083204E+02  0.12123128096E+03  0.41800000000E+01 0.  1.
        -11    1    3    3    0    0  0.50344291953E+01  0.54383452010E+02 -0.38698793885E+02  0.66936551883E+02  0.00000000000E+00 0. -1.
         11    1    3    3    0    0  0.59575825818E+02  0.47352611110E+02  0.35264274036E+02  0.83875609232E+02  0.00000000000E+00 0.  1.
</event>
<event>
 7    1  0.6684706E-006  0.1709652E+03  0.7561462E-02  0.1176845E+00
         -2   -1    0    0    0  501 -0.00000000000E+00  0.00000000000E+00  0.21739025086E+02  0.21739025086E+02  0.00000000000E+00 0.  1.
          2   -1    0    0  501    0  0.00000000000E+00 -0.00000000000E+00 -0.29136846479E+04  0.29136846479E+04  0.00000000000E+00 0. -1.
         23    2    1    2    0    0  0.27847754536E+02 -0.12982183470E+03 -0.56806018416E+03  0.59018530940E+03  0.89426620250E+02 0.  0.
          5    1    1    2  502    0 -0.75435463289E+02  0.12011618295E+03 -0.22620621787E+04  0.22665085879E+04  0.41800000000E+01 0. -1.
         -5    1    1    2    0  502  0.47587708754E+02  0.97056517495E+01 -0.61823259954E+02  0.78729775636E+02  0.41800000000E+01 0.  1.
        -11    1    3    3    0    0 -0.20770323874E+02 -0.75847427753E+02 -0.39050847542E+03  0.39834797354E+03  0.00000000000E+00 0.  1.
         11    1    3    3    0    0  0.48618078409E+02 -0.53974406949E+02 -0.17755170874E+03  0.19183733586E+03  0.00000000000E+00 0. -1.
</event>
<event>
 7    1  0.6684706E-006  0.1010679E+03  0.7561462E-02  0.1278066E+00
         -1   -1    0    0    0  501 -0.00000000000E+00  0.00000000000E+00  0.25333045734E+02  0.25333045734E+02  0.00000000000E+00 0.  1.
          1   -1    0    0  501    0  0.00000000000E+00 -0.00000000000E+00 -0.85093154752E+03  0.85093154752E+03  0.00000000000E+00 0. -1.
         23    2    1    2    0    0 -0.46068027898E+01 -0.19644863510E+02 -0.85253648609E+02  0.12515675119E+03  0.89380559812E+02 0.  0.
          5    1    1    2  502    0 -0.65908315864E+01 -0.49075735128E+02 -0.43858870380E+03  0.44139482364E+03  0.41800000000E+01 0.  1.
         -5    1    1    2    0  502  0.11197634376E+02  0.68720598638E+02 -0.30175614937E+03  0.30971301842E+03  0.41800000000E+01 0.  1.
        -11    1    3    3    0    0 -0.34179069990E+02 -0.35379997090E+02 -0.75776518279E+02  0.90343974575E+02  0.00000000000E+00 0. -1.
         11    1    3    3    0    0  0.29572267201E+02  0.15735133580E+02 -0.94771303303E+01  0.34812776613E+02  0.00000000000E+00 0.  1.
</event>
<event>
 7    1  0.6684706E-006  0.1216173E+03  0.7561462E-02  0.1240453E+00
          2   -1    0    0  501    0  0.00000000000E+00  0.00000000000E+00  0.64213908576E+03  0.64213908576E+03  0.00000000000E+00 0. -1.
         -2   -1    0    0    0  501 -0.00000000000E+00 -0.00000000000E+00 -0.31695527654E+02  0.31695527654E+02  0.00000000000E+00 0.  1.
         23    2    1    2    0    0 -0.85479603736E+02  0.34285184953E+02  0.29638059572E+03  0.32346125864E+03  0.91123497315E+02 0.  0.
          5    1    1    2  502    0  0.11126698486E+03 -0.27532838850E+02  0.29717467284E+03  0.31854145368E+03  0.41800000000E+01 0.  1.
         -5    1    1    2    0  502 -0.25787381124E+02 -0.67523461031E+01  0.16888289547E+02  0.31831901089E+02  0.41800000000E+01 0.  1.
        -11    1    3    3    0    0 -0.30485293787E+02  0.35180654010E+02  0.24083094284E+03  0.24528875755E+03  0.00000000000E+00 0. -1.
         11    1    3    3    0    0 -0.54994309949E+02 -0.89546905684E+00  0.55549652881E+02  0.78172501091E+02  0.00000000000E+00 0.  1.
</event>
<event>
 7    1  0.6684706E-006  0.1427392E+03  0.7561462E-02  0.1209690E+00
          1   -1    0    0  501    0  0.00000000000E+00  0.00000000000E+00  0.14025218649E+04  0.14025218649E+04  0.00000000000E+00 0. -1.
         -1   -1    0    0    0  501 -0.00000000000E+00 -0.00000000000E+00 -0.22671186013E+02  0.22671186013E+02  0.00000000000E+00 0.  1.
         23    2    1    2    0    0  0.17746395489E+02  0.11578213489E+03  0.36274167244E+03  0.39374802640E+03  0.98668891044E+02 0.  0.
          5    1    1    2  502    0 -0.36392499089E+02 -0.11508650106E+03  0.99461876760E+03  0.10019247886E+04  0.41800000000E+01 0. -1.
         -5    1    1    2    0  502  0.18646103600E+02 -0.69563383399E+00  0.22490238859E+02  0.29520235938E+02  0.41800000000E+01 0. -1.
        -11    1    3    3    0    0  0.52823030077E+02  0.75848086107E+02  0.16649104518E+03  0.19042708000E+03  0.00000000000E+00 0.  1.
         11    1    3    3    0    0 -0.35076634588E+02  0.39934048783E+02  0.19625062725E+03  0.20332094640E+03  0.00000000000E+00 0. -1.
</event>
<event>
 7    1  0.6684706E-006  0.1274770E+03  0.7561462E-02  0.1231248E+00
         -2   -1    0    0    0  501 -0.00000000000E+00  0.00000000000E+00  0.21101888386E+02  0.21101888386E+02  0.00000000000E+00 0.  1.
          2   -1    0    0  501    0  0.00000000000E+00 -0.00000000000E+00 -0.83291951568E+03  0.83291951568E+03  0.00000000000E+00 0. -1.
         23    2    1    2    0    0  0.30675591867E+02 -0.69962670800E+02 -0.34425398357E+03  0.36402196293E+03  0.90362697219E+02 0.  0.
          5    1    1    2  502    0  0.40461417508E+02  0.50434359391E+02 -0.14090123308E+03  0.15508507600E+03  0.41800000000E+01 0. -1.
         -5    1    1    2    0  502 -0.71137009375E+02  0.19528311408E+02 -0.32666241065E+03  0.33491436514E+03  0.41800000000E+01 0. -1.
        -11    1    3    3    0    0  0.58550699664E+02 -0.65817478744E+02 -0.22865036815E+03  0.24503288717E+03  0.00000000000E+00 0.  1.
         11    1    3    3    0    0 -0.27875107797E+02 -0.41451920559E+01 -0.11560361542E+03  0.11898907576E+03  0.00000000000E+00 0. -1.
</event>
<event>
 7    1  0.6684706E-006  0.1409848E+03  0.7561462E-02  0.1212010E+00
         -1   -1    0    0    0  501 -0.00000000000E+00  0.00000000000E+00  0.39895920468E+02  0.39895920468E+02  0.00000000000E+00 0.  1.
          1   -1    0    0  501    0  0.00000000000E+00 -0.00000000000E+00 -0.65563663938E+03  0.65563663938E+03  0.00000000000E+00 0. -1.
         23    2    1    2    0    0 -0.22115310082E+02 -0.11007254202E+03 -0.18692557144E+03  0.23495155710E+03  0.87498648438E+02 0.  0.
          5    1    1    2  502    0  0.72867695907E+02  0.82125073690E+02 -0.28883410291E+03  0.30902563039E+03  0.41800000000E+01 0.  1.
         -5    1    1    2    0  502 -0.50752385825E+02  0.27947468332E+02 -0.13998104456E+03  0.15155537235E+03  0.41800000000E+01 0.  1.
        -11    1    3    3    0    0 -0.62902741670E+01 -0.77918784751E+02 -0.48575197258E+02  0.92035071331E+02  0.00000000000E+00 0.  1.
         11    1    3    3    0    0 -0.15825035915E+02 -0.32153757270E+02 -0.13835037418E+03  0.14291648577E+03  0.00000000000E+00 0. -1.
</event>
<event>
 7    1  0.6684706E-006  0.2067079E+03  0.7561462E-02  0.1144200E+00
         -4   -1    0    0    0  501 -0.00000000000E+00  0.00000000000E+00  0.31739417801E+03  0.31739417801E+03  0.00000000000E+00 0. -1.
          4   -1    0    0  501    0  0.00000000000E+00 -0.00000000000E+00 -0.20188500554E+03  0.20188500554E+03  0.00000000000E+00 0.  1.
         23    2    1    2    0    0  0.16163036148E+03  0.76544544214E+02  0.20029764199E+03  0.28514337210E+03  0.95938294043E+02 0.  0.
          5    1    1    2  502    0 -0.36409585946E+02 -0.85070920302E+02 -0.38051514713E+02  0.10014044938E+03  0.41800000000E+01 0.  1.
         -5    1    1    2    0  502 -0.12522077553E+03  0.85263760881E+01 -0.46736954807E+02  0.13399536208E+03  0.41800000000E+01 0.  1.
        -11    1    3    3    0    0  0.88509049100E+02  0.83595219695E+02  0.85186136621E+02  0.14858899825E+03  0.00000000000E+00 0.  1.
         11    1    3    3    0    0  0.73121312378E+02 -0.70506754808E+01  0.11511150537E+03  0.13655437385E+03  0.00000000000E+00 0. -1.
</event>
<event>
 7    1  0.6684706E-006  0.8726511E+02  0.7561462E-02  0.1309613E+00
         -1   -1    0    0    0  501 -0.00000000000E+00  0.00000000000E+00  0.21781759546E+03  0.21781759546E+03  0.00000000000E+00 0.  1.
          1   -1    0    0  501    0  0.00000000000E+00 -0.00000000000E+00 -0.97213177962E+02  0.97213177962E+02  0.00000000000E+00 0. -1.
         23    2    1    2    0    0  0.52796082641E+02  0.37372622029E+02  0.12275462536E+03  0.17419102159E+03  0.10530752459E+03 0.  0.
          5    1    1    2  502    0 -0.54687528253E+02 -0.40430880711E+02 -0.55084299673E+02  0.87619257768E+02  0.41800000000E+01 0. -1.
         -5    1    1    2    0  502  0.18914456123E+01  0.30582586820E+01  0.52934091804E+02  0.53220494058E+02  0.41800000000E+01 0. -1.
        -11    1    3    3    0    0 -0.15192657157E+02  0.28521311734E+02 -0.14188719125E+01  0.32346487476E+02  0.00000000000E+00 0. -1.
         11    1    3    3    0    0  0.67988739798E+02  0.88513102950E+01  0.12417349728E+03  0.14184453412E+03  0.00000000000E+00 0.  1.
</event>
<event>
 7    1  0.6684706E-006  0.1441802E+03  0.7561462E-02  0.1207812E+00
          1   -1    0    0  501    0  0.00000000000E+00  0.00000000000E+00  0.35447288263E+03  0.35447288263E+03  0.00000000000E+00 0.  1.
         -1   -1    0    0    0  501 -0.00000000000E+00 -0.00000000000E+00 -0.63269170928E+02  0.63269170928E+02  0.00000000000E+00 0. -1.
         23    2    1    2    0    0  0.66991214654E+02 -0.78259766885E+02  0.13862540559E+03  0.19515448839E+03  0.90861748322E+02 0.  0.
          5    1    1    2  502    0 -0.96301645115E+01  0.95587687466E+02  0.63815177424E+02  0.11541055122E+03  0.41800000000E+01 0. -1.
         -5    1    1    2    0  502 -0.57361050143E+02 -0.17327920581E+02  0.88763128683E+02  0.10717701395E+03  0.41800000000E+01 0. -1.
        -11    1    3    3    0    0  0.52899785043E+02 -0.29247962181E+00  0.30356183537E+02  0.60991562375E+02  0.00000000000E+00 0. -1.
         11    1    3    3    0    0  0.14091429611E+02 -0.77967287263E+02  0.10826922206E+03  0.13416292601E+03  0.00000000000E+00 0.  1.
</event>
<event>
 7    1  0.6684706E-006  0.1191718E+03  0.7561462E-02  0.1244470E+00
         -1   -1    0    0    0  501 -0.00000000000E+00  0.00000000000E+00  0.50756885490E+02  0.50756885490E+02  0.00000000000E+00 0.  1.
          1   -1    0    0  501    0  0.00000000000E+00 -0.00000000000E+00 -0.33373958584E+03  0.33373958584E+03  0.00000000000E+00 0. -1.
         23    2    1    2    0    0  0.17514162295E+02 -0.52939177672E+02 -0.92649949840E+02  0.15001028923E+03  0.10397004980E+03 0.  0.
          5    1    1    2  502    0  0.10261687385E+02  0.89873938706E+02 -0.12616460521E+03  0.15529844524E+03  0.41800000000E+01 0.  1.
         -5    1    1    2    0  502 -0.27775849680E+02 -0.36934761034E+02 -0.64168145302E+02  0.79187736864E+02  0.41800000000E+01 0.  1.
        -11    1    3    3    0    0 -0.15173891671E+02  0.17842362819E+02  0.60895471490E+01  0.24200815769E+02  0.00000000000E+00 0.  1.
         11    1    3    3    0    0  0.32688053966E+02 -0.70781540491E+02 -0.98739496989E+02  0.12580947346E+03  0.00000000000E+00 0. -1.
</event>
<event>
 7    1  0.6684706E-006  0.9514936E+02  0.7561462E-02  0.1290840E+00
         -1   -1    0    0    0  501 -0.00000000000E+00  0.00000000000E+00  0.24381112647E+02  0.24381112647E+02  0.00000000000E+00 0.  1.
          1   -1    0    0  501    0  0.00000000000E+00 -0.00000000000E+00 -0.71574866819E+03  0.71574866819E+03  0.00000000000E+00 0. -1.
         23    2    1    2    0    0  0.57657838868E+02  0.50090366051E+02 -0.27561762121E+03  0.29930190570E+03  0.88221802758E+02 0.  0.
          5    1    1    2  502    0 -0.27338705285E+02 -0.18410444467E+02 -0.38655924438E+03  0.38798436964E+03  0.41800000000E+01 0.  1.
         -5    1    1    2    0  502 -0.30319133583E+02 -0.31679921583E+02 -0.29190689957E+02  0.52843505494E+02  0.41800000000E+01 0.  1.
        -11    1    3    3    0    0  0.16433273661E+02  0.66615326719E+02 -0.20188959043E+03  0.21323006580E+03  0.00000000000E+00 0.  1.
         11    1    3    3    0    0  0.41224565206E+02 -0.16524960668E+02 -0.73728030777E+02  0.86071839900E+02  0.00000000000E+00 0. -1.
</event>
<event>
 7    1  0.6684706E-006  0.1021458E+03  0.7561462E-02  0.1275847E+00
         -2   -1    0    0    0  501 -0.00000000000E+00  0.00000000000E+00  0.24813297455E+02  0.24813297455E+02  0.00000000000E+00 0.  1.
          2   -1    0    0  501    0  0.00000000000E+00 -0.00000000000E+00 -0.71433499564E+03  0.71433499564E+03  0.00000000000E+00 0. -1.
         23    2    1    2    0    0 -0.56827900308E+01 -0.52542395161E+02 -0.14597569998E+03  0.17889577244E+03  0.88892041378E+02 0.  0.
          5    1    1    2  502    0 -0.38844294037E+02  0.56181390732E+01 -0.56556979762E+02  0.68968159507E+02  0.41800000000E+01 0.  1.
         -5    1    1    2    0  502  0.44527084068E+02  0.46924256088E+02 -0.48698901845E+03  0.49128436115E+03  0.41800000000E+01 0.  1.
        -11    1    3    3    0    0  0.13688248231E+02 -0.71556934373E+02 -0.12463883389E+03  0.14436967102E+03  0.00000000000E+00 0.  1.
         11    1    3    3    0    0 -0.19371038262E+02  0.19014539212E+02 -0.21336866090E+02  0.34526101421E+02  0.00000000000E+00 0. -1.
</event>
<event>
 7    1  0.6684706E-006  0.1433731E+03  0.7561462E-02  0.1208861E+00
         -2   -1    0    0    0  501 -0.00000000000E+00  0.00000000000E+00  0.46204207468E+03  0.46204207468E+03  0.00000000000E+00 0.  1.
          2   -1    0    0  501    0  0.00000000000E+00 -0.00000000000E+00 -0.45437597931E+02  0.45437597931E+02  0.00000000000E+00 0. -1.
         23    2    1    2    0    0  0.63007655127E+02 -0.71593977072E+02  0.18628659475E+03  0.22857202027E+03  0.91906533559E+02 0.  0.
          5    1    1    2  502    0  0.26990958765E+02  0.57121636794E+02  0.12053589869E+03  0.13615347413E+03  0.41800000000E+01 0.  1.
         -5    1    1    2    0  502 -0.89998613892E+02  0.14472340278E+02  0.10978198330E+03  0.14275417820E+03  0.41800000000E+01 0.  1.
        -11    1    3    3    0    0  0.78655773767E+02 -0.81813092071E+02  0.15460207086E+03  0.19178611288E+03  0.00000000000E+00 0. -1.
         11    1    3    3    0    0 -0.15648118639E+02  0.10219114999E+02  0.31684523893E+02  0.36785907392E+02  0.00000000000E+00 0.  1.
</event>
<event>
 6    1  0.1576165E-005  0.3353927E+03  0.7561462E-02  0.1068775E+00
          2   -1    0    0  501    0  0.00000000000E+00  0.00000000000E+00  0.54859110839E+03  0.54859110839E+03  0.00000000000E+00 0. -1.
         -2   -1    0    0    0  501 -0.00000000000E+00 -0.00000000000E+00 -0.40814267449E+03  0.40814267449E+03  0.00000000000E+00 0.  1.
          5    1    1    2  502    0 -0.65543876520E+02 -0.13141144733E+03  0.93851225545E+02  0.17432869292E+03  0.41800000000E+01 0. -1.
         -5    1    1    2    0  502  0.25026452615E+02 -0.19816075003E+01  0.43102581475E+02  0.50055519461E+02  0.41800000000E+01 0.  1.
        -11    1    1    2    0    0 -0.11271312132E+02  0.31213165388E+03 -0.26231410053E+03  0.40787485724E+03  0.00000000000E+00 0.  1.
         11    1    1    2    0    0  0.51788736038E+02 -0.17873859905E+03  0.26580872741E+03  0.32447471325E+03  0.00000000000E+00 0. -1.
</event>
<event>
 7    1  0.6684706E-006  0.1301616E+03  0.7561462E-02  0.1227216E+00
          2   -1    0    0  501    0  0.00000000000E+00  0.00000000000E+00  0.97172021487E+02  0.97172021487E+02  0.00000000000E+00 0. -1.
         -2   -1    0    0    0  501 -0.00000000000E+00 -0.00000000000E+00 -0.22412309084E+03  0.22412309084E+03  0.00000000000E+00 0.  1.
         23    2    1    2    0    0 -0.97634038393E+02 -0.97410324094E+01 -0.74787924540E+02  0.15397560002E+03  0.92130117653E+02 0.  0.
          5    1    1    2  502    0  0.11822223403E+03  0.36345747802E+02 -0.31798843408E+02  0.12777381909E+03  0.41800000000E+01 0. -1.
         -5    1    1    2    0  502 -0.20588195635E+02 -0.26604715392E+02 -0.20364301401E+02  0.39545693219E+02  0.41800000000E+01 0. -1.
        -11    1    3    3    0    0 -0.72168639067E+02  0.65095181784E+01  0.91557044323E+00  0.72467403437E+02  0.00000000000E+00 0. -1.
         11    1    3    3    0    0 -0.25465399326E+02 -0.16250550588E+02 -0.75703494983E+02  0.81508196581E+02  0.00000000000E+00 0.  1.
</event>
<event>
 7    1  0.6684706E-006  0.1499841E+03  0.7561462E-02  0.1200492E+00
         -1   -1    0    0    0  501 -0.00000000000E+00  0.00000000000E+00  0.26622490549E+02  0.26622490549E+02  0.00000000000E+00 0.  1.
          1   -1    0    0  501    0  0.00000000000E+00 -0.00000000000E+00 -0.11709840521E+04  0.11709840521E+04  0.00000000000E+00 0. -1.
         23    2    1    2    0    0  0.37565427113E+02  0.13053270551E+03 -0.43558530632E+03  0.46517158926E+03  0.90554402742E+02 0.  0.
          5    1    1    2  502    0 -0.47060933571E+02 -0.11488444416E+03 -0.32088906310E+03  0.34409363580E+03  0.41800000000E+01 0. -1.
         -5    1    1    2    0  502  0.94955064582E+01 -0.15648261355E+02 -0.38788719214E+03  0.38834131760E+03  0.41800000000E+01 0. -1.
        -11    1    3    3    0    0  0.42740695560E+02  0.21547523187E+02 -0.80025353598E+02  0.93247627482E+02  0.00000000000E+00 0.  1.
         11    1    3    3    0    0 -0.51752684468E+01  0.10898518233E+03 -0.35555995272E+03  0.37192396178E+03  0.00000000000E+00 0. -1.
</event>
<event>
 7    1  0.6684706E-006  0.1004820E+03  0.7561462E-02  0.1279286E+00
          2   -1    0    0  501    0  0.00000000000E+00  0.00000000000E+00  0.27453830341E+03  0.27453830341E+03  0.00000000000E+00 0. -1.
         -2   -1    0    0    0  501 -0.00000000000E+00 -0.00000000000E+00 -0.99876662227E+02  0.99876662227E+02  0.00000000000E+00 0.  1.
         23    2    1    2    0    0 -0.25389439292E+02  0.36701333669E+02 -0.49359161125E+02  0.11398074017E+03  0.92540103853E+02 0.  0.
          5    1    1    2  502    0 -0.50205486972E+02 -0.14719217484E+02  0.10913732547E+03  0.12110191781E+03  0.41800000000E+01 0.  1.
         -5    1    1    2    0  502  0.75594926263E+02 -0.21982116185E+02  0.11488347683E+03  0.13933230766E+03  0.41800000000E+01 0.  1.
        -11    1    3    3    0    0 -0.39145991877E+02  0.11283477778E+02 -0.68227484224E+02  0.79465182026E+02  0.00000000000E+00 0.  1.
         11    1    3    3    0    0  0.13756552585E+02  0.25417855891E+02  0.18868323099E+02  0.34515558140E+02  0.00000000000E+00 0. -1.
</event>
<event>
 7    1  0.6684706E-006  0.1388810E+03  0.7561462E-02  0.1214843E+00
         -1   -1    0    0    0  501 -0.00000000000E+00  0.00000000000E+00  0.58367592465E+02  0.58367592465E+02  0.00000000000E+00 0.  1.
          1   -1    0    0  501    0  0.00000000000E+00 -0.00000000000E+00 -0.50730780182E+03  0.50730780182E+03  0.00000000000E+00 0. -1.
         23    2    1    2    0    0  0.88544400881E+02 -0.97375889686E+02 -0.17030186149E+03  0.23309787072E+03  0.89497030623E+02 0.  0.
          5    1    1    2  502    0 -0.25390060089E+00 -0.77248796477E+01 -0.12967418943E+03  0.12997155857E+03  0.41800000000E+01 0.  1.
         -5    1    1    2    0  502 -0.88290500280E+02  0.10510076933E+03 -0.14896415844E+03  0.20260596500E+03  0.41800000000E+01 0.  1.
        -11    1    3    3    0    0  0.23588996710E+02 -0.24009469000E+02  0.32280830342E+01  0.33812954433E+02  0.00000000000E+00 0.  1.
         11    1    3    3    0    0  0.64955404171E+02 -0.73366420686E+02 -0.17352994452E+03  0.19928491629E+03  0.00000000000E+00 0. -1.
</event>
<event>
 7    1  0.6684706E-006  0.1312275E+03  0.7561462E-02  0.1225646E+00
         -1   -1    0    0    0  501 -0.00000000000E+00  0.00000000000E+00  0.99306135943E+02  0.99306135943E+02  0.00000000000E+00 0.  1.
          1   -1    0    0  501    0  0.00000000000E+00 -0.00000000000E+00 -0.34418331369E+03  0.34418331369E+03  0.00000000000E+00 0. -1.
         23    2    1    2    0    0  0.10651126176E+03 -0.53413738285E+02  0.27420991207E+01  0.14156244687E+03  0.76385410483E+02 0.  0.
          5    1    1    2  502    0 -0.99923255976E+02  0.45578276791E+02 -0.85021878638E+02  0.13895405229E+03  0.41800000000E+01 0.  1.
         -5    1    1    2    0  502 -0.65880057890E+01  0.78354614941E+01 -0.16259739823E+03  0.16297295048E+03  0.41800000000E+01 0.  1.
        -11    1    3    3    0    0  0.83492383531E+02 -0.17916996785E+00 -0.14029902619E+00  0.83492693653E+02  0.00000000000E+00 0.  1.
         11    1    3    3    0    0  0.23018878233E+02 -0.53234568318E+02  0.28823981469E+01  0.58069753212E+02  0.00000000000E+00 0. -1.
</event>
<event>
 7    1  0.6684706E-006  0.1440963E+03  0.7561462E-02  0.1207921E+00
         -1   -1    0    0    0  501 -0.00000000000E+00  0.00000000000E+00  0.20293886194E+03  0.20293886194E+03  0.00000000000E+00 0.  1.
          1   -1    0    0  501    0  0.00000000000E+00 -0.00000000000E+00 -0.10857719638E+03  0.10857719638E+03  0.00000000000E+00 0. -1.
         23    2    1    2    0    0  0.42361337620E+02 -0.85640504985E+02  0.73616661899E+02  0.15274948390E+03  0.93724131922E+02 0.  0.
          5    1    1    2  502    0  0.43171900754E+02  0.20699635179E+02  0.17804905955E+02  0.51252073006E+02  0.41800000000E+01 0.  1.
         -5    1    1    2    0  502 -0.85533238374E+02  0.64940869806E+02  0.29400977095E+01  0.10751450141E+03  0.41800000000E+01 0.  1.
        -11    1    3    3    0    0 -0.29238922448E+02 -0.30807385433E+02  0.33261912922E+02  0.53947793601E+02  0.00000000000E+00 0.  1.
         11    1    3    3    0    0  0.71600260068E+02 -0.54833119552E+02  0.40354748977E+02  0.98801690302E+02  0.00000000000E+00 0. -1.
</event>
<event>
 7    1  0.6684706E-006  0.1020587E+03  0.7561462E-02  0.1276025E+00
          1   -1    0    0  501    0  0.00000000000E+00  0.00000000000E+00  0.35134566730E+02  0.35134566730E+02  0.00000000000E+00 0. -1.
         -1   -1    0    0    0  501 -0.00000000000E+00 -0.00000000000E+00 -0.34723629283E+03  0.34723629283E+03  0.00000000000E+00 0.  1.
         23    2    1    2    0    0 -0.20239955092E+01  0.22716976232E+02 -0.14255240670E+03  0.17044223386E+03  0.90604684542E+02 0.  0.
          5    1    1    2  502    0 -0.54094357968E+02 -0.18093708045E+02 -0.13271169830E+03  0.14451106913E+03  0.41800000000E+01 0. -1.
         -5    1    1    2    0  502  0.56118353477E+02 -0.46232681872E+01 -0.36837621105E+02  0.67417556574E+02  0.41800000000E+01 0. -1.
        -11    1    3    3    0    0  0.13878594909E+02 -0.31253440280E+02 -0.75690026033E+02  0.83056444463E+02  0.00000000000E+00 0. -1.
         11    1    3    3    0    0 -0.15902590418E+02  0.53970416512E+02 -0.66862380665E+02  0.87385789398E+02  0.00000000000E+00 0.  1.
</event>
<event>
 6    1  0.6684706E-006  0.1298342E+03  0.7561462E-02  0.1227702E+00
         -2   -1    0    0    0  501 -0.00000000000E+00  0.00000000000E+00  0.92396340819E+02  0.92396340819E+02  0.00000000000E+00 0. -1.
          2   -1    0    0  501    0  0.00000000000E+00 -0.00000000000E+00 -0.20005250579E+03  0.20005250579E+03  0.00000000000E+00 0.  1.
          5    1    1    2  502    0  0.11048447542E+03  0.57496563100E+02 -0.34878711539E+02  0.12940892935E+03  0.41800000000E+01 0.  1.
         -5    1    1    2    0  502 -0.13089533579E+02 -0.31261794614E+02 -0.23951279091E+02  0.41710572544E+02  0.41800000000E+01 0.  1.
        -11    1    1    2    0    0 -0.58003303611E+02 -0.14296750335E+02 -0.31194935028E+01  0.59820661478E+02  0.00000000000E+00 0. -1.
         11    1    1    2    0    0 -0.39391638232E+02 -0.11938018151E+02 -0.45706680834E+02  0.61508683231E+02  0.00000000000E+00 0.  1.
</event>
<event>
 7    1  0.6684706E-006  0.1569422E+03  0.7561462E-02  0.1192193E+00
          2   -1    0    0  501    0  0.00000000000E+00  0.00000000000E+00  0.34655731313E+02  0.34655731313E+02  0.00000000000E+00 0. -1.
         -2   -1    0    0    0  501 -0.00000000000E+00 -0.00000000000E+00 -0.10007771699E+04  0.10007771699E+04  0.00000000000E+00 0.  1.
         23    2    1    2    0    0 -0.44707970963E+02  0.13303654615E+03 -0.61293271869E+03  0.63532358987E+03  0.90840634780E+02 0.  0.
          5    1    1    2  502    0  0.66321043759E+02 -0.81171443338E+02 -0.11634257904E+03  0.15665360563E+03  0.41800000000E+01 0.  1.
         -5    1    1    2    0  502 -0.21613072796E+02 -0.51865102812E+02 -0.23684614085E+03  0.24345570571E+03  0.41800000000E+01 0.  1.
        -11    1    3    3    0    0 -0.52202725556E+02  0.61324067221E+02 -0.19115290095E+03  0.20742516076E+03  0.00000000000E+00 0.  1.
         11    1    3    3    0    0  0.74947545931E+01  0.71712478929E+02 -0.42177981774E+03  0.42789842911E+03  0.00000000000E+00 0. -1.
</event>
<event>
 7    1  0.6684706E-006  0.1208821E+03  0.7561462E-02  0.1241649E+00
         -1   -1    0    0    0  501 -0.00000000000E+00  0.00000000000E+00  0.41975000500E+03  0.41975000500E+03  0.00000000000E+00 0.  1.
          1   -1    0    0  501    0  0.00000000000E+00 -0.00000000000E+00 -0.46443078002E+02  0.46443078002E+02  0.00000000000E+00 0. -1.
         23    2    1    2    0    0 -0.33280061882E+02  0.60732196031E+02  0.25780404298E+03  0.28238675927E+03  0.92105347737E+02 0.  0.
          5    1    1    2  502    0  0.58354760211E+02 -0.81183163477E+02  0.11321589169E+03  0.15110027995E+03  0.41800000000E+01 0.  1.
         -5    1    1    2    0  502 -0.25074698329E+02  0.20450967446E+02  0.22869923330E+01  0.32706043779E+02  0.41800000000E+01 0.  1.
        -11    1    3    3    0    0 -0.37531014688E+01 -0.21434194821E+02  0.22026983942E+02  0.30962856777E+02  0.00000000000E+00 0. -1.
         11    1    3    3    0    0 -0.29526960413E+02  0.82166390852E+02  0.23577705904E+03  0.25142390250E+03  0.00000000000E+00 0.  1.
</event>
<event>
 7    1  0.6684706E-006  0.5594485E+02  0.7561462E-02  0.1415683E+00
         -2   -1    0    0    0  501 -0.00000000000E+00  0.00000000000E+00  0.20116600809E+03  0.20116600809E+03  0.00000000000E+00 0.  1.
          2   -1    0    0  501    0  0.00000000000E+00 -0.00000000000E+00 -0.65279957169E+02  0.65279957169E+02  0.00000000000E+00 0. -1.
         23    2    1    2    0    0 -0.21871683177E+02 -0.12653224689E+02  0.91237572978E+02  0.13124149583E+03  0.90893128918E+02 0.  0.
          5    1    1    2  502    0  0.11025009184E+02 -0.95988551206E+01 -0.42170990679E+02  0.44828045931E+02  0.41800000000E+01 0. -1.
         -5    1    1    2    0  502  0.10846673993E+02  0.22252079810E+02  0.86819468620E+02  0.90376423496E+02  0.41800000000E+01 0. -1.
        -11    1    3    3    0    0 -0.45319832949E+02 -0.84710723419E+00  0.10756042968E+02  0.46586449849E+02  0.00000000000E+00 0. -1.
         11    1    3    3    0    0  0.23448149772E+02 -0.11806117455E+02  0.80481530010E+02  0.84655045980E+02  0.00000000000E+00 0.  1.
</event>
<event>
 7    1  0.6684706E-006  0.2186641E+03  0.7561462E-02  0.1134883E+00
         -2   -1    0    0    0  501 -0.00000000000E+00  0.00000000000E+00  0.13676995270E+03  0.13676995270E+03  0.00000000000E+00 0.  1.
          2   -1    0    0  501    0  0.00000000000E+00 -0.00000000000E+00 -0.42808864067E+03  0.42808864067E+03  0.00000000000E+00 0. -1.
         23    2    1    2    0    0  0.19871589611E+03  0.50319404006E+02 -0.74674821121E+02  0.24143731969E+03  0.10341953706E+03 0.  0.
          5    1    1    2  502    0 -0.12130290990E+03 -0.30749964497E+01 -0.45446017755E+02  0.12964052022E+03  0.41800000000E+01 0. -1.
         -5    1    1    2    0  502 -0.77412986211E+02 -0.47244407556E+02 -0.17119784909E+03  0.19378075346E+03  0.41800000000E+01 0. -1.
        -11    1    3    3    0    0  0.18005533828E+03  0.95712323511E+01 -0.39801507954E+02  0.18465019190E+03  0.00000000000E+00 0.  1.
         11    1    3    3    0    0  0.18660557824E+02  0.40748171655E+02 -0.34873313167E+02  0.56787127792E+02  0.00000000000E+00 0. -1.
</event>
<event>
 7    1  0.6684706E-006  0.2079316E+03  0.7561462E-02  0.1143214E+00
         -2   -1    0    0    0  501 -0.00000000000E+00  0.00000000000E+00  0.27679470767E+02  0.27679470767E+02  0.00000000000E+00 0.  1.
          2   -1    0    0  501    0  0.00000000000E+00 -0.00000000000E+00 -0.18103377480E+04  0.18103377480E+04  0.00000000000E+00 0. -1.
         23    2    1    2    0    0 -0.20607144430E+02  0.19366642690E+03 -0.90050046390E+03  0.92599662738E+03  0.92937232214E+02 0.  0.
          5    1    1    2  502    0  0.23845881691E+02 -0.20606927923E+03 -0.71991317416E+03  0.74921667404E+03  0.41800000000E+01 0. -1.
         -5    1    1    2    0  502 -0.32387372608E+01  0.12402852332E+02 -0.16224463915E+03  0.16280391733E+03  0.41800000000E+01 0. -1.
        -11    1    3    3    0    0 -0.94671259357E+01  0.57681288477E+02 -0.11793625195E+03  0.13162718958E+03  0.00000000000E+00 0.  1.
         11    1    3    3    0    0 -0.11140018494E+02  0.13598513842E+03 -0.78256421195E+03  0.79436943780E+03  0.00000000000E+00 0. -1.
</event>
<event>
 7    1  0.6684706E-006  0.2411110E+03  0.7561462E-02  0.1119055E+00
         -1   -1    0    0    0  501 -0.00000000000E+00  0.00000000000E+00  0.36299215602E+03  0.36299215602E+03  0.00000000000E+00 0.  1.
          1   -1    0    0  501    0  0.00000000000E+00 -0.00000000000E+00 -0.18759135164E+03  0.18759135164E+03  0.00000000000E+00 0. -1.
         23    2    1    2    0    0  0.11301853950E+03 -0.20295479314E+03  0.13214334670E+03  0.28321878373E+03  0.93739943729E+02 0.  0.
          5    1    1    2  502    0 -0.88732507325E+02  0.15243869265E+03  0.86454832656E+02  0.19647626667E+03  0.41800000000E+01 0.  1.
         -5    1    1    2    0  502 -0.24286032178E+02  0.50516100491E+02 -0.43197374976E+02  0.70888457259E+02  0.41800000000E+01 0.  1.
        -11    1    3    3    0    0  0.46132029167E+02 -0.16778939892E+03  0.10308437746E+03  0.20225685497E+03  0.00000000000E+00 0. -1.
         11    1    3    3    0    0  0.66886510335E+02 -0.35165394221E+02  0.29058969237E+02  0.80961928761E+02  0.00000000000E+00 0.  1.
</event>
<event>
 7    1  0.6684706E-006  0.1054282E+03  0.7561462E-02  0.1269278E+00
         -1   -1    0    0    0  501 -0.00000000000E+00  0.00000000000E+00  0.49337040695E+03  0.49337040695E+03  0.00000000000E+00 0.  1.
          1   -1    0    0  501    0  0.00000000000E+00 -0.00000000000E+00 -0.42133541638E+02  0.42133541638E+02  0.00000000000E+00 0. -1.
         23    2    1    2    0    0 -0.15483057882E+02  0.74349514069E+02  0.31017466123E+03  0.33225011849E+03  0.91729196241E+02 0.  0.
          5    1    1    2  502    0 -0.26101967618E+02 -0.10599372607E+02 -0.13043583006E+02  0.31325179502E+02  0.41800000000E+01 0.  1.
         -5    1    1    2    0  502  0.41585025500E+02 -0.63750141462E+02  0.15410578709E+03  0.17192865060E+03  0.41800000000E+01 0.  1.
        -11    1    3    3    0    0  0.21199466672E+02  0.64888803476E+02  0.11753349164E+03  0.13591944622E+03  0.00000000000E+00 0. -1.
         11    1    3    3    0    0 -0.36682524554E+02  0.94607105923E+01  0.19264116958E+03  0.19633067226E+03  0.00000000000E+00 0.  1.
</event>
<event>
 7    1  0.6684706E-006  0.1053094E+03  0.7561462E-02  0.1269511E+00
         -1   -1    0    0    0  501 -0.00000000000E+00  0.00000000000E+00  0.57403636735E+03  0.57403636735E+03  0.00000000000E+00 0.  1.
          1   -1    0    0  501    0  0.00000000000E+00 -0.00000000000E+00 -0.31070729322E+02  0.31070729322E+02  0.00000000000E+00 0. -1.
         23    2    1    2    0    0 -0.56896739674E+02 -0.31393415745E+02  0.34335263009E+03  0.36073940077E+03  0.89549434052E+02 0.  0.
          5    1    1    2  502    0  0.28245698342E+02 -0.29686936776E+02  0.16170414571E+03  0.16686772256E+03  0.41800000000E+01 0. -1.
         -5    1    1    2    0  502  0.28651041332E+02  0.61080352521E+02  0.37908862219E+02  0.77499973344E+02  0.41800000000E+01 0. -1.
        -11    1    3    3    0    0 -0.35686722299E+02  0.23672056074E+02  0.21833504455E+03  0.22249516864E+03  0.00000000000E+00 0.  1.
         11    1    3    3    0    0 -0.21210017375E+02 -0.55065471820E+02  0.12501758554E+03  0.13824423213E+03  0.00000000000E+00 0. -1.
</event>
<event>
 7    1  0.6684706E-006  0.1078839E+03  0.7561462E-02  0.1264539E+00
         -2   -1    0    0    0  501 -0.00000000000E+00  0.00000000000E+00  0.93813030408E+02  0.93813030408E+02  0.00000000000E+00 0.  1.
          2   -1    0    0  501    0  0.00000000000E+00 -0.00000000000E+00 -0.38704035824E+03  0.38704035824E+03  0.00000000000E+00 0. -1.
         23    2    1    2    0    0  0.10703302770E+02  0.88395723240E+02  0.16336754536E+02  0.12730518478E+03  0.89506178252E+02 0.  0.
          5    1    1    2  502    0 -0.41363426047E+02 -0.55094849879E+02 -0.29902079768E+03  0.30688317866E+03  0.41800000000E+01 0. -1.
         -5    1    1    2    0  502  0.30660123277E+02 -0.33300873361E+02 -0.10543284687E+02  0.46665025211E+02  0.41800000000E+01 0.  1.
        -11    1    3    3    0    0  0.23869498794E+02  0.18596288655E+02 -0.29910026740E+02  0.42546264513E+02  0.00000000000E+00 0. -1.
         11    1    3    3    0    0 -0.13166196024E+02  0.69799434585E+02  0.46246781276E+02  0.84758920265E+02  0.00000000000E+00 0.  1.
</event>
<event>
 7    1  0.6684706E-006  0.1046111E+03  0.7561462E-02  0.1270888E+00
         -2   -1    0    0    0  501 -0.00000000000E+00  0.00000000000E+00  0.68841931775E+02  0.68841931775E+02  0.00000000000E+00 0.  1.
          2   -1    0    0  501    0  0.00000000000E+00 -0.00000000000E+00 -0.27481220671E+03  0.27481220671E+03  0.00000000000E+00 0. -1.
         23    2    1    2    0    0  0.50487945560E+02  0.29830985400E+02 -0.16406028824E+02  0.10908915885E+03  0.90511692398E+02 0.  0.
          5    1    1    2  502    0 -0.35567603176E+02  0.27697593962E+02 -0.11376799583E+02  0.46680992660E+02  0.41800000000E+01 0. -1.
         -5    1    1    2    0  502 -0.14920342384E+02 -0.57528579362E+02 -0.17818744652E+03  0.18788398697E+03  0.41800000000E+01 0. -1.
        -11    1    3    3    0    0 -0.24521240152E+02  0.11856855401E+02 -0.16712351231E+02  0.31955890260E+02  0.00000000000E+00 0. -1.
         11    1    3    3    0    0  0.75009185712E+02  0.17974129999E+02  0.30632240688E+00  0.77133268593E+02  0.00000000000E+00 0.  1.
</event>
<event>
 7    1  0.6684706E-006  0.1294656E+03  0.7561462E-02  0.1228251E+00
          2   -1    0    0  501    0  0.00000000000E+00  0.00000000000E+00  0.19544303946E+04  0.19544303946E+04  0.00000000000E+00 0. -1.
         -2   -1    0    0    0  501 -0.00000000000E+00 -0.00000000000E+00 -0.13823922460E+02  0.13823922460E+02  0.00000000000E+00 0.  1.
         23    2    1    2    0    0  0.95981083451E+02 -0.34891849455E+01  0.44269492671E+03  0.46206333031E+03  0.91099836904E+02 0.  0.
          5    1    1    2  502    0 -0.38591329883E+02 -0.39202477023E+02  0.11312545063E+04  0.11325989385E+04  0.41800000000E+01 0. -1.
         -5    1    1    2    0  502 -0.57389753568E+02  0.42691661968E+02  0.36665703907E+03  0.37359204825E+03  0.41800000000E+01 0. -1.
        -11    1    3    3    0    0 -0.15245961034E+02 -0.13595971179E+02  0.58491189958E+02  0.61955702424E+02  0.00000000000E+00 0.  1.
         11    1    3    3    0    0  0.11122704448E+03  0.10106786234E+02  0.38420373675E+03  0.40010762788E+03  0.00000000000E+00 0. -1.
</event>
<event>
 7    1  0.6684706E-006  0.1237061E+03  0.7561462E-02  0.1237105E+00
         -1   -1    0    0    0  501 -0.00000000000E+00  0.00000000000E+00  0.27170385312E+02  0.27170385312E+02  0.00000000000E+00 0.  1.
          1   -1    0    0  501    0  0.00000000000E+00 -0.00000000000E+00 -0.79486858990E+03  0.79486858990E+03  0.00000000000E+00 0. -1.
         23    2    1    2    0    0 -0.29402706688E+02 -0.77406518991E+02 -0.18044860439E+03  0.21847479631E+03  0.91177022620E+02 0.  0.
          5    1    1    2  502    0 -0.36368108613E+02  0.15416768428E+02 -0.93408329176E+02  0.10150322375E+03  0.41800000000E+01 0. -1.
         -5    1    1    2    0  502  0.65770815301E+02  0.61989750564E+02 -0.49384127102E+03  0.50206095514E+03  0.41800000000E+01 0.  1.
        -11    1    3    3    0    0 -0.43693184343E+02 -0.56598601732E+01 -0.10253245325E+03  0.11159763593E+03  0.00000000000E+00 0. -1.
         11    1    3    3    0    0  0.14290477654E+02 -0.71746658818E+02 -0.77916151143E+02  0.10687716039E+03  0.00000000000E+00 0.  1.
</event>
<event>
 6    1  0.6684706E-006  0.8402633E+02  0.7561462E-02  0.1317999E+00
         -1   -1    0    0    0  501 -0.00000000000E+00  0.00000000000E+00  0.22523086991E+02  0.22523086991E+02  0.00000000000E+00 0.  1.
          1   -1    0    0  501    0  0.00000000000E+00 -0.00000000000E+00 -0.74416515939E+03  0.74416515939E+03  0.00000000000E+00 0. -1.
          5    1    1    2  502    0 -0.31815342599E+01  0.67681834097E+02 -0.37313360413E+03  0.37925863439E+03  0.41800000000E+01 0. -1.
         -5    1    1    2    0  502  0.16401462319E+02 -0.55942479058E+02 -0.31973468219E+03  0.32503278038E+03  0.41800000000E+01 0. -1.
        -11    1    1    2    0    0 -0.23887070596E+02  0.24013321832E+01  0.47577783186E+01  0.24474374199E+02  0.00000000000E+00 0.  1.
         11    1    1    2    0    0  0.10667142537E+02 -0.14140687222E+02 -0.33531564403E+02  0.37922457414E+02  0.00000000000E+00 0. -1.
</event>
<event>
 7    1  0.6684706E-006  0.9703918E+02  0.7561462E-02  0.1286648E+00
          2   -1    0    0  501    0  0.00000000000E+00  0.00000000000E+00  0.66958937260E+03  0.66958937260E+03  0.00000000000E+00 0. -1.
         -2   -1    0    0    0  501 -0.00000000000E+00 -0.00000000000E+00 -0.22218182495E+02  0.22218182495E+02  0.00000000000E+00 0.  1.
         23    2    1    2    0    0  0.19017301706E+02 -0.40135280446E+02  0.21322183152E+03  0.23781410948E+03  0.95496087514E+02 0.  0.
          5    1    1    2  502    0  0.31283339993E+02 -0.26682230680E+02  0.79602396774E+02  0.89691709580E+02  0.41800000000E+01 0. -1.
         -5    1    1    2    0  502 -0.50300641699E+02  0.66817511126E+02  0.35454696181E+03  0.36430173603E+03  0.41800000000E+01 0. -1.
        -11    1    3    3    0    0 -0.18199112988E+02 -0.81603783033E+01  0.97391702394E+00  0.19968675519E+02  0.00000000000E+00 0.  1.
         11    1    3    3    0    0  0.37216414694E+02 -0.31974902143E+02  0.21224791450E+03  0.21784543397E+03  0.00000000000E+00 0. -1.
</event>
<event>
 7    1  0.6684706E-006  0.1137751E+03  0.7561462E-02  0.1253735E+00
         -2   -1    0    0    0  501 -0.00000000000E+00  0.00000000000E+00  0.30232947116E+02  0.30232947116E+02  0.00000000000E+00 0.  1.
          2   -1    0    0  501    0  0.00000000000E+00 -0.00000000000E+00 -0.63829865648E+03  0.63829865648E+03  0.00000000000E+00 0. -1.
         23    2    1    2    0    0 -0.52968640479E+02  0.65837274916E+02 -0.22363298132E+03  0.25552217713E+03  0.90220003506E+02 0.  0.
          5    1    1    2  502    0 -0.90170567752E+01 -0.64283053557E+02 -0.84128913184E+02  0.10634267592E+03  0.41800000000E+01 0.  1.
         -5    1    1    2    0  502  0.61985697254E+02 -0.15542213592E+01 -0.30030381486E+03  0.30666675054E+03  0.41800000000E+01 0.  1.
        -11    1    3    3    0    0 -0.31917145594E+01  0.47042126699E+02 -0.32867124362E+02  0.57475182384E+02  0.00000000000E+00 0.  1.
         11    1    3    3    0    0 -0.49776925919E+02  0.18795148217E+02 -0.19076585695E+03  0.19804699475E+03  0.00000000000E+00 0. -1.
</event>
<event>
 7    1  0.6684706E-006  0.1535761E+03  0.7561462E-02  0.1196146E+00
         -1   -1    0    0    0  501 -0.00000000000E+00  0.00000000000E+00  0.17944203946E+02  0.17944203946E+02  0.00000000000E+00 0.  1.
          1   -1    0    0  501    0  0.00000000000E+00 -0.00000000000E+00 -0.14143298098E+04  0.14143298098E+04  0.00000000000E+00 0. -1.
         23    2    1    2    0    0  0.71358219472E+02 -0.86854617785E+02 -0.52413574382E+03  0.54395964555E+03  0.92401828521E+02 0.  0.
          5    1    1    2  502    0 -0.45812250152E+02  0.11586858077E+03 -0.74144522978E+03  0.75185290545E+03  0.41800000000E+01 0. -1.
         -5    1    1    2    0  502 -0.25545969320E+02 -0.29013962981E+02 -0.13080463223E+03  0.13646146272E+03  0.41800000000E+01 0. -1.
        -11    1    3    3    0    0  0.78898040230E+02 -0.10064609079E+03 -0.43345379892E+03  0.45192558253E+03  0.00000000000E+00 0.  1.
         11    1    3    3    0    0 -0.75398207581E+01  0.13791473005E+02 -0.90681944903E+02  0.92034063020E+02  0.00000000000E+00 0. -1.
</event>
<event>
 7    1  0.6684706E-006  0.9572505E+02  0.7561462E-02  0.1289551E+00
          1   -1    0    0  501    0  0.00000000000E+00  0.00000000000E+00  0.75329914556E+03  0.75329914556E+03  0.00000000000E+00 0. -1.
         -1   -1    0    0    0  501 -0.00000000000E+00 -0.00000000000E+00 -0.23255331894E+02  0.23255331894E+02  0.00000000000E+00 0.  1.
         23    2    1    2    0    0 -0.13688907344E+02 -0.24075423740E+02  0.12953290790E+03  0.16252788157E+03  0.94178160131E+02 0.  0.
          5    1    1    2  502    0  0.33244845923E+02 -0.25423581287E+02  0.48449193012E+03  0.48631417933E+03  0.41800000000E+01 0. -1.
         -5    1    1    2    0  502 -0.19555938580E+02  0.49499005026E+02  0.11601897564E+03  0.12771241655E+03  0.41800000000E+01 0. -1.
        -11    1    3    3    0    0 -0.51332317540E+02 -0.22582699858E-01  0.52142798697E+02  0.73170204250E+02  0.00000000000E+00 0.  1.
         11    1    3    3    0    0  0.37643410196E+02 -0.24052841040E+02  0.77390109202E+02  0.89357677318E+02  0.00000000000E+00 0. -1.
</event>
<event>
 7    1  0.6684706E-006  0.1006129E+03  0.7561462E-02  0.1279012E+00
         -2   -1    0    0    0  501 -0.00000000000E+00  0.00000000000E+00  0.23318475209E+02  0.23318475209E+02  0.00000000000E+00 0.  1.
          2   -1    0    0  501    0  0.00000000000E+00 -0.00000000000E+00 -0.95820305669E+03  0.95820305669E+03  0.00000000000E+00 0. -1.
         23    2    1    2    0    0  0.77441238277E+02  0.96808831734E+01 -0.18812080504E+03  0.22257709785E+03  0.89778963635E+02 0.  0.
          5    1    1    2  502    0 -0.69515895151E+02 -0.20987841271E+02 -0.73898172977E+03  0.74255263685E+03  0.41800000000E+01 0. -1.
         -5    1    1    2    0  502 -0.79253431266E+01  0.11306958097E+02 -0.77820466665E+01  0.16391797199E+02  0.41800000000E+01 0.  1.
        -11    1    3    3    0    0  0.21940833619E+02  0.43748133068E+02 -0.50491786993E+02  0.70318702211E+02  0.00000000000E+00 0. -1.
         11    1    3    3    0    0  0.55500404658E+02 -0.34067249895E+02 -0.13762901805E+03  0.15225839564E+03  0.00000000000E+00 0.  1.
</event>
<event>
 7    1  0.6684706E-006  0.1816121E+03  0.7561462E-02  0.1166252E+00
          1   -1    0    0  501    0  0.00000000000E+00  0.00000000000E+00  0.17112386210E+04  0.17112386210E+04  0.00000000000E+00 0. -1.
         -1   -1    0    0    0  501 -0.00000000000E+00 -0.00000000000E+00 -0.31418676330E+02  0.31418676330E+02  0.00000000000E+00 0.  1.
         23    2    1    2    0    0 -0.53350587820E+02 -0.14096546497E+03  0.29139026171E+03  0.34047963815E+03  0.91107364362E+02 0.  0.
          5    1    1    2  502    0  0.82566672795E+02  0.13351231727E+03  0.12786100660E+04  0.12882173604E+04  0.41800000000E+01 0. -1.
         -5    1    1    2    0  502 -0.29216084975E+02  0.74531477011E+01  0.10981961694E+03  0.11396029878E+03  0.41800000000E+01 0. -1.
        -11    1    3    3    0    0  0.25176961216E+02 -0.46744838898E+02  0.98422487148E+02  0.11182998398E+03  0.00000000000E+00 0.  1.
         11    1    3    3    0    0 -0.78527549035E+02 -0.94220626074E+02  0.19296777457E+03  0.22864965418E+03  0.00000000000E+00 0. -1.
</event>
<event>
 7    1  0.6684706E-006  0.1008990E+03  0.7561462E-02  0.1278417E+00
         -1   -1    0    0    0  501 -0.00000000000E+00  0.00000000000E+00  0.22867788030E+03  0.22867788030E+03  0.00000000000E+00 0.  1.
          1   -1    0    0  501    0  0.00000000000E+00 -0.00000000000E+00 -0.67038549751E+02  0.67038549751E+02  0.00000000000E+00 0. -1.
         23    2    1    2    0    0 -0.30017032137E+02 -0.37094915204E+02  0.11464543521E+03  0.15382780724E+03  0.90787463421E+02 0.  0.
          5    1    1    2  502    0  0.23068265061E+02 -0.27265045864E+02  0.65248033815E+02  0.74500375137E+02  0.41800000000E+01 0. -1.
         -5    1    1    2    0  502  0.69487670760E+01  0.64359961068E+02 -0.18254138476E+02  0.67388247670E+02  0.41800000000E+01 0. -1.
        -11    1    3    3    0    0  0.61174246600E+01  0.26841563433E+02  0.44138243934E+02  0.52019967220E+02  0.00000000000E+00 0. -1.
         11    1    3    3    0    0 -0.36134456796E+02 -0.63936478637E+02  0.70507191277E+02  0.10180784002E+03  0.00000000000E+00 0.  1.
</event>
<event>
 7    1  0.6684706E-006  0.1429772E+03  0.7561462E-02  0.1209378E+00
         -2   -1    0    0    0  501 -0.00000000000E+00  0.00000000000E+00  0.48207157466E+03  0.48207157466E+03  0.00000000000E+00 0.  1.
          2   -1    0    0  501    0  0.00000000000E+00 -0.00000000000E+00 -0.59570443547E+02  0.59570443547E+02  0.00000000000E+00 0. -1.
         23    2    1    2    0    0  0.12911233453E+03 -0.11017633001E+02  0.21004879806E+03  0.26311826614E+03  0.91210422882E+02 0.  0.
          5    1    1    2  502    0 -0.10137793933E+02 -0.15523422785E+01  0.13607303605E+03  0.13652299503E+03  0.41800000000E+01 0.  1.
         -5    1    1    2    0  502 -0.11897454060E+03  0.12569975279E+02  0.76379296999E+02  0.14200075704E+03  0.41800000000E+01 0.  1.
        -11    1    3    3    0    0  0.21575335244E+02 -0.38538618833E+02  0.85843537358E+02  0.96539282878E+02  0.00000000000E+00 0.  1.
         11    1    3    3    0    0  0.10753699929E+03  0.27520985832E+02  0.12420526071E+03  0.16657898326E+03  0.00000000000E+00 0. -1.
</event>
<event>
 7    1  0.6684706E-006  0.1023135E+03  0.7561462E-02  0.1275505E+00
          1   -1    0    0  501    0  0.00000000000E+00  0.00000000000E+00  0.43424575282E+03  0.43424575282E+03  0.00000000000E+00 0. -1.
         -1   -1    0    0    0  501 -0.00000000000E+00 -0.00000000000E+00 -0.35805904947E+02  0.35805904947E+02  0.00000000000E+00 0.  1.
         23    2    1    2    0    0 -0.27753487571E+02  0.35574039004E+02  0.16230857259E+03  0.19905118302E+03  0.10602609302E+03 0.  0.
          5    1    1    2  502    0  0.68458461970E+02 -0.11179860071E+02  0.71874016197E+02  0.99974481198E+02  0.41800000000E+01 0. -1.
         -5    1    1    2    0  502 -0.40704974399E+02 -0.24394178933E+02  0.16425725908E+03  0.17102599355E+03  0.41800000000E+01 0. -1.
        -11    1    3    3    0    0  0.25050212325E+02  0.21081919976E+02  0.58131033998E+01  0.33252859405E+02  0.00000000000E+00 0.  1.
         11    1    3    3    0    0 -0.52803699897E+02  0.14492119027E+02  0.15649546919E+03  0.16579832362E+03  0.00000000000E+00 0. -1.
</event>
<event>
 7    1  0.6684706E-006  0.7592841E+02  0.7561462E-02  0.1341020E+00
          2   -1    0    0  501    0  0.00000000000E+00  0.00000000000E+00  0.72823056886E+02  0.72823056886E+02  0.00000000000E+00 0. -1.
         -2   -1    0    0    0  501 -0.00000000000E+00 -0.00000000000E+00 -0.18417116540E+03  0.18417116540E+03  0.00000000000E+00 0.  1.
         23    2    1    2    0    0  0.33922117988E+02  0.23942656895E+02 -0.60820559369E+02  0.11584345372E+03  0.89423735215E+02 0.  0.
          5    1    1    2  502    0 -0.12330823767E+01 -0.49314964139E+02 -0.77222917953E+02  0.91729698775E+02  0.41800000000E+01 0.  1.
         -5    1    1    2    0  502 -0.32689035611E+02  0.25372307244E+02  0.26695368804E+02  0.49421069795E+02  0.41800000000E+01 0.  1.
        -11    1    3    3    0    0  0.39487942985E+02  0.35808120687E+01  0.10867402474E+02  0.41112288830E+02  0.00000000000E+00 0. -1.
         11    1    3    3    0    0 -0.55658249976E+01  0.20361844826E+02 -0.71687961843E+02  0.74731164890E+02  0.00000000000E+00 0.  1.
</event>
<event>
 7    1  0.6684706E-006  0.1054672E+03  0.7561462E-02  0.1269202E+00
          3   -1    0    0  501    0  0.00000000000E+00  0.00000000000E+00  0.15910417220E+03  0.15910417220E+03  0.00000000000E+00 0. -1.
         -3   -1    0    0    0  501 -0.00000000000E+00 -0.00000000000E+00 -0.11028230656E+03  0.11028230656E+03  0.00000000000E+00 0.  1.
         23    2    1    2    0    0 -0.73386684465E+02  0.15532572930E+02  0.11695414559E+02  0.11887605079E+03  0.91476043043E+02 0.  0.
          5    1    1    2  502    0  0.67938126411E+02 -0.46657547664E+02  0.67401479775E+02  0.10655021187E+03  0.41800000000E+01 0. -1.
         -5    1    1    2    0  502  0.54485580543E+01  0.31124974733E+02 -0.30275028691E+02  0.43960216097E+02  0.41800000000E+01 0. -1.
        -11    1    3    3    0    0 -0.64604496676E+02 -0.13677419381E+02 -0.25486502103E+02  0.70783999472E+02  0.00000000000E+00 0.  1.
         11    1    3    3    0    0 -0.87821877891E+01  0.29209992312E+02  0.37181916662E+02  0.48092051317E+02  0.00000000000E+00 0. -1.
</event>
<event>
 7    1  0.6684706E-006  0.1332868E+03  0.7561462E-02  0.1222659E+00
          2   -1    0    0  501    0  0.00000000000E+00  0.00000000000E+00  0.16027748416E+04  0.16027748416E+04  0.00000000000E+00 0. -1.
         -2   -1    0    0    0  501 -0.00000000000E+00 -0.00000000000E+00 -0.13871417124E+02  0.13871417124E+02  0.00000000000E+00 0.  1.
         23    2    1    2    0    0  0.54280351153E+02 -0.60383132694E+02  0.38807416380E+03  0.40659233160E+03  0.90129286445E+02 0.  0.
          5    1    1    2  502    0 -0.93285243784E+02  0.41640311710E+02  0.71335110921E+03  0.72064091590E+03  0.41800000000E+01 0. -1.
         -5    1    1    2    0  502  0.39004892631E+02  0.18742820984E+02  0.48747815147E+03  0.48941301122E+03  0.41800000000E+01 0. -1.
        -11    1    3    3    0    0 -0.16886154830E+02  0.10923662650E+02  0.52426833123E+02  0.56151949761E+02  0.00000000000E+00 0.  1.
         11    1    3    3    0    0  0.71166505982E+02 -0.71306795344E+02  0.33564733068E+03  0.35044038184E+03  0.00000000000E+00 0. -1.
</event>
<event>
 7    1  0.6684706E-006  0.1178985E+03  0.7561462E-02  0.1246605E+00
          2   -1    0    0  501    0  0.00000000000E+00  0.00000000000E+00  0.11646415018E+03  0.11646415018E+03  0.00000000000E+00 0.  1.
         -2   -1    0    0    0  501 -0.00000000000E+00 -0.00000000000E+00 -0.24682686073E+03  0.24682686073E+03  0.00000000000E+00 0. -1.
         23    2    1    2    0    0  0.35903789709E+00 -0.49622377628E+02 -0.18996451808E+03  0.21610641984E+03  0.90293727887E+02 0.  0.
          5    1    1    2  502    0  0.53956217325E+02 -0.70265117734E+01  0.14073580782E+02  0.56357637741E+02  0.41800000000E+01 0.  1.
         -5    1    1    2    0  502 -0.54315255223E+02  0.56648889402E+02  0.45528226754E+02  0.90826953333E+02  0.41800000000E+01 0.  1.
        -11    1    3    3    0    0  0.36594222701E+02 -0.54937756892E+02 -0.13106967300E+03  0.14675337628E+03  0.00000000000E+00 0.  1.
         11    1    3    3    0    0 -0.36235184804E+02  0.53153792641E+01 -0.58894845076E+02  0.69353043560E+02  0.00000000000E+00 0. -1.
</event>
<event>
 7    1  0.6684706E-006  0.1813890E+03  0.7561462E-02  0.1166466E+00
         -2   -1    0    0    0  501 -0.00000000000E+00  0.00000000000E+00  0.12584003132E+03  0.12584003132E+03  0.00000000000E+00 0.  1.
          2   -1    0    0  501    0  0.00000000000E+00 -0.00000000000E+00 -0.29121889906E+03  0.29121889906E+03  0.00000000000E+00 0. -1.
         23    2    1    2    0    0 -0.11990737661E+03 -0.11257538936E+03 -0.72487742921E+02  0.19050414748E+03  0.63137628083E+02 0.  0.
          5    1    1    2  502    0  0.10959558598E+03  0.38740484621E+02 -0.97455646551E+02  0.15174680577E+03  0.41800000000E+01 0.  1.
         -5    1    1    2    0  502  0.10311790627E+02  0.73834904739E+02  0.45645217314E+01  0.74807977130E+02  0.41800000000E+01 0.  1.
        -11    1    3    3    0    0 -0.77881280843E+02 -0.10222262754E+03 -0.71817363281E+02  0.14721648398E+03  0.00000000000E+00 0. -1.
         11    1    3    3    0    0 -0.42026095767E+02 -0.10352761818E+02 -0.67037964062E+00  0.43287663503E+02  0.00000000000E+00 0.  1.
</event>
<event>
 7    1  0.6684706E-006  0.1244226E+03  0.7561462E-02  0.1235974E+00
          2   -1    0    0  501    0  0.00000000000E+00  0.00000000000E+00  0.97422743123E+02  0.97422743123E+02  0.00000000000E+00 0. -1.
         -2   -1    0    0    0  501 -0.00000000000E+00 -0.00000000000E+00 -0.17941083064E+03  0.17941083064E+03  0.00000000000E+00 0.  1.
         23    2    1    2    0    0 -0.61771637847E+02  0.37705606142E+02 -0.57311861997E+02  0.13022568940E+03  0.91851144125E+02 0.  0.
          5    1    1    2  502    0  0.88137173269E+02  0.10192215023E+02 -0.22978940635E+02  0.91747188903E+02  0.41800000000E+01 0.  1.
         -5    1    1    2    0  502 -0.26365535421E+02 -0.47897821165E+02 -0.16972848853E+01  0.54860695460E+02  0.41800000000E+01 0.  1.
        -11    1    3    3    0    0 -0.72546893791E+02  0.72809322509E+01 -0.64285657494E+02  0.97204472801E+02  0.00000000000E+00 0.  1.
         11    1    3    3    0    0  0.10775255943E+02  0.30424673891E+02  0.69737954964E+01  0.33021216599E+02  0.00000000000E+00 0. -1.
</event>
<event>
 7    1  0.6684706E-006  0.2237720E+03  0.7561462E-02  0.1131102E+00
          2   -1    0    0  501    0  0.00000000000E+00  0.00000000000E+00  0.53200786265E+03  0.53200786265E+03  0.00000000000E+00 0.  1.
         -2   -1    0    0    0  501 -0.00000000000E+00 -0.00000000000E+00 -0.10320966768E+03  0.10320966768E+03  0.00000000000E+00 0. -1.
         23    2    1    2    0    0 -0.18206969843E+02  0.20214804313E+03  0.15277053292E+03  0.27047810437E+03  0.92866808502E+02 0.  0.
          5    1    1    2  502    0  0.15124190709E+02 -0.21934197939E+03  0.26125134698E+03  0.34148116166E+03  0.41800000000E+01 0.  1.
         -5    1    1    2    0  502  0.30827791335E+01  0.17193936257E+02  0.14776315067E+02  0.23258264298E+02  0.41800000000E+01 0.  1.
        -11    1    3    3    0    0 -0.36942228667E+02  0.13660528220E+03  0.14374800419E+03  0.20171569124E+03  0.00000000000E+00 0.  1.
         11    1    3    3    0    0  0.18735258824E+02  0.65542760940E+02  0.90225287225E+01  0.68762413129E+02  0.00000000000E+00 0. -1.
</event>
<event>
 7    1  0.6684706E-006  0.9145326E+02  0.7561462E-02  0.1299370E+00
          4   -1    0    0  501    0  0.00000000000E+00  0.00000000000E+00  0.10912559079E+03  0.10912559079E+03  0.00000000000E+00 0. -1.
         -4   -1    0    0    0  501 -0.00000000000E+00 -0.00000000000E+00 -0.11064250431E+03  0.11064250431E+03  0.00000000000E+00 0.  1.
         23    2    1    2    0    0 -0.11544371861E+02  0.71897163560E+01 -0.16558270532E+02  0.93046334776E+02  0.90545455708E+02 0.  0.
          5    1    1    2  502    0 -0.44632772137E+02  0.46537692810E+01 -0.29562298846E+02  0.53899386177E+02  0.41800000000E+01 0.  1.
         -5    1    1    2    0  502  0.56177143998E+02 -0.11843485637E+02  0.44603655865E+02  0.72822374147E+02  0.41800000000E+01 0.  1.
        -11    1    3    3    0    0  0.32072635590E+02  0.15896516851E+02  0.14685927084E+02  0.38691467483E+02  0.00000000000E+00 0. -1.
         11    1    3    3    0    0 -0.43617007451E+02 -0.87068004953E+01 -0.31244197616E+02  0.54354867293E+02  0.00000000000E+00 0.  1.
</event>
<event>
 7    1  0.6684706E-006  0.1266327E+03  0.7561462E-02  0.1232540E+00
          1   -1    0    0  501    0  0.00000000000E+00  0.00000000000E+00  0.88663464824E+02  0.88663464824E+02  0.00000000000E+00 0. -1.
         -1   -1    0    0    0  501 -0.00000000000E+00 -0.00000000000E+00 -0.23041641337E+03  0.23041641337E+03  0.00000000000E+00 0.  1.
         23    2    1    2    0    0 -0.38319834332E+02 -0.79613362326E+02 -0.10135060521E+03  0.16069526394E+03  0.88001849481E+02 0.  0.
          5    1    1    2  502    0  0.74193363810E+02  0.62654223547E+02 -0.59693722233E+02  0.11406585745E+03  0.41800000000E+01 0. -1.
         -5    1    1    2    0  502 -0.35873529478E+02  0.16959138778E+02  0.19291378896E+02  0.44318756808E+02  0.41800000000E+01 0. -1.
        -11    1    3    3    0    0  0.22427034602E+02 -0.31530205226E+02 -0.63763909500E+02  0.74585265819E+02  0.00000000000E+00 0.  1.
         11    1    3    3    0    0 -0.60746868934E+02 -0.48083157100E+02 -0.37586695713E+02  0.86109998122E+02  0.00000000000E+00 0. -1.
</event>
<event>
 7    1  0.6684706E-006  0.9847680E+02  0.7561462E-02  0.1283532E+00
         -3   -1    0    0    0  501 -0.00000000000E+00  0.00000000000E+00  0.10782411010E+03  0.10782411010E+03  0.00000000000E+00 0.  1.
          3   -1    0    0  501    0  0.00000000000E+00 -0.00000000000E+00 -0.11138464229E+03  0.11138464229E+03  0.00000000000E+00 0. -1.
         23    2    1    2    0    0  0.72049810889E+01  0.16633838936E+01  0.14656079114E+02  0.92583019724E+02  0.91116059439E+02 0.  0.
          5    1    1    2  502    0  0.22623717283E+02 -0.50613803104E+02 -0.36270105311E+02  0.66382095384E+02  0.41800000000E+01 0.  1.
         -5    1    1    2    0  502 -0.29828698372E+02  0.48950419210E+02  0.18053494012E+02  0.60243637286E+02  0.41800000000E+01 0.  1.
        -11    1    3    3    0    0  0.20658260371E+02 -0.37312155662E+02  0.25833079286E+02  0.49862898704E+02  0.00000000000E+00 0.  1.
         11    1    3    3    0    0 -0.13453279282E+02  0.38975539556E+02 -0.11177000172E+02  0.42720121020E+02  0.00000000000E+00 0. -1.
</event>
<event>
 7    1  0.6684706E-006  0.1080568E+03  0.7561462E-02  0.1264211E+00
          1   -1    0    0  501    0  0.00000000000E+00  0.00000000000E+00  0.35720214984E+03  0.35720214984E+03  0.00000000000E+00 0. -1.
         -1   -1    0    0    0  501 -0.00000000000E+00 -0.00000000000E+00 -0.44312180418E+02  0.44312180418E+02  0.00000000000E+00 0.  1.
         23    2    1    2    0    0 -0.41154322792E+02  0.20429425383E+02  0.71914956240E+02  0.12614817338E+03  0.92900812757E+02 0.  0.
          5    1    1    2  502    0  0.45121599796E+02 -0.68574576177E+02  0.17643102887E+03  0.19463764183E+03  0.41800000000E+01 0.  1.
         -5    1    1    2    0  502 -0.39672770035E+01  0.48145150794E+02  0.64543984313E+02  0.80728515053E+02  0.41800000000E+01 0.  1.
        -11    1    3    3    0    0 -0.17845170712E+02  0.46887929203E+02  0.75560222028E+02  0.90698815734E+02  0.00000000000E+00 0. -1.
         11    1    3    3    0    0 -0.23309152081E+02 -0.26458503820E+02 -0.36452657874E+01  0.35449357650E+02  0.00000000000E+00 0.  1.
</event>
<event>
 7    1  0.6684706E-006  0.1111108E+03  0.7561462E-02  0.1258527E+00
         -3   -1    0    0    0  501 -0.00000000000E+00  0.00000000000E+00  0.23622171909E+03  0.23622171909E+03  0.00000000000E+00 0.  1.
          3   -1    0    0  501    0  0.00000000000E+00 -0.00000000000E+00 -0.58306046689E+02  0.58306046689E+02  0.00000000000E+00 0. -1.
         23    2    1    2    0    0 -0.45239726923E+02  0.22068746263E+02  0.63512578139E+02  0.12238308602E+03  0.91706650294E+02 0.  0.
          5    1    1    2  502    0 -0.24159539864E+02  0.24492770399E+02  0.59492184213E+01  0.35163116587E+02  0.41800000000E+01 0. -1.
         -5    1    1    2    0  502  0.69399266787E+02 -0.46561516663E+02  0.10845387584E+03  0.13698156318E+03  0.41800000000E+01 0.  1.
        -11    1    3    3    0    0  0.24158304029E+02 -0.11549435910E+02  0.22879436121E+02  0.35220473032E+02  0.00000000000E+00 0.  1.
         11    1    3    3    0    0 -0.69398030952E+02  0.33618182173E+02  0.40633142019E+02  0.87162612988E+02  0.00000000000E+00 0. -1.
</event>
<event>
 7    1  0.6684706E-006  0.1200578E+03  0.7561462E-02  0.1243002E+00
          1   -1    0    0  501    0  0.00000000000E+00  0.00000000000E+00  0.41099373238E+02  0.41099373238E+02  0.00000000000E+00 0. -1.
         -1   -1    0    0    0  501 -0.00000000000E+00 -0.00000000000E+00 -0.51635371227E+03  0.51635371227E+03  0.00000000000E+00 0.  1.
         23    2    1    2    0    0 -0.28316210785E+02 -0.69147976525E+02 -0.33460644212E+03  0.35493726022E+03  0.91846269026E+02 0.  0.
          5    1    1    2  502    0 -0.43786107525E+02  0.16647709864E+02 -0.17019421894E+02  0.50015023518E+02  0.41800000000E+01 0.  1.
         -5    1    1    2    0  502  0.72102318309E+02  0.52500266661E+02 -0.12362847502E+03  0.15250080177E+03  0.41800000000E+01 0.  1.
        -11    1    3    3    0    0 -0.52812648780E+02 -0.44740804184E+02 -0.12855656018E+03  0.14600583754E+03  0.00000000000E+00 0. -1.
         11    1    3    3    0    0  0.24496437995E+02 -0.24407172341E+02 -0.20604988194E+03  0.20893142268E+03  0.00000000000E+00 0.  1.
</event>
<event>
 7    1  0.6684706E-006  0.7740604E+02  0.7561462E-02  0.1336578E+00
          1   -1    0    0  501    0  0.00000000000E+00  0.00000000000E+00  0.97975882639E+02  0.97975882639E+02  0.00000000000E+00 0. -1.
         -1   -1    0    0    0  501 -0.00000000000E+00 -0.00000000000E+00 -0.18883391315E+03  0.18883391315E+03  0.00000000000E+00 0.  1.
         23    2    1    2    0    0 -0.10790298886E+02  0.42371318739E+02 -0.11437437039E+03  0.15223288395E+03  0.90452170509E+02 0.  0.
          5    1    1    2  502    0  0.18713122724E+02 -0.11674110048E+02 -0.49780616201E+02  0.54608130868E+02  0.41800000000E+01 0.  1.
         -5    1    1    2    0  502 -0.79228238374E+01 -0.30697208691E+02  0.73296956086E+02  0.79968780974E+02  0.41800000000E+01 0.  1.
        -11    1    3    3    0    0  0.11296200369E+02  0.66628979364E+02 -0.74121265076E+02  0.10030447134E+03  0.00000000000E+00 0. -1.
         11    1    3    3    0    0 -0.22086499255E+02 -0.24257660625E+02 -0.40253105319E+02  0.51928412610E+02  0.00000000000E+00 0.  1.
</event>
<event>
 7    1  0.6684706E-006  0.1122291E+03  0.7561462E-02  0.1256497E+00
         -2   -1    0    0    0  501 -0.00000000000E+00  0.00000000000E+00  0.56913088111E+02  0.56913088111E+02  0.00000000000E+00 0. -1.
          2   -1    0    0  501    0  0.00000000000E+00 -0.00000000000E+00 -0.27955037211E+03  0.27955037211E+03  0.00000000000E+00 0.  1.
         23    2    1    2    0    0  0.58822576756E+02 -0.17892813474E+02 -0.11134613095E+03  0.15810076961E+03  0.93902311809E+02 0.  0.
          5    1    1    2  502    0 -0.64657552196E+02  0.64851037926E+02 -0.77862934462E+02  0.12027620354E+03  0.41800000000E+01 0.  1.
         -5    1    1    2    0  502  0.58349754403E+01 -0.46958224452E+02 -0.33428218590E+02  0.58086487070E+02  0.41800000000E+01 0.  1.
        -11    1    3    3    0    0  0.51726025863E+02  0.13205381297E+02 -0.11421388877E+03  0.12607448685E+03  0.00000000000E+00 0.  1.
         11    1    3    3    0    0  0.70965508921E+01 -0.31098194772E+02  0.28677578158E+01  0.32026282761E+02  0.00000000000E+00 0. -1.
</event>
<event>
 7    1  0.6684706E-006  0.1149620E+03  0.7561462E-02  0.1251647E+00
          4   -1    0    0  501    0  0.00000000000E+00  0.00000000000E+00  0.39773119287E+03  0.39773119287E+03  0.00000000000E+00 0. -1.
         -4   -1    0    0    0  501 -0.00000000000E+00 -0.00000000000E+00 -0.36383297347E+02  0.36383297347E+02  0.00000000000E+00 0.  1.
         23    2    1    2    0    0  0.46768849944E+02  0.38898811053E+01  0.10863013082E+03  0.14825331110E+03  0.89308915740E+02 0.  0.
          5    1    1    2  502    0 -0.49431419442E+02 -0.57784942051E+02  0.17793435622E+03  0.19354759693E+03  0.41800000000E+01 0. -1.
         -5    1    1    2    0  502  0.26625694973E+01  0.53895060945E+02  0.74783408490E+02  0.92313582186E+02  0.41800000000E+01 0. -1.
        -11    1    3    3    0    0  0.16191494264E+02  0.45334862979E+02  0.40922157936E+02  0.63182571156E+02  0.00000000000E+00 0. -1.
         11    1    3    3    0    0  0.30577355680E+02 -0.41444981873E+02  0.67707972881E+02  0.85070739943E+02  0.00000000000E+00 0.  1.
</event>
<event>
 7    1  0.6684706E-006  0.1351463E+03  0.7561462E-02  0.1220013E+00
         -1   -1    0    0    0  501 -0.00000000000E+00  0.00000000000E+00  0.44988642691E+02  0.44988642691E+02  0.00000000000E+00 0.  1.
          1   -1    0    0  501    0  0.00000000000E+00 -0.00000000000E+00 -0.46447892132E+03  0.46447892132E+03  0.00000000000E+00 0. -1.
         23    2    1    2    0    0  0.18498723727E+02  0.76169847311E+02 -0.11613609099E+03  0.17210279403E+03  0.99938639500E+02 0.  0.
          5    1    1    2  502    0 -0.37918598896E+02 -0.10359664576E+03 -0.25910901919E+03  0.28164701557E+03  0.41800000000E+01 0.  1.
         -5    1    1    2    0  502  0.19419875169E+02  0.27426798448E+02 -0.44245168452E+02  0.55717754406E+02  0.41800000000E+01 0.  1.
        -11    1    3    3    0    0  0.14101184129E+02  0.10040962667E+03 -0.84388179191E+02  0.13191778238E+03  0.00000000000E+00 0.  1.
         11    1    3    3    0    0  0.43975395983E+01 -0.24239779358E+02 -0.31747911796E+02  0.40185011649E+02  0.00000000000E+00 0. -1.
</event>
<event>
 6    1  0.6684706E-006  0.1819385E+03  0.7561462E-02  0.1165940E+00
         -1   -1    0    0    0  501 -0.00000000000E+00  0.00000000000E+00  0.92280005857E+02  0.92280005857E+02  0.00000000000E+00 0.  1.
          1   -1    0    0  501    0  0.00000000000E+00 -0.00000000000E+00 -0.54619665023E+03  0.54619665023E+03  0.00000000000E+00 0. -1.
          5    1    1    2  502    0  0.63490168270E+02  0.96902758493E+02 -0.15685291601E+03  0.19504218962E+03  0.41800000000E+01 0. -1.
         -5    1    1    2    0  502  0.79366341874E+02 -0.23791851142E+02 -0.18577826397E+03  0.20346032578E+03  0.41800000000E+01 0. -1.
        -11    1    1    2    0    0 -0.75235220834E+02 -0.17025439560E+02  0.22113482939E+02  0.80244689381E+02  0.00000000000E+00 0.  1.
         11    1    1    2    0    0 -0.67621289311E+02 -0.56085467791E+02 -0.13339894733E+03  0.15972945130E+03  0.00000000000E+00 0. -1.
</event>
<event>
 7    1  0.6684706E-006  0.8852879E+02  0.7561462E-02  0.1306454E+00
         -1   -1    0    0    0  501 -0.00000000000E+00  0.00000000000E+00  0.20505350723E+02  0.20505350723E+02  0.00000000000E+00 0. -1.
          1   -1    0    0  501    0  0.00000000000E+00 -0.00000000000E+00 -0.57082036450E+03  0.57082036450E+03  0.00000000000E+00 0.  1.
         23    2    1    2    0    0 -0.97451242441E+01 -0.45625235761E+00 -0.23020311109E+03  0.24750745704E+03  0.90395206311E+02 0.  0.
          5    1    1    2  502    0 -0.35610522970E+02 -0.22606132297E+02 -0.26625889653E+03  0.26961160758E+03  0.41800000000E+01 0. -1.
         -5    1    1    2    0  502  0.45355647215E+02  0.23062384654E+02 -0.53853006162E+02  0.74206650597E+02  0.41800000000E+01 0. -1.
        -11    1    3    3    0    0 -0.33060279522E+02 -0.30912703817E+02 -0.74686870645E+02  0.87331013884E+02  0.00000000000E+00 0. -1.
         11    1    3    3    0    0  0.23315155278E+02  0.30456451459E+02 -0.15551624044E+03  0.16017644316E+03  0.00000000000E+00 0.  1.
</event>
<event>
 7    1  0.6684706E-006  0.1269807E+03  0.7561462E-02  0.1232006E+00
          2   -1    0    0  501    0  0.00000000000E+00  0.00000000000E+00  0.63251912498E+02  0.63251912498E+02  0.00000000000E+00 0.  1.
         -2   -1    0    0    0  501 -0.00000000000E+00 -0.00000000000E+00 -0.41159999214E+03  0.41159999214E+03  0.00000000000E+00 0. -1.
         23    2    1    2    0    0 -0.67003776684E+02  0.70082513304E+02 -0.26204852814E+03  0.29458210664E+03  0.93317317225E+02 0.  0.
          5    1    1    2  502    0  0.49316193317E+02 -0.83484089584E+02 -0.11056794455E+03  0.14712043672E+03  0.41800000000E+01 0. -1.
         -5    1    1    2    0  502  0.17687583368E+02  0.13401576280E+02  0.24268393047E+02  0.33149361280E+02  0.41800000000E+01 0. -1.
        -11    1    3    3    0    0 -0.53148656638E+02 -0.91172199585E+01 -0.96618210078E+02  0.11064800911E+03  0.00000000000E+00 0.  1.
         11    1    3    3    0    0 -0.13855120046E+02  0.79199733263E+02 -0.16543031806E+03  0.18393409753E+03  0.00000000000E+00 0. -1.
</event>
<event>
 7    1  0.6684706E-006  0.1194555E+03  0.7561462E-02  0.1243998E+00
         -1   -1    0    0    0  501 -0.00000000000E+00  0.00000000000E+00  0.48441701914E+02  0.48441701914E+02  0.00000000000E+00 0.  1.
          1   -1    0    0  501    0  0.00000000000E+00 -0.00000000000E+00 -0.34381344319E+03  0.34381344319E+03  0.00000000000E+00 0. -1.
         23    2    1    2    0    0 -0.67304108520E+02  0.93508044165E+00 -0.10926895700E+03  0.15813486702E+03  0.92391632773E+02 0.  0.
          5    1    1    2  502    0  0.54160997209E+02  0.58402072055E+02 -0.12135230415E+03  0.14521731909E+03  0.41800000000E+01 0.  1.
         -5    1    1    2    0  502  0.13143111310E+02 -0.59337152497E+02 -0.64750480121E+02  0.88902958990E+02  0.41800000000E+01 0.  1.
        -11    1    3    3    0    0  0.11781857357E+02  0.13757741109E+02  0.48021286395E+01  0.18738944545E+02  0.00000000000E+00 0.  1.
         11    1    3    3    0    0 -0.79085965877E+02 -0.12822660667E+02 -0.11407108564E+03  0.13939592248E+03  0.00000000000E+00 0. -1.
</event>
<event>
 7    1  0.6684706E-006  0.1067174E+03  0.7561462E-02  0.1266772E+00
          2   -1    0    0  501    0  0.00000000000E+00  0.00000000000E+00  0.10055436840E+04  0.10055436840E+04  0.00000000000E+00 0. -1.
         -2   -1    0    0    0  501 -0.00000000000E+00 -0.00000000000E+00 -0.18437889411E+02  0.18437889411E+02  0.00000000000E+00 0.  1.
         23    2    1    2    0    0  0.64266409628E+02 -0.28897389716E+02  0.28547789936E+03  0.30781393511E+03  0.91030528310E+02 0.  0.
          5    1    1    2  502    0  0.66509808233E+01 -0.14025147238E+02  0.46726251124E+03  0.46753894716E+03  0.41800000000E+01 0. -1.
         -5    1    1    2    0  502 -0.70917390451E+02  0.42922536954E+02  0.23436538396E+03  0.24862869112E+03  0.41800000000E+01 0. -1.
        -11    1    3    3    0    0 -0.15544766072E+02  0.16394113628E+02  0.71619056366E+02  0.75097909083E+02  0.00000000000E+00 0.  1.
         11    1    3    3    0    0  0.79811175700E+02 -0.45291503344E+02  0.21385884299E+03  0.23271602602E+03  0.00000000000E+00 0. -1.
</event>
<event>
 7    1  0.6684706E-006  0.1032288E+03  0.7561462E-02  0.1273649E+00
         -1   -1    0    0    0  501 -0.00000000000E+00  0.00000000000E+00  0.36525189386E+03  0.36525189386E+03  0.00000000000E+00 0.  1.
          1   -1    0    0  501    0  0.00000000000E+00 -0.00000000000E+00 -0.80017042282E+02  0.80017042282E+02  0.00000000000E+00 0. -1.
         23    2    1    2    0    0  0.19422062504E+01  0.24414647919E+02  0.27639486297E+03  0.29243191209E+03  0.92317147548E+02 0.  0.
          5    1    1    2  502    0  0.50717764183E+02 -0.35849456839E+02 -0.44795893602E+02  0.76691718216E+02  0.41800000000E+01 0. -1.
         -5    1    1    2    0  502 -0.52659970434E+02  0.11434808920E+02  0.53635882210E+02  0.76145305841E+02  0.41800000000E+01 0.  1.
        -11    1    3    3    0    0  0.41522137707E+02  0.28510659388E+02  0.10468538588E+03  0.11617218099E+03  0.00000000000E+00 0.  1.
         11    1    3    3    0    0 -0.39579931457E+02 -0.40960114689E+01  0.17170947709E+03  0.17625973110E+03  0.00000000000E+00 0. -1.
</event>
<event>
 7    1  0.6684706E-006  0.1652014E+03  0.7561462E-02  0.1182946E+00
          2   -1    0    0  501    0  0.00000000000E+00  0.00000000000E+00  0.28030667495E+03  0.28030667495E+03  0.00000000000E+00 0. -1.
         -2   -1    0    0    0  501 -0.00000000000E+00 -0.00000000000E+00 -0.12678693118E+03  0.12678693118E+03  0.00000000000E+00 0.  1.
         23    2    1    2    0    0  0.21369777956E+02 -0.13757290266E+03  0.18671420478E+01  0.16619872242E+03  0.90749976073E+02 0.  0.
          5    1    1    2  502    0 -0.36410726190E+02  0.14636159316E+03  0.16103280563E+03  0.22067282076E+03  0.41800000000E+01 0. -1.
         -5    1    1    2    0  502  0.15040948235E+02 -0.87886904997E+01 -0.93802039099E+01  0.20222062949E+02  0.41800000000E+01 0. -1.
        -11    1    3    3    0    0  0.45162860107E+02 -0.12839339896E+03  0.15999841206E+02  0.13704212399E+03  0.00000000000E+00 0. -1.
         11    1    3    3    0    0 -0.23793082151E+02 -0.91795037070E+01 -0.14132699159E+02  0.29156598431E+02  0.00000000000E+00 0.  1.
</event>
<event>
 7    1  0.6684706E-006  0.9542695E+02  0.7561462E-02  0.1290217E+00
         -1   -1    0    0    0  501 -0.00000000000E+00  0.00000000000E+00  0.54111756701E+03  0.54111756701E+03  0.00000000000E+00 0.  1.
          1   -1    0    0  501    0  0.00000000000E+00 -0.00000000000E+00 -0.24937658956E+02  0.24937658956E+02  0.00000000000E+00 0. -1.
         23    2    1    2    0    0  0.27033072120E+02 -0.31891218220E+02  0.24416802478E+03  0.26375494733E+03  0.90558329960E+02 0.  0.
          5    1    1    2  502    0  0.29888062416E+02  0.26376097848E+01  0.90303855665E+01  0.31611287918E+02  0.41800000000E+01 0. -1.
         -5    1    1    2    0  502 -0.56921134535E+02  0.29253608435E+02  0.26298149770E+03  0.27068899072E+03  0.41800000000E+01 0. -1.
        -11    1    3    3    0    0  0.50747896506E+02 -0.46284029720E+02  0.13977414515E+03  0.15573815223E+03  0.00000000000E+00 0. -1.
         11    1    3    3    0    0 -0.23714824386E+02  0.14392811501E+02  0.10439387963E+03  0.10801679510E+03  0.00000000000E+00 0.  1.
</event>
<event>
 7    1  0.6684706E-006  0.1045267E+03  0.7561462E-02  0.1271055E+00
          2   -1    0    0  501    0  0.00000000000E+00  0.00000000000E+00  0.52888721224E+03  0.52888721224E+03  0.00000000000E+00 0. -1.
         -2   -1    0    0    0  501 -0.00000000000E+00 -0.00000000000E+00 -0.30148740172E+02  0.30148740172E+02  0.00000000000E+00 0.  1.
         23    2    1    2    0    0  0.40444337828E+02  0.14944028765E+02  0.11093989168E+03  0.14928776681E+03  0.90111649049E+02 0.  0.
          5    1    1    2  502    0  0.18947276194E+02 -0.55184452912E+02  0.13972114749E+03  0.15147209174E+03  0.41800000000E+01 0.  1.
         -5    1    1    2    0  502 -0.59391614022E+02  0.40240424148E+02  0.24807743289E+03  0.25827609387E+03  0.41800000000E+01 0.  1.
        -11    1    3    3    0    0 -0.18167432200E+02  0.73333882925E+01 -0.40424197001E+01  0.20004382861E+02  0.00000000000E+00 0.  1.
         11    1    3    3    0    0  0.58611770029E+02  0.76106404722E+01  0.11498231138E+03  0.12928338395E+03  0.00000000000E+00 0. -1.
</event>
<event>
 7    1  0.6684706E-006  0.7085575E+02  0.7561462E-02  0.1357207E+00
          1   -1    0    0  501    0  0.00000000000E+00  0.00000000000E+00  0.10528084124E+04  0.10528084124E+04  0.00000000000E+00 0. -1.
         -1   -1    0    0    0  501 -0.00000000000E+00 -0.00000000000E+00 -0.17592077737E+02  0.17592077737E+02  0.00000000000E+00 0.  1.
         23    2    1    2    0    0 -0.29605615640E+01 -0.56075093103E+02  0.23160592704E+03  0.25517641305E+03  0.91216858907E+02 0.  0.
          5    1    1    2  502    0  0.71439227962E+01  0.10042210086E+02  0.71566814895E+03  0.71578645799E+03  0.41800000000E+01 0. -1.
         -5    1    1    2    0  502 -0.41833612322E+01  0.46032883017E+02  0.87942258661E+02  0.99437619081E+02  0.41800000000E+01 0. -1.
        -11    1    3    3    0    0 -0.31585858558E+02 -0.28637821747E+02  0.19993213174E+03  0.20442761212E+03  0.00000000000E+00 0. -1.
         11    1    3    3    0    0  0.28625296994E+02 -0.27437271356E+02  0.31673795294E+02  0.50748800930E+02  0.00000000000E+00 0.  1.
</event>
<event>
 7    1  0.6684706E-006  0.1107167E+03  0.7561462E-02  0.1259248E+00
          2   -1    0    0  501    0  0.00000000000E+00  0.00000000000E+00  0.79938664541E+02  0.79938664541E+02  0.00000000000E+00 0. -1.
         -2   -1    0    0    0  501 -0.00000000000E+00 -0.00000000000E+00 -0.18655855828E+03  0.18655855828E+03  0.00000000000E+00 0.  1.
         23    2    1    2    0    0  0.27311261423E+01  0.43712579270E+02 -0.86415309538E+02  0.13243887672E+03  0.90300618528E+02 0.  0.
          5    1    1    2  502    0 -0.37299887536E+02 -0.68894253149E+02  0.13292613662E+02  0.79573021214E+02  0.41800000000E+01 0.  1.
         -5    1    1    2    0  502  0.34568761394E+02  0.25181673879E+02 -0.33497197860E+02  0.54485324888E+02  0.41800000000E+01 0.  1.
        -11    1    3    3    0    0  0.17690296449E+02  0.68668512950E+02 -0.66205061618E+02  0.97012480863E+02  0.00000000000E+00 0.  1.
         11    1    3    3    0    0 -0.14959170307E+02 -0.24955933680E+02 -0.20210247920E+02  0.35426395852E+02  0.00000000000E+00 0. -1.
</event>
<event>
 7    1  0.6684706E-006  0.2695743E+03  0.7561462E-02  0.1101523E+00
          1   -1    0    0  501    0  0.00000000000E+00  0.00000000000E+00  0.22926016114E+04  0.22926016114E+04  0.00000000000E+00 0. -1.
         -1   -1    0    0    0  501 -0.00000000000E+00 -0.00000000000E+00 -0.84057184278E+02  0.84057184278E+02  0.00000000000E+00 0.  1.
         23    2    1    2    0    0 -0.63114459972E+02 -0.24805351766E+03  0.17472659523E+03  0.32298495348E+03  0.90972052930E+02 0.  0.
          5    1    1    2  502    0 -0.23816018168E+02  0.45594696382E+01  0.25066407813E+03  0.25186890231E+03  0.41800000000E+01 0. -1.
         -5    1    1    2    0  502  0.86930478140E+02  0.24349404802E+03  0.17831537538E+04  0.18018049399E+04  0.41800000000E+01 0. -1.
        -11    1    3    3    0    0 -0.48227215840E+02 -0.18668178315E+03  0.79139001957E+02  0.20842009053E+03  0.00000000000E+00 0.  1.
         11    1    3    3    0    0 -0.14887244132E+02 -0.61371734512E+02  0.95587593274E+02  0.11456486295E+03  0.00000000000E+00 0. -1.
</event>
<event>
 7    1  0.6684706E-006  0.1739797E+03  0.7561462E-02  0.1173760E+00
         -2   -1    0    0    0  501 -0.00000000000E+00  0.00000000000E+00  0.33817334476E+03  0.33817334476E+03  0.00000000000E+00 0. -1.
          2   -1    0    0  501    0  0.00000000000E+00 -0.00000000000E+00 -0.11303638824E+03  0.11303638824E+03  0.00000000000E+00 0.  1.
         23    2    1    2    0    0 -0.14435053106E+03 -0.30886192228E+02  0.18677907246E+03  0.25395526960E+03  0.88407151069E+02 0.  0.
          5    1    1    2  502    0  0.35809721142E+02 -0.44311155227E+02 -0.70487566635E+01  0.57558422288E+02  0.41800000000E+01 0.  1.
         -5    1    1    2    0  502  0.10854080992E+03  0.75197347455E+02  0.45406640720E+02  0.13969604112E+03  0.41800000000E+01 0.  1.
        -11    1    3    3    0    0 -0.43628897839E+02 -0.37853348725E+02  0.11921654050E+03  0.13247241322E+03  0.00000000000E+00 0. -1.
         11    1    3    3    0    0 -0.10072163322E+03  0.69671564972E+01  0.67562531964E+02  0.12148285638E+03  0.00000000000E+00 0.  1.
</event>
<event>
 7    1  0.6684706E-006  0.1158979E+03  0.7561462E-02  0.1250022E+00
         -1   -1    0    0    0  501 -0.00000000000E+00  0.00000000000E+00  0.36306499240E+02  0.36306499240E+02  0.00000000000E+00 0.  1.
          1   -1    0    0  501    0  0.00000000000E+00 -0.00000000000E+00 -0.46424580736E+03  0.46424580736E+03  0.00000000000E+00 0. -1.
         23    2    1    2    0    0  0.67563088484E+02 -0.48252291582E+01 -0.15321687053E+03  0.19118548554E+03  0.92132658185E+02 0.  0.
          5    1    1    2  502    0 -0.45311843342E+02  0.49577358442E+02 -0.64390196373E+02  0.93137787208E+02  0.41800000000E+01 0.  1.
         -5    1    1    2    0  502 -0.22251245142E+02 -0.44752129284E+02 -0.21033224121E+03  0.21622903385E+03  0.41800000000E+01 0.  1.
        -11    1    3    3    0    0 -0.21110787202E+02  0.11717031473E+02 -0.33033351442E+02  0.40916457206E+02  0.00000000000E+00 0.  1.
         11    1    3    3    0    0  0.88673875686E+02 -0.16542260632E+02 -0.12018351909E+03  0.15026902834E+03  0.00000000000E+00 0. -1.
</event>
<event>
 7    1  0.6684706E-006  0.1180762E+03  0.7561462E-02  0.1246305E+00
         -2   -1    0    0    0  501 -0.00000000000E+00  0.00000000000E+00  0.20533429799E+03  0.20533429799E+03  0.00000000000E+00 0.  1.
          2   -1    0    0  501    0  0.00000000000E+00 -0.00000000000E+00 -0.74927999994E+02  0.74927999994E+02  0.00000000000E+00 0. -1.
         23    2    1    2    0    0  0.21127001501E+02  0.42393118266E+02  0.78325596850E+02  0.13672449747E+03  0.10156358805E+03 0.  0.
          5    1    1    2  502    0 -0.72009077524E+02 -0.27161479695E+02  0.46387287821E+02  0.89957245937E+02  0.41800000000E+01 0.  1.
         -5    1    1    2    0  502  0.50882076023E+02 -0.15231638571E+02  0.56934133278E+01  0.53580554582E+02  0.41800000000E+01 0.  1.
        -11    1    3    3    0    0  0.58655532330E+02  0.32197784756E+02  0.70229730445E+02  0.97001978611E+02  0.00000000000E+00 0.  1.
         11    1    3    3    0    0 -0.37528530829E+02  0.10195333510E+02  0.80958664051E+01  0.39722518857E+02  0.00000000000E+00 0. -1.
</event>
<event>
 7    1  0.6684706E-006  0.1646139E+03  0.7561462E-02  0.1183584E+00
         -2   -1    0    0    0  501 -0.00000000000E+00  0.00000000000E+00  0.56264808615E+02  0.56264808615E+02  0.00000000000E+00 0.  1.
          2   -1    0    0  501    0  0.00000000000E+00 -0.00000000000E+00 -0.12508179044E+04  0.12508179044E+04  0.00000000000E+00 0. -1.
         23    2    1    2    0    0 -0.56980583710E+01 -0.25830659981E+02 -0.59103741895E+01  0.93912824414E+02  0.89916601371E+02 0.  0.
          5    1    1    2  502    0  0.94461960977E+02  0.86610132956E+02 -0.50091622536E+03  0.51706761108E+03  0.41800000000E+01 0. -1.
         -5    1    1    2    0  502 -0.88763902606E+02 -0.60779472975E+02 -0.68772649626E+03  0.69610227754E+03  0.41800000000E+01 0.  1.
        -11    1    3    3    0    0 -0.40649884004E+02  0.11457894946E+02  0.15530350241E+01  0.42262375039E+02  0.00000000000E+00 0.  1.
         11    1    3    3    0    0  0.34951825633E+02 -0.37288554927E+02 -0.74634092136E+01  0.51650449375E+02  0.00000000000E+00 0. -1.
</event>
<event>
 7    1  0.6684706E-006  0.1072490E+03  0.7561462E-02  0.1265751E+00
          2   -1    0    0  501    0  0.00000000000E+00  0.00000000000E+00  0.46460644322E+03  0.46460644322E+03  0.00000000000E+00 0. -1.
         -2   -1    0    0    0  501 -0.00000000000E+00 -0.00000000000E+00 -0.39426180093E+02  0.39426180093E+02  0.00000000000E+00 0.  1.
         23    2    1    2    0    0 -0.41279860624E+02  0.11191900729E+02  0.60231032132E+02  0.11587805569E+03  0.89278558592E+02 0.  0.
          5    1    1    2  502    0 -0.22323461597E+02 -0.51796240289E+02  0.16227296628E+03  0.17184637160E+03  0.41800000000E+01 0. -1.
         -5    1    1    2    0  502  0.63603322221E+02  0.40604339560E+02  0.20267626471E+03  0.21630819602E+03  0.41800000000E+01 0. -1.
        -11    1    3    3    0    0  0.12834708629E+02  0.23584832016E+02 -0.79036443744E+01  0.27990027531E+02  0.00000000000E+00 0. -1.
         11    1    3    3    0    0 -0.54114569254E+02 -0.12392931287E+02  0.68134676506E+02  0.87888028161E+02  0.00000000000E+00 0.  1.
</event>
<event>
 7    1  0.6684706E-006  0.9635673E+02  0.7561462E-02  0.1288149E+00
         -2   -1    0    0    0  501 -0.00000000000E+00  0.00000000000E+00  0.16560071783E+02  0.16560071783E+02  0.00000000000E+00 0.  1.
          2   -1    0    0  501    0  0.00000000000E+00 -0.00000000000E+00 -0.93053475744E+03  0.93053475744E+03  0.00000000000E+00 0. -1.
         23    2    1    2    0    0  0.13075136810E+02 -0.21374340616E+02 -0.19512625437E+03  0.21701243694E+03  0.91609611957E+02 0.  0.
          5    1    1    2  502    0 -0.77450569847E+00  0.69560025621E+02 -0.53725532469E+03  0.54175635976E+03  0.41800000000E+01 0.  1.
         -5    1    1    2    0  502 -0.12300631112E+02 -0.48185685005E+02 -0.18159310660E+03  0.18832603253E+03  0.41800000000E+01 0.  1.
        -11    1    3    3    0    0  0.35337010020E+02 -0.32695216385E+02 -0.48727162552E+02  0.68498305249E+02  0.00000000000E+00 0.  1.
         11    1    3    3    0    0 -0.22261873210E+02  0.11320875769E+02 -0.14639909181E+03  0.14851413169E+03  0.00000000000E+00 0. -1.
</event>
<event>
 7    1  0.6684706E-006  0.1057646E+03  0.7561462E-02  0.1268620E+00
          3   -1    0    0  501    0  0.00000000000E+00  0.00000000000E+00  0.88092154076E+02  0.88092154076E+02  0.00000000000E+00 0. -1.
         -3   -1    0    0    0  501 -0.00000000000E+00 -0.00000000000E+00 -0.27578493658E+03  0.27578493658E+03  0.00000000000E+00 0.  1.
         23    2    1    2    0    0 -0.41399923634E+00 -0.99658010909E+02 -0.13777274430E+03  0.19633225626E+03  0.98148536621E+02 0.  0.
          5    1    1    2  502    0 -0.10501821604E+02  0.23370675671E+02 -0.80459966719E+02  0.84544398884E+02  0.41800000000E+01 0. -1.
         -5    1    1    2    0  502  0.10915820840E+02  0.76287335237E+02  0.30539928514E+02  0.83000435516E+02  0.41800000000E+01 0. -1.
        -11    1    3    3    0    0 -0.21471835817E+02 -0.53938193759E+02 -0.13378510111E+03  0.14583834118E+03  0.00000000000E+00 0.  1.
         11    1    3    3    0    0  0.21057836581E+02 -0.45719817149E+02 -0.39876431933E+01  0.50493915078E+02  0.00000000000E+00 0. -1.
</event>
<event>
 7    1  0.6684706E-006  0.1074216E+03  0.7561462E-02  0.1265421E+00
         -1   -1    0    0    0  501 -0.00000000000E+00  0.00000000000E+00  0.54696390656E+02  0.54696390656E+02  0.00000000000E+00 0.  1.
          1   -1    0    0  501    0  0.00000000000E+00 -0.00000000000E+00 -0.48292754578E+03  0.48292754578E+03  0.00000000000E+00 0. -1.
         23    2    1    2    0    0  0.11100834352E+02  0.66124144635E+02 -0.44682469861E+02  0.12865590994E+03  0.10030049363E+03 0.  0.
          5    1    1    2  502    0  0.18112430970E+02 -0.66532878367E+02 -0.87647274063E+02  0.11159839206E+03  0.41800000000E+01 0.  1.
         -5    1    1    2    0  502 -0.29213265322E+02  0.40873373140E+00 -0.29590141120E+03  0.29736963443E+03  0.41800000000E+01 0.  1.
        -11    1    3    3    0    0  0.53078994411E+02  0.30676791535E+02 -0.40664606751E+02  0.73566673356E+02  0.00000000000E+00 0.  1.
         11    1    3    3    0    0 -0.41978160059E+02  0.35447353100E+02 -0.40178631103E+01  0.55089236587E+02  0.00000000000E+00 0. -1.
</event>
<event>
 7    1  0.1391061E-005  0.2733148E+03  0.7561462E-02  0.1099397E+00
          2   -1    0    0  501    0  0.00000000000E+00  0.00000000000E+00  0.20348234947E+04  0.20348234947E+04  0.00000000000E+00 0. -1.
         -2   -1    0    0    0  501 -0.00000000000E+00 -0.00000000000E+00 -0.48868350389E+02  0.48868350389E+02  0.00000000000E+00 0.  1.
         23    2    1    2    0    0  0.71017958260E+02 -0.25569481101E+03  0.54267314485E+03  0.61089394585E+03  0.90960893622E+02 0.  0.
          5    1    1    2  502    0 -0.10833821249E+02  0.69104475423E+02  0.16073178268E+03  0.17534246083E+03  0.41800000000E+01 0.  1.
         -5    1    1    2    0  502 -0.60184137011E+02  0.18659033558E+03  0.12825502167E+04  0.12974554384E+04  0.41800000000E+01 0.  1.
        -11    1    3    3    0    0  0.90683483385E+02 -0.17155513240E+03  0.36890093091E+03  0.41682436881E+03  0.00000000000E+00 0.  1.
         11    1    3    3    0    0 -0.19665525125E+02 -0.84139678610E+02  0.17377221394E+03  0.19406957704E+03  0.00000000000E+00 0. -1.
</event>
<event>
 7    1  0.6684706E-006  0.9395886E+02  0.7561462E-02  0.1293538E+00
         -1   -1    0    0    0  501 -0.00000000000E+00  0.00000000000E+00  0.44461166487E+02  0.44461166487E+02  0.00000000000E+00 0.  1.
          1   -1    0    0  501    0  0.00000000000E+00 -0.00000000000E+00 -0.24215620107E+03  0.24215620107E+03  0.00000000000E+00 0. -1.
         23    2    1    2    0    0  0.12209662911E+02 -0.13976013657E+02 -0.87509775463E+02  0.11888850913E+03  0.78307802777E+02 0.  0.
          5    1    1    2  502    0 -0.45479306160E+02 -0.32989933763E+02 -0.18322612877E+02  0.59244354677E+02  0.41800000000E+01 0.  1.
         -5    1    1    2    0  502  0.33269643249E+02  0.46965947420E+02 -0.91862646241E+02  0.10848450375E+03  0.41800000000E+01 0.  1.
        -11    1    3    3    0    0 -0.27004995545E+02  0.89457016787E+01 -0.58339724796E+02  0.64906231228E+02  0.00000000000E+00 0. -1.
         11    1    3    3    0    0  0.39214658456E+02 -0.22921715336E+02 -0.29170050667E+02  0.53982277904E+02  0.00000000000E+00 0.  1.
</event>
<event>
 7    1  0.6684706E-006  0.9246777E+02  0.7561462E-02  0.1296983E+00
          2   -1    0    0  501    0  0.00000000000E+00  0.00000000000E+00  0.69795150093E+02  0.69795150093E+02  0.00000000000E+00 0. -1.
         -2   -1    0    0    0  501 -0.00000000000E+00 -0.00000000000E+00 -0.18749542096E+03  0.18749542096E+03  0.00000000000E+00 0.  1.
         23    2    1    2    0    0 -0.22933885796E+02 -0.18567037621E+02 -0.73115126608E+02  0.12125756933E+03  0.92124255099E+02 0.  0.
          5    1    1    2  502    0  0.30490390835E+02 -0.29328931890E+02 -0.69413439444E+02  0.81397470198E+02  0.41800000000E+01 0.  1.
         -5    1    1    2    0  502 -0.75565050386E+01  0.47895969512E+02  0.24828295181E+02  0.54635531529E+02  0.41800000000E+01 0.  1.
        -11    1    3    3    0    0 -0.55032396571E+02  0.29501311916E+01 -0.57303909885E+02  0.79504754792E+02  0.00000000000E+00 0.  1.
         11    1    3    3    0    0  0.32098510775E+02 -0.21517168813E+02 -0.15811216723E+02  0.41752814540E+02  0.00000000000E+00 0. -1.
</event>
<event>
 7    1  0.6684706E-006  0.7648760E+02  0.7561462E-02  0.1339325E+00
          2   -1    0    0  501    0  0.00000000000E+00  0.00000000000E+00  0.99858695402E+02  0.99858695402E+02  0.00000000000E+00 0. -1.
         -2   -1    0    0    0  501 -0.00000000000E+00 -0.00000000000E+00 -0.18131153409E+03  0.18131153409E+03  0.00000000000E+00 0.  1.
         23    2    1    2    0    0 -0.21310309136E+02  0.62827820563E+02 -0.83869205393E+02  0.13955738508E+03  0.89670261546E+02 0.  0.
          5    1    1    2  502    0  0.16576872197E+02 -0.27642639727E+02 -0.60826884710E+02  0.68965864937E+02  0.41800000000E+01 0.  1.
         -5    1    1    2    0  502  0.47334369384E+01 -0.35185180836E+02  0.63243251420E+02  0.72646979468E+02  0.41800000000E+01 0.  1.
        -11    1    3    3    0    0  0.44008301880E+01  0.58485181773E+02 -0.94644101368E+02  0.11134356612E+03  0.00000000000E+00 0.  1.
         11    1    3    3    0    0 -0.25711139324E+02  0.43426387898E+01  0.10774895975E+02  0.28213818959E+02  0.00000000000E+00 0. -1.
</event>
<event>
 7    1  0.6684706E-006  0.1340955E+03  0.7561462E-02  0.1221502E+00
          1   -1    0    0  501    0  0.00000000000E+00  0.00000000000E+00  0.32582317306E+03  0.32582317306E+03  0.00000000000E+00 0. -1.
         -1   -1    0    0    0  501 -0.00000000000E+00 -0.00000000000E+00 -0.83203790654E+02  0.83203790654E+02  0.00000000000E+00 0.  1.
         23    2    1    2    0    0 -0.72065415466E+01 -0.11234614289E+03  0.52972123908E+02  0.15547375034E+03  0.93233315248E+02 0.  0.
          5    1    1    2  502    0  0.49125494640E+02  0.80775948781E+02  0.17493670121E+03  0.19889291077E+03  0.41800000000E+01 0.  1.
         -5    1    1    2    0  502 -0.41918953093E+02  0.31570194107E+02  0.14710557289E+02  0.54660302598E+02  0.41800000000E+01 0.  1.
        -11    1    3    3    0    0  0.11362348521E+02 -0.94428774419E+02 -0.15839436862E+01  0.95123105919E+02  0.00000000000E+00 0.  1.
         11    1    3    3    0    0 -0.18568890067E+02 -0.17917368469E+02  0.54556067594E+02  0.60350644425E+02  0.00000000000E+00 0. -1.
</event>
<event>
 7    1  0.6684706E-006  0.1534324E+03  0.7561462E-02  0.1196318E+00
         -2   -1    0    0    0  501 -0.00000000000E+00  0.00000000000E+00  0.31275663412E+03  0.31275663412E+03  0.00000000000E+00 0.  1.
          2   -1    0    0  501    0  0.00000000000E+00 -0.00000000000E+00 -0.76554251799E+02  0.76554251799E+02  0.00000000000E+00 0. -1.
         23    2    1    2    0    0 -0.10815489794E+03  0.22460548700E+02  0.10014104719E+03  0.17398933966E+03  0.89677771974E+02 0.  0.
          5    1    1    2  502    0  0.13513872499E+03 -0.24265849427E+02  0.12526522703E+03  0.18590362004E+03  0.41800000000E+01 0. -1.
         -5    1    1    2    0  502 -0.26983827048E+02  0.18053007264E+01  0.10796108097E+02  0.29417926217E+02  0.41800000000E+01 0. -1.
        -11    1    3    3    0    0 -0.27154454012E+02  0.49736378622E+02  0.43800037046E+02  0.71620632337E+02  0.00000000000E+00 0.  1.
         11    1    3    3    0    0 -0.81000443932E+02 -0.27275829922E+02  0.56341010147E+02  0.10236870733E+03  0.00000000000E+00 0. -1.
</event>
<event>
 7    1  0.6684706E-006  0.1116368E+03  0.7561462E-02  0.1257568E+00
          1   -1    0    0  501    0  0.00000000000E+00  0.00000000000E+00  0.14944109582E+04  0.14944109582E+04  0.00000000000E+00 0. -1.
         -1   -1    0    0    0  501 -0.00000000000E+00 -0.00000000000E+00 -0.12084740489E+02  0.12084740489E+02  0.00000000000E+00 0.  1.
         23    2    1    2    0    0 -0.32419463114E+02  0.26815134643E+02  0.29332602248E+03  0.31019280026E+03  0.91702479982E+02 0.  0.
          5    1    1    2  502    0  0.74717154677E+02 -0.41719553996E+02  0.85433071310E+03  0.85861610405E+03  0.41800000000E+01 0.  1.
         -5    1    1    2    0  502 -0.42297691562E+02  0.14904419354E+02  0.33466948214E+03  0.33768679439E+03  0.41800000000E+01 0.  1.
        -11    1    3    3    0    0 -0.31021997870E+01  0.53093549300E+02  0.22624086935E+03  0.23240800241E+03  0.00000000000E+00 0. -1.
         11    1    3    3    0    0 -0.29317263327E+02 -0.26278414657E+02  0.67085153131E+02  0.77784797850E+02  0.00000000000E+00 0.  1.
</event>
<event>
 7    1  0.6684706E-006  0.2129956E+03  0.7561462E-02  0.1139216E+00
          2   -1    0    0  501    0  0.00000000000E+00  0.00000000000E+00  0.10352485891E+04  0.10352485891E+04  0.00000000000E+00 0. -1.
         -2   -1    0    0    0  501 -0.00000000000E+00 -0.00000000000E+00 -0.78920176892E+02  0.78920176892E+02  0.00000000000E+00 0.  1.
         23    2    1    2    0    0 -0.18863019056E+03 -0.92206652088E+02  0.15416278663E+03  0.27559814599E+03  0.90026428402E+02 0.  0.
          5    1    1    2  502    0  0.13188826749E+03  0.83422233678E+02  0.72870247120E+03  0.74523724283E+03  0.41800000000E+01 0. -1.
         -5    1    1    2    0  502  0.56741923073E+02  0.87844184096E+01  0.73463154339E+02  0.93333377129E+02  0.41800000000E+01 0. -1.
        -11    1    3    3    0    0 -0.12778344531E+03 -0.45647660582E+02  0.46462506652E+02  0.14342622611E+03  0.00000000000E+00 0.  1.
         11    1    3    3    0    0 -0.60846745257E+02 -0.46558991506E+02  0.10770027998E+03  0.13217191988E+03  0.00000000000E+00 0. -1.
</event>
<event>
 7    1  0.6684706E-006  0.1449335E+03  0.7561462E-02  0.1206841E+00
         -1   -1    0    0    0  501 -0.00000000000E+00  0.00000000000E+00  0.56319655908E+03  0.56319655908E+03  0.00000000000E+00 0.  1.
          1   -1    0    0  501    0  0.00000000000E+00 -0.00000000000E+00 -0.57708678041E+02  0.57708678041E+02  0.00000000000E+00 0. -1.
         23    2    1    2    0    0  0.46339639673E+02  0.85992514787E+02  0.35456002354E+03  0.37890721236E+03  0.91190956155E+02 0.  0.
          5    1    1    2  502    0 -0.81222023080E+02  0.75388976448E+01  0.34738690951E+02  0.88758667519E+02  0.41800000000E+01 0. -1.
         -5    1    1    2    0  502  0.34882383407E+02 -0.93531412432E+02  0.11618916655E+03  0.15323935724E+03  0.41800000000E+01 0.  1.
        -11    1    3    3    0    0  0.13781961890E+01  0.51730526852E+02  0.61179133810E+02  0.80130102003E+02  0.00000000000E+00 0. -1.
         11    1    3    3    0    0  0.44961443484E+02  0.34261987935E+02  0.29338088973E+03  0.29877711036E+03  0.00000000000E+00 0.  1.
</event>
<event>
 7    1  0.6684706E-006  0.8821974E+02  0.7561462E-02  0.1307221E+00
         -1   -1    0    0    0  501 -0.00000000000E+00  0.00000000000E+00  0.13162598302E+02  0.13162598302E+02  0.00000000000E+00 0.  1.
          1   -1    0    0  501    0  0.00000000000E+00 -0.00000000000E+00 -0.14077949687E+04  0.14077949687E+04  0.00000000000E+00 0. -1.
         23    2    1    2    0    0 -0.31034483620E+02  0.32259675760E+02 -0.26678893212E+03  0.28531568024E+03  0.90691108939E+02 0.  0.
          5    1    1    2  502    0  0.65874519852E+02 -0.20664354385E+02 -0.34168113510E+03  0.34861144329E+03  0.41800000000E+01 0. -1.
         -5    1    1    2    0  502 -0.34840036232E+02 -0.11595321375E+02 -0.78616230322E+03  0.78703044351E+03  0.41800000000E+01 0. -1.
        -11    1    3    3    0    0 -0.40189722290E+02  0.41175469574E+02 -0.26638696701E+03  0.27253008873E+03  0.00000000000E+00 0. -1.
         11    1    3    3    0    0  0.91552386703E+01 -0.89157938136E+01 -0.40196510932E+00  0.12785591515E+02  0.00000000000E+00 0.  1.
</event>
<event>
 7    1  0.6684706E-006  0.1109762E+03  0.7561462E-02  0.1258773E+00
          2   -1    0    0  501    0  0.00000000000E+00  0.00000000000E+00  0.11126681279E+03  0.11126681279E+03  0.00000000000E+00 0.  1.
         -2   -1    0    0    0  501 -0.00000000000E+00 -0.00000000000E+00 -0.16256499484E+03  0.16256499484E+03  0.00000000000E+00 0. -1.
         23    2    1    2    0    0  0.45307192468E+02 -0.43065434583E+00 -0.45838939507E+02  0.14067352816E+03  0.12503961771E+03 0.  0.
          5    1    1    2  502    0  0.54716347625E+01 -0.49011251532E+02  0.25534889794E+02  0.55691512464E+02  0.41800000000E+01 0. -1.
         -5    1    1    2    0  502 -0.50778827230E+02  0.49441905878E+02 -0.30994132342E+02  0.77466767012E+02  0.41800000000E+01 0. -1.
        -11    1    3    3    0    0  0.62238260972E+02  0.28099758279E+02 -0.71395510137E+02  0.98795325861E+02  0.00000000000E+00 0. -1.
         11    1    3    3    0    0 -0.16931068505E+02 -0.28530412625E+02  0.25556570630E+02  0.41878202297E+02  0.00000000000E+00 0.  1.
</event>
<event>
 7    1  0.6684706E-006  0.1196263E+03  0.7561462E-02  0.1243715E+00
          1   -1    0    0  501    0  0.00000000000E+00  0.00000000000E+00  0.67750216370E+02  0.67750216370E+02  0.00000000000E+00 0. -1.
         -1   -1    0    0    0  501 -0.00000000000E+00 -0.00000000000E+00 -0.25630849931E+03  0.25630849931E+03  0.00000000000E+00 0.  1.
         23    2    1    2    0    0  0.66558869934E+02  0.70214682207E+00 -0.12560379148E+03  0.16900637521E+03  0.91412615386E+02 0.  0.
          5    1    1    2  502    0 -0.97124976899E+02 -0.22333065824E+02 -0.61832348825E+02  0.11735731220E+03  0.41800000000E+01 0.  1.
         -5    1    1    2    0  502  0.30566106965E+02  0.21630919002E+02 -0.11221426402E+01  0.37695028266E+02  0.41800000000E+01 0.  1.
        -11    1    3    3    0    0  0.54815198961E+02  0.35362012479E+02 -0.11267307867E+03  0.13019370423E+03  0.00000000000E+00 0.  1.
         11    1    3    3    0    0  0.11743670973E+02 -0.34659865657E+02 -0.12930712810E+02  0.38812670986E+02  0.00000000000E+00 0. -1.
</event>
<event>
 7    1  0.6684706E-006  0.1168846E+03  0.7561462E-02  0.1248327E+00
          1   -1    0    0  501    0  0.00000000000E+00  0.00000000000E+00  0.13124530652E+04  0.13124530652E+04  0.00000000000E+00 0. -1.
         -1   -1    0    0    0  501 -0.00000000000E+00 -0.00000000000E+00 -0.17600427178E+02  0.17600427178E+02  0.00000000000E+00 0.  1.
         23    2    1    2    0    0 -0.77906113941E+00  0.54022221424E+02  0.19587537820E+03  0.22266164663E+03  0.91060626794E+02 0.  0.
          5    1    1    2  502    0 -0.33999903609E+02  0.26801441149E+02  0.51167123008E+03  0.51351653409E+03  0.41800000000E+01 0.  1.
         -5    1    1    2    0  502  0.34778964748E+02 -0.80823662573E+02  0.58730602971E+03  0.59387531163E+03  0.41800000000E+01 0.  1.
        -11    1    3    3    0    0 -0.43688100474E+02  0.30175937519E+02  0.72377969953E+02  0.89765293197E+02  0.00000000000E+00 0.  1.
         11    1    3    3    0    0  0.42909039335E+02  0.23846283905E+02  0.12349740824E+03  0.13289635343E+03  0.00000000000E+00 0. -1.
</event>
<event>
 7    1  0.6684706E-006  0.1016203E+03  0.7561462E-02  0.1276925E+00
          2   -1    0    0  501    0  0.00000000000E+00  0.00000000000E+00  0.22715666363E+03  0.22715666363E+03  0.00000000000E+00 0. -1.
         -2   -1    0    0    0  501 -0.00000000000E+00 -0.00000000000E+00 -0.60714986468E+02  0.60714986468E+02  0.00000000000E+00 0.  1.
         23    2    1    2    0    0 -0.32043889736E+02 -0.33596808475E+02  0.68349407068E+02  0.12235518298E+03  0.90241858064E+02 0.  0.
          5    1    1    2  502    0  0.90840612546E+01 -0.39161682384E+02 -0.94505349147E+00  0.40429235240E+02  0.41800000000E+01 0.  1.
         -5    1    1    2    0  502  0.22959828482E+02  0.72758490858E+02  0.99037323589E+02  0.12508723188E+03  0.41800000000E+01 0.  1.
        -11    1    3    3    0    0 -0.48858854434E+02 -0.17594472555E-01  0.69296600077E+02  0.84789190044E+02  0.00000000000E+00 0. -1.
         11    1    3    3    0    0  0.16814964697E+02 -0.33579214002E+02 -0.94719300930E+00  0.37565992937E+02  0.00000000000E+00 0.  1.
</event>
<event>
 7    1  0.6684706E-006  0.8427249E+02  0.7561462E-02  0.1317346E+00
          1   -1    0    0  501    0  0.00000000000E+00  0.00000000000E+00  0.32577645149E+03  0.32577645149E+03  0.00000000000E+00 0. -1.
         -1   -1    0    0    0  501 -0.00000000000E+00 -0.00000000000E+00 -0.11201848353E+03  0.11201848353E+03  0.00000000000E+00 0.  1.
         23    2    1    2    0    0 -0.44467452121E+02 -0.48976180838E+01 -0.73977121823E+02  0.12580841967E+03  0.91399140841E+02 0.  0.
          5    1    1    2  502    0  0.50927862894E+02 -0.14356819599E+02  0.28632551144E+03  0.29120359955E+03  0.41800000000E+01 0. -1.
         -5    1    1    2    0  502 -0.64604107730E+01  0.19254437683E+02  0.14095783428E+01  0.20782915795E+02  0.41800000000E+01 0.  1.
        -11    1    3    3    0    0  0.57758422619E+01 -0.35457600694E+02 -0.51628729434E+02  0.62897754362E+02  0.00000000000E+00 0. -1.
         11    1    3    3    0    0 -0.50243294383E+02  0.30559982610E+02 -0.22348392388E+02  0.62910665311E+02  0.00000000000E+00 0.  1.
</event>
<event>
 7    1  0.6684706E-006  0.1210702E+03  0.7561462E-02  0.1241342E+00
         -4   -1    0    0    0  501 -0.00000000000E+00  0.00000000000E+00  0.72926267225E+03  0.72926267225E+03  0.00000000000E+00 0.  1.
          4   -1    0    0  501    0  0.00000000000E+00 -0.00000000000E+00 -0.11658571657E+03  0.11658571657E+03  0.00000000000E+00 0. -1.
         23    2    1    2    0    0  0.57624459407E+02 -0.72625074561E+02  0.63059951956E+03  0.64407782365E+03  0.92658022181E+02 0.  0.
          5    1    1    2  502    0  0.12213663361E+02  0.48075003834E+02 -0.87128602657E+02  0.10034562954E+03  0.41800000000E+01 0. -1.
         -5    1    1    2    0  502 -0.69838122768E+02  0.24550070727E+02  0.69206038777E+02  0.10142493563E+03  0.41800000000E+01 0.  1.
        -11    1    3    3    0    0 -0.36141592710E+01  0.12692285348E+02  0.16823626316E+02  0.21382017141E+02  0.00000000000E+00 0. -1.
         11    1    3    3    0    0  0.61238618678E+02 -0.85317359909E+02  0.61377589324E+03  0.62269580651E+03  0.00000000000E+00 0.  1.
</event>
<event>
 7    1  0.6684706E-006  0.1060172E+03  0.7561462E-02  0.1268128E+00
          2   -1    0    0  501    0  0.00000000000E+00  0.00000000000E+00  0.56835735674E+03  0.56835735674E+03  0.00000000000E+00 0.  1.
         -2   -1    0    0    0  501 -0.00000000000E+00 -0.00000000000E+00 -0.36282886580E+02  0.36282886580E+02  0.00000000000E+00 0. -1.
         23    2    1    2    0    0 -0.38468049016E+02  0.45584504058E+02  0.89425924259E+02  0.14080447123E+03  0.90945947599E+02 0.  0.
          5    1    1    2  502    0  0.31115004280E+02 -0.81410035487E+02  0.38970196465E+03  0.39935051148E+03  0.41800000000E+01 0. -1.
         -5    1    1    2    0  502  0.73530447366E+01  0.35825531429E+02  0.52946581258E+02  0.64485260610E+02  0.41800000000E+01 0. -1.
        -11    1    3    3    0    0 -0.48196745142E+02  0.55887926998E+02  0.99162907803E+02  0.12361095789E+03  0.00000000000E+00 0.  1.
         11    1    3    3    0    0  0.97286961257E+01 -0.10303422940E+02 -0.97369835448E+01  0.17193513345E+02  0.00000000000E+00 0. -1.
</event>
<event>
 7    1  0.6684706E-006  0.6288949E+02  0.7561462E-02  0.1386091E+00
         -1   -1    0    0    0  501 -0.00000000000E+00  0.00000000000E+00  0.28934222516E+02  0.28934222516E+02  0.00000000000E+00 0.  1.
          1   -1    0    0  501    0  0.00000000000E+00 -0.00000000000E+00 -0.43366816469E+03  0.43366816469E+03  0.00000000000E+00 0. -1.
         23    2    1    2    0    0 -0.21515285889E+02  0.94944218281E+01 -0.13028982827E+03  0.16007931605E+03  0.89982756698E+02 0.  0.
          5    1    1    2  502    0 -0.26923621511E+01 -0.15226887717E+02  0.87198214760E+01  0.18237724915E+02  0.41800000000E+01 0.  1.
         -5    1    1    2    0  502  0.24207648040E+02  0.57324658889E+01 -0.28316393537E+03  0.28428534624E+03  0.41800000000E+01 0.  1.
        -11    1    3    3    0    0 -0.29501431728E+00 -0.35125190131E+02 -0.23075334889E+02  0.42027813356E+02  0.00000000000E+00 0.  1.
         11    1    3    3    0    0 -0.21220271571E+02  0.44619611959E+02 -0.10721449338E+03  0.11805150269E+03  0.00000000000E+00 0. -1.
</event>
<event>
 7    1  0.6684706E-006  0.9447337E+02  0.7561462E-02  0.1292367E+00
          1   -1    0    0  501    0  0.00000000000E+00  0.00000000000E+00  0.10734533030E+04  0.10734533030E+04  0.00000000000E+00 0. -1.
         -1   -1    0    0    0  501 -0.00000000000E+00 -0.00000000000E+00 -0.12163256072E+02  0.12163256072E+02  0.00000000000E+00 0.  1.
         23    2    1    2    0    0 -0.89047738695E+01 -0.36281416780E+02  0.41792536887E+03  0.42914043357E+03  0.90023672326E+02 0.  0.
          5    1    1    2  502    0  0.14213268015E+02  0.62854597054E+02  0.60946185599E+03  0.61287351360E+03  0.41800000000E+01 0. -1.
         -5    1    1    2    0  502 -0.53084941459E+01 -0.26573180274E+02  0.33902822023E+02  0.43602611861E+02  0.41800000000E+01 0. -1.
        -11    1    3    3    0    0  0.13371807523E+02 -0.61711551823E+02  0.25048874117E+03  0.25832485424E+03  0.00000000000E+00 0.  1.
         11    1    3    3    0    0 -0.22276581392E+02  0.25430135044E+02  0.16743662770E+03  0.17081557933E+03  0.00000000000E+00 0. -1.
</event>
<event>
 7    1  0.6684706E-006  0.1026396E+03  0.7561462E-02  0.1274841E+00
          2   -1    0    0  501    0  0.00000000000E+00  0.00000000000E+00  0.75882780540E+02  0.75882780540E+02  0.00000000000E+00 0. -1.
         -2   -1    0    0    0  501 -0.00000000000E+00 -0.00000000000E+00 -0.28999180260E+03  0.28999180260E+03  0.00000000000E+00 0.  1.
         23    2    1    2    0    0 -0.50138884465E+02  0.41374552325E+02 -0.19181560487E+03  0.22314816840E+03  0.93680934414E+02 0.  0.
          5    1    1    2  502    0  0.50710290784E+02  0.19932420968E+02 -0.51137133649E+02  0.74841925649E+02  0.41800000000E+01 0.  1.
         -5    1    1    2    0  502 -0.57140631878E+00 -0.61306973293E+02  0.28843716462E+02  0.67884489089E+02  0.41800000000E+01 0.  1.
        -11    1    3    3    0    0 -0.18595197208E+02  0.52528224990E+02 -0.17874319620E+03  0.18722747119E+03  0.00000000000E+00 0.  1.
         11    1    3    3    0    0 -0.31543687257E+02 -0.11153672665E+02 -0.13072408671E+02  0.35920697211E+02  0.00000000000E+00 0. -1.
</event>
<event>
 7    1  0.6684706E-006  0.1602138E+03  0.7561462E-02  0.1188456E+00
         -1   -1    0    0    0  501 -0.00000000000E+00  0.00000000000E+00  0.46826455565E+03  0.46826455565E+03  0.00000000000E+00 0.  1.
          1   -1    0    0  501    0  0.00000000000E+00 -0.00000000000E+00 -0.61196894416E+02  0.61196894416E+02  0.00000000000E+00 0. -1.
         23    2    1    2    0    0  0.11727228808E+03 -0.35298690789E+02  0.26138044039E+03  0.30170919683E+03  0.87806137080E+02 0.  0.
          5    1    1    2  502    0  0.21196694569E+02 -0.11313296195E+02  0.41926516054E+02  0.48503563579E+02  0.41800000000E+01 0.  1.
         -5    1    1    2    0  502 -0.13846898265E+03  0.46611986984E+02  0.10376070479E+03  0.17924868966E+03  0.41800000000E+01 0.  1.
        -11    1    3    3    0    0  0.24417821390E+01 -0.34960073376E+02  0.75185957043E+02  0.82952378910E+02  0.00000000000E+00 0.  1.
         11    1    3    3    0    0  0.11483050594E+03 -0.33861741384E+00  0.18619448335E+03  0.21875681792E+03  0.00000000000E+00 0. -1.
</event>
<event>
 7    1  0.6684706E-006  0.2148420E+03  0.7561462E-02  0.1137788E+00
         -1   -1    0    0    0  501 -0.00000000000E+00  0.00000000000E+00  0.88665245872E+03  0.88665245872E+03  0.00000000000E+00 0.  1.
          1   -1    0    0  501    0  0.00000000000E+00 -0.00000000000E+00 -0.60960658351E+02  0.60960658351E+02  0.00000000000E+00 0. -1.
         23    2    1    2    0    0  0.17818379176E+03 -0.99900555418E+02  0.45206056170E+03  0.50379165039E+03  0.87850389481E+02 0.  0.
          5    1    1    2  502    0 -0.48459499392E+02  0.78122664681E+02  0.79581754362E+02  0.12166429980E+03  0.41800000000E+01 0. -1.
         -5    1    1    2    0  502 -0.12972429237E+03  0.21777890737E+02  0.29404948430E+03  0.32215716688E+03  0.41800000000E+01 0. -1.
        -11    1    3    3    0    0  0.10056945037E+03 -0.40947364761E+02  0.33109606512E+03  0.34844727775E+03  0.00000000000E+00 0.  1.
         11    1    3    3    0    0  0.77614341391E+02 -0.58953190656E+02  0.12096449658E+03  0.15534437264E+03  0.00000000000E+00 0. -1.
</event>
<event>
 7    1  0.6684706E-006  0.1153543E+03  0.7561462E-02  0.1250964E+00
         -2   -1    0    0    0  501 -0.00000000000E+00  0.00000000000E+00  0.62559336426E+02  0.62559336426E+02  0.00000000000E+00 0.  1.
          2   -1    0    0  501    0  0.00000000000E+00 -0.00000000000E+00 -0.32266637373E+03  0.32266637373E+03  0.00000000000E+00 0. -1.
         23    2    1    2    0    0 -0.60526491708E+02  0.47911090006E+02 -0.50448501922E+02  0.12916786215E+03  0.90445323378E+02 0.  0.
          5    1    1    2  502    0  0.72505994132E+01 -0.67023177366E+02 -0.43168777270E+02  0.80160421824E+02  0.41800000000E+01 0. -1.
         -5    1    1    2    0  502  0.53275892295E+02  0.19112087359E+02 -0.16648975811E+03  0.17589742619E+03  0.41800000000E+01 0. -1.
        -11    1    3    3    0    0 -0.42863084950E+02 -0.11541304272E+02 -0.50381281518E+02  0.67146997573E+02  0.00000000000E+00 0. -1.
         11    1    3    3    0    0 -0.17663406758E+02  0.59452394278E+02 -0.67220404747E-01  0.62020864572E+02  0.00000000000E+00 0.  1.
</event>
<event>
 7    1  0.6684706E-006  0.6904365E+02  0.7561462E-02  0.1363376E+00
         -2   -1    0    0    0  501 -0.00000000000E+00  0.00000000000E+00  0.32351419587E+02  0.32351419587E+02  0.00000000000E+00 0.  1.
          2   -1    0    0  501    0  0.00000000000E+00 -0.00000000000E+00 -0.41130053717E+03  0.41130053717E+03  0.00000000000E+00 0. -1.
         23    2    1    2    0    0  0.73008866430E+01  0.19260353053E+01 -0.86845346567E+02  0.12580134493E+03  0.90701993408E+02 0.  0.
          5    1    1    2  502    0  0.26008759400E+01 -0.40197195093E+02 -0.26867168114E+03  0.27170668688E+03  0.41800000000E+01 0. -1.
         -5    1    1    2    0  502 -0.99017625830E+01  0.38271159788E+02 -0.23432089882E+02  0.46143924952E+02  0.41800000000E+01 0. -1.
        -11    1    3    3    0    0  0.25217130016E+02  0.20152425581E+02 -0.93895257919E+02  0.99289190564E+02  0.00000000000E+00 0. -1.
         11    1    3    3    0    0 -0.17916243373E+02 -0.18226390276E+02  0.70499113528E+01  0.26512154367E+02  0.00000000000E+00 0.  1.
</event>
<event>
 7    1  0.6684706E-006  0.1157885E+03  0.7561462E-02  0.1250211E+00
         -1   -1    0    0    0  501 -0.00000000000E+00  0.00000000000E+00  0.28367032211E+03  0.28367032211E+03  0.00000000000E+00 0.  1.
          1   -1    0    0  501    0  0.00000000000E+00 -0.00000000000E+00 -0.66403766146E+02  0.66403766146E+02  0.00000000000E+00 0. -1.
         23    2    1    2    0    0 -0.28868085213E+02 -0.76324487353E+02  0.12413805839E+03  0.17406543552E+03  0.90717829495E+02 0.  0.
          5    1    1    2  502    0 -0.18168896072E+02  0.62863769411E+02 -0.55331411157E+01  0.65803118008E+02  0.41800000000E+01 0. -1.
         -5    1    1    2    0  502  0.47036981285E+02  0.13460717942E+02  0.98661638687E+02  0.11020553473E+03  0.41800000000E+01 0. -1.
        -11    1    3    3    0    0 -0.46475598712E+02 -0.90312206980E+01  0.26724933840E+02  0.54366959743E+02  0.00000000000E+00 0. -1.
         11    1    3    3    0    0  0.17607513499E+02 -0.67293266655E+02  0.97413124554E+02  0.11969847578E+03  0.00000000000E+00 0.  1.
</event>
<event>
 7    1  0.6684706E-006  0.1270325E+03  0.7561462E-02  0.1231927E+00
         -2   -1    0    0    0  501 -0.00000000000E+00  0.00000000000E+00  0.93278003438E+02  0.93278003438E+02  0.00000000000E+00 0.  1.
          2   -1    0    0  501    0  0.00000000000E+00 -0.00000000000E+00 -0.22598437786E+03  0.22598437786E+03  0.00000000000E+00 0. -1.
         23    2    1    2    0    0 -0.84099901605E+02  0.13720881865E+02 -0.13885058788E+02  0.12684022747E+03  0.92922507492E+02 0.  0.
          5    1    1    2  502    0 -0.23405232115E+02  0.11606691954E+02 -0.63566553568E+02  0.68852736481E+02  0.41800000000E+01 0.  1.
         -5    1    1    2    0  502  0.10750513372E+03 -0.25327573820E+02 -0.55254762065E+02  0.12356941734E+03  0.41800000000E+01 0.  1.
        -11    1    3    3    0    0 -0.38218431122E+02  0.46869874873E+02  0.16376953510E+02  0.62654914047E+02  0.00000000000E+00 0.  1.
         11    1    3    3    0    0 -0.45881470483E+02 -0.33148993008E+02 -0.30262012298E+02  0.64185313425E+02  0.00000000000E+00 0. -1.
</event>
<event>
 7    1  0.6684706E-006  0.7513203E+02  0.7561462E-02  0.1343463E+00
          2   -1    0    0  501    0  0.00000000000E+00  0.00000000000E+00  0.42881894096E+03  0.42881894096E+03  0.00000000000E+00 0. -1.
         -2   -1    0    0    0  501 -0.00000000000E+00 -0.00000000000E+00 -0.37900513822E+02  0.37900513822E+02  0.00000000000E+00 0.  1.
         23    2    1    2    0    0  0.21449728974E+02  0.76667097934E+00  0.61598717279E+02  0.11378954492E+03  0.93236151284E+02 0.  0.
          5    1    1    2  502    0 -0.46557696224E+02  0.11605133128E+02  0.31929305762E+03  0.32290529143E+03  0.41800000000E+01 0. -1.
         -5    1    1    2    0  502  0.25107967249E+02 -0.12371804107E+02  0.10026652239E+02  0.30024618422E+02  0.41800000000E+01 0. -1.
        -11    1    3    3    0    0  0.39820319545E+02 -0.21241346171E+02  0.70555606986E+02  0.83755276329E+02  0.00000000000E+00 0. -1.
         11    1    3    3    0    0 -0.18370590570E+02  0.22008017150E+02 -0.89568897078E+01  0.30034268595E+02  0.00000000000E+00 0.  1.
</event>
<event>
 7    1  0.6684706E-006  0.1687113E+03  0.7561462E-02  0.1179198E+00
          2   -1    0    0  501    0  0.00000000000E+00  0.00000000000E+00  0.16413098021E+04  0.16413098021E+04  0.00000000000E+00 0. -1.
         -2   -1    0    0    0  501 -0.00000000000E+00 -0.00000000000E+00 -0.40049198462E+02  0.40049198462E+02  0.00000000000E+00 0.  1.
         23    2    1    2    0    0  0.14757714904E+03  0.32879775107E+02  0.20329479116E+03  0.26968764382E+03  0.92425962712E+02 0.  0.
          5    1    1    2  502    0 -0.12738309289E+02 -0.48595632388E+02  0.61062243002E+03  0.61269978330E+03  0.41800000000E+01 0. -1.
         -5    1    1    2    0  502 -0.13483883975E+03  0.15715857281E+02  0.78734338245E+03  0.79897157343E+03  0.41800000000E+01 0. -1.
        -11    1    3    3    0    0  0.46488761636E+02  0.10413758750E+02  0.75453785316E+01  0.48234677017E+02  0.00000000000E+00 0.  1.
         11    1    3    3    0    0  0.10108838741E+03  0.22466016357E+02  0.19574941263E+03  0.22145296680E+03  0.00000000000E+00 0. -1.
</event>
<event>
 7    1  0.6684706E-006  0.8736291E+02  0.7561462E-02  0.1309366E+00
         -1   -1    0    0    0  501 -0.00000000000E+00  0.00000000000E+00  0.25234833410E+02  0.25234833410E+02  0.00000000000E+00 0.  1.
          1   -1    0    0  501    0  0.00000000000E+00 -0.00000000000E+00 -0.67695696743E+03  0.67695696743E+03  0.00000000000E+00 0. -1.
         23    2    1    2    0    0 -0.43980496227E+02  0.16833626864E+02 -0.15947012326E+03  0.19211651497E+03  0.96230868601E+02 0.  0.
          5    1    1    2  502    0 -0.28380193899E+01  0.33935709806E+02 -0.40604492864E+02  0.53159044337E+02  0.41800000000E+01 0. -1.
         -5    1    1    2    0  502  0.46818515617E+02 -0.50769336670E+02 -0.45164751789E+03  0.45691624153E+03  0.41800000000E+01 0. -1.
        -11    1    3    3    0    0 -0.29201115119E+01  0.28415824361E+02 -0.16295303134E+01  0.28611911757E+02  0.00000000000E+00 0.  1.
         11    1    3    3    0    0 -0.41060384715E+02 -0.11582197496E+02 -0.15784059295E+03  0.16350460322E+03  0.00000000000E+00 0. -1.
</event>
<event>
 7    1  0.6684706E-006  0.2663350E+03  0.7561462E-02  0.1103396E+00
          1   -1    0    0  501    0  0.00000000000E+00  0.00000000000E+00  0.12001721313E+04  0.12001721313E+04  0.00000000000E+00 0. -1.
         -1   -1    0    0    0  501 -0.00000000000E+00 -0.00000000000E+00 -0.66726865096E+02  0.66726865096E+02  0.00000000000E+00 0.  1.
         23    2    1    2    0    0 -0.24502188758E+03  0.69002085592E+02  0.69185890617E+03  0.74207288476E+03  0.84890559213E+02 0.  0.
          5    1    1    2  502    0  0.77202429723E+02 -0.78172935190E+02  0.22698127214E+03  0.25220863041E+03  0.41800000000E+01 0.  1.
         -5    1    1    2    0  502  0.16781945786E+03  0.91708495988E+01  0.21460508790E+03  0.27261748123E+03  0.41800000000E+01 0.  1.
        -11    1    3    3    0    0 -0.12407855089E+03  0.37484440038E+02  0.46876688423E+03  0.48635682558E+03  0.00000000000E+00 0. -1.
         11    1    3    3    0    0 -0.12094333669E+03  0.31517645553E+02  0.22309202194E+03  0.25571605918E+03  0.00000000000E+00 0.  1.
</event>
<event>
 7    1  0.6684706E-006  0.1119467E+03  0.7561462E-02  0.1257007E+00
          2   -1    0    0  501    0  0.00000000000E+00  0.00000000000E+00  0.73799861924E+03  0.73799861924E+03  0.00000000000E+00 0. -1.
         -2   -1    0    0    0  501 -0.00000000000E+00 -0.00000000000E+00 -0.14549262569E+03  0.14549262569E+03  0.00000000000E+00 0.  1.
         23    2    1    2    0    0  0.28011830604E+02  0.50322024183E+01 -0.12304291645E+03  0.15594925831E+03  0.91491126146E+02 0.  0.
          5    1    1    2  502    0 -0.75547196480E+02 -0.21849798251E+02  0.49787562930E+03  0.50406587588E+03  0.41800000000E+01 0. -1.
         -5    1    1    2    0  502  0.47535365876E+02  0.16817595832E+02  0.21767328070E+03  0.22347611074E+03  0.41800000000E+01 0.  1.
        -11    1    3    3    0    0 -0.33142458089E+02 -0.43428716755E+00 -0.31520974195E+02  0.45740386397E+02  0.00000000000E+00 0. -1.
         11    1    3    3    0    0  0.61154288693E+02  0.54664895858E+01 -0.91521942254E+02  0.11020887191E+03  0.00000000000E+00 0.  1.
</event>
<event>
 7    1  0.6684706E-006  0.8570013E+02  0.7561462E-02  0.1313612E+00
         -2   -1    0    0    0  501 -0.00000000000E+00  0.00000000000E+00  0.41296583590E+02  0.41296583590E+02  0.00000000000E+00 0.  1.
          2   -1    0    0  501    0  0.00000000000E+00 -0.00000000000E+00 -0.51098317506E+03  0.51098317506E+03  0.00000000000E+00 0. -1.
         23    2    1    2    0    0 -0.39454815861E+02  0.12669410649E+02 -0.13914709210E+03  0.17237686032E+03  0.92922937273E+02 0.  0.
          5    1    1    2  502    0 -0.25038645233E+02 -0.20737576803E+02 -0.30983016004E+03  0.31155927417E+03  0.41800000000E+01 0. -1.
         -5    1    1    2    0  502  0.64493461093E+02  0.80681661546E+01 -0.20709339324E+02  0.68343624166E+02  0.41800000000E+01 0.  1.
        -11    1    3    3    0    0  0.74003077240E+01  0.24142823086E+02 -0.15545139538E+00  0.25252022218E+02  0.00000000000E+00 0. -1.
         11    1    3    3    0    0 -0.46855123585E+02 -0.11473412437E+02 -0.13899164071E+03  0.14712483810E+03  0.00000000000E+00 0.  1.
</event>
<event>
 7    1  0.7214124E-006  0.7749545E+02  0.7561462E-02  0.1336313E+00
          2   -1    0    0  501    0  0.00000000000E+00  0.00000000000E+00  0.11156819061E+03  0.11156819061E+03  0.00000000000E+00 0. -1.
         -2   -1    0    0    0  501 -0.00000000000E+00 -0.00000000000E+00 -0.11828969589E+03  0.11828969589E+03  0.00000000000E+00 0.  1.
         23    2    1    2    0    0  0.34970672220E+01 -0.17711281109E+02 -0.36809991973E+02  0.99941138143E+02  0.91144591867E+02 0.  0.
          5    1    1    2  502    0  0.54272843146E+02 -0.19172571582E+02  0.14340743661E+02  0.59466447119E+02  0.41800000000E+01 0. -1.
         -5    1    1    2    0  502 -0.57769910368E+02  0.36883852691E+02  0.15747743027E+02  0.70450301232E+02  0.41800000000E+01 0. -1.
        -11    1    3    3    0    0 -0.90299691538E+01 -0.11522981244E+02 -0.65986860690E+02  0.67591310265E+02  0.00000000000E+00 0.  1.
         11    1    3    3    0    0  0.12527036376E+02 -0.61882998652E+01  0.29176868717E+02  0.32349827878E+02  0.00000000000E+00 0. -1.
</event>
<event>
 7    1  0.6684706E-006  0.1220515E+03  0.7561462E-02  0.1239751E+00
         -2   -1    0    0    0  501 -0.00000000000E+00  0.00000000000E+00  0.27202040596E+02  0.27202040596E+02  0.00000000000E+00 0. -1.
          2   -1    0    0  501    0  0.00000000000E+00 -0.00000000000E+00 -0.75080137588E+03  0.75080137588E+03  0.00000000000E+00 0.  1.
         23    2    1    2    0    0  0.28207601433E+02  0.85744452651E+02 -0.24032618025E+03  0.27070884420E+03  0.85900090068E+02 0.  0.
          5    1    1    2  502    0 -0.37189047658E+01 -0.11459059688E+03 -0.33037664713E+03  0.34972994798E+03  0.41800000000E+01 0. -1.
         -5    1    1    2    0  502 -0.24488696667E+02  0.28846144227E+02 -0.15289650790E+03  0.15756462430E+03  0.41800000000E+01 0. -1.
        -11    1    3    3    0    0  0.16120121916E+02  0.67664324048E+02 -0.23900404328E+03  0.24892017151E+03  0.00000000000E+00 0.  1.
         11    1    3    3    0    0  0.12087479517E+02  0.18080128604E+02 -0.13221369709E+01  0.21788672689E+02  0.00000000000E+00 0. -1.
</event>
<event>
 7    1  0.6684706E-006  0.6716693E+02  0.7561462E-02  0.1370001E+00
          1   -1    0    0  501    0  0.00000000000E+00  0.00000000000E+00  0.17852308227E+04  0.17852308227E+04  0.00000000000E+00 0. -1.
         -1   -1    0    0    0  501 -0.00000000000E+00 -0.00000000000E+00 -0.97245395954E+01  0.97245395954E+01  0.00000000000E+00 0.  1.
         23    2    1    2    0    0 -0.38615738416E+01  0.28190999967E+01  0.29060777636E+03  0.30478971689E+03  0.91766185301E+02 0.  0.
          5    1    1    2  502    0 -0.70418751647E+01  0.18502019068E+02  0.37897981685E+02  0.42960937271E+02  0.41800000000E+01 0.  1.
         -5    1    1    2    0  502  0.10903449006E+02 -0.21321119064E+02  0.14470005251E+04  0.14472047082E+04  0.41800000000E+01 0.  1.
        -11    1    3    3    0    0 -0.22215204818E+02  0.41446731428E+02  0.18423933707E+03  0.19014594447E+03  0.00000000000E+00 0. -1.
         11    1    3    3    0    0  0.18353630976E+02 -0.38627631431E+02  0.10636843928E+03  0.11464377242E+03  0.00000000000E+00 0.  1.
</event>
<event>
 7    1  0.6684706E-006  0.1207490E+03  0.7561462E-02  0.1241867E+00
          1   -1    0    0  501    0  0.00000000000E+00  0.00000000000E+00  0.17151198676E+03  0.17151198676E+03  0.00000000000E+00 0. -1.
         -1   -1    0    0    0  501 -0.00000000000E+00 -0.00000000000E+00 -0.10950955731E+03  0.10950955731E+03  0.00000000000E+00 0.  1.
         23    2    1    2    0    0  0.69133414734E+02 -0.34985645942E+02  0.69249471056E+01  0.12390770620E+03  0.96445530273E+02 0.  0.
          5    1    1    2  502    0 -0.51000635880E+02 -0.42793640825E+02  0.31259801293E+02  0.73668230140E+02  0.41800000000E+01 0. -1.
         -5    1    1    2    0  502 -0.18132778855E+02  0.77779286767E+02  0.23817681050E+02  0.83445607731E+02  0.41800000000E+01 0. -1.
        -11    1    3    3    0    0  0.31503833481E+02  0.12790218887E+02 -0.35962288521E+02  0.49491084236E+02  0.00000000000E+00 0.  1.
         11    1    3    3    0    0  0.37629581253E+02 -0.47775864829E+02  0.42887235627E+02  0.74416621968E+02  0.00000000000E+00 0. -1.
</event>
<event>
 7    1  0.6684706E-006  0.1114482E+03  0.7561462E-02  0.1257911E+00
          4   -1    0    0  501    0  0.00000000000E+00  0.00000000000E+00  0.72447414352E+02  0.72447414352E+02  0.00000000000E+00 0. -1.
         -4   -1    0    0    0  501 -0.00000000000E+00 -0.00000000000E+00 -0.27643418656E+03  0.27643418656E+03  0.00000000000E+00 0.  1.
         23    2    1    2    0    0 -0.44293155778E+02  0.78949411014E+02 -0.10104285851E+03  0.16330244958E+03  0.90901802151E+02 0.  0.
          5    1    1    2  502    0  0.65542244704E+02 -0.53934020166E+02 -0.83817718042E+01  0.85395496782E+02  0.41800000000E+01 0.  1.
         -5    1    1    2    0  502 -0.21249088926E+02 -0.25015390849E+02 -0.94562141897E+02  0.10018365455E+03  0.41800000000E+01 0.  1.
        -11    1    3    3    0    0 -0.51151105934E+02  0.39080942382E+02 -0.10446312714E+03  0.12270411822E+03  0.00000000000E+00 0.  1.
         11    1    3    3    0    0  0.68579501563E+01  0.39868468632E+02  0.34202686354E+01  0.40598331357E+02  0.00000000000E+00 0. -1.
</event>
<event>
 7    1  0.6684706E-006  0.2082264E+03  0.7561462E-02  0.1142978E+00
          1   -1    0    0  501    0  0.00000000000E+00  0.00000000000E+00  0.14858584834E+04  0.14858584834E+04  0.00000000000E+00 0. -1.
         -1   -1    0    0    0  501 -0.00000000000E+00 -0.00000000000E+00 -0.52990182280E+02  0.52990182280E+02  0.00000000000E+00 0.  1.
         23    2    1    2    0    0  0.17702469687E+03  0.64989658019E+02  0.21574307181E+03  0.30086506740E+03  0.91724134220E+02 0.  0.
          5    1    1    2  502    0 -0.27452195650E+02  0.22122479462E+02  0.45752820407E+03  0.45890364682E+03  0.41800000000E+01 0. -1.
         -5    1    1    2    0  502 -0.14957250121E+03 -0.87112137482E+02  0.75959702524E+03  0.77907995147E+03  0.41800000000E+01 0. -1.
        -11    1    3    3    0    0  0.43062923820E+02 -0.21722158726E+02  0.34020359884E+02  0.59022474315E+02  0.00000000000E+00 0.  1.
         11    1    3    3    0    0  0.13396177305E+03  0.86711816745E+02  0.18172271193E+03  0.24184259309E+03  0.00000000000E+00 0. -1.
</event>
<event>
 7    1  0.6684706E-006  0.6972052E+02  0.7561462E-02  0.1361046E+00
          1   -1    0    0  501    0  0.00000000000E+00  0.00000000000E+00  0.58329331092E+03  0.58329331092E+03  0.00000000000E+00 0. -1.
         -1   -1    0    0    0  501 -0.00000000000E+00 -0.00000000000E+00 -0.19549715498E+02  0.19549715498E+02  0.00000000000E+00 0.  1.
         23    2    1    2    0    0  0.77832788819E+01 -0.68520357017E+01  0.19247662191E+03  0.21093213496E+03  0.85659709029E+02 0.  0.
          5    1    1    2  502    0  0.21880199075E+02 -0.66756277804E+01  0.45149644074E+01  0.23688909249E+02  0.41800000000E+01 0.  1.
         -5    1    1    2    0  502 -0.29663477957E+02  0.13527663482E+02  0.36675200910E+03  0.36822198221E+03  0.41800000000E+01 0.  1.
        -11    1    3    3    0    0  0.20896506226E+02  0.34279048424E+02  0.65573896972E+02  0.76887275263E+02  0.00000000000E+00 0.  1.
         11    1    3    3    0    0 -0.13113227344E+02 -0.41131084126E+02  0.12690272494E+03  0.13404485969E+03  0.00000000000E+00 0. -1.
</event>
<event>
 7    1  0.6684706E-006  0.1132055E+03  0.7561462E-02  0.1254746E+00
          1   -1    0    0  501    0  0.00000000000E+00  0.00000000000E+00  0.21012952719E+03  0.21012952719E+03  0.00000000000E+00 0. -1.
         -1   -1    0    0    0  501 -0.00000000000E+00 -0.00000000000E+00 -0.14754898687E+03  0.14754898687E+03  0.00000000000E+00 0.  1.
         23    2    1    2    0    0  0.40475441789E+02 -0.35510405604E+02 -0.10054952502E+03  0.14517282516E+03  0.89809197140E+02 0.  0.
          5    1    1    2  502    0 -0.82360145821E+02  0.17568554062E+02  0.73430397417E+02  0.11180940648E+03  0.41800000000E+01 0.  1.
         -5    1    1    2    0  502  0.41884704032E+02  0.17941851543E+02  0.89699667920E+02  0.10069628242E+03  0.41800000000E+01 0.  1.
        -11    1    3    3    0    0 -0.15517299764E+02  0.14518235092E+02 -0.50893851839E+02  0.55152061586E+02  0.00000000000E+00 0. -1.
         11    1    3    3    0    0  0.55992741553E+02 -0.50028640696E+02 -0.49655673176E+02  0.90020763577E+02  0.00000000000E+00 0.  1.
</event>
<event>
 7    1  0.6684706E-006  0.9873651E+02  0.7561462E-02  0.1282976E+00
          2   -1    0    0  501    0  0.00000000000E+00  0.00000000000E+00  0.34326072348E+03  0.34326072348E+03  0.00000000000E+00 0. -1.
         -2   -1    0    0    0  501 -0.00000000000E+00 -0.00000000000E+00 -0.77903001593E+02  0.77903001593E+02  0.00000000000E+00 0.  1.
         23    2    1    2    0    0 -0.18718750198E+02  0.75708038032E+02  0.21490529455E+01  0.11948547507E+03  0.90498959617E+02 0.  0.
          5    1    1    2  502    0  0.62090569766E+01 -0.74749681155E+02  0.27431074297E+03  0.28441153867E+03  0.41800000000E+01 0. -1.
         -5    1    1    2    0  502  0.12509693221E+02 -0.95835687696E+00 -0.11102074031E+02  0.17266711331E+02  0.41800000000E+01 0. -1.
        -11    1    3    3    0    0 -0.31052993124E+01 -0.15897820523E+02 -0.18191921774E+02  0.24358357888E+02  0.00000000000E+00 0.  1.
         11    1    3    3    0    0 -0.15613450885E+02  0.91605858555E+02  0.20340974719E+02  0.95127117179E+02  0.00000000000E+00 0. -1.
</event>
<event>
 7    1  0.6684706E-006  0.1077770E+03  0.7561462E-02  0.1264743E+00
          1   -1    0    0  501    0  0.00000000000E+00  0.00000000000E+00  0.49213489035E+03  0.49213489035E+03  0.00000000000E+00 0. -1.
         -1   -1    0    0    0  501 -0.00000000000E+00 -0.00000000000E+00 -0.30951752687E+02  0.30951752687E+02  0.00000000000E+00 0.  1.
         23    2    1    2    0    0 -0.56831859720E+02 -0.80684406410E+01  0.18109834801E+03  0.21101216955E+03  0.91839882572E+02 0.  0.
          5    1    1    2  502    0  0.55031863395E+02  0.48624858145E+02  0.25204635916E+03  0.26255994055E+03  0.41800000000E+01 0. -1.
         -5    1    1    2    0  502  0.17999963251E+01 -0.40556417504E+02  0.28038430497E+02  0.49514532940E+02  0.41800000000E+01 0. -1.
        -11    1    3    3    0    0 -0.78479981520E+02 -0.11336057994E+02  0.10349425815E+03  0.13037896756E+03  0.00000000000E+00 0.  1.
         11    1    3    3    0    0  0.21648121800E+02  0.32676173531E+01  0.77604089857E+02  0.80633201990E+02  0.00000000000E+00 0. -1.
</event>
<event>
 7    1  0.6684706E-006  0.5546881E+02  0.7561462E-02  0.1417895E+00
          4   -1    0    0  501    0  0.00000000000E+00  0.00000000000E+00  0.58914579589E+02  0.58914579589E+02  0.00000000000E+00 0. -1.
         -4   -1    0    0    0  501 -0.00000000000E+00 -0.00000000000E+00 -0.24870823486E+03  0.24870823486E+03  0.00000000000E+00 0.  1.
         23    2    1    2    0    0 -0.11141209591E+02 -0.51266034029E+02 -0.10738832023E+03  0.14890367642E+03  0.88812841034E+02 0.  0.
          5    1    1    2  502    0  0.29014636221E+01  0.45346488264E+02 -0.11532203921E+03  0.12402164173E+03  0.41800000000E+01 0.  1.
         -5    1    1    2    0  502  0.82397459692E+01  0.59195457647E+01  0.32916704175E+02  0.34697496299E+02  0.41800000000E+01 0.  1.
        -11    1    3    3    0    0 -0.14550036964E+02 -0.40060601019E+02 -0.12254707755E+03  0.12974722172E+03  0.00000000000E+00 0.  1.
         11    1    3    3    0    0  0.34088273731E+01 -0.11205433010E+02  0.15158757318E+02  0.19156454693E+02  0.00000000000E+00 0. -1.
</event>
<event>
 7    1  0.6684706E-006  0.1130818E+03  0.7561462E-02  0.1254967E+00
          3   -1    0    0  501    0  0.00000000000E+00  0.00000000000E+00  0.92652145523E+02  0.92652145523E+02  0.00000000000E+00 0. -1.
         -3   -1    0    0    0  501 -0.00000000000E+00 -0.00000000000E+00 -0.25274458219E+03  0.25274458219E+03  0.00000000000E+00 0.  1.
         23    2    1    2    0    0  0.65385084276E+02 -0.26998769872E+02 -0.16497088394E+03  0.20159948699E+03  0.91775910712E+02 0.  0.
          5    1    1    2  502    0 -0.29596383637E+02  0.70244863493E+02 -0.24665308880E+02  0.80225536045E+02  0.41800000000E+01 0.  1.
         -5    1    1    2    0  502 -0.35788700639E+02 -0.43246093620E+02  0.29543756159E+02  0.63571704671E+02  0.41800000000E+01 0.  1.
        -11    1    3    3    0    0  0.67165106965E+02 -0.69349951542E+00 -0.16162012447E+03  0.17502199053E+03  0.00000000000E+00 0.  1.
         11    1    3    3    0    0 -0.17800226893E+01 -0.26305270357E+02 -0.33507594734E+01  0.26577496465E+02  0.00000000000E+00 0. -1.
</event>
<event>
 7    1  0.6684706E-006  0.1361360E+03  0.7561462E-02  0.1218625E+00
          2   -1    0    0  501    0  0.00000000000E+00  0.00000000000E+00  0.21685361939E+03  0.21685361939E+03  0.00000000000E+00 0. -1.
         -2   -1    0    0    0  501 -0.00000000000E+00 -0.00000000000E+00 -0.98302691153E+02  0.98302691153E+02  0.00000000000E+00 0.  1.
         23    2    1    2    0    0  0.75420329713E+02 -0.47876030236E+02  0.17069734448E+02  0.13094444967E+03  0.94205799506E+02 0.  0.
          5    1    1    2  502    0 -0.89051918702E+02  0.71890679852E+02  0.48603411370E+02  0.12441172803E+03  0.41800000000E+01 0.  1.
         -5    1    1    2    0  502  0.13631588989E+02 -0.24014649616E+02  0.52877782419E+02  0.59800132844E+02  0.41800000000E+01 0.  1.
        -11    1    3    3    0    0 -0.14344972179E+02 -0.36645947920E+02  0.58625557072E+01  0.39787853488E+02  0.00000000000E+00 0. -1.
         11    1    3    3    0    0  0.89765301892E+02 -0.11230082317E+02  0.11207178741E+02  0.91156596184E+02  0.00000000000E+00 0.  1.
</event>
<event>
 7    1  0.6684706E-006  0.1886262E+03  0.7561462E-02  0.1159706E+00
         -1   -1    0    0    0  501 -0.00000000000E+00  0.00000000000E+00  0.90075402236E+02  0.90075402236E+02  0.00000000000E+00 0. -1.
          1   -1    0    0  501    0  0.00000000000E+00 -0.00000000000E+00 -0.48125699668E+03  0.48125699668E+03  0.00000000000E+00 0.  1.
         23    2    1    2    0    0  0.13466576679E+03  0.84883295372E+02 -0.78736188800E+02  0.19902661704E+03  0.89845224048E+02 0.  0.
          5    1    1    2  502    0 -0.67946045414E+02  0.19258398213E+02 -0.16681426354E+03  0.18119608690E+03  0.41800000000E+01 0.  1.
         -5    1    1    2    0  502 -0.66719721374E+02 -0.10414169359E+03 -0.14563114211E+03  0.19110969498E+03  0.41800000000E+01 0.  1.
        -11    1    3    3    0    0  0.92359549732E+02  0.51626518995E+01 -0.41816746175E+02  0.10151640095E+03  0.00000000000E+00 0.  1.
         11    1    3    3    0    0  0.42306217056E+02  0.79720643473E+02 -0.36919442625E+02  0.97510216086E+02  0.00000000000E+00 0. -1.
</event>
<event>
 7    1  0.6684706E-006  0.1223940E+03  0.7561462E-02  0.1239199E+00
         -2   -1    0    0    0  501 -0.00000000000E+00  0.00000000000E+00  0.12980558801E+02  0.12980558801E+02  0.00000000000E+00 0.  1.
          2   -1    0    0  501    0  0.00000000000E+00 -0.00000000000E+00 -0.13518423215E+04  0.13518423215E+04  0.00000000000E+00 0. -1.
         23    2    1    2    0    0 -0.41329719059E+02 -0.40002452354E+02 -0.34752252230E+03  0.36396826590E+03  0.91611425087E+02 0.  0.
          5    1    1    2  502    0 -0.39379256407E+02  0.40544564583E+02 -0.43463939034E+03  0.43831890170E+03  0.41800000000E+01 0. -1.
         -5    1    1    2    0  502  0.80708975466E+02 -0.54211222847E+00 -0.55669985005E+03  0.56253571269E+03  0.41800000000E+01 0. -1.
        -11    1    3    3    0    0 -0.56199036634E+02 -0.60107682989E+02 -0.28464835160E+03  0.29630381257E+03  0.00000000000E+00 0. -1.
         11    1    3    3    0    0  0.14869317575E+02  0.20105230635E+02 -0.62874170701E+02  0.67664453336E+02  0.00000000000E+00 0.  1.
</event>
<event>
 7    1  0.6684706E-006  0.1370866E+03  0.7561462E-02  0.1217304E+00
         -2   -1    0    0    0  501 -0.00000000000E+00  0.00000000000E+00  0.21507074011E+03  0.21507074011E+03  0.00000000000E+00 0.  1.
          2   -1    0    0  501    0  0.00000000000E+00 -0.00000000000E+00 -0.10232218417E+03  0.10232218417E+03  0.00000000000E+00 0. -1.
         23    2    1    2    0    0  0.85410893574E+02 -0.53715814530E+02  0.54429764920E+02  0.14642759031E+03  0.91093525689E+02 0.  0.
          5    1    1    2  502    0 -0.11497722284E+03  0.32312817707E+02  0.26601304238E+02  0.12242949704E+03  0.41800000000E+01 0.  1.
         -5    1    1    2    0  502  0.29566329262E+02  0.21402996823E+02  0.31717486783E+02  0.48535836934E+02  0.41800000000E+01 0.  1.
        -11    1    3    3    0    0  0.74360973933E+02 -0.67386562440E+02  0.12707129229E+02  0.10115322227E+03  0.00000000000E+00 0. -1.
         11    1    3    3    0    0  0.11049919641E+02  0.13670747910E+02  0.41722635692E+02  0.45274368042E+02  0.00000000000E+00 0.  1.
</event>
<event>
 7    1  0.6684706E-006  0.1795413E+03  0.7561462E-02  0.1168248E+00
         -2   -1    0    0    0  501 -0.00000000000E+00  0.00000000000E+00  0.10269088084E+03  0.10269088084E+03  0.00000000000E+00 0.  1.
          2   -1    0    0  501    0  0.00000000000E+00 -0.00000000000E+00 -0.56161866954E+03  0.56161866954E+03  0.00000000000E+00 0. -1.
         23    2    1    2    0    0  0.24737755435E+01  0.93506512573E+02 -0.12774013726E+02  0.13127499846E+03  0.91216020163E+02 0.  0.
          5    1    1    2  502    0 -0.23853758429E+02  0.78118328949E+02 -0.28535513739E+03  0.29684423852E+03  0.41800000000E+01 0. -1.
         -5    1    1    2    0  502  0.21379982885E+02 -0.17162484152E+03 -0.16079863759E+03  0.23619031340E+03  0.41800000000E+01 0.  1.
        -11    1    3    3    0    0  0.14259891312E+02  0.91171063592E+02  0.21674868251E+02  0.94790860585E+02  0.00000000000E+00 0.  1.
         11    1    3    3    0    0 -0.11786115768E+02  0.23354489805E+01 -0.34448881977E+02  0.36484137873E+02  0.00000000000E+00 0. -1.
</event>
<event>
 7    1  0.6684706E-006  0.8593117E+02  0.7561462E-02  0.1313015E+00
         -2   -1    0    0    0  501 -0.00000000000E+00  0.00000000000E+00  0.81547387678E+02  0.81547387678E+02  0.00000000000E+00 0.  1.
          2   -1    0    0  501    0  0.00000000000E+00 -0.00000000000E+00 -0.20602630399E+03  0.20602630399E+03  0.00000000000E+00 0. -1.
         23    2    1    2    0    0  0.93337739724E+00 -0.34524791048E+02  0.15991728679E+02  0.96338035849E+02  0.88501126404E+02 0.  0.
          5    1    1    2  502    0  0.30521485760E+02  0.54411259259E+02 -0.14050274493E+03  0.15378764567E+03  0.41800000000E+01 0. -1.
         -5    1    1    2    0  502 -0.31454863157E+02 -0.19886468211E+02  0.32099935501E-01  0.37448010155E+02  0.41800000000E+01 0. -1.
        -11    1    3    3    0    0  0.46807437082E+01  0.18320706988E+02  0.35222673222E+02  0.39977423317E+02  0.00000000000E+00 0.  1.
         11    1    3    3    0    0 -0.37473663109E+01 -0.52845498036E+02 -0.19230944543E+02  0.56360612532E+02  0.00000000000E+00 0. -1.
</event>
<event>
 7    1  0.6684706E-006  0.9791086E+02  0.7561462E-02  0.1284751E+00
          4   -1    0    0  501    0  0.00000000000E+00  0.00000000000E+00  0.33110250821E+03  0.33110250821E+03  0.00000000000E+00 0. -1.
         -4   -1    0    0    0  501 -0.00000000000E+00 -0.00000000000E+00 -0.36800647189E+02  0.36800647189E+02  0.00000000000E+00 0.  1.
         23    2    1    2    0    0  0.91083563927E+01  0.19810039776E+02  0.82386588066E+02  0.12085986203E+03  0.85698054385E+02 0.  0.
          5    1    1    2  502    0  0.53805814442E+02 -0.28630085788E+02  0.80879992737E+02  0.10135972131E+03  0.41800000000E+01 0.  1.
         -5    1    1    2    0  502 -0.62914170834E+02  0.88200460118E+01  0.13103528022E+03  0.14568357205E+03  0.41800000000E+01 0.  1.
        -11    1    3    3    0    0  0.37921995460E+02  0.38303347150E+01  0.79030243973E+02  0.87741259771E+02  0.00000000000E+00 0. -1.
         11    1    3    3    0    0 -0.28813639067E+02  0.15979705061E+02  0.33563440929E+01  0.33118602262E+02  0.00000000000E+00 0.  1.
</event>
<event>
 7    1  0.6684706E-006  0.1300919E+03  0.7561462E-02  0.1227319E+00
          1   -1    0    0  501    0  0.00000000000E+00  0.00000000000E+00  0.57353072190E+02  0.57353072190E+02  0.00000000000E+00 0. -1.
         -1   -1    0    0    0  501 -0.00000000000E+00 -0.00000000000E+00 -0.30367063721E+03  0.30367063721E+03  0.00000000000E+00 0.  1.
         23    2    1    2    0    0  0.73463940426E+02 -0.55739958337E+01 -0.13017752996E+03  0.17511392815E+03  0.91053163326E+02 0.  0.
          5    1    1    2  502    0 -0.54623993361E+02  0.63639295701E+02 -0.66163092495E+02  0.10690541528E+03  0.41800000000E+01 0. -1.
         -5    1    1    2    0  502 -0.18839947066E+02 -0.58065299868E+02 -0.49976942559E+02  0.79004365966E+02  0.41800000000E+01 0. -1.
        -11    1    3    3    0    0  0.15612745900E+02  0.38989311046E+02 -0.32230475730E+02  0.52940795009E+02  0.00000000000E+00 0. -1.
         11    1    3    3    0    0  0.57851194526E+02 -0.44563306880E+02 -0.97947054232E+02  0.12217313314E+03  0.00000000000E+00 0.  1.
</event>
<event>
 7    1  0.6684706E-006  0.8712028E+02  0.7561462E-02  0.1309979E+00
          1   -1    0    0  501    0  0.00000000000E+00  0.00000000000E+00  0.71639726987E+03  0.71639726987E+03  0.00000000000E+00 0. -1.
         -1   -1    0    0    0  501 -0.00000000000E+00 -0.00000000000E+00 -0.23001753339E+02  0.23001753339E+02  0.00000000000E+00 0.  1.
         23    2    1    2    0    0 -0.33330449649E+02  0.42690195970E+02  0.25779319252E+03  0.28296658321E+03  0.10334111186E+03 0.  0.
          5    1    1    2  502    0  0.51484768982E+02 -0.35698532705E+02  0.87155682983E+02  0.10741811835E+03  0.41800000000E+01 0. -1.
         -5    1    1    2    0  502 -0.18154319333E+02 -0.69916632654E+01  0.34844664104E+03  0.34901432165E+03  0.41800000000E+01 0. -1.
        -11    1    3    3    0    0 -0.98678026257E+01  0.60998966116E+02  0.24099810960E+03  0.24879376244E+03  0.00000000000E+00 0. -1.
         11    1    3    3    0    0 -0.23462647023E+02 -0.18308770146E+02  0.16795082912E+02  0.34172820773E+02  0.00000000000E+00 0.  1.
</event>
<event>
 7    1  0.6684706E-006  0.1056900E+03  0.7561462E-02  0.1268766E+00
         -2   -1    0    0    0  501 -0.00000000000E+00  0.00000000000E+00  0.38196514187E+02  0.38196514187E+02  0.00000000000E+00 0.  1.
          2   -1    0    0  501    0  0.00000000000E+00 -0.00000000000E+00 -0.39194314627E+03  0.39194314627E+03  0.00000000000E+00 0. -1.
         23    2    1    2    0    0 -0.39460550756E+01 -0.48947222529E+02 -0.17288160839E+03  0.20481292443E+03  0.98228720604E+02 0.  0.
          5    1    1    2  502    0  0.51691081652E+02  0.23998326411E+02 -0.28887847430E+02  0.64030209448E+02  0.41800000000E+01 0. -1.
         -5    1    1    2    0  502 -0.47745026576E+02  0.24948896118E+02 -0.15197717626E+03  0.16129652657E+03  0.41800000000E+01 0. -1.
        -11    1    3    3    0    0 -0.37671529253E+02  0.35168119143E+01 -0.10966597115E+03  0.11600921218E+03  0.00000000000E+00 0.  1.
         11    1    3    3    0    0  0.33725474177E+02 -0.52464034443E+02 -0.63215637244E+02  0.88803712257E+02  0.00000000000E+00 0. -1.
</event>
<event>
 7    1  0.6684706E-006  0.1682094E+03  0.7561462E-02  0.1179728E+00
         -1   -1    0    0    0  501 -0.00000000000E+00  0.00000000000E+00  0.24655583766E+02  0.24655583766E+02  0.00000000000E+00 0.  1.
          1   -1    0    0  501    0  0.00000000000E+00 -0.00000000000E+00 -0.17408650811E+04  0.17408650811E+04  0.00000000000E+00 0. -1.
         23    2    1    2    0    0 -0.12250478147E+03 -0.60964744325E+02 -0.33758399649E+03  0.37448300622E+03  0.86893300838E+02 0.  0.
          5    1    1    2  502    0  0.25973500196E+02  0.75566719074E+02 -0.42905154132E+03  0.43644890795E+03  0.41800000000E+01 0.  1.
         -5    1    1    2    0  502  0.96531281279E+02 -0.14601974748E+02 -0.94957395948E+03  0.95458875064E+03  0.41800000000E+01 0.  1.
        -11    1    3    3    0    0 -0.98276876967E+02 -0.58160178938E+01 -0.17062173495E+03  0.19698717483E+03  0.00000000000E+00 0.  1.
         11    1    3    3    0    0 -0.24227904508E+02 -0.55148726432E+02 -0.16696226154E+03  0.17749583139E+03  0.00000000000E+00 0. -1.
</event>
<event>
 7    1  0.6684706E-006  0.7713573E+02  0.7561462E-02  0.1337382E+00
         -1   -1    0    0    0  501 -0.00000000000E+00  0.00000000000E+00  0.25255558260E+02  0.25255558260E+02  0.00000000000E+00 0. -1.
          1   -1    0    0  501    0  0.00000000000E+00 -0.00000000000E+00 -0.72154944260E+03  0.72154944260E+03  0.00000000000E+00 0.  1.
         23    2    1    2    0    0 -0.19375347925E+02  0.95534952345E+01 -0.10003026500E+03  0.13717806949E+03  0.91351493986E+02 0.  0.
          5    1    1    2  502    0 -0.21819528996E+02  0.17612328175E+02 -0.50498038332E+03  0.50577558846E+03  0.41800000000E+01 0. -1.
         -5    1    1    2    0  502  0.41194876920E+02 -0.27165823409E+02 -0.91283236020E+02  0.10385134291E+03  0.41800000000E+01 0. -1.
        -11    1    3    3    0    0  0.46137018483E-01  0.40154512126E+02 -0.11891650347E+02  0.41878375335E+02  0.00000000000E+00 0. -1.
         11    1    3    3    0    0 -0.19421484943E+02 -0.30601016892E+02 -0.88138614653E+02  0.95299694151E+02  0.00000000000E+00 0.  1.
</event>
<event>
 7    1  0.6684706E-006  0.1135786E+03  0.7561462E-02  0.1254083E+00
          2   -1    0    0  501    0  0.00000000000E+00  0.00000000000E+00  0.33467527946E+02  0.33467527946E+02  0.00000000000E+00 0. -1.
         -2   -1    0    0    0  501 -0.00000000000E+00 -0.00000000000E+00 -0.10704480500E+04  0.10704480500E+04  0.00000000000E+00 0.  1.
         23    2    1    2    0    0 -0.63316496803E+02 -0.40462796209E+02 -0.41666178343E+03  0.43355733060E+03  0.93373981937E+02 0.  0.
          5    1    1    2  502    0  0.26678374296E+02 -0.32930978127E+02  0.20081741220E+01  0.42634377429E+02  0.41800000000E+01 0. -1.
         -5    1    1    2    0  502  0.36638122508E+02  0.73393774336E+02 -0.62232691270E+03  0.62772386986E+03  0.41800000000E+01 0.  1.
        -11    1    3    3    0    0 -0.17130878316E+02 -0.52066561924E+02 -0.33136277984E+03  0.33586557687E+03  0.00000000000E+00 0.  1.
         11    1    3    3    0    0 -0.46185618487E+02  0.11603765715E+02 -0.85299003590E+02  0.97691753733E+02  0.00000000000E+00 0. -1.
</event>
<event>
 7    1  0.6684706E-006  0.2680259E+03  0.7561462E-02  0.1102415E+00
          1   -1    0    0  501    0  0.00000000000E+00  0.00000000000E+00  0.51082067309E+03  0.51082067309E+03  0.00000000000E+00 0. -1.
         -1   -1    0    0    0  501 -0.00000000000E+00 -0.00000000000E+00 -0.16016884534E+03  0.16016884534E+03  0.00000000000E+00 0.  1.
         23    2    1    2    0    0 -0.25125313414E+03  0.13526558243E+01  0.75946293692E+02  0.27825417663E+03  0.92344898045E+02 0.  0.
          5    1    1    2  502    0  0.11225849585E+03 -0.47496154163E+02  0.68824253612E+02  0.14004322488E+03  0.41800000000E+01 0.  1.
         -5    1    1    2    0  502  0.13899463829E+03  0.46143498339E+02  0.20588128045E+03  0.25269211692E+03  0.41800000000E+01 0.  1.
        -11    1    3    3    0    0 -0.12321461982E+03 -0.45332992844E+02  0.41350911030E+02  0.13764745047E+03  0.00000000000E+00 0.  1.
         11    1    3    3    0    0 -0.12803851432E+03  0.46685648669E+02  0.34595382662E+02  0.14060672617E+03  0.00000000000E+00 0. -1.
</event>
<event>
 7    1  0.6684706E-006  0.1089311E+03  0.7561462E-02  0.1262562E+00
         -2   -1    0    0    0  501 -0.00000000000E+00  0.00000000000E+00  0.17738002678E+03  0.17738002678E+03  0.00000000000E+00 0.  1.
          2   -1    0    0  501    0  0.00000000000E+00 -0.00000000000E+00 -0.69332987189E+02  0.69332987189E+02  0.00000000000E+00 0. -1.
         23    2    1    2    0    0  0.94089526823E+00  0.14090273289E+02  0.48172352544E+02  0.10731304115E+03  0.94847731469E+02 0.  0.
          5    1    1    2  502    0  0.48860396734E+02 -0.42948694223E+02  0.46744671368E+02  0.80215119559E+02  0.41800000000E+01 0. -1.
         -5    1    1    2    0  502 -0.49801292003E+02  0.28858420934E+02  0.13130015674E+02  0.59184853261E+02  0.41800000000E+01 0. -1.
        -11    1    3    3    0    0 -0.31105353994E+02  0.42139831590E+02  0.19110792880E+02  0.55754200363E+02  0.00000000000E+00 0.  1.
         11    1    3    3    0    0  0.32046249263E+02 -0.28049558301E+02  0.29061559664E+02  0.51558840782E+02  0.00000000000E+00 0. -1.
</event>
<event>
 7    1  0.6684706E-006  0.1162993E+03  0.7561462E-02  0.1249330E+00
         -2   -1    0    0    0  501 -0.00000000000E+00  0.00000000000E+00  0.52342209772E+02  0.52342209772E+02  0.00000000000E+00 0.  1.
          2   -1    0    0  501    0  0.00000000000E+00 -0.00000000000E+00 -0.35262223832E+03  0.35262223832E+03  0.00000000000E+00 0. -1.
         23    2    1    2    0    0 -0.44233420715E+02  0.40666685868E+02 -0.55516502536E+02  0.12359720593E+03  0.92648866222E+02 0.  0.
          5    1    1    2  502    0  0.56138923859E+02  0.30792696013E+02 -0.91071994552E+02  0.11140623632E+03  0.41800000000E+01 0.  1.
         -5    1    1    2    0  502 -0.11905503143E+02 -0.71459381881E+02 -0.15369153146E+03  0.16996100584E+03  0.41800000000E+01 0.  1.
        -11    1    3    3    0    0  0.19769867086E+02 -0.48669249526E+00  0.10913593727E+02  0.22587408932E+02  0.00000000000E+00 0.  1.
         11    1    3    3    0    0 -0.64003287802E+02  0.41153378363E+02 -0.66430096263E+02  0.10100979700E+03  0.00000000000E+00 0. -1.
</event>
<event>
 7    1  0.6684706E-006  0.1021326E+03  0.7561462E-02  0.1275874E+00
         -1   -1    0    0    0  501 -0.00000000000E+00  0.00000000000E+00  0.97848877584E+02  0.97848877584E+02  0.00000000000E+00 0.  1.
          1   -1    0    0  501    0  0.00000000000E+00 -0.00000000000E+00 -0.16937166067E+03  0.16937166067E+03  0.00000000000E+00 0. -1.
         23    2    1    2    0    0  0.57138024030E+02  0.19524318980E+02  0.26778395359E+02  0.97054019770E+02  0.71108701816E+02 0.  0.
          5    1    1    2  502    0  0.34714490447E+02 -0.30191795577E+02 -0.29155193363E+02  0.54627264870E+02  0.41800000000E+01 0.  1.
         -5    1    1    2    0  502 -0.91852514477E+02  0.10667476597E+02 -0.69145985080E+02  0.11553925361E+03  0.41800000000E+01 0.  1.
        -11    1    3    3    0    0  0.44440209989E+02  0.28305759021E+01  0.49194566978E+02  0.66355480889E+02  0.00000000000E+00 0.  1.
         11    1    3    3    0    0  0.12697814041E+02  0.16693743078E+02 -0.22416171620E+02  0.30698538881E+02  0.00000000000E+00 0. -1.
</event>
<event>
 7    1  0.6684706E-006  0.1238188E+03  0.7561462E-02  0.1236927E+00
         -2   -1    0    0    0  501 -0.00000000000E+00  0.00000000000E+00  0.50745799683E+02  0.50745799683E+02  0.00000000000E+00 0. -1.
          2   -1    0    0  501    0  0.00000000000E+00 -0.00000000000E+00 -0.43564789410E+03  0.43564789410E+03  0.00000000000E+00 0.  1.
         23    2    1    2    0    0  0.10058091091E+02 -0.88285906663E+02 -0.96106461657E+02  0.15936770397E+03  0.90917801259E+02 0.  0.
          5    1    1    2  502    0  0.37845943722E+02  0.18033122700E+02 -0.19851352926E+03  0.20293497153E+03  0.41800000000E+01 0. -1.
         -5    1    1    2    0  502 -0.47904034813E+02  0.70252783963E+02 -0.90282103504E+02  0.12409101828E+03  0.41800000000E+01 0. -1.
        -11    1    3    3    0    0  0.37368944210E+02 -0.85017565418E+02 -0.93428445830E+02  0.13173192062E+03  0.00000000000E+00 0.  1.
         11    1    3    3    0    0 -0.27310853119E+02 -0.32683412443E+01 -0.26780158275E+01  0.27635783349E+02  0.00000000000E+00 0. -1.
</event>
<event>
 7    1  0.6684706E-006  0.1313942E+03  0.7561462E-02  0.1225402E+00
          1   -1    0    0  501    0  0.00000000000E+00  0.00000000000E+00  0.11317299460E+04  0.11317299460E+04  0.00000000000E+00 0. -1.
         -1   -1    0    0    0  501 -0.00000000000E+00 -0.00000000000E+00 -0.20041826408E+02  0.20041826408E+02  0.00000000000E+00 0.  1.
         23    2    1    2    0    0  0.62838206809E+02  0.79866129970E+02  0.39919878965E+03  0.42128183113E+03  0.88269296116E+02 0.  0.
          5    1    1    2  502    0  0.35378257580E+02 -0.43786704644E+02  0.25081335187E+03  0.25708696289E+03  0.41800000000E+01 0.  1.
         -5    1    1    2    0  502 -0.98216464389E+02 -0.36079425326E+02  0.46167597812E+03  0.47340297843E+03  0.41800000000E+01 0.  1.
        -11    1    3    3    0    0  0.12633633196E+02  0.15907471242E+02  0.81806272874E+01  0.21899292041E+02  0.00000000000E+00 0.  1.
         11    1    3    3    0    0  0.50204573613E+02  0.63958658727E+02  0.39101816236E+03  0.39938253909E+03  0.00000000000E+00 0. -1.
</event>
<event>
 7    1  0.6684706E-006  0.1802327E+03  0.7561462E-02  0.1167578E+00
         -1   -1    0    0    0  501 -0.00000000000E+00  0.00000000000E+00  0.58944823723E+02  0.58944823723E+02  0.00000000000E+00 0.  1.
          1   -1    0    0  501    0  0.00000000000E+00 -0.00000000000E+00 -0.73095686640E+03  0.73095686640E+03  0.00000000000E+00 0. -1.
         23    2    1    2    0    0  0.11218587683E+03  0.13589745661E+03 -0.29434298484E+03  0.35477550024E+03  0.90410581088E+02 0.  0.
          5    1    1    2  502    0 -0.54264611760E+02 -0.10407948012E+03 -0.33825664230E+03  0.35806733268E+03  0.41800000000E+01 0. -1.
         -5    1    1    2    0  502 -0.57921265071E+02 -0.31817976488E+02 -0.39412415536E+02  0.77058857204E+02  0.41800000000E+01 0. -1.
        -11    1    3    3    0    0  0.90568967911E+02  0.10020699977E+03 -0.13856398570E+03  0.19350493246E+03  0.00000000000E+00 0.  1.
         11    1    3    3    0    0  0.21616908919E+02  0.35690456835E+02 -0.15577899913E+03  0.16127056778E+03  0.00000000000E+00 0. -1.
</event>
<event>
 7    1  0.6684706E-006  0.1387421E+03  0.7561462E-02  0.1215032E+00
         -2   -1    0    0    0  501 -0.00000000000E+00  0.00000000000E+00  0.50495473924E+02  0.50495473924E+02  0.00000000000E+00 0. -1.
          2   -1    0    0  501    0  0.00000000000E+00 -0.00000000000E+00 -0.46308266857E+03  0.46308266857E+03  0.00000000000E+00 0.  1.
         23    2    1    2    0    0 -0.79286066363E+02 -0.61081842916E+02 -0.12488513869E+03  0.18427849119E+03  0.91350931016E+02 0.  0.
          5    1    1    2  502    0 -0.30579949956E+02  0.36011468579E+02 -0.86835571315E+02  0.98943661010E+02  0.41800000000E+01 0. -1.
         -5    1    1    2    0  502  0.10986601632E+03  0.25070374337E+02 -0.20086648464E+03  0.23035599029E+03  0.41800000000E+01 0. -1.
        -11    1    3    3    0    0 -0.10168852192E+02 -0.45253590597E+02 -0.72776359024E+01  0.46949515452E+02  0.00000000000E+00 0. -1.
         11    1    3    3    0    0 -0.69117214170E+02 -0.15828252319E+02 -0.11760750279E+03  0.13732897574E+03  0.00000000000E+00 0.  1.
</event>
<event>
 7    1  0.6684706E-006  0.9345656E+02  0.7561462E-02  0.1294691E+00
          1   -1    0    0  501    0  0.00000000000E+00  0.00000000000E+00  0.33915937483E+03  0.33915937483E+03  0.00000000000E+00 0. -1.
         -1   -1    0    0    0  501 -0.00000000000E+00 -0.00000000000E+00 -0.50066604150E+02  0.50066604150E+02  0.00000000000E+00 0.  1.
         23    2    1    2    0    0  0.42557995412E+02 -0.64642050206E+01  0.45821408617E+02  0.11231219682E+03  0.93066960550E+02 0.  0.
          5    1    1    2  502    0 -0.25262435204E+02  0.40355646208E+02  0.23219819060E+03  0.23706589998E+03  0.41800000000E+01 0. -1.
         -5    1    1    2    0  502 -0.17295560208E+02 -0.33891441187E+02  0.11073171465E+02  0.39847882189E+02  0.41800000000E+01 0. -1.
        -11    1    3    3    0    0  0.55224899285E+02 -0.37879894353E+02  0.39817756195E+02  0.77911036482E+02  0.00000000000E+00 0. -1.
         11    1    3    3    0    0 -0.12666903873E+02  0.31415689332E+02  0.60036524219E+01  0.34401160335E+02  0.00000000000E+00 0.  1.
</event>
<event>
 7    1  0.6684706E-006  0.1142770E+03  0.7561462E-02  0.1252848E+00
         -1   -1    0    0    0  501 -0.00000000000E+00  0.00000000000E+00  0.14826671964E+02  0.14826671964E+02  0.00000000000E+00 0. -1.
          1   -1    0    0  501    0  0.00000000000E+00 -0.00000000000E+00 -0.13665101085E+04  0.13665101085E+04  0.00000000000E+00 0.  1.
         23    2    1    2    0    0  0.89645184569E+00 -0.63961048566E+02 -0.29562072063E+03  0.31596928687E+03  0.91395625798E+02 0.  0.
          5    1    1    2  502    0  0.57616111031E+02  0.65009889706E+01 -0.40675705366E+03  0.41089007314E+03  0.41800000000E+01 0. -1.
         -5    1    1    2    0  502 -0.58512562877E+02  0.57460059596E+02 -0.64930566229E+03  0.65447742050E+03  0.41800000000E+01 0. -1.
        -11    1    3    3    0    0 -0.46259694996E+01 -0.75433113867E+02 -0.29348492646E+03  0.30305932805E+03  0.00000000000E+00 0.  1.
         11    1    3    3    0    0  0.55224213453E+01  0.11472065301E+02 -0.21357941746E+01  0.12909958813E+02  0.00000000000E+00 0. -1.
</event>
<event>
 7    1  0.6684706E-006  0.9823796E+02  0.7561462E-02  0.1284046E+00
         -1   -1    0    0    0  501 -0.00000000000E+00  0.00000000000E+00  0.96194001676E+02  0.96194001676E+02  0.00000000000E+00 0.  1.
          1   -1    0    0  501    0  0.00000000000E+00 -0.00000000000E+00 -0.19331409450E+03  0.19331409450E+03  0.00000000000E+00 0. -1.
         23    2    1    2    0    0 -0.34710378180E+02  0.63985605897E+02 -0.42938817023E+01  0.11756675246E+03  0.92220039837E+02 0.  0.
          5    1    1    2  502    0  0.30803045330E+02 -0.24750770935E+02 -0.11831248728E+03  0.12480683199E+03  0.41800000000E+01 0. -1.
         -5    1    1    2    0  502  0.39073328500E+01 -0.39234834962E+02  0.25486276157E+02  0.47134511739E+02  0.41800000000E+01 0. -1.
        -11    1    3    3    0    0  0.13889085158E+02 -0.17421392527E+02  0.29754933382E+01  0.22478104118E+02  0.00000000000E+00 0.  1.
         11    1    3    3    0    0 -0.48599463338E+02  0.81406998425E+02 -0.72693750405E+01  0.95088648338E+02  0.00000000000E+00 0. -1.
</event>
<event>
 7    1  0.6684706E-006  0.1260312E+03  0.7561462E-02  0.1233466E+00
          1   -1    0    0  501    0  0.00000000000E+00  0.00000000000E+00  0.35262157132E+03  0.35262157132E+03  0.00000000000E+00 0. -1.
         -1   -1    0    0    0  501 -0.00000000000E+00 -0.00000000000E+00 -0.58902513049E+02  0.58902513049E+02  0.00000000000E+00 0.  1.
         23    2    1    2    0    0 -0.59144688555E+02  0.72634929300E+02  0.12630523181E+03  0.18250715276E+03  0.92638664107E+02 0.  0.
          5    1    1    2  502    0  0.10364925168E+02  0.28221499812E+02  0.83890653096E+02  0.89213221006E+02  0.41800000000E+01 0.  1.
         -5    1    1    2    0  502  0.48779763387E+02 -0.10085642911E+03  0.83523173368E+02  0.13980371060E+03  0.41800000000E+01 0.  1.
        -11    1    3    3    0    0 -0.42579172820E+02  0.85802191526E+01  0.42109283987E+01  0.43638721759E+02  0.00000000000E+00 0.  1.
         11    1    3    3    0    0 -0.16565515735E+02  0.64054710147E+02  0.12209430341E+03  0.13886843100E+03  0.00000000000E+00 0. -1.
</event>
<event>
 7    1  0.6684706E-006  0.1247253E+03  0.7561462E-02  0.1235499E+00
         -1   -1    0    0    0  501 -0.00000000000E+00  0.00000000000E+00  0.25278824518E+02  0.25278824518E+02  0.00000000000E+00 0.  1.
          1   -1    0    0  501    0  0.00000000000E+00 -0.00000000000E+00 -0.77264162667E+03  0.77264162667E+03  0.00000000000E+00 0. -1.
         23    2    1    2    0    0 -0.69189616553E+02  0.16159575824E+02 -0.20253657678E+03  0.23442442879E+03  0.94262468424E+02 0.  0.
          5    1    1    2  502    0  0.98698502183E+02  0.13882240763E+01 -0.29076088504E+03  0.30708742431E+03  0.41800000000E+01 0.  1.
         -5    1    1    2    0  502 -0.29508885631E+02 -0.17547799900E+02 -0.25406534034E+03  0.25640859809E+03  0.41800000000E+01 0.  1.
        -11    1    3    3    0    0  0.22220571003E+02  0.10240013853E+02 -0.27081797507E+02  0.36497060370E+02  0.00000000000E+00 0.  1.
         11    1    3    3    0    0 -0.91410187555E+02  0.59195619706E+01 -0.17545477927E+03  0.19792736842E+03  0.00000000000E+00 0. -1.
</event>
<event>
 7    1  0.6684706E-006  0.9361459E+02  0.7561462E-02  0.1294327E+00
         -2   -1    0    0    0  501 -0.00000000000E+00  0.00000000000E+00  0.41523140611E+02  0.41523140611E+02  0.00000000000E+00 0.  1.
          2   -1    0    0  501    0  0.00000000000E+00 -0.00000000000E+00 -0.34643976682E+03  0.34643976682E+03  0.00000000000E+00 0. -1.
         23    2    1    2    0    0  0.29502828268E+02  0.36038064673E+02 -0.10243010559E+03  0.14544239492E+03  0.92154244227E+02 0.  0.
          5    1    1    2  502    0 -0.69303555111E+02 -0.41161334430E+02 -0.17769231342E+03  0.19516472235E+03  0.41800000000E+01 0.  1.
         -5    1    1    2    0  502  0.39800726843E+02  0.51232697569E+01 -0.24794207198E+02  0.47355790151E+02  0.41800000000E+01 0.  1.
        -11    1    3    3    0    0 -0.12991095194E+02  0.79281358354E+01  0.12519762002E+02  0.19707063017E+02  0.00000000000E+00 0.  1.
         11    1    3    3    0    0  0.42493923462E+02  0.28109928838E+02 -0.11494986759E+03  0.12573533191E+03  0.00000000000E+00 0. -1.
</event>
<event>
 7    1  0.6684706E-006  0.1431482E+03  0.7561462E-02  0.1209155E+00
         -2   -1    0    0    0  501 -0.00000000000E+00  0.00000000000E+00  0.32854178457E+03  0.32854178457E+03  0.00000000000E+00 0. -1.
          2   -1    0    0  501    0  0.00000000000E+00 -0.00000000000E+00 -0.81183065010E+02  0.81183065010E+02  0.00000000000E+00 0.  1.
         23    2    1    2    0    0 -0.65486143364E+02  0.84280622426E+02  0.18844823195E+03  0.23505602985E+03  0.91361604381E+02 0.  0.
          5    1    1    2  502    0 -0.26607541766E+02  0.97582312712E+01  0.26558000051E+02  0.39063846752E+02  0.41800000000E+01 0.  1.
         -5    1    1    2    0  502  0.92093685130E+02 -0.94038853697E+02  0.32352487561E+02  0.13560497298E+03  0.41800000000E+01 0.  1.
        -11    1    3    3    0    0 -0.77737163806E+02  0.58083451634E+02  0.89653925568E+02  0.13211578392E+03  0.00000000000E+00 0.  1.
         11    1    3    3    0    0  0.12251020442E+02  0.26197170791E+02  0.98794306383E+02  0.10294024593E+03  0.00000000000E+00 0. -1.
</event>
<event>
 7    1  0.6684706E-006  0.1034104E+03  0.7561462E-02  0.1273283E+00
         -2   -1    0    0    0  501 -0.00000000000E+00  0.00000000000E+00  0.37313255655E+02  0.37313255655E+02  0.00000000000E+00 0.  1.
          2   -1    0    0  501    0  0.00000000000E+00 -0.00000000000E+00 -0.40941523861E+03  0.40941523861E+03  0.00000000000E+00 0. -1.
         23    2    1    2    0    0 -0.30257550839E+02  0.38264702062E+02 -0.10107260723E+03  0.14426463992E+03  0.90647159864E+02 0.  0.
          5    1    1    2  502    0  0.82401264484E+01  0.40260426082E+02 -0.15612958096E+03  0.16150145524E+03  0.41800000000E+01 0. -1.
         -5    1    1    2    0  502  0.22017424390E+02 -0.78525128144E+02 -0.11489979477E+03  0.14096239911E+03  0.41800000000E+01 0. -1.
        -11    1    3    3    0    0 -0.19864107968E+02  0.58131693031E+02 -0.27417662221E+02  0.67272614945E+02  0.00000000000E+00 0.  1.
         11    1    3    3    0    0 -0.10393442871E+02 -0.19866990969E+02 -0.73654945009E+02  0.76992024972E+02  0.00000000000E+00 0. -1.
</event>
<event>
 7    1  0.6684706E-006  0.1168317E+03  0.7561462E-02  0.1248417E+00
         -2   -1    0    0    0  501 -0.00000000000E+00  0.00000000000E+00  0.53615146436E+02  0.53615146436E+02  0.00000000000E+00 0.  1.
          2   -1    0    0  501    0  0.00000000000E+00 -0.00000000000E+00 -0.29859211206E+03  0.29859211206E+03  0.00000000000E+00 0. -1.
         23    2    1    2    0    0  0.60332427316E+02 -0.18365998299E+02 -0.10449003794E+03  0.15381565715E+03  0.93615045134E+02 0.  0.
          5    1    1    2  502    0 -0.66576290132E+02  0.54570564470E+02 -0.47690818190E+02  0.98499926162E+02  0.41800000000E+01 0.  1.
         -5    1    1    2    0  502  0.62438628161E+01 -0.36204566170E+02 -0.92796109494E+02  0.99891675187E+02  0.41800000000E+01 0.  1.
        -11    1    3    3    0    0  0.30638757883E+02  0.36780362020E+02 -0.30000457941E+02  0.56493858000E+02  0.00000000000E+00 0. -1.
         11    1    3    3    0    0  0.29693669433E+02 -0.55146360320E+02 -0.74489579997E+02  0.97321799146E+02  0.00000000000E+00 0.  1.
</event>
<event>
 7    1  0.6684706E-006  0.6551897E+02  0.7561462E-02  0.1376030E+00
          2   -1    0    0  501    0  0.00000000000E+00  0.00000000000E+00  0.77554438960E+03  0.77554438960E+03  0.00000000000E+00 0. -1.
         -2   -1    0    0    0  501 -0.00000000000E+00 -0.00000000000E+00 -0.16961944383E+02  0.16961944383E+02  0.00000000000E+00 0.  1.
         23    2    1    2    0    0 -0.31376235352E+02 -0.38585469912E+01  0.33485884915E+03  0.34958000819E+03  0.95270020169E+02 0.  0.
          5    1    1    2  502    0  0.32032372339E+02  0.16976247780E+02  0.25629818880E+02  0.44594011730E+02  0.41800000000E+01 0. -1.
         -5    1    1    2    0  502 -0.65613698753E+00 -0.13117700789E+02  0.39809377719E+03  0.39833231406E+03  0.41800000000E+01 0. -1.
        -11    1    3    3    0    0 -0.40053144731E+02  0.27264284169E+02  0.29154064449E+03  0.29553941020E+03  0.00000000000E+00 0. -1.
         11    1    3    3    0    0  0.86769093788E+01 -0.31122831160E+02  0.43318204658E+02  0.54040597985E+02  0.00000000000E+00 0.  1.
</event>
<event>
 7    1  0.6684706E-006  0.1203338E+03  0.7561462E-02  0.1242547E+00
          2   -1    0    0  501    0  0.00000000000E+00  0.00000000000E+00  0.64016511673E+02  0.64016511673E+02  0.00000000000E+00 0. -1.
         -2   -1    0    0    0  501 -0.00000000000E+00 -0.00000000000E+00 -0.23129697494E+03  0.23129697494E+03  0.00000000000E+00 0.  1.
         23    2    1    2    0    0  0.32822141239E+02  0.42281212006E+02 -0.85283909777E+02  0.13645644473E+03  0.92097894644E+02 0.  0.
          5    1    1    2  502    0  0.33822746295E+01  0.42749090528E+02 -0.32247560694E+02  0.53817302917E+02  0.41800000000E+01 0.  1.
         -5    1    1    2    0  502 -0.36204415868E+02 -0.85030302534E+02 -0.49748992797E+02  0.10503973896E+03  0.41800000000E+01 0.  1.
        -11    1    3    3    0    0  0.42173002465E+02 -0.16694870800E+02 -0.25847988396E+02  0.52205357503E+02  0.00000000000E+00 0.  1.
         11    1    3    3    0    0 -0.93508612259E+01  0.58976082806E+02 -0.59435921381E+02  0.84251087229E+02  0.00000000000E+00 0. -1.
</event>
<event>
 7    1  0.6684706E-006  0.1225278E+03  0.7561462E-02  0.1238984E+00
          2   -1    0    0  501    0  0.00000000000E+00  0.00000000000E+00  0.14945221853E+04  0.14945221853E+04  0.00000000000E+00 0. -1.
         -2   -1    0    0    0  501 -0.00000000000E+00 -0.00000000000E+00 -0.12333375627E+02  0.12333375627E+02  0.00000000000E+00 0.  1.
         23    2    1    2    0    0  0.18308482885E+02 -0.61673420956E+02  0.39117813165E+03  0.40681473063E+03  0.91318579562E+02 0.  0.
          5    1    1    2  502    0  0.10437575162E+02  0.94886018152E+02  0.68298293721E+03  0.68963429753E+03  0.41800000000E+01 0. -1.
         -5    1    1    2    0  502 -0.28746058048E+02 -0.33212597196E+02  0.40802774083E+03  0.41040653279E+03  0.41800000000E+01 0. -1.
        -11    1    3    3    0    0 -0.12831993605E+02 -0.71566654464E+02  0.32469814575E+03  0.33273913498E+03  0.00000000000E+00 0. -1.
         11    1    3    3    0    0  0.31140476491E+02  0.98932335082E+01  0.66479985904E+02  0.74075595651E+02  0.00000000000E+00 0.  1.
</event>
<event>
 7    1  0.6684706E-006  0.1160393E+03  0.7561462E-02  0.1249778E+00
          2   -1    0    0  501    0  0.00000000000E+00  0.00000000000E+00  0.38583523195E+02  0.38583523195E+02  0.00000000000E+00 0. -1.
         -2   -1    0    0    0  501 -0.00000000000E+00 -0.00000000000E+00 -0.45484472628E+03  0.45484472628E+03  0.00000000000E+00 0.  1.
         23    2    1    2    0    0 -0.62849741748E+02  0.39019739911E+02 -0.15390348127E+03  0.19350462741E+03  0.91022684766E+02 0.  0.
          5    1    1    2  502    0 -0.37079189086E+02  0.13394463954E+01 -0.73468409704E+02  0.82412013713E+02  0.41800000000E+01 0.  1.
         -5    1    1    2    0  502  0.99928930834E+02 -0.40359186306E+02 -0.18888931210E+03  0.21751160834E+03  0.41800000000E+01 0.  1.
        -11    1    3    3    0    0 -0.23616860499E+02 -0.86487606325E+01  0.25801182790E+01  0.25282685195E+02  0.00000000000E+00 0. -1.
         11    1    3    3    0    0 -0.39232881249E+02  0.47668500544E+02 -0.15648359955E+03  0.16822194222E+03  0.00000000000E+00 0.  1.
</event>
<event>
 7    1  0.6684706E-006  0.9327144E+02  0.7561462E-02  0.1295117E+00
         -2   -1    0    0    0  501 -0.00000000000E+00  0.00000000000E+00  0.22316383472E+02  0.22316383472E+02  0.00000000000E+00 0.  1.
          2   -1    0    0  501    0  0.00000000000E+00 -0.00000000000E+00 -0.57549978876E+03  0.57549978876E+03  0.00000000000E+00 0. -1.
         23    2    1    2    0    0  0.26106986163E+02 -0.18993598597E+02 -0.24710116445E+03  0.26558496113E+03  0.91837109019E+02 0.  0.
          5    1    1    2  502    0  0.30004976340E+02 -0.70669588167E+01 -0.23846520048E+03  0.24048568513E+03  0.41800000000E+01 0. -1.
         -5    1    1    2    0  502 -0.56111962504E+02  0.26060557413E+02 -0.67617040359E+02  0.91745525971E+02  0.41800000000E+01 0. -1.
        -11    1    3    3    0    0  0.22391013995E+02  0.33776683177E+02 -0.71467375667E+02  0.82157212823E+02  0.00000000000E+00 0.  1.
         11    1    3    3    0    0  0.37159721683E+01 -0.52770281773E+02 -0.17563378878E+03  0.18342774831E+03  0.00000000000E+00 0. -1.
</event>
<event>
 7    1  0.6684706E-006  0.1482297E+03  0.7561462E-02  0.1202665E+00
          2   -1    0    0  501    0  0.00000000000E+00  0.00000000000E+00  0.15353518045E+04  0.15353518045E+04  0.00000000000E+00 0. -1.
         -2   -1    0    0    0  501 -0.00000000000E+00 -0.00000000000E+00 -0.18553139115E+02  0.18553139115E+02  0.00000000000E+00 0.  1.
         23    2    1    2    0    0  0.10954207948E+03 -0.67478335416E+02  0.68781561368E+03  0.70572275476E+03  0.91659670665E+02 0.  0.
          5    1    1    2  502    0 -0.19849192274E+02 -0.78389881578E+01  0.47103531332E+03  0.47153703881E+03  0.41800000000E+01 0.  1.
         -5    1    1    2    0  502 -0.89692887210E+02  0.75317323574E+02  0.35794773835E+03  0.37664515003E+03  0.41800000000E+01 0.  1.
        -11    1    3    3    0    0  0.27763949882E+02 -0.70409561867E+02  0.30389104914E+03  0.31317425351E+03  0.00000000000E+00 0.  1.
         11    1    3    3    0    0  0.81778129602E+02  0.29312264506E+01  0.38392456454E+03  0.39254850125E+03  0.00000000000E+00 0. -1.
</event>
<event>
 7    1  0.6684706E-006  0.1287349E+03  0.7561462E-02  0.1229345E+00
          1   -1    0    0  501    0  0.00000000000E+00  0.00000000000E+00  0.14454422899E+03  0.14454422899E+03  0.00000000000E+00 0. -1.
         -1   -1    0    0    0  501 -0.00000000000E+00 -0.00000000000E+00 -0.17319109186E+03  0.17319109186E+03  0.00000000000E+00 0.  1.
         23    2    1    2    0    0 -0.18411327585E+02 -0.70647389186E+02 -0.10233619337E+03  0.15522584929E+03  0.91062271189E+02 0.  0.
          5    1    1    2  502    0 -0.51551898235E+02  0.27684138307E+02  0.49661645536E+02  0.76861961741E+02  0.41800000000E+01 0. -1.
         -5    1    1    2    0  502  0.69963225820E+02  0.42963250879E+02  0.24027684959E+02  0.85647509816E+02  0.41800000000E+01 0. -1.
        -11    1    3    3    0    0  0.35121555280E+02 -0.45428373176E+02 -0.46920373470E+02  0.74153773885E+02  0.00000000000E+00 0.  1.
         11    1    3    3    0    0 -0.53532882865E+02 -0.25219016009E+02 -0.55415819897E+02  0.81072075409E+02  0.00000000000E+00 0. -1.
</event>
<event>
 7    1  0.6684706E-006  0.1275594E+03  0.7561462E-02  0.1231123E+00
         -2   -1    0    0    0  501 -0.00000000000E+00  0.00000000000E+00  0.27468198078E+02  0.27468198078E+02  0.00000000000E+00 0. -1.
          2   -1    0    0  501    0  0.00000000000E+00 -0.00000000000E+00 -0.65985240228E+03  0.65985240228E+03  0.00000000000E+00 0.  1.
         23    2    1    2    0    0  0.63388115180E+02 -0.34014085681E+02 -0.19389606693E+03  0.22569875440E+03  0.90383802724E+02 0.  0.
          5    1    1    2  502    0 -0.41471761705E+02 -0.43872115273E+02 -0.23321518888E+03  0.24093871885E+03  0.41800000000E+01 0. -1.
         -5    1    1    2    0  502 -0.21916353475E+02  0.77886200953E+02 -0.20527294839E+03  0.22068312711E+03  0.41800000000E+01 0. -1.
        -11    1    3    3    0    0  0.75076307371E+01 -0.53787176440E+02 -0.72310040803E+02  0.90433217733E+02  0.00000000000E+00 0.  1.
         11    1    3    3    0    0  0.55880484443E+02  0.19773090759E+02 -0.12158602612E+03  0.13526553666E+03  0.00000000000E+00 0. -1.
</event>
<event>
 7    1  0.6684706E-006  0.1412053E+03  0.7561462E-02  0.1211716E+00
         -2   -1    0    0    0  501 -0.00000000000E+00  0.00000000000E+00  0.10116238206E+03  0.10116238206E+03  0.00000000000E+00 0.  1.
          2   -1    0    0  501    0  0.00000000000E+00 -0.00000000000E+00 -0.29259981785E+03  0.29259981785E+03  0.00000000000E+00 0. -1.
         23    2    1    2    0    0  0.24797664179E+02 -0.13156514279E+03 -0.88497620720E+02  0.18360156593E+03  0.89181809755E+02 0.  0.
          5    1    1    2  502    0 -0.48943409379E+01  0.89722644727E+02  0.75561219735E+01  0.90270011240E+02  0.41800000000E+01 0. -1.
         -5    1    1    2    0  502 -0.19903323241E+02  0.41842498065E+02 -0.11049593704E+03  0.11989062275E+03  0.41800000000E+01 0. -1.
        -11    1    3    3    0    0 -0.17540100279E+02 -0.62593800912E+02 -0.78709767524E+02  0.10208264561E+03  0.00000000000E+00 0. -1.
         11    1    3    3    0    0  0.42337764458E+02 -0.68971341880E+02 -0.97878531966E+01  0.81518920320E+02  0.00000000000E+00 0.  1.
</event>
<event>
 7    1  0.6684706E-006  0.8893869E+02  0.7561462E-02  0.1305442E+00
          2   -1    0    0  501    0  0.00000000000E+00  0.00000000000E+00  0.57054359380E+03  0.57054359380E+03  0.00000000000E+00 0. -1.
         -2   -1    0    0    0  501 -0.00000000000E+00 -0.00000000000E+00 -0.30330815940E+02  0.30330815940E+02  0.00000000000E+00 0.  1.
         23    2    1    2    0    0  0.36977477283E+02  0.34087238193E+02  0.12016244890E+03  0.15971843507E+03  0.92421267808E+02 0.  0.
          5    1    1    2  502    0  0.27728422551E+02 -0.44539441920E+01  0.30140431416E+03  0.30273872569E+03  0.41800000000E+01 0.  1.
         -5    1    1    2    0  502 -0.64705899834E+02 -0.29633294001E+02  0.11864601479E+03  0.13841724897E+03  0.41800000000E+01 0.  1.
        -11    1    3    3    0    0  0.52533241722E+02  0.17305367767E+02  0.12467685778E+03  0.13639478035E+03  0.00000000000E+00 0. -1.
         11    1    3    3    0    0 -0.15555764440E+02  0.16781870426E+02 -0.45144088825E+01  0.23323654727E+02  0.00000000000E+00 0.  1.
</event>
<event>
 7    1  0.6684706E-006  0.1203049E+03  0.7561462E-02  0.1242595E+00
          4   -1    0    0  501    0  0.00000000000E+00  0.00000000000E+00  0.44517950492E+03  0.44517950492E+03  0.00000000000E+00 0.  1.
         -4   -1    0    0    0  501 -0.00000000000E+00 -0.00000000000E+00 -0.34740431842E+02  0.34740431842E+02  0.00000000000E+00 0. -1.
         23    2    1    2    0    0  0.63907867507E+02  0.29829523003E+01  0.16890393667E+03  0.20049220729E+03  0.87037186472E+02 0.  0.
          5    1    1    2  502    0  0.70065088671E+01 -0.51535680873E+02  0.67805167571E+02  0.85557178068E+02  0.41800000000E+01 0.  1.
         -5    1    1    2    0  502 -0.70914376374E+02  0.48552728573E+02  0.17372996884E+03  0.19387055140E+03  0.41800000000E+01 0.  1.
        -11    1    3    3    0    0 -0.18304407136E+02  0.80994355040E+01  0.64334788506E+02  0.67376681338E+02  0.00000000000E+00 0. -1.
         11    1    3    3    0    0  0.82212274643E+02 -0.51164832037E+01  0.10456914816E+03  0.13311552595E+03  0.00000000000E+00 0.  1.
</event>
<event>
 7    1  0.6684706E-006  0.1647549E+03  0.7561462E-02  0.1183431E+00
         -1   -1    0    0    0  501 -0.00000000000E+00  0.00000000000E+00  0.58744489943E+03  0.58744489943E+03  0.00000000000E+00 0.  1.
          1   -1    0    0  501    0  0.00000000000E+00 -0.00000000000E+00 -0.80434387719E+02  0.80434387719E+02  0.00000000000E+00 0. -1.
         23    2    1    2    0    0  0.13190021479E+03  0.36867288045E+02  0.44122433208E+03  0.47106963916E+03  0.92037112802E+02 0.  0.
          5    1    1    2  502    0 -0.40769235466E+02 -0.59144957849E+02 -0.14331223314E+02  0.73369700566E+02  0.41800000000E+01 0. -1.
         -5    1    1    2    0  502 -0.91130979324E+02  0.22277669804E+02  0.80117402947E+02  0.12343994742E+03  0.41800000000E+01 0. -1.
        -11    1    3    3    0    0  0.53147833268E+02  0.61355690363E+02  0.18868909212E+03  0.20540882747E+03  0.00000000000E+00 0. -1.
         11    1    3    3    0    0  0.78752381522E+02 -0.24488402318E+02  0.25253523996E+03  0.26566081169E+03  0.00000000000E+00 0.  1.
</event>
<event>
 7    1  0.6684706E-006  0.8499160E+02  0.7561462E-02  0.1315455E+00
          2   -1    0    0  501    0  0.00000000000E+00  0.00000000000E+00  0.43031559324E+03  0.43031559324E+03  0.00000000000E+00 0.  1.
         -2   -1    0    0    0  501 -0.00000000000E+00 -0.00000000000E+00 -0.36164264270E+02  0.36164264270E+02  0.00000000000E+00 0. -1.
         23    2    1    2    0    0  0.38239640733E+02 -0.46138028247E+02  0.14092640998E+03  0.17775565995E+03  0.90254273263E+02 0.  0.
          5    1    1    2  502    0 -0.88732609239E+01  0.32041044062E+02  0.13162366356E+00  0.33508998624E+02  0.41800000000E+01 0.  1.
         -5    1    1    2    0  502 -0.29366379809E+02  0.14096984185E+02  0.25309329532E+03  0.25521519893E+03  0.41800000000E+01 0.  1.
        -11    1    3    3    0    0  0.65503453382E+02 -0.31406751940E+02  0.72465586952E+02  0.10260773735E+03  0.00000000000E+00 0.  1.
         11    1    3    3    0    0 -0.27263812649E+02 -0.14731276307E+02  0.68460823026E+02  0.75147922600E+02  0.00000000000E+00 0. -1.
</event>
<event>
 7    1  0.6684706E-006  0.7784396E+02  0.7561462E-02  0.1335284E+00
          2   -1    0    0  501    0  0.00000000000E+00  0.00000000000E+00  0.71636711023E+03  0.71636711023E+03  0.00000000000E+00 0. -1.
         -2   -1    0    0    0  501 -0.00000000000E+00 -0.00000000000E+00 -0.39977335393E+02  0.39977335393E+02  0.00000000000E+00 0.  1.
         23    2    1    2    0    0 -0.31666367852E+02 -0.17445709368E+02  0.35208955846E+02  0.10207599450E+03  0.88728385839E+02 0.  0.
          5    1    1    2  502    0  0.50825752167E+02 -0.11667544835E+01  0.61334892528E+03  0.61546648563E+03  0.41800000000E+01 0. -1.
         -5    1    1    2    0  502 -0.19159384315E+02  0.18612463852E+02  0.27831893715E+02  0.38801965488E+02  0.41800000000E+01 0. -1.
        -11    1    3    3    0    0 -0.26636910896E+02  0.24022041175E+02 -0.13123259264E+02  0.38194285149E+02  0.00000000000E+00 0.  1.
         11    1    3    3    0    0 -0.50294569556E+01 -0.41467750544E+02  0.48332215110E+02  0.63881709353E+02  0.00000000000E+00 0. -1.
</event>
<event>
 7    1  0.6684706E-006  0.1316806E+03  0.7561462E-02  0.1224983E+00
         -2   -1    0    0    0  501 -0.00000000000E+00  0.00000000000E+00  0.96025920601E+02  0.96025920601E+02  0.00000000000E+00 0.  1.
          2   -1    0    0  501    0  0.00000000000E+00 -0.00000000000E+00 -0.26026842418E+03  0.26026842418E+03  0.00000000000E+00 0. -1.
         23    2    1    2    0    0 -0.42421088344E+02  0.99024038807E+02 -0.31474015528E+02  0.14444576908E+03  0.90932159075E+02 0.  0.
          5    1    1    2  502    0  0.13635919048E+02 -0.95825654779E+02 -0.24828081856E+02  0.10001200153E+03  0.41800000000E+01 0.  1.
         -5    1    1    2    0  502  0.28785169295E+02 -0.31983840277E+01 -0.10794040620E+03  0.11183657417E+03  0.41800000000E+01 0.  1.
        -11    1    3    3    0    0 -0.50379746000E+01  0.99701209295E+02 -0.76711351601E+01  0.10012271789E+03  0.00000000000E+00 0.  1.
         11    1    3    3    0    0 -0.37383113744E+02 -0.67717048853E+00 -0.23802880368E+02  0.44323051191E+02  0.00000000000E+00 0. -1.
</event>
<event>
 7    1  0.6684706E-006  0.1217852E+03  0.7561462E-02  0.1240181E+00
          2   -1    0    0  501    0  0.00000000000E+00  0.00000000000E+00  0.68769567482E+03  0.68769567482E+03  0.00000000000E+00 0.  1.
         -2   -1    0    0    0  501 -0.00000000000E+00 -0.00000000000E+00 -0.30031084318E+02  0.30031084318E+02  0.00000000000E+00 0. -1.
         23    2    1    2    0    0 -0.36535362116E+02 -0.81235908412E+02  0.22204432254E+03  0.25583648648E+03  0.90633995509E+02 0.  0.
          5    1    1    2  502    0  0.57438677432E+02  0.10361319295E+03  0.29526419349E+03  0.31817182744E+03  0.41800000000E+01 0.  1.
         -5    1    1    2    0  502 -0.20903315316E+02 -0.22377284539E+02  0.14035607446E+03  0.14371844521E+03  0.41800000000E+01 0.  1.
        -11    1    3    3    0    0 -0.91665589321E+01 -0.56476654711E+02  0.20900417124E+03  0.21669421295E+03  0.00000000000E+00 0.  1.
         11    1    3    3    0    0 -0.27368803184E+02 -0.24759253702E+02  0.13040151307E+02  0.39142273537E+02  0.00000000000E+00 0. -1.
</event>
<event>
 7    1  0.6684706E-006  0.8796166E+02  0.7561462E-02  0.1307864E+00
          1   -1    0    0  501    0  0.00000000000E+00  0.00000000000E+00  0.32323218929E+03  0.32323218929E+03  0.00000000000E+00 0. -1.
         -1   -1    0    0    0  501 -0.00000000000E+00 -0.00000000000E+00 -0.43695647451E+02  0.43695647451E+02  0.00000000000E+00 0.  1.
         23    2    1    2    0    0  0.22474504141E+02 -0.28427072946E+02  0.71386032773E+02  0.12139719282E+03  0.91258484195E+02 0.  0.
          5    1    1    2  502    0 -0.94592008802E+00 -0.36065477238E+02  0.15480682258E+03  0.15901018247E+03  0.41800000000E+01 0. -1.
         -5    1    1    2    0  502 -0.21528584053E+02  0.64492550184E+02  0.53343686485E+02  0.86520461444E+02  0.41800000000E+01 0. -1.
        -11    1    3    3    0    0  0.17016025009E+02  0.17981442540E+02 -0.10678578909E+02  0.26961257954E+02  0.00000000000E+00 0.  1.
         11    1    3    3    0    0  0.54584791324E+01 -0.46408515487E+02  0.82064611682E+02  0.94435934869E+02  0.00000000000E+00 0. -1.
</event>
<event>
 7    1  0.6684706E-006  0.7717592E+02  0.7561462E-02  0.1337262E+00
          2   -1    0    0  501    0  0.00000000000E+00  0.00000000000E+00  0.48070027754E+03  0.48070027754E+03  0.00000000000E+00 0. -1.
         -2   -1    0    0    0  501 -0.00000000000E+00 -0.00000000000E+00 -0.29668295159E+02  0.29668295159E+02  0.00000000000E+00 0.  1.
         23    2    1    2    0    0 -0.25967692073E+01  0.28397652347E+02  0.96635930746E+02  0.13605715127E+03  0.91432354404E+02 0.  0.
          5    1    1    2  502    0 -0.14107015858E+02  0.92623571389E+01  0.32002156117E+03  0.32049348069E+03  0.41800000000E+01 0. -1.
         -5    1    1    2    0  502  0.16703785065E+02 -0.37660009486E+02  0.34374490471E+02  0.53817940736E+02  0.41800000000E+01 0.  1.
        -11    1    3    3    0    0 -0.28847498732E+00  0.61936904616E+02  0.66972523098E+02  0.91222706720E+02  0.00000000000E+00 0. -1.
         11    1    3    3    0    0 -0.23082942199E+01 -0.33539252269E+02  0.29663407648E+02  0.44834444552E+02  0.00000000000E+00 0.  1.
</event>
<event>
 7    1  0.6684706E-006  0.1118506E+03  0.7561462E-02  0.1257181E+00
         -1   -1    0    0    0  501 -0.00000000000E+00  0.00000000000E+00  0.37098716668E+03  0.37098716668E+03  0.00000000000E+00 0.  1.
          1   -1    0    0  501    0  0.00000000000E+00 -0.00000000000E+00 -0.90465914018E+02  0.90465914018E+02  0.00000000000E+00 0. -1.
         23    2    1    2    0    0 -0.24162358796E+02 -0.18679248006E+02  0.10444130033E+03  0.14205966899E+03  0.91324862171E+02 0.  0.
          5    1    1    2  502    0  0.44045537765E+01 -0.53267866896E+02 -0.54834314685E+02  0.76688592402E+02  0.41800000000E+01 0. -1.
         -5    1    1    2    0  502  0.19757805020E+02  0.71947114902E+02  0.23091426702E+03  0.24270481931E+03  0.41800000000E+01 0.  1.
        -11    1    3    3    0    0  0.32807429511E+02  0.58666779113E+01  0.46234044872E+02  0.56994142208E+02  0.00000000000E+00 0.  1.
         11    1    3    3    0    0 -0.56969788307E+02 -0.24545925918E+02  0.58207255457E+02  0.85065526782E+02  0.00000000000E+00 0. -1.
</event>
<event>
 7    1  0.6684706E-006  0.9641813E+02  0.7561462E-02  0.1288014E+00
          1   -1    0    0  501    0  0.00000000000E+00  0.00000000000E+00  0.24697588499E+03  0.24697588499E+03  0.00000000000E+00 0. -1.
         -1   -1    0    0    0  501 -0.00000000000E+00 -0.00000000000E+00 -0.74670774071E+02  0.74670774071E+02  0.00000000000E+00 0.  1.
         23    2    1    2    0    0 -0.43868457983E+01  0.61001669088E+02  0.15462572404E+02  0.11192756034E+03  0.92456690238E+02 0.  0.
          5    1    1    2  502    0  0.50832568978E+02  0.29717264901E+01  0.27366631420E+02  0.57958486372E+02  0.41800000000E+01 0.  1.
         -5    1    1    2    0  502 -0.46445723180E+02 -0.63973395578E+02  0.12947590709E+03  0.15176061235E+03  0.41800000000E+01 0.  1.
        -11    1    3    3    0    0 -0.70746640029E+01  0.15960302416E+02 -0.38089992820E+02  0.41900234809E+02  0.00000000000E+00 0.  1.
         11    1    3    3    0    0  0.26878182046E+01  0.45041366671E+02  0.53552565224E+02  0.70027325527E+02  0.00000000000E+00 0. -1.
</event>
<event>
 7    1  0.6684706E-006  0.1091839E+03  0.7561462E-02  0.1262089E+00
         -1   -1    0    0    0  501 -0.00000000000E+00  0.00000000000E+00  0.16536140280E+02  0.16536140280E+02  0.00000000000E+00 0.  1.
          1   -1    0    0  501    0  0.00000000000E+00 -0.00000000000E+00 -0.92072149230E+03  0.92072149230E+03  0.00000000000E+00 0. -1.
         23    2    1    2    0    0 -0.41448055243E+01  0.31394158764E+02 -0.20929173889E+03  0.23047330768E+03  0.91170943656E+02 0.  0.
          5    1    1    2  502    0 -0.14880672332E+02 -0.77168917641E+02 -0.45954224393E+03  0.46623279873E+03  0.41800000000E+01 0.  1.
         -5    1    1    2    0  502  0.19025477856E+02  0.45774758877E+02 -0.23535136920E+03  0.24055152617E+03  0.41800000000E+01 0.  1.
        -11    1    3    3    0    0 -0.33277204047E+02  0.46439239590E+02 -0.88724716126E+02  0.10552748710E+03  0.00000000000E+00 0.  1.
         11    1    3    3    0    0  0.29132398522E+02 -0.15045080826E+02 -0.12056702276E+03  0.12494582057E+03  0.00000000000E+00 0. -1.
</event>
<event>
 7    1  0.6684706E-006  0.9406795E+02  0.7561462E-02  0.1293289E+00
          2   -1    0    0  501    0  0.00000000000E+00  0.00000000000E+00  0.48290228492E+03  0.48290228492E+03  0.00000000000E+00 0. -1.
         -2   -1    0    0    0  501 -0.00000000000E+00 -0.00000000000E+00 -0.51613124979E+02  0.51613124979E+02  0.00000000000E+00 0.  1.
         23    2    1    2    0    0 -0.45767346693E+02  0.17341604398E+02  0.29792318276E+02  0.11114791510E+03  0.95241249131E+02 0.  0.
          5    1    1    2  502    0  0.50069347685E+02  0.47456012658E+02  0.21599394260E+03  0.22678154324E+03  0.41800000000E+01 0.  1.
         -5    1    1    2    0  502 -0.43020009923E+01 -0.64797617056E+02  0.18550289907E+03  0.19658595156E+03  0.41800000000E+01 0.  1.
        -11    1    3    3    0    0 -0.26403504704E+02  0.21611126056E+02 -0.31678106888E+02  0.46558439472E+02  0.00000000000E+00 0.  1.
         11    1    3    3    0    0 -0.19363841989E+02 -0.42695216583E+01  0.61470425165E+02  0.64589475626E+02  0.00000000000E+00 0. -1.
</event>
<event>
 7    1  0.6684706E-006  0.8112834E+02  0.7561462E-02  0.1325880E+00
          2   -1    0    0  501    0  0.00000000000E+00  0.00000000000E+00  0.66902625530E+03  0.66902625530E+03  0.00000000000E+00 0. -1.
         -2   -1    0    0    0  501 -0.00000000000E+00 -0.00000000000E+00 -0.35382524812E+02  0.35382524812E+02  0.00000000000E+00 0.  1.
         23    2    1    2    0    0  0.17633336858E+02 -0.55690173084E+02  0.96892486457E+02  0.15018654624E+03  0.98770009580E+02 0.  0.
          5    1    1    2  502    0 -0.53090535928E+01  0.51130135708E+02  0.53791663349E+03  0.54038343221E+03  0.41800000000E+01 0. -1.
         -5    1    1    2    0  502 -0.12324283265E+02  0.45600373763E+01 -0.11653894551E+01  0.13838801662E+02  0.41800000000E+01 0. -1.
        -11    1    3    3    0    0  0.79451944406E+01 -0.74930480904E+02  0.10316272658E+03  0.12775073870E+03  0.00000000000E+00 0. -1.
         11    1    3    3    0    0  0.96881424172E+01  0.19240307820E+02 -0.62702401267E+01  0.22435807535E+02  0.00000000000E+00 0.  1.
</event>
<event>
 7    1  0.6684706E-006  0.9105537E+02  0.7561462E-02  0.1300316E+00
          1   -1    0    0  501    0  0.00000000000E+00  0.00000000000E+00  0.63267308945E+02  0.63267308945E+02  0.00000000000E+00 0. -1.
         -1   -1    0    0    0  501 -0.00000000000E+00 -0.00000000000E+00 -0.19735601732E+03  0.19735601732E+03  0.00000000000E+00 0.  1.
         23    2    1    2    0    0 -0.30914689089E+02 -0.10895090524E+02 -0.73778182192E+02  0.11793525984E+03  0.85971415866E+02 0.  0.
          5    1    1    2  502    0 -0.20667668387E+02 -0.31218573144E+02 -0.65715448404E+02  0.75747900199E+02  0.41800000000E+01 0.  1.
         -5    1    1    2    0  502  0.51582357476E+02  0.42113663668E+02  0.54049222236E+01  0.66940166228E+02  0.41800000000E+01 0.  1.
        -11    1    3    3    0    0 -0.47833386635E+02 -0.26514319497E+02 -0.77248923107E+02  0.94649026073E+02  0.00000000000E+00 0.  1.
         11    1    3    3    0    0  0.16918697546E+02  0.15619228973E+02  0.34707409150E+01  0.23286233763E+02  0.00000000000E+00 0. -1.
</event>
<event>
 7    1  0.6684706E-006  0.7792857E+02  0.7561462E-02  0.1335035E+00
         -1   -1    0    0    0  501 -0.00000000000E+00  0.00000000000E+00  0.98916379652E+02  0.98916379652E+02  0.00000000000E+00 0.  1.
          1   -1    0    0  501    0  0.00000000000E+00 -0.00000000000E+00 -0.30544070601E+03  0.30544070601E+03  0.00000000000E+00 0. -1.
         23    2    1    2    0    0 -0.54595441915E+02  0.20386448931E+02  0.48132894467E+02  0.11471210001E+03  0.86289169550E+02 0.  0.
          5    1    1    2  502    0  0.37434460329E+02  0.89356611782E+01 -0.66414104334E+01  0.39278054857E+02  0.41800000000E+01 0.  1.
         -5    1    1    2    0  502  0.17160981586E+02 -0.29322110109E+02 -0.24801581040E+03  0.25036693080E+03  0.41800000000E+01 0.  1.
        -11    1    3    3    0    0 -0.57993842746E+02  0.35116195679E+02  0.38343842160E+01  0.67905342189E+02  0.00000000000E+00 0. -1.
         11    1    3    3    0    0  0.33984008316E+01 -0.14729746749E+02  0.44298510251E+02  0.46806757824E+02  0.00000000000E+00 0.  1.
</event>
<event>
 7    1  0.6684706E-006  0.9460340E+02  0.7561462E-02  0.1292072E+00
          2   -1    0    0  501    0  0.00000000000E+00  0.00000000000E+00  0.11559944596E+03  0.11559944596E+03  0.00000000000E+00 0. -1.
         -2   -1    0    0    0  501 -0.00000000000E+00 -0.00000000000E+00 -0.19590622835E+03  0.19590622835E+03  0.00000000000E+00 0.  1.
         23    2    1    2    0    0 -0.27033730017E+01 -0.54549882670E+02 -0.13054700132E+03  0.16606090581E+03  0.86894803981E+02 0.  0.
          5    1    1    2  502    0 -0.43526677299E+02 -0.16137573023E+02 -0.89927048483E+00  0.46618386793E+02  0.41800000000E+01 0. -1.
         -5    1    1    2    0  502  0.46230050301E+02  0.70687455693E+02  0.51139489415E+02  0.98826381704E+02  0.41800000000E+01 0. -1.
        -11    1    3    3    0    0  0.83022863700E+01 -0.29991378031E+02  0.16397724325E+01  0.31162470518E+02  0.00000000000E+00 0. -1.
         11    1    3    3    0    0 -0.11005659372E+02 -0.24558504640E+02 -0.13218677375E+03  0.13489843529E+03  0.00000000000E+00 0.  1.
</event>
<event>
 7    1  0.6684706E-006  0.1183311E+03  0.7561462E-02  0.1245876E+00
         -2   -1    0    0    0  501 -0.00000000000E+00  0.00000000000E+00  0.33358831486E+02  0.33358831486E+02  0.00000000000E+00 0.  1.
          2   -1    0    0  501    0  0.00000000000E+00 -0.00000000000E+00 -0.47259135375E+03  0.47259135375E+03  0.00000000000E+00 0. -1.
         23    2    1    2    0    0  0.77269933985E+01 -0.59365419714E+02 -0.15990342195E+03  0.19409509368E+03  0.92302987789E+02 0.  0.
          5    1    1    2  502    0  0.25179173044E+02 -0.28296938789E+02 -0.13068680330E+03  0.13612942539E+03  0.41800000000E+01 0. -1.
         -5    1    1    2    0  502 -0.32906166443E+02  0.87662358503E+02 -0.14864229702E+03  0.17572566617E+03  0.41800000000E+01 0. -1.
        -11    1    3    3    0    0 -0.34834298961E+02 -0.41046226391E+01 -0.27984467663E+02  0.44871001119E+02  0.00000000000E+00 0.  1.
         11    1    3    3    0    0  0.42561292359E+02 -0.55260797074E+02 -0.13191895428E+03  0.14922409256E+03  0.00000000000E+00 0. -1.
</event>
<event>
 7    1  0.6684706E-006  0.8136921E+02  0.7561462E-02  0.1325210E+00
          1   -1    0    0  501    0  0.00000000000E+00  0.00000000000E+00  0.46934277348E+02  0.46934277348E+02  0.00000000000E+00 0. -1.
         -1   -1    0    0    0  501 -0.00000000000E+00 -0.00000000000E+00 -0.27012536036E+03  0.27012536036E+03  0.00000000000E+00 0.  1.
         23    2    1    2    0    0 -0.23863483306E+01  0.20777180312E+02 -0.12586295415E+03  0.15719299341E+03  0.91819214068E+02 0.  0.
          5    1    1    2  502    0  0.18428968398E+02  0.19271981753E+02  0.20775243200E+02  0.34060523879E+02  0.41800000000E+01 0.  1.
         -5    1    1    2    0  502 -0.16042620067E+02 -0.40049162065E+02 -0.11810337207E+03  0.12580612042E+03  0.41800000000E+01 0.  1.
        -11    1    3    3    0    0 -0.61032127835E+01 -0.35490977968E+02 -0.34768737189E+02  0.50057205367E+02  0.00000000000E+00 0.  1.
         11    1    3    3    0    0  0.37168644529E+01  0.56268158280E+02 -0.91094216956E+02  0.10713578805E+03  0.00000000000E+00 0. -1.
</event>
<event>
 7    1  0.6684706E-006  0.1325119E+03  0.7561462E-02  0.1223775E+00
         -1   -1    0    0    0  501 -0.00000000000E+00  0.00000000000E+00  0.29319367545E+02  0.29319367545E+02  0.00000000000E+00 0.  1.
          1   -1    0    0  501    0  0.00000000000E+00 -0.00000000000E+00 -0.93666204418E+03  0.93666204418E+03  0.00000000000E+00 0. -1.
         23    2    1    2    0    0 -0.49834422199E+02 -0.88998800233E+02 -0.21230322166E+03  0.25244194092E+03  0.90829618134E+02 0.  0.
          5    1    1    2  502    0  0.72897766768E+02  0.10622359306E+03 -0.50023299624E+03  0.51657338206E+03  0.41800000000E+01 0.  1.
         -5    1    1    2    0  502 -0.23063344569E+02 -0.17224792828E+02 -0.19480645874E+03  0.19696608875E+03  0.41800000000E+01 0.  1.
        -11    1    3    3    0    0 -0.10239536548E+02 -0.69576206141E+00  0.72106543247E+01  0.12542955368E+02  0.00000000000E+00 0.  1.
         11    1    3    3    0    0 -0.39594885651E+02 -0.88303038172E+02 -0.21951387598E+03  0.23989898555E+03  0.00000000000E+00 0. -1.
</event>
<event>
 7    1  0.6684706E-006  0.9749669E+02  0.7561462E-02  0.1285650E+00
          1   -1    0    0  501    0  0.00000000000E+00  0.00000000000E+00  0.12592375403E+04  0.12592375403E+04  0.00000000000E+00 0. -1.
         -1   -1    0    0    0  501 -0.00000000000E+00 -0.00000000000E+00 -0.18192847837E+02  0.18192847837E+02  0.00000000000E+00 0.  1.
         23    2    1    2    0    0  0.78404201714E+01 -0.66809619430E+02  0.23302506515E+03  0.25945346473E+03  0.92143485574E+02 0.  0.
          5    1    1    2  502    0  0.20880962275E+02  0.41637375413E+02  0.11519911922E+03  0.12433018574E+03  0.41800000000E+01 0. -1.
         -5    1    1    2    0  502 -0.28721382447E+02  0.25172244016E+02  0.89282050812E+03  0.89364673770E+03  0.41800000000E+01 0. -1.
        -11    1    3    3    0    0 -0.37631012359E+02 -0.46998163097E+02  0.16197865049E+03  0.17280626042E+03  0.00000000000E+00 0.  1.
         11    1    3    3    0    0  0.45471432530E+02 -0.19811456332E+02  0.71046414667E+02  0.86647204314E+02  0.00000000000E+00 0. -1.
</event>
<event>
 7    1  0.6684706E-006  0.1353622E+03  0.7561462E-02  0.1219709E+00
          1   -1    0    0  501    0  0.00000000000E+00  0.00000000000E+00  0.43829249181E+02  0.43829249181E+02  0.00000000000E+00 0. -1.
         -1   -1    0    0    0  501 -0.00000000000E+00 -0.00000000000E+00 -0.68842109216E+03  0.68842109216E+03  0.00000000000E+00 0.  1.
         23    2    1    2    0    0  0.10993453637E+03  0.85336492392E+01 -0.48986354798E+03  0.51010001352E+03  0.89873815427E+02 0.  0.
          5    1    1    2  502    0 -0.41165376912E+02 -0.36365459062E+02 -0.53925023455E+01  0.55349673447E+02  0.41800000000E+01 0. -1.
         -5    1    1    2    0  502 -0.68769159461E+02  0.27831809823E+02 -0.14933579265E+03  0.16680065437E+03  0.41800000000E+01 0.  1.
        -11    1    3    3    0    0  0.10365767377E+03 -0.25481079933E+02 -0.39331932087E+03  0.40754666841E+03  0.00000000000E+00 0.  1.
         11    1    3    3    0    0  0.62768626070E+01  0.34014729172E+02 -0.96544227109E+02  0.10255334511E+03  0.00000000000E+00 0. -1.
</event>
<event>
 7    1  0.6684706E-006  0.1253390E+03  0.7561462E-02  0.1234540E+00
         -1   -1    0    0    0  501 -0.00000000000E+00  0.00000000000E+00  0.90274713052E+02  0.90274713052E+02  0.00000000000E+00 0.  1.
          1   -1    0    0  501    0  0.00000000000E+00 -0.00000000000E+00 -0.28198271942E+03  0.28198271942E+03  0.00000000000E+00 0. -1.
         23    2    1    2    0    0 -0.94449628785E+02  0.12667271564E+02 -0.10482472463E+02  0.13231370537E+03  0.91191239997E+02 0.  0.
          5    1    1    2  502    0  0.10721753030E+03 -0.40421675375E+02 -0.96779536680E+02  0.15004419937E+03  0.41800000000E+01 0.  1.
         -5    1    1    2    0  502 -0.12767901517E+02  0.27754403810E+02 -0.84445997224E+02  0.89899527736E+02  0.41800000000E+01 0.  1.
        -11    1    3    3    0    0 -0.78752034135E+01 -0.12721900940E+02  0.29925551384E+02  0.33457498681E+02  0.00000000000E+00 0.  1.
         11    1    3    3    0    0 -0.86574425372E+02  0.25389172504E+02 -0.40408023847E+02  0.98856206685E+02  0.00000000000E+00 0. -1.
</event>
<event>
 7    1  0.6684706E-006  0.1168154E+03  0.7561462E-02  0.1248445E+00
          1   -1    0    0  501    0  0.00000000000E+00  0.00000000000E+00  0.59313702153E+02  0.59313702153E+02  0.00000000000E+00 0. -1.
         -1   -1    0    0    0  501 -0.00000000000E+00 -0.00000000000E+00 -0.45653067813E+03  0.45653067813E+03  0.00000000000E+00 0.  1.
         23    2    1    2    0    0  0.10129006403E+03  0.31097578114E+02 -0.28329590641E+03  0.31621424104E+03  0.92239575082E+02 0.  0.
          5    1    1    2  502    0 -0.61635191756E-01 -0.25116319167E+02  0.19445589525E+02  0.32038049868E+02  0.41800000000E+01 0. -1.
         -5    1    1    2    0  502 -0.10122842884E+03 -0.59812589466E+01 -0.13336665909E+03  0.16759208937E+03  0.41800000000E+01 0. -1.
        -11    1    3    3    0    0  0.55450300941E+02  0.23447778445E+02 -0.49780926430E+02  0.78119618692E+02  0.00000000000E+00 0. -1.
         11    1    3    3    0    0  0.45839763089E+02  0.76497996691E+01 -0.23351497998E+03  0.23809462235E+03  0.00000000000E+00 0.  1.
</event>
<event>
 7    1  0.6684706E-006  0.5188359E+02  0.7561462E-02  0.1435439E+00
          2   -1    0    0  501    0  0.00000000000E+00  0.00000000000E+00  0.12382952814E+03  0.12382952814E+03  0.00000000000E+00 0. -1.
         -2   -1    0    0    0  501 -0.00000000000E+00 -0.00000000000E+00 -0.98999796526E+02  0.98999796526E+02  0.00000000000E+00 0.  1.
         23    2    1    2    0    0  0.24126557362E+02 -0.10112612958E+02 -0.10186506972E+02  0.90322633258E+02  0.85849038687E+02 0.  0.
          5    1    1    2  502    0 -0.24821842058E+02  0.16929474479E+02 -0.43802135566E+02  0.53280675948E+02  0.41800000000E+01 0. -1.
         -5    1    1    2    0  502  0.69528469609E+00 -0.68168615210E+01  0.78818374150E+02  0.79226015459E+02  0.41800000000E+01 0. -1.
        -11    1    3    3    0    0 -0.19905346360E+02 -0.75845359157E+01 -0.34059172931E+02  0.40171821710E+02  0.00000000000E+00 0.  1.
         11    1    3    3    0    0  0.44031903722E+02 -0.25280770425E+01  0.23872665960E+02  0.50150811548E+02  0.00000000000E+00 0. -1.
</event>
<event>
 7    1  0.6684706E-006  0.1186134E+03  0.7561462E-02  0.1245402E+00
          2   -1    0    0  501    0  0.00000000000E+00  0.00000000000E+00  0.85289568499E+02  0.85289568499E+02  0.00000000000E+00 0. -1.
         -2   -1    0    0    0  501 -0.00000000000E+00 -0.00000000000E+00 -0.28107821926E+03  0.28107821926E+03  0.00000000000E+00 0.  1.
         23    2    1    2    0    0  0.78455726998E+02 -0.38594010575E+02 -0.16959715146E+03  0.21151695256E+03  0.91276660141E+02 0.  0.
          5    1    1    2  502    0 -0.41695522957E+02 -0.38936054857E+02 -0.37214039211E+02  0.68241410572E+02  0.41800000000E+01 0.  1.
         -5    1    1    2    0  502 -0.36760204041E+02  0.77530065432E+02  0.11022539914E+02  0.86609424621E+02  0.41800000000E+01 0.  1.
        -11    1    3    3    0    0  0.38377504998E+02 -0.38043412913E+02 -0.21612067156E+02  0.58199790401E+02  0.00000000000E+00 0.  1.
         11    1    3    3    0    0  0.40078222000E+02 -0.55059766293E+00 -0.14798508431E+03  0.15331716216E+03  0.00000000000E+00 0. -1.
</event>
<event>
 7    1  0.6684706E-006  0.1526947E+03  0.7561462E-02  0.1197200E+00
         -1   -1    0    0    0  501 -0.00000000000E+00  0.00000000000E+00  0.56763840888E+02  0.56763840888E+02  0.00000000000E+00 0.  1.
          1   -1    0    0  501    0  0.00000000000E+00 -0.00000000000E+00 -0.57911949950E+03  0.57911949950E+03  0.00000000000E+00 0. -1.
         23    2    1    2    0    0  0.10455715285E+03 -0.69882402995E+02 -0.12068191043E+03  0.19678975617E+03  0.91358284620E+02 0.  0.
          5    1    1    2  502    0 -0.57508336141E+02 -0.27360236221E+02 -0.20449936972E+03  0.21422711282E+03  0.41800000000E+01 0. -1.
         -5    1    1    2    0  502 -0.47048816710E+02  0.97242639216E+02 -0.19717437846E+03  0.22486647140E+03  0.41800000000E+01 0. -1.
        -11    1    3    3    0    0  0.90888245731E+02 -0.37517722177E+02 -0.35316285588E+02  0.10447723540E+03  0.00000000000E+00 0.  1.
         11    1    3    3    0    0  0.13668907121E+02 -0.32364680817E+02 -0.85365624844E+02  0.92312520772E+02  0.00000000000E+00 0. -1.
</event>
<event>
 7    1  0.6684706E-006  0.1172105E+03  0.7561462E-02  0.1247771E+00
         -2   -1    0    0    0  501 -0.00000000000E+00  0.00000000000E+00  0.43904806613E+02  0.43904806613E+02  0.00000000000E+00 0.  1.
          2   -1    0    0  501    0  0.00000000000E+00 -0.00000000000E+00 -0.58110080881E+03  0.58110080881E+03  0.00000000000E+00 0. -1.
         23    2    1    2    0    0  0.15520584716E+02 -0.11286088843E+03 -0.19587460056E+03  0.24405054116E+03  0.90638506202E+02 0.  0.
          5    1    1    2  502    0 -0.21241462554E+01  0.60655686868E+02 -0.35592092580E+02  0.70483287388E+02  0.41800000000E+01 0. -1.
         -5    1    1    2    0  502 -0.13396438461E+02  0.52205201560E+02 -0.30572930905E+03  0.31047178687E+03  0.41800000000E+01 0. -1.
        -11    1    3    3    0    0  0.17656414442E+02 -0.20153722764E+02 -0.12362556849E+03  0.12649586039E+03  0.00000000000E+00 0. -1.
         11    1    3    3    0    0 -0.21358297258E+01 -0.92707165665E+02 -0.72249032077E+02  0.11755468077E+03  0.00000000000E+00 0.  1.
</event>
<event>
 7    1  0.6684706E-006  0.1031739E+03  0.7561462E-02  0.1273760E+00
          2   -1    0    0  501    0  0.00000000000E+00  0.00000000000E+00  0.54077830869E+03  0.54077830869E+03  0.00000000000E+00 0. -1.
         -2   -1    0    0    0  501 -0.00000000000E+00 -0.00000000000E+00 -0.20839336195E+02  0.20839336195E+02  0.00000000000E+00 0.  1.
         23    2    1    2    0    0 -0.19893960294E+01  0.41382089485E+02  0.19534223252E+03  0.21129424785E+03  0.69066897577E+02 0.  0.
          5    1    1    2  502    0 -0.37717706123E+02  0.27635396082E+02  0.76769471962E+02  0.89985358237E+02  0.41800000000E+01 0. -1.
         -5    1    1    2    0  502  0.39707102152E+02 -0.69017485567E+02  0.24782726801E+03  0.26033803880E+03  0.41800000000E+01 0. -1.
        -11    1    3    3    0    0 -0.29122341928E+02 -0.12338479037E+01  0.86972960692E+02  0.91727471739E+02  0.00000000000E+00 0. -1.
         11    1    3    3    0    0  0.27132945898E+02  0.42615937388E+02  0.10836927183E+03  0.11956677611E+03  0.00000000000E+00 0.  1.
</event>
<event>
 7    1  0.6779406E-006  0.1335717E+03  0.7561462E-02  0.1222250E+00
         -2   -1    0    0    0  501 -0.00000000000E+00  0.00000000000E+00  0.25569213548E+03  0.25569213548E+03  0.00000000000E+00 0.  1.
          2   -1    0    0  501    0  0.00000000000E+00 -0.00000000000E+00 -0.10559281614E+03  0.10559281614E+03  0.00000000000E+00 0. -1.
         23    2    1    2    0    0  0.45171711715E+02  0.10829373881E+03  0.11652892999E+03  0.18652060900E+03  0.86272409569E+02 0.  0.
          5    1    1    2  502    0  0.11903985793E+02 -0.75977375665E+02  0.66043734080E+02  0.10145695492E+03  0.41800000000E+01 0.  1.
         -5    1    1    2    0  502 -0.57075697508E+02 -0.32316363141E+02 -0.32473344726E+02  0.73307387693E+02  0.41800000000E+01 0.  1.
        -11    1    3    3    0    0  0.25101553109E+02  0.99275605407E+02  0.12617256147E+03  0.16249692017E+03  0.00000000000E+00 0.  1.
         11    1    3    3    0    0  0.20070158607E+02  0.90181333989E+01 -0.96436314845E+01  0.24023688824E+02  0.00000000000E+00 0. -1.
</event>
<event>
 7    1  0.6684706E-006  0.2304194E+03  0.7561462E-02  0.1126345E+00
         -2   -1    0    0    0  501 -0.00000000000E+00  0.00000000000E+00  0.77694627305E+03  0.77694627305E+03  0.00000000000E+00 0.  1.
          2   -1    0    0  501    0  0.00000000000E+00 -0.00000000000E+00 -0.75617196744E+02  0.75617196744E+02  0.00000000000E+00 0. -1.
         23    2    1    2    0    0  0.13209615834E+03 -0.16623906597E+03  0.41239820315E+03  0.47280915152E+03  0.91604550640E+02 0.  0.
          5    1    1    2  502    0 -0.28394076800E+02  0.10774354477E+03  0.20714446742E+03  0.23524709949E+03  0.41800000000E+01 0.  1.
         -5    1    1    2    0  502 -0.10370208154E+03  0.58495521204E+02  0.81786405728E+02  0.14450721878E+03  0.41800000000E+01 0.  1.
        -11    1    3    3    0    0  0.63691798255E+02 -0.14532964802E+03  0.30436407378E+03  0.34324166584E+03  0.00000000000E+00 0.  1.
         11    1    3    3    0    0  0.68404360085E+02 -0.20909417947E+02  0.10803412937E+03  0.12956748569E+03  0.00000000000E+00 0. -1.
</event>
<event>
 7    1  0.6684706E-006  0.1180910E+03  0.7561462E-02  0.1246280E+00
         -1   -1    0    0    0  501 -0.00000000000E+00  0.00000000000E+00  0.24905298644E+02  0.24905298644E+02  0.00000000000E+00 0.  1.
          1   -1    0    0  501    0  0.00000000000E+00 -0.00000000000E+00 -0.88111503903E+03  0.88111503903E+03  0.00000000000E+00 0. -1.
         23    2    1    2    0    0  0.83926197586E+02 -0.26285182041E+02 -0.21787142301E+03  0.24962228114E+03  0.84313752397E+02 0.  0.
          5    1    1    2  502    0 -0.28046639145E+01  0.37662165594E+02 -0.52289172146E+02  0.64636945941E+02  0.41800000000E+01 0.  1.
         -5    1    1    2    0  502 -0.81121533672E+02 -0.11376983553E+02 -0.58604914523E+03  0.59176111059E+03  0.41800000000E+01 0.  1.
        -11    1    3    3    0    0  0.70421263662E+02  0.15622243979E+02 -0.16951305197E+03  0.18422237560E+03  0.00000000000E+00 0. -1.
         11    1    3    3    0    0  0.13504933925E+02 -0.41907426019E+02 -0.48358371038E+02  0.65399905545E+02  0.00000000000E+00 0.  1.
</event>
<event>
 6    1  0.6684706E-006  0.1668029E+03  0.7561462E-02  0.1181224E+00
         -2   -1    0    0    0  501 -0.00000000000E+00  0.00000000000E+00  0.34206327092E+02  0.34206327092E+02  0.00000000000E+00 0.  1.
          2   -1    0    0  501    0  0.00000000000E+00 -0.00000000000E+00 -0.10421380733E+04  0.10421380733E+04  0.00000000000E+00 0. -1.
          5    1    1    2  502    0 -0.13258611665E+03 -0.31008135557E+02 -0.67210515122E+03  0.68577211193E+03  0.41800000000E+01 0. -1.
         -5    1    1    2    0  502  0.15064808038E+03  0.58487999448E+02 -0.29444114705E+03  0.33589991319E+03  0.41800000000E+01 0.  1.
        -11    1    1    2    0    0 -0.13859693340E+02 -0.84513022266E+01 -0.18338939460E+02  0.24491474217E+02  0.00000000000E+00 0.  1.
         11    1    1    2    0    0 -0.42022703899E+01 -0.19028561665E+02 -0.23046508450E+02  0.30180901034E+02  0.00000000000E+00 0. -1.
</event>
<event>
 7    1  0.6684706E-006  0.1325832E+03  0.7561462E-02  0.1223672E+00
         -2   -1    0    0    0  501 -0.00000000000E+00  0.00000000000E+00  0.43567301238E+02  0.43567301238E+02  0.00000000000E+00 0.  1.
          2   -1    0    0  501    0  0.00000000000E+00 -0.00000000000E+00 -0.70026101798E+03  0.70026101798E+03  0.00000000000E+00 0. -1.
         23    2    1    2    0    0 -0.91068277654E+02  0.66143685757E+02 -0.14484275645E+03  0.20502689618E+03  0.91587038938E+02 0.  0.
          5    1    1    2  502    0  0.76593175548E+02 -0.23794514993E+02 -0.47183257353E+03  0.47861899599E+03  0.41800000000E+01 0. -1.
         -5    1    1    2    0  502  0.14475102106E+02 -0.42349170764E+02 -0.40018386759E+02  0.60182427038E+02  0.41800000000E+01 0. -1.
        -11    1    3    3    0    0 -0.50498198902E+02 -0.11957168185E+02 -0.28689928701E+02  0.59297166646E+02  0.00000000000E+00 0.  1.
         11    1    3    3    0    0 -0.40570078752E+02  0.78100853942E+02 -0.11615282775E+03  0.14572972954E+03  0.00000000000E+00 0. -1.
</event>
<event>
 7    1  0.6684706E-006  0.1360752E+03  0.7561462E-02  0.1218710E+00
         -4   -1    0    0    0  501 -0.00000000000E+00  0.00000000000E+00  0.45046034045E+03  0.45046034045E+03  0.00000000000E+00 0. -1.
          4   -1    0    0  501    0  0.00000000000E+00 -0.00000000000E+00 -0.47884966780E+02  0.47884966780E+02  0.00000000000E+00 0.  1.
         23    2    1    2    0    0 -0.10142702612E+02  0.90243608590E+02  0.25084546292E+03  0.28174281499E+03  0.90602341171E+02 0.  0.
          5    1    1    2  502    0  0.59828004476E+02 -0.77060971344E+02  0.12467198843E+03  0.15836148687E+03  0.41800000000E+01 0. -1.
         -5    1    1    2    0  502 -0.49685301864E+02 -0.13182637247E+02  0.27057922322E+02  0.58241005370E+02  0.41800000000E+01 0. -1.
        -11    1    3    3    0    0  0.19722278536E+02  0.90940563616E+02  0.14957812645E+03  0.17616120541E+03  0.00000000000E+00 0.  1.
         11    1    3    3    0    0 -0.29864981148E+02 -0.69695502536E+00  0.10126733647E+03  0.10558160958E+03  0.00000000000E+00 0. -1.
</event>
<event>
 7    1  0.6684706E-006  0.1267880E+03  0.7561462E-02  0.1232301E+00
         -1   -1    0    0    0  501 -0.00000000000E+00  0.00000000000E+00  0.55410833014E+03  0.55410833014E+03  0.00000000000E+00 0.  1.
          1   -1    0    0  501    0  0.00000000000E+00 -0.00000000000E+00 -0.43821292024E+02  0.43821292024E+02  0.00000000000E+00 0. -1.
         23    2    1    2    0    0  0.13626354470E+02  0.95804210294E+02  0.34212315396E+03  0.36708533837E+03  0.91319597690E+02 0.  0.
          5    1    1    2  502    0 -0.24875169318E+02  0.17013965384E+02  0.84692242100E+02  0.89991651494E+02  0.41800000000E+01 0.  1.
         -5    1    1    2    0  502  0.11248814849E+02 -0.11281817568E+03  0.83471642052E+02  0.14085263230E+03  0.41800000000E+01 0.  1.
        -11    1    3    3    0    0 -0.17150107266E+02  0.13501785373E+02  0.10884995543E+02  0.24390726014E+02  0.00000000000E+00 0.  1.
         11    1    3    3    0    0  0.30776461736E+02  0.82302424921E+02  0.33123815842E+03  0.34269461236E+03  0.00000000000E+00 0. -1.
</event>
<event>
 7    1  0.6684706E-006  0.9766872E+02  0.7561462E-02  0.1285276E+00
         -1   -1    0    0    0  501 -0.00000000000E+00  0.00000000000E+00  0.27226042340E+03  0.27226042340E+03  0.00000000000E+00 0.  1.
          1   -1    0    0  501    0  0.00000000000E+00 -0.00000000000E+00 -0.66257681832E+02  0.66257681832E+02  0.00000000000E+00 0. -1.
         23    2    1    2    0    0 -0.50643129113E+02 -0.46741560721E+02  0.16120488357E+03  0.18883909993E+03  0.70169018461E+02 0.  0.
          5    1    1    2  502    0  0.98516825252E+01 -0.28999742258E+02  0.54855133733E+02  0.62965060124E+02  0.41800000000E+01 0.  1.
         -5    1    1    2    0  502  0.40791446588E+02  0.75741302978E+02 -0.10057275739E+02  0.86713945170E+02  0.41800000000E+01 0.  1.
        -11    1    3    3    0    0 -0.48886589448E+00 -0.22652916451E+02  0.52529155098E+01  0.23259121543E+02  0.00000000000E+00 0. -1.
         11    1    3    3    0    0 -0.50154263219E+02 -0.24088644269E+02  0.15595196806E+03  0.16557997839E+03  0.00000000000E+00 0.  1.
</event>
<event>
 7    1  0.6684706E-006  0.2220648E+03  0.7561462E-02  0.1132353E+00
          1   -1    0    0  501    0  0.00000000000E+00  0.00000000000E+00  0.18051584641E+03  0.18051584641E+03  0.00000000000E+00 0. -1.
         -1   -1    0    0    0  501 -0.00000000000E+00 -0.00000000000E+00 -0.31849700789E+03  0.31849700789E+03  0.00000000000E+00 0.  1.
         23    2    1    2    0    0 -0.72497136389E+02 -0.18736505310E+03 -0.14158987902E+03  0.26231741956E+03  0.91658261239E+02 0.  0.
          5    1    1    2  502    0 -0.19297706804E+02  0.12126489183E+03  0.10372865763E+02  0.12329900333E+03  0.41800000000E+01 0. -1.
         -5    1    1    2    0  502  0.91794843193E+02  0.66100161279E+02 -0.67641482220E+01  0.11339643142E+03  0.41800000000E+01 0. -1.
        -11    1    3    3    0    0 -0.49510141657E+02 -0.17520894165E+03 -0.14901339770E+03  0.23527520067E+03  0.00000000000E+00 0.  1.
         11    1    3    3    0    0 -0.22986994732E+02 -0.12156111458E+02  0.74235186761E+01  0.27042218883E+02  0.00000000000E+00 0. -1.
</event>
<event>
 7    1  0.6684706E-006  0.9518063E+02  0.7561462E-02  0.1290770E+00
          2   -1    0    0  501    0  0.00000000000E+00  0.00000000000E+00  0.23453445539E+03  0.23453445539E+03  0.00000000000E+00 0. -1.
         -2   -1    0    0    0  501 -0.00000000000E+00 -0.00000000000E+00 -0.79480903063E+02  0.79480903063E+02  0.00000000000E+00 0.  1.
         23    2    1    2    0    0 -0.13988003420E+02 -0.14412691086E+02 -0.22214745437E+02  0.96125662747E+02  0.91341437583E+02 0.  0.
          5    1    1    2  502    0  0.25238594712E+02  0.52321881459E+02  0.30328615593E+02  0.65664779496E+02  0.41800000000E+01 0. -1.
         -5    1    1    2    0  502 -0.11250591293E+02 -0.37909190373E+02  0.14693968217E+03  0.15222491621E+03  0.41800000000E+01 0. -1.
        -11    1    3    3    0    0  0.27469250730E+02 -0.36263680971E+02 -0.33778148182E+01  0.45618241156E+02  0.00000000000E+00 0. -1.
         11    1    3    3    0    0 -0.41457254150E+02  0.21850989885E+02 -0.18836930619E+02  0.50507421591E+02  0.00000000000E+00 0.  1.
</event>
<event>
 7    1  0.6684706E-006  0.9560183E+02  0.7561462E-02  0.1289826E+00
          2   -1    0    0  501    0  0.00000000000E+00  0.00000000000E+00  0.10665057957E+04  0.10665057957E+04  0.00000000000E+00 0. -1.
         -2   -1    0    0    0  501 -0.00000000000E+00 -0.00000000000E+00 -0.12529904820E+02  0.12529904820E+02  0.00000000000E+00 0.  1.
         23    2    1    2    0    0  0.15211484846E+01 -0.35995733518E+02  0.31754442481E+03  0.33187419446E+03  0.89487499106E+02 0.  0.
          5    1    1    2  502    0  0.34665246109E+01 -0.29169402158E+02  0.52458560166E+03  0.52542401609E+03  0.41800000000E+01 0. -1.
         -5    1    1    2    0  502 -0.49876730955E+01  0.65165135676E+02  0.21184586441E+03  0.22173748997E+03  0.41800000000E+01 0.  1.
        -11    1    3    3    0    0  0.25607761267E+02 -0.58011224911E+02  0.22393552672E+03  0.23274058473E+03  0.00000000000E+00 0. -1.
         11    1    3    3    0    0 -0.24086612782E+02  0.22015491393E+02  0.93608898093E+02  0.99133609733E+02  0.00000000000E+00 0.  1.
</event>
<event>
 7    1  0.6684706E-006  0.1105929E+03  0.7561462E-02  0.1259476E+00
          2   -1    0    0  501    0  0.00000000000E+00  0.00000000000E+00  0.12927277610E+04  0.12927277610E+04  0.00000000000E+00 0. -1.
         -2   -1    0    0    0  501 -0.00000000000E+00 -0.00000000000E+00 -0.12488111569E+02  0.12488111569E+02  0.00000000000E+00 0.  1.
         23    2    1    2    0    0 -0.79619358709E+01  0.38930922177E+02  0.33365524894E+03  0.34957531658E+03  0.96426488557E+02 0.  0.
          5    1    1    2  502    0 -0.50168875532E+02  0.93182383923E+01  0.50845164616E+03  0.51102279257E+03  0.41800000000E+01 0. -1.
         -5    1    1    2    0  502  0.58130811403E+02 -0.48249160569E+02  0.43813275432E+03  0.44461776341E+03  0.41800000000E+01 0. -1.
        -11    1    3    3    0    0 -0.42979949777E+02  0.14095950915E+01  0.22911797506E+03  0.23311865978E+03  0.00000000000E+00 0. -1.
         11    1    3    3    0    0  0.35018013906E+02  0.37521327085E+02  0.10453727387E+03  0.11645665680E+03  0.00000000000E+00 0.  1.
</event>
<event>
 7    1  0.6684706E-006  0.1231051E+03  0.7561462E-02  0.1238061E+00
          1   -1    0    0  501    0  0.00000000000E+00  0.00000000000E+00  0.93848512902E+02  0.93848512902E+02  0.00000000000E+00 0. -1.
         -1   -1    0    0    0  501 -0.00000000000E+00 -0.00000000000E+00 -0.21960957112E+03  0.21960957112E+03  0.00000000000E+00 0.  1.
         23    2    1    2    0    0  0.11325706630E+02 -0.56436139344E+02 -0.12197100932E+03  0.16391576720E+03  0.93156546565E+02 0.  0.
          5    1    1    2  502    0 -0.41138988088E+02 -0.26084270819E+02  0.27743141396E+02  0.56213519900E+02  0.41800000000E+01 0. -1.
         -5    1    1    2    0  502  0.29813281458E+02  0.82520410163E+02 -0.31533190295E+02  0.93328796922E+02  0.41800000000E+01 0.  1.
        -11    1    3    3    0    0 -0.15452451409E+02 -0.75206645107E+02 -0.87163167660E+02  0.11615608258E+03  0.00000000000E+00 0.  1.
         11    1    3    3    0    0  0.26778158039E+02  0.18770505763E+02 -0.34807841660E+02  0.47759684626E+02  0.00000000000E+00 0. -1.
</event>
<event>
 7    1  0.6684706E-006  0.1648138E+03  0.7561462E-02  0.1183367E+00
          1   -1    0    0  501    0  0.00000000000E+00  0.00000000000E+00  0.11521522525E+04  0.11521522525E+04  0.00000000000E+00 0. -1.
         -1   -1    0    0    0  501 -0.00000000000E+00 -0.00000000000E+00 -0.24034470215E+02  0.24034470215E+02  0.00000000000E+00 0.  1.
         23    2    1    2    0    0 -0.11325845340E+03  0.37666569947E+02  0.44521209936E+03  0.47018793229E+03  0.92825807293E+02 0.  0.
          5    1    1    2  502    0 -0.30436655285E+02 -0.55604546318E+01  0.99358545384E+02  0.10414845933E+03  0.41800000000E+01 0. -1.
         -5    1    1    2    0  502  0.14369510868E+03 -0.32106115315E+02  0.58354713751E+03  0.60185033106E+03  0.41800000000E+01 0.  1.
        -11    1    3    3    0    0  0.16539003842E+02  0.39904143008E+01  0.55652224914E+02  0.58194778049E+02  0.00000000000E+00 0.  1.
         11    1    3    3    0    0 -0.12979745724E+03  0.33676155646E+02  0.38955987445E+03  0.41199315424E+03  0.00000000000E+00 0. -1.
</event>
<event>
 7    1  0.6684706E-006  0.1127838E+03  0.7561462E-02  0.1255500E+00
         -2   -1    0    0    0  501 -0.00000000000E+00  0.00000000000E+00  0.21913621464E+02  0.21913621464E+02  0.00000000000E+00 0.  1.
          2   -1    0    0  501    0  0.00000000000E+00 -0.00000000000E+00 -0.61142082006E+03  0.61142082006E+03  0.00000000000E+00 0. -1.
         23    2    1    2    0    0 -0.61562055431E+02 -0.60404992422E+01 -0.20689966727E+03  0.22808965747E+03  0.73423737494E+02 0.  0.
          5    1    1    2  502    0  0.46341910502E+02  0.60768117478E+02 -0.22495800469E+03  0.23762136487E+03  0.41800000000E+01 0. -1.
         -5    1    1    2    0  502  0.15220144929E+02 -0.54727618236E+02 -0.15764952663E+03  0.16762341918E+03  0.41800000000E+01 0.  1.
        -11    1    3    3    0    0  0.11066426312E+02 -0.15272227960E+02 -0.20647545037E+02  0.27964760937E+02  0.00000000000E+00 0. -1.
         11    1    3    3    0    0 -0.72628481743E+02  0.92317287183E+01 -0.18625212223E+03  0.20012489653E+03  0.00000000000E+00 0.  1.
</event>
<event>
 7    1  0.6684706E-006  0.9709785E+02  0.7561462E-02  0.1286520E+00
         -1   -1    0    0    0  501 -0.00000000000E+00  0.00000000000E+00  0.11886840392E+03  0.11886840392E+03  0.00000000000E+00 0.  1.
          1   -1    0    0  501    0  0.00000000000E+00 -0.00000000000E+00 -0.60111158054E+03  0.60111158054E+03  0.00000000000E+00 0. -1.
         23    2    1    2    0    0 -0.26522482128E+02  0.14431410822E+02  0.91367529303E+02  0.13295636760E+03  0.91747820673E+02 0.  0.
          5    1    1    2  502    0  0.47383264185E+02  0.39130350820E+02 -0.20903691157E+03  0.21792260295E+03  0.41800000000E+01 0. -1.
         -5    1    1    2    0  502 -0.20860782057E+02 -0.53561761642E+02 -0.36457379435E+03  0.36910101390E+03  0.41800000000E+01 0.  1.
        -11    1    3    3    0    0  0.23365251158E+02  0.13983989941E+01  0.75443746647E+02  0.78991451371E+02  0.00000000000E+00 0.  1.
         11    1    3    3    0    0 -0.49887733286E+02  0.13033011828E+02  0.15923782655E+02  0.53964916231E+02  0.00000000000E+00 0. -1.
</event>
<event>
 7    1  0.6684706E-006  0.1411237E+03  0.7561462E-02  0.1211825E+00
          1   -1    0    0  501    0  0.00000000000E+00  0.00000000000E+00  0.55338083082E+03  0.55338083082E+03  0.00000000000E+00 0. -1.
         -1   -1    0    0    0  501 -0.00000000000E+00 -0.00000000000E+00 -0.77029877926E+02  0.77029877926E+02  0.00000000000E+00 0.  1.
         23    2    1    2    0    0 -0.21111625129E+01  0.10188265882E+03  0.70006547684E+01  0.13410336882E+03  0.86891721055E+02 0.  0.
          5    1    1    2  502    0  0.35983091851E+02  0.58806712639E+01  0.21303558769E+03  0.21617353959E+03  0.41800000000E+01 0.  1.
         -5    1    1    2    0  502 -0.33871929338E+02 -0.10776333008E+03  0.25631471043E+03  0.28013380034E+03  0.41800000000E+01 0.  1.
        -11    1    3    3    0    0 -0.37001339410E+02  0.16967891194E+02  0.11151773606E+02  0.42206285127E+02  0.00000000000E+00 0. -1.
         11    1    3    3    0    0  0.34890176897E+02  0.84914767623E+02 -0.41511188377E+01  0.91897083696E+02  0.00000000000E+00 0.  1.
</event>
<event>
 7    1  0.6684706E-006  0.1205615E+03  0.7561462E-02  0.1242174E+00
         -2   -1    0    0    0  501 -0.00000000000E+00  0.00000000000E+00  0.20766201790E+02  0.20766201790E+02  0.00000000000E+00 0.  1.
          2   -1    0    0  501    0  0.00000000000E+00 -0.00000000000E+00 -0.87194930558E+03  0.87194930558E+03  0.00000000000E+00 0. -1.
         23    2    1    2    0    0 -0.62682297426E+02  0.15332752058E+02 -0.20947963543E+03  0.23575600608E+03  0.86804452898E+02 0.  0.
          5    1    1    2  502    0  0.18629628635E+02 -0.67975912187E+02 -0.37086839329E+03  0.37752963492E+03  0.41800000000E+01 0. -1.
         -5    1    1    2    0  502  0.44052668791E+02  0.52643160129E+02 -0.27083507506E+03  0.27942986637E+03  0.41800000000E+01 0. -1.
        -11    1    3    3    0    0  0.12359343441E+02  0.23206275519E+02 -0.95585888170E+02  0.99136000580E+02  0.00000000000E+00 0. -1.
         11    1    3    3    0    0 -0.75041640868E+02 -0.78735234610E+01 -0.11389374726E+03  0.13662000550E+03  0.00000000000E+00 0.  1.
</event>
<event>
 7    1  0.6684706E-006  0.1032066E+03  0.7561462E-02  0.1273694E+00
         -1   -1    0    0    0  501 -0.00000000000E+00  0.00000000000E+00  0.52861532923E+02  0.52861532923E+02  0.00000000000E+00 0.  1.
          1   -1    0    0  501    0  0.00000000000E+00 -0.00000000000E+00 -0.26347909287E+03  0.26347909287E+03  0.00000000000E+00 0. -1.
         23    2    1    2    0    0  0.13839522796E+01 -0.24436974215E+02 -0.35810380342E+02  0.99998662293E+02  0.90101432216E+02 0.  0.
          5    1    1    2  502    0  0.48352555703E+02 -0.26587141105E+02 -0.88062283425E+02  0.10400617230E+03  0.41800000000E+01 0. -1.
         -5    1    1    2    0  502 -0.49736507983E+02  0.51024115320E+02 -0.86744896175E+02  0.11233579119E+03  0.41800000000E+01 0. -1.
        -11    1    3    3    0    0  0.32316844656E+02  0.95926142829E+01  0.99243103830E+01  0.35140982255E+02  0.00000000000E+00 0.  1.
         11    1    3    3    0    0 -0.30932892376E+02 -0.34029588498E+02 -0.45734690725E+02  0.64857680038E+02  0.00000000000E+00 0. -1.
</event>
<event>
 7    1  0.6684706E-006  0.1069206E+03  0.7561462E-02  0.1266381E+00
         -2   -1    0    0    0  501 -0.00000000000E+00  0.00000000000E+00  0.30764692530E+02  0.30764692530E+02  0.00000000000E+00 0.  1.
          2   -1    0    0  501    0  0.00000000000E+00 -0.00000000000E+00 -0.59930807973E+03  0.59930807973E+03  0.00000000000E+00 0. -1.
         23    2    1    2    0    0 -0.45699962112E+02  0.35941705219E+02 -0.13417868751E+03  0.17433123624E+03  0.94906095892E+02 0.  0.
          5    1    1    2  502    0  0.12493511614E+02  0.46338866260E+02 -0.17897164680E+03  0.18534211911E+03  0.41800000000E+01 0.  1.
         -5    1    1    2    0  502  0.33206450498E+02 -0.82280571478E+02 -0.25539305290E+03  0.27039941691E+03  0.41800000000E+01 0.  1.
        -11    1    3    3    0    0  0.22626580634E+01  0.28158139599E+02  0.33729978198E+01  0.28449561710E+02  0.00000000000E+00 0.  1.
         11    1    3    3    0    0 -0.47962620175E+02  0.77835656193E+01 -0.13755168533E+03  0.14588167453E+03  0.00000000000E+00 0. -1.
</event>
<event>
 7    1  0.6684706E-006  0.9070458E+02  0.7561462E-02  0.1301154E+00
          1   -1    0    0  501    0  0.00000000000E+00  0.00000000000E+00  0.13991838180E+03  0.13991838180E+03  0.00000000000E+00 0. -1.
         -1   -1    0    0    0  501 -0.00000000000E+00 -0.00000000000E+00 -0.17630987303E+03  0.17630987303E+03  0.00000000000E+00 0.  1.
         23    2    1    2    0    0 -0.23539997242E+01 -0.49006621449E+02 -0.11880260326E+03  0.15860143999E+03  0.92914842538E+02 0.  0.
          5    1    1    2  502    0 -0.59716682713E+01  0.74002561763E+02  0.36269272860E+01  0.74449089793E+02  0.41800000000E+01 0. -1.
         -5    1    1    2    0  502  0.83256679954E+01 -0.24995940314E+02  0.78784184744E+02  0.83177725056E+02  0.41800000000E+01 0. -1.
        -11    1    3    3    0    0 -0.30030488426E+02 -0.42333428952E+02 -0.11932761686E+03  0.13012697486E+03  0.00000000000E+00 0.  1.
         11    1    3    3    0    0  0.27676488702E+02 -0.66731924966E+01  0.52501359429E+00  0.28474465126E+02  0.00000000000E+00 0. -1.
</event>
<event>
 7    1  0.6684706E-006  0.1180619E+03  0.7561462E-02  0.1246329E+00
         -2   -1    0    0    0  501 -0.00000000000E+00  0.00000000000E+00  0.25532382946E+02  0.25532382946E+02  0.00000000000E+00 0.  1.
          2   -1    0    0  501    0  0.00000000000E+00 -0.00000000000E+00 -0.59046755274E+03  0.59046755274E+03  0.00000000000E+00 0. -1.
         23    2    1    2    0    0 -0.17066827975E+02  0.53354588736E+02 -0.19201604021E+03  0.21869170767E+03  0.88418971675E+02 0.  0.
          5    1    1    2  502    0  0.41514328057E+02  0.28200964159E+02 -0.16742256026E+03  0.17483283415E+03  0.41800000000E+01 0. -1.
         -5    1    1    2    0  502 -0.24447500082E+02 -0.81555552895E+02 -0.20549656933E+03  0.22247539387E+03  0.41800000000E+01 0. -1.
        -11    1    3    3    0    0 -0.28057706376E+02 -0.14636421003E+02 -0.91709984766E+02  0.97016395587E+02  0.00000000000E+00 0.  1.
         11    1    3    3    0    0  0.10990878401E+02  0.67991009739E+02 -0.10030605544E+03  0.12167531209E+03  0.00000000000E+00 0. -1.
</event>
<event>
 7    1  0.6684706E-006  0.1067760E+03  0.7561462E-02  0.1266659E+00
         -1   -1    0    0    0  501 -0.00000000000E+00  0.00000000000E+00  0.68554248523E+02  0.68554248523E+02  0.00000000000E+00 0.  1.
          1   -1    0    0  501    0  0.00000000000E+00 -0.00000000000E+00 -0.19757334614E+03  0.19757334614E+03  0.00000000000E+00 0. -1.
         23    2    1    2    0    0  0.23870242702E+02 -0.29429034365E+02 -0.36731425523E+02  0.10612696847E+03  0.92075399895E+02 0.  0.
          5    1    1    2  502    0 -0.69688739547E+01  0.74938190023E+02 -0.79649815781E+02  0.10966249624E+03  0.41800000000E+01 0.  1.
         -5    1    1    2    0  502 -0.16901368747E+02 -0.45509155659E+02 -0.12637856308E+02  0.50338129945E+02  0.41800000000E+01 0.  1.
        -11    1    3    3    0    0 -0.12207294744E+02 -0.47538609009E+02 -0.43027866961E+02  0.65271239660E+02  0.00000000000E+00 0. -1.
         11    1    3    3    0    0  0.36077537446E+02  0.18109574645E+02  0.62964414379E+01  0.40855728812E+02  0.00000000000E+00 0.  1.
</event>
<event>
 7    1  0.6684706E-006  0.1095690E+03  0.7561462E-02  0.1261370E+00
          2   -1    0    0  501    0  0.00000000000E+00  0.00000000000E+00  0.11228515397E+04  0.11228515397E+04  0.00000000000E+00 0. -1.
         -2   -1    0    0    0  501 -0.00000000000E+00 -0.00000000000E+00 -0.15278192076E+02  0.15278192076E+02  0.00000000000E+00 0.  1.
         23    2    1    2    0    0 -0.55643728663E+02 -0.14422015060E+02  0.27499254005E+03  0.29424649108E+03  0.87497893525E+02 0.  0.
          5    1    1    2  502    0  0.85565588041E+02 -0.31931284141E+01  0.36231510695E+03  0.37231891578E+03  0.41800000000E+01 0. -1.
         -5    1    1    2    0  502 -0.29921859378E+02  0.17615143474E+02  0.47026570062E+03  0.47156432491E+03  0.41800000000E+01 0. -1.
        -11    1    3    3    0    0  0.75207063210E+01  0.23561660553E+02  0.12128243148E+03  0.12377859693E+03  0.00000000000E+00 0. -1.
         11    1    3    3    0    0 -0.63164434984E+02 -0.37983675613E+02  0.15371010857E+03  0.17046789415E+03  0.00000000000E+00 0.  1.
</event>
<event>
 7    1  0.6684706E-006  0.1433975E+03  0.7561462E-02  0.1208829E+00
         -2   -1    0    0    0  501 -0.00000000000E+00  0.00000000000E+00  0.16070372710E+02  0.16070372710E+02  0.00000000000E+00 0. -1.
          2   -1    0    0  501    0  0.00000000000E+00 -0.00000000000E+00 -0.20241454632E+04  0.20241454632E+04  0.00000000000E+00 0.  1.
         23    2    1    2    0    0  0.39899583408E+01  0.12539990282E+03 -0.55884830123E+03  0.58019979954E+03  0.92624663041E+02 0.  0.
          5    1    1    2  502    0 -0.46035685155E+02 -0.45076980314E+02 -0.28339483552E+03  0.29065671102E+03  0.41800000000E+01 0.  1.
         -5    1    1    2    0  502  0.42045726814E+02 -0.80322922503E+02 -0.11658319537E+04  0.11693593253E+04  0.41800000000E+01 0.  1.
        -11    1    3    3    0    0 -0.15326492416E+02  0.88537861740E+02 -0.50066934075E+03  0.50866850020E+03  0.00000000000E+00 0.  1.
         11    1    3    3    0    0  0.19316450757E+02  0.36862041077E+02 -0.58178960480E+02  0.71531299336E+02  0.00000000000E+00 0. -1.
</event>
<event>
 7    1  0.6684706E-006  0.1714506E+03  0.7561462E-02  0.1176343E+00
         -1   -1    0    0    0  501 -0.00000000000E+00  0.00000000000E+00  0.27458054243E+03  0.27458054243E+03  0.00000000000E+00 0.  1.
          1   -1    0    0  501    0  0.00000000000E+00 -0.00000000000E+00 -0.12181319956E+03  0.12181319956E+03  0.00000000000E+00 0. -1.
         23    2    1    2    0    0  0.80612872927E+02 -0.12177204639E+03  0.91747961361E+02  0.19465866584E+03  0.90263177479E+02 0.  0.
          5    1    1    2  502    0  0.31713728252E+02  0.37281671027E+02  0.30567333287E+02  0.57857737759E+02  0.41800000000E+01 0. -1.
         -5    1    1    2    0  502 -0.11232660118E+03  0.84490375364E+02  0.30452048225E+02  0.14387733839E+03  0.41800000000E+01 0. -1.
        -11    1    3    3    0    0  0.33541436890E+02 -0.15541018618E+02 -0.12023116356E+02  0.38872954290E+02  0.00000000000E+00 0. -1.
         11    1    3    3    0    0  0.47071436037E+02 -0.10623102777E+03  0.10377107772E+03  0.15578571155E+03  0.00000000000E+00 0.  1.
</event>
<event>
 7    1  0.6684706E-006  0.1034231E+03  0.7561462E-02  0.1273258E+00
          1   -1    0    0  501    0  0.00000000000E+00  0.00000000000E+00  0.37305323082E+03  0.37305323082E+03  0.00000000000E+00 0. -1.
         -1   -1    0    0    0  501 -0.00000000000E+00 -0.00000000000E+00 -0.33339084645E+02  0.33339084645E+02  0.00000000000E+00 0.  1.
         23    2    1    2    0    0 -0.27736119894E+02  0.46977538744E+01  0.12202588217E+03  0.15476431222E+03  0.90941273241E+02 0.  0.
          5    1    1    2  502    0  0.38434693337E+02 -0.57362261518E+02  0.94042953901E+02  0.11674418305E+03  0.41800000000E+01 0. -1.
         -5    1    1    2    0  502 -0.10698573443E+02  0.52664507643E+02  0.12364531010E+03  0.13488382019E+03  0.41800000000E+01 0.  1.
        -11    1    3    3    0    0 -0.52100164113E+02 -0.12949559564E+02  0.10993248702E+03  0.12234079408E+03  0.00000000000E+00 0.  1.
         11    1    3    3    0    0  0.24364044219E+02  0.17647313438E+02  0.12093395152E+02  0.32423518140E+02  0.00000000000E+00 0. -1.
</event>
<event>
 7    1  0.6684706E-006  0.3004853E+03  0.7561462E-02  0.1084998E+00
          1   -1    0    0  501    0  0.00000000000E+00  0.00000000000E+00  0.34776369454E+03  0.34776369454E+03  0.00000000000E+00 0. -1.
         -1   -1    0    0    0  501 -0.00000000000E+00 -0.00000000000E+00 -0.28824137098E+03  0.28824137098E+03  0.00000000000E+00 0.  1.
         23    2    1    2    0    0 -0.12100420489E+03 -0.25434624001E+03 -0.65710158115E+02  0.30334194250E+03  0.91457540947E+02 0.  0.
          5    1    1    2  502    0 -0.15442711645E+02  0.92348424625E+02  0.58815906540E+02  0.11065031467E+03  0.41800000000E+01 0. -1.
         -5    1    1    2    0  502  0.13644691654E+03  0.16199781538E+03  0.66416575126E+02  0.22201280835E+03  0.41800000000E+01 0. -1.
        -11    1    3    3    0    0 -0.13528125100E+03 -0.22085998125E+03 -0.64548127279E+02  0.26692060416E+03  0.00000000000E+00 0. -1.
         11    1    3    3    0    0  0.14277046110E+02 -0.33486258751E+02 -0.11620308362E+01  0.36421338340E+02  0.00000000000E+00 0.  1.
</event>
<event>
 7    1  0.6684706E-006  0.1186565E+03  0.7561462E-02  0.1245330E+00
          2   -1    0    0  501    0  0.00000000000E+00  0.00000000000E+00  0.89871820695E+03  0.89871820695E+03  0.00000000000E+00 0. -1.
         -2   -1    0    0    0  501 -0.00000000000E+00 -0.00000000000E+00 -0.21117117263E+02  0.21117117263E+02  0.00000000000E+00 0.  1.
         23    2    1    2    0    0 -0.83365050522E+02  0.15838322130E+02  0.37095713759E+03  0.39112378130E+03  0.90377155690E+02 0.  0.
          5    1    1    2  502    0  0.28076770614E+02  0.32630490008E+02  0.37810526068E+03  0.38057077460E+03  0.41800000000E+01 0.  1.
         -5    1    1    2    0  502  0.55288279908E+02 -0.48468812138E+02  0.12853869141E+03  0.14814076831E+03  0.41800000000E+01 0.  1.
        -11    1    3    3    0    0 -0.65383600286E+02  0.49666750024E+02  0.20565421452E+03  0.22143951137E+03  0.00000000000E+00 0. -1.
         11    1    3    3    0    0 -0.17981450237E+02 -0.33828427894E+02  0.16530292307E+03  0.16968426993E+03  0.00000000000E+00 0.  1.
</event>
<event>
 7    1  0.6684706E-006  0.1220736E+03  0.7561462E-02  0.1239715E+00
          1   -1    0    0  501    0  0.00000000000E+00  0.00000000000E+00  0.66280652874E+03  0.66280652874E+03  0.00000000000E+00 0. -1.
         -1   -1    0    0    0  501 -0.00000000000E+00 -0.00000000000E+00 -0.27624151995E+02  0.27624151995E+02  0.00000000000E+00 0.  1.
         23    2    1    2    0    0  0.34931304222E+02  0.49855026642E+02  0.15155505822E+03  0.18711018076E+03  0.91299312027E+02 0.  0.
          5    1    1    2  502    0 -0.56329407907E+02 -0.79594268154E+02  0.40317076428E+03  0.41481608852E+03  0.41800000000E+01 0.  1.
         -5    1    1    2    0  502  0.21398103685E+02  0.29739241512E+02  0.80456554236E+02  0.88504411452E+02  0.41800000000E+01 0.  1.
        -11    1    3    3    0    0 -0.11203324279E+02  0.61155981006E+02  0.82827620089E+02  0.10356632241E+03  0.00000000000E+00 0.  1.
         11    1    3    3    0    0  0.46134628501E+02 -0.11300954364E+02  0.68727438134E+02  0.83543858355E+02  0.00000000000E+00 0. -1.
</event>
<event>
 7    1  0.6684706E-006  0.2117389E+03  0.7561462E-02  0.1140196E+00
          2   -1    0    0  501    0  0.00000000000E+00  0.00000000000E+00  0.24538064601E+04  0.24538064601E+04  0.00000000000E+00 0. -1.
         -2   -1    0    0    0  501 -0.00000000000E+00 -0.00000000000E+00 -0.83894665804E+02  0.83894665804E+02  0.00000000000E+00 0.  1.
         23    2    1    2    0    0 -0.37416621454E+01 -0.51420190456E+01 -0.17780844495E+02  0.92760540501E+02  0.90818054634E+02 0.  0.
          5    1    1    2  502    0 -0.78483693014E+02 -0.14824328411E+03  0.21135188695E+04  0.21201686832E+04  0.41800000000E+01 0. -1.
         -5    1    1    2    0  502  0.82225355160E+02  0.15338530316E+03  0.27417376932E+03  0.32477190217E+03  0.41800000000E+01 0.  1.
        -11    1    3    3    0    0  0.21892790470E+02  0.30596475015E+02  0.12178900233E+02  0.39544458131E+02  0.00000000000E+00 0. -1.
         11    1    3    3    0    0 -0.25634452616E+02 -0.35738494061E+02 -0.29959744728E+02  0.53216082370E+02  0.00000000000E+00 0.  1.
</event>
<event>
 7    1  0.6684706E-006  0.1287089E+03  0.7561462E-02  0.1229384E+00
          1   -1    0    0  501    0  0.00000000000E+00  0.00000000000E+00  0.61488635029E+03  0.61488635029E+03  0.00000000000E+00 0.  1.
         -1   -1    0    0    0  501 -0.00000000000E+00 -0.00000000000E+00 -0.34982692034E+02  0.34982692034E+02  0.00000000000E+00 0. -1.
         23    2    1    2    0    0  0.54202147274E+02  0.79275923639E+02  0.21883315900E+03  0.25586223663E+03  0.91405622484E+02 0.  0.
          5    1    1    2  502    0 -0.80871916872E+02 -0.35135219796E+02  0.30584830257E+03  0.31833222771E+03  0.41800000000E+01 0.  1.
         -5    1    1    2    0  502  0.26669769599E+02 -0.44140703843E+02  0.55222196687E+02  0.75674577984E+02  0.41800000000E+01 0.  1.
        -11    1    3    3    0    0 -0.27586253043E+01  0.55680241687E+02  0.16447722586E+03  0.17366823876E+03  0.00000000000E+00 0.  1.
         11    1    3    3    0    0  0.56960772578E+02  0.23595681952E+02  0.54355933138E+02  0.82193997876E+02  0.00000000000E+00 0. -1.
</event>
<event>
 7    1  0.6684706E-006  0.1468772E+03  0.7561462E-02  0.1204364E+00
          1   -1    0    0  501    0  0.00000000000E+00  0.00000000000E+00  0.11124778863E+04  0.11124778863E+04  0.00000000000E+00 0. -1.
         -1   -1    0    0    0  501 -0.00000000000E+00 -0.00000000000E+00 -0.22970870729E+02  0.22970870729E+02  0.00000000000E+00 0.  1.
         23    2    1    2    0    0  0.11075895535E+03 -0.21521596045E+02  0.39423669604E+03  0.42006146159E+03  0.91095190446E+02 0.  0.
          5    1    1    2  502    0 -0.12150193227E+03  0.54137018108E+02  0.57788161684E+03  0.59300773330E+03  0.41800000000E+01 0.  1.
         -5    1    1    2    0  502  0.10742976918E+02 -0.32615422064E+02  0.11738870273E+03  0.12237956218E+03  0.41800000000E+01 0.  1.
        -11    1    3    3    0    0  0.12507995089E+02 -0.24797547512E+02  0.23095332003E+02  0.36121498641E+02  0.00000000000E+00 0. -1.
         11    1    3    3    0    0  0.98250960262E+02  0.32759514674E+01  0.37114136403E+03  0.38393996295E+03  0.00000000000E+00 0.  1.
</event>
<event>
 7    1  0.6684706E-006  0.1098559E+03  0.7561462E-02  0.1260837E+00
         -1   -1    0    0    0  501 -0.00000000000E+00  0.00000000000E+00  0.19714223065E+03  0.19714223065E+03  0.00000000000E+00 0.  1.
          1   -1    0    0  501    0  0.00000000000E+00 -0.00000000000E+00 -0.10998742815E+03  0.10998742815E+03  0.00000000000E+00 0. -1.
         23    2    1    2    0    0  0.67083959300E+02 -0.57975174203E+02  0.82469184799E+02  0.15373344679E+03  0.94717621383E+02 0.  0.
          5    1    1    2  502    0 -0.12193218133E+02  0.57725357101E+02 -0.48771435641E+02  0.76661703317E+02  0.41800000000E+01 0. -1.
         -5    1    1    2    0  502 -0.54890741166E+02  0.24981710151E+00  0.53457053340E+02  0.76734508705E+02  0.41800000000E+01 0. -1.
        -11    1    3    3    0    0 -0.92046100578E+01 -0.15953009832E+02  0.61430207943E+02  0.64131847135E+02  0.00000000000E+00 0.  1.
         11    1    3    3    0    0  0.76288569357E+02 -0.42022164371E+02  0.21038976856E+02  0.89601599652E+02  0.00000000000E+00 0. -1.
</event>
<event>
 7    1  0.6684706E-006  0.1072138E+03  0.7561462E-02  0.1265818E+00
         -2   -1    0    0    0  501 -0.00000000000E+00  0.00000000000E+00  0.27224413041E+02  0.27224413041E+02  0.00000000000E+00 0.  1.
          2   -1    0    0  501    0  0.00000000000E+00 -0.00000000000E+00 -0.48706663028E+03  0.48706663028E+03  0.00000000000E+00 0. -1.
         23    2    1    2    0    0 -0.16222045631E+02 -0.85676068141E+01 -0.11953542483E+03  0.15125899042E+03  0.90851558834E+02 0.  0.
          5    1    1    2  502    0  0.69144762053E+02 -0.95243963566E+01 -0.20336881444E+03  0.21505361967E+03  0.41800000000E+01 0. -1.
         -5    1    1    2    0  502 -0.52922716421E+02  0.18092003171E+02 -0.13693797797E+03  0.14797843323E+03  0.41800000000E+01 0. -1.
        -11    1    3    3    0    0 -0.28484970236E+02 -0.43162886738E+02 -0.46620333382E+02  0.69626746338E+02  0.00000000000E+00 0.  1.
         11    1    3    3    0    0  0.12262924605E+02  0.34595279924E+02 -0.72915091451E+02  0.81632244085E+02  0.00000000000E+00 0. -1.
</event>
<event>
 7    1  0.6684706E-006  0.1531264E+03  0.7561462E-02  0.1196683E+00
          2   -1    0    0  501    0  0.00000000000E+00  0.00000000000E+00  0.17634977923E+03  0.17634977923E+03  0.00000000000E+00 0. -1.
         -2   -1    0    0    0  501 -0.00000000000E+00 -0.00000000000E+00 -0.20202850690E+03  0.20202850690E+03  0.00000000000E+00 0.  1.
         23    2    1    2    0    0 -0.11991137486E+03  0.43525111496E+02 -0.99159752415E+02  0.18519310579E+03  0.90502247386E+02 0.  0.
          5    1    1    2  502    0  0.11617070346E+02  0.39295746504E+02  0.26240893448E+02  0.48838191057E+02  0.41800000000E+01 0. -1.
         -5    1    1    2    0  502  0.10829430452E+03 -0.82820858000E+02  0.47240131292E+02  0.14434698928E+03  0.41800000000E+01 0. -1.
        -11    1    3    3    0    0 -0.62454496446E+02  0.13744792508E+02 -0.10202908849E+03  0.12041353057E+03  0.00000000000E+00 0.  1.
         11    1    3    3    0    0 -0.57456878417E+02  0.29780318989E+02  0.28693360700E+01  0.64779575222E+02  0.00000000000E+00 0. -1.
</event>
<event>
 7    1  0.6684706E-006  0.1180618E+03  0.7561462E-02  0.1246329E+00
         -2   -1    0    0    0  501 -0.00000000000E+00  0.00000000000E+00  0.41731108970E+02  0.41731108970E+02  0.00000000000E+00 0.  1.
          2   -1    0    0  501    0  0.00000000000E+00 -0.00000000000E+00 -0.43014447704E+03  0.43014447704E+03  0.00000000000E+00 0. -1.
         23    2    1    2    0    0 -0.49307575984E+02  0.42009176617E+02 -0.25308914091E+03  0.27653980812E+03  0.90687067782E+02 0.  0.
          5    1    1    2  502    0  0.73510804167E+02  0.54376758786E+01 -0.11795595726E+03  0.13915633978E+03  0.41800000000E+01 0.  1.
         -5    1    1    2    0  502 -0.24203228183E+02 -0.47446852495E+02 -0.17368269901E+02  0.56179438103E+02  0.41800000000E+01 0.  1.
        -11    1    3    3    0    0 -0.43577101554E+02 -0.19035475151E+02 -0.14063238060E+03  0.14845463808E+03  0.00000000000E+00 0. -1.
         11    1    3    3    0    0 -0.57304744306E+01  0.61044651768E+02 -0.11245676031E+03  0.12808517004E+03  0.00000000000E+00 0.  1.
</event>
<event>
 7    1  0.6684706E-006  0.1131754E+03  0.7561462E-02  0.1254800E+00
          1   -1    0    0  501    0  0.00000000000E+00  0.00000000000E+00  0.58021800571E+02  0.58021800571E+02  0.00000000000E+00 0. -1.
         -1   -1    0    0    0  501 -0.00000000000E+00 -0.00000000000E+00 -0.27346393810E+03  0.27346393810E+03  0.00000000000E+00 0.  1.
         23    2    1    2    0    0 -0.17090597506E+02 -0.51991835360E+02 -0.16688154963E+03  0.19700872490E+03  0.89262235079E+02 0.  0.
          5    1    1    2  502    0  0.63540803416E+02  0.42991007043E+02 -0.21378686454E+02  0.79750743067E+02  0.41800000000E+01 0. -1.
         -5    1    1    2    0  502 -0.46450205910E+02  0.90008283176E+01 -0.27181901446E+02  0.54726270709E+02  0.41800000000E+01 0.  1.
        -11    1    3    3    0    0  0.34683233657E+02 -0.12362574607E+02 -0.82735103811E+02  0.90558585184E+02  0.00000000000E+00 0. -1.
         11    1    3    3    0    0 -0.51773831163E+02 -0.39629260753E+02 -0.84146445822E+02  0.10645013972E+03  0.00000000000E+00 0.  1.
</event>
<event>
 7    1  0.6684706E-006  0.7234169E+02  0.7561462E-02  0.1352306E+00
         -1   -1    0    0    0  501 -0.00000000000E+00  0.00000000000E+00  0.26568573602E+02  0.26568573602E+02  0.00000000000E+00 0.  1.
          1   -1    0    0  501    0  0.00000000000E+00 -0.00000000000E+00 -0.46187346012E+03  0.46187346012E+03  0.00000000000E+00 0. -1.
         23    2    1    2    0    0  0.22336324843E+02 -0.20550111165E+02 -0.13989568682E+03  0.16620396839E+03  0.84449614817E+02 0.  0.
          5    1    1    2  502    0 -0.26366230433E+01  0.32088546745E+02 -0.29719191652E+03  0.29896008806E+03  0.41800000000E+01 0.  1.
         -5    1    1    2    0  502 -0.19699701800E+02 -0.11538435580E+02  0.17827168091E+01  0.23277977272E+02  0.41800000000E+01 0.  1.
        -11    1    3    3    0    0  0.54009503453E+02 -0.19145724316E+02 -0.99886530873E+02  0.11515599972E+03  0.00000000000E+00 0.  1.
         11    1    3    3    0    0 -0.31673178609E+02 -0.14043868487E+01 -0.40009155943E+02  0.51047968666E+02  0.00000000000E+00 0. -1.
</event>
<event>
 7    1  0.6684706E-006  0.1203716E+03  0.7561462E-02  0.1242485E+00
         -1   -1    0    0    0  501 -0.00000000000E+00  0.00000000000E+00  0.12491577518E+03  0.12491577518E+03  0.00000000000E+00 0.  1.
          1   -1    0    0  501    0  0.00000000000E+00 -0.00000000000E+00 -0.16123993588E+03  0.16123993588E+03  0.00000000000E+00 0. -1.
         23    2    1    2    0    0  0.67989839896E+02 -0.49582542880E+02  0.19732935826E+02  0.12531121165E+03  0.90732927437E+02 0.  0.
          5    1    1    2  502    0 -0.22067261758E+02 -0.41735027411E+02 -0.26782035599E+02  0.54438280514E+02  0.41800000000E+01 0.  1.
         -5    1    1    2    0  502 -0.45922578138E+02  0.91317570291E+02 -0.29275060929E+02  0.10640621889E+03  0.41800000000E+01 0.  1.
        -11    1    3    3    0    0 -0.13851698935E+01 -0.12131984074E+02  0.41715407544E+02  0.43465836697E+02  0.00000000000E+00 0.  1.
         11    1    3    3    0    0  0.69375009790E+02 -0.37450558806E+02 -0.21982471719E+02  0.81845374952E+02  0.00000000000E+00 0. -1.
</event>
<event>
 7    1  0.6684706E-006  0.1083978E+03  0.7561462E-02  0.1263566E+00
          1   -1    0    0  501    0  0.00000000000E+00  0.00000000000E+00  0.47411940725E+02  0.47411940725E+02  0.00000000000E+00 0. -1.
         -1   -1    0    0    0  501 -0.00000000000E+00 -0.00000000000E+00 -0.37160801883E+03  0.37160801883E+03  0.00000000000E+00 0.  1.
         23    2    1    2    0    0  0.96270055413E+01 -0.75233450044E+02 -0.15406734855E+03  0.19467065579E+03  0.91690594363E+02 0.  0.
          5    1    1    2  502    0 -0.50634898135E+02  0.54736922796E+02 -0.16091527340E+03  0.17740129999E+03  0.41800000000E+01 0. -1.
         -5    1    1    2    0  502  0.41007892594E+02  0.20496527248E+02 -0.92134561607E+01  0.46948003777E+02  0.41800000000E+01 0. -1.
        -11    1    3    3    0    0 -0.93972320904E+01 -0.76440052333E+02 -0.57168799192E+02  0.95914864190E+02  0.00000000000E+00 0. -1.
         11    1    3    3    0    0  0.19024237632E+02  0.12066022890E+01 -0.96898549357E+02  0.98755791597E+02  0.00000000000E+00 0.  1.
</event>
<event>
 7    1  0.6684706E-006  0.2019140E+03  0.7561462E-02  0.1148134E+00
          2   -1    0    0  501    0  0.00000000000E+00  0.00000000000E+00  0.48965809267E+02  0.48965809267E+02  0.00000000000E+00 0. -1.
         -2   -1    0    0    0  501 -0.00000000000E+00 -0.00000000000E+00 -0.10495368585E+04  0.10495368585E+04  0.00000000000E+00 0.  1.
         23    2    1    2    0    0  0.17052868360E+03 -0.35271946914E+02 -0.71737731835E+03  0.74329955374E+03  0.86832410587E+02 0.  0.
          5    1    1    2  502    0 -0.99275265363E+01 -0.35562997429E+02 -0.67792974385E+02  0.77308746887E+02  0.41800000000E+01 0.  1.
         -5    1    1    2    0  502 -0.16060115706E+03  0.70834944343E+02 -0.21540075649E+03  0.27789436713E+03  0.41800000000E+01 0.  1.
        -11    1    3    3    0    0  0.16406610376E+03 -0.52845482454E+02 -0.67985036768E+03  0.70136071593E+03  0.00000000000E+00 0.  1.
         11    1    3    3    0    0  0.64625798434E+01  0.17573535540E+02 -0.37526950674E+02  0.41938837806E+02  0.00000000000E+00 0. -1.
</event>
<event>
 7    1  0.6684706E-006  0.6705135E+02  0.7561462E-02  0.1370417E+00
         -1   -1    0    0    0  501 -0.00000000000E+00  0.00000000000E+00  0.15757635915E+03  0.15757635915E+03  0.00000000000E+00 0.  1.
          1   -1    0    0  501    0  0.00000000000E+00 -0.00000000000E+00 -0.79020926740E+02  0.79020926740E+02  0.00000000000E+00 0. -1.
         23    2    1    2    0    0 -0.11469945113E+02  0.15754174598E+02  0.53269886415E+02  0.10749691000E+03  0.91313477664E+02 0.  0.
          5    1    1    2  502    0 -0.17031622435E+02 -0.36931530596E+02  0.64290148694E+02  0.76188645703E+02  0.41800000000E+01 0. -1.
         -5    1    1    2    0  502  0.28501567549E+02  0.21177355998E+02 -0.39004602697E+02  0.52911730187E+02  0.41800000000E+01 0. -1.
        -11    1    3    3    0    0 -0.31296520107E+02 -0.12855037349E+01  0.69841838084E+02  0.76544150904E+02  0.00000000000E+00 0.  1.
         11    1    3    3    0    0  0.19826574994E+02  0.17039678333E+02 -0.16571951669E+02  0.30952759098E+02  0.00000000000E+00 0. -1.
</event>
<event>
 7    1  0.6684706E-006  0.2012381E+03  0.7561462E-02  0.1148699E+00
         -2   -1    0    0    0  501 -0.00000000000E+00  0.00000000000E+00  0.94777462300E+02  0.94777462300E+02  0.00000000000E+00 0.  1.
          2   -1    0    0  501    0  0.00000000000E+00 -0.00000000000E+00 -0.11997984625E+04  0.11997984625E+04  0.00000000000E+00 0. -1.
         23    2    1    2    0    0 -0.19643503040E+02 -0.18067645594E+03 -0.37362602162E+02  0.20435929806E+03  0.85655762927E+02 0.  0.
          5    1    1    2  502    0  0.50384812449E+02  0.17128075531E+03 -0.75276064123E+03  0.77365482086E+03  0.41800000000E+01 0.  1.
         -5    1    1    2    0  502 -0.30741309409E+02  0.93957006268E+01 -0.31489775682E+03  0.31656180589E+03  0.41800000000E+01 0.  1.
        -11    1    3    3    0    0  0.13811374517E+02 -0.13011739456E+03 -0.53905811189E+02  0.14151723186E+03  0.00000000000E+00 0.  1.
         11    1    3    3    0    0 -0.33454877557E+02 -0.50559061372E+02  0.16543209027E+02  0.62842066199E+02  0.00000000000E+00 0. -1.
</event>
<event>
 7    1  0.6684706E-006  0.9212416E+02  0.7561462E-02  0.1297788E+00
          1   -1    0    0  501    0  0.00000000000E+00  0.00000000000E+00  0.46409625409E+03  0.46409625409E+03  0.00000000000E+00 0. -1.
         -1   -1    0    0    0  501 -0.00000000000E+00 -0.00000000000E+00 -0.29958845227E+02  0.29958845227E+02  0.00000000000E+00 0.  1.
         23    2    1    2    0    0  0.18604030796E+02 -0.20894365908E+02  0.11046214321E+03  0.14592124548E+03  0.91150646245E+02 0.  0.
          5    1    1    2  502    0  0.59494342827E+01 -0.50608707358E+02  0.10647940163E+03  0.11811846765E+03  0.41800000000E+01 0. -1.
         -5    1    1    2    0  502 -0.24553465078E+02  0.71503073267E+02  0.21719586403E+03  0.23001538619E+03  0.41800000000E+01 0. -1.
        -11    1    3    3    0    0 -0.24192940281E+01  0.15330233093E+02 -0.99481569623E+01  0.18434610309E+02  0.00000000000E+00 0.  1.
         11    1    3    3    0    0  0.21023324824E+02 -0.36224599002E+02  0.12041030017E+03  0.12748663517E+03  0.00000000000E+00 0. -1.
</event>
<event>
 7    1  0.6684706E-006  0.9473914E+02  0.7561462E-02  0.1291765E+00
         -1   -1    0    0    0  501 -0.00000000000E+00  0.00000000000E+00  0.21955998689E+02  0.21955998689E+02  0.00000000000E+00 0.  1.
          1   -1    0    0  501    0  0.00000000000E+00 -0.00000000000E+00 -0.62879715851E+03  0.62879715851E+03  0.00000000000E+00 0. -1.
         23    2    1    2    0    0  0.22821574886E+02 -0.37428366361E+02 -0.22792614499E+03  0.24932400421E+03  0.91051768896E+02 0.  0.
          5    1    1    2  502    0 -0.13430328336E+02  0.65008033635E+02 -0.36077548443E+03  0.36685534032E+03  0.41800000000E+01 0.  1.
         -5    1    1    2    0  502 -0.93912465506E+01 -0.27579667274E+02 -0.18139530398E+02  0.34573812659E+02  0.41800000000E+01 0.  1.
        -11    1    3    3    0    0  0.38560191231E+02  0.13010169878E+02 -0.54435969487E+02  0.67966371405E+02  0.00000000000E+00 0.  1.
         11    1    3    3    0    0 -0.15738616345E+02 -0.50438536239E+02 -0.17349017550E+03  0.18135763281E+03  0.00000000000E+00 0. -1.
</event>
<event>
 7    1  0.6684706E-006  0.1065239E+03  0.7561462E-02  0.1267146E+00
         -2   -1    0    0    0  501 -0.00000000000E+00  0.00000000000E+00  0.85907552189E+02  0.85907552189E+02  0.00000000000E+00 0.  1.
          2   -1    0    0  501    0  0.00000000000E+00 -0.00000000000E+00 -0.17827195718E+03  0.17827195718E+03  0.00000000000E+00 0. -1.
         23    2    1    2    0    0 -0.21733386785E+01  0.37598015216E+02  0.95452727229E+01  0.98505175307E+02  0.90519739183E+02 0.  0.
          5    1    1    2  502    0 -0.53854932115E+02  0.57129179198E+01 -0.21431312089E+02  0.58393190375E+02  0.41800000000E+01 0.  1.
         -5    1    1    2    0  502  0.56028270794E+02 -0.43310933136E+02 -0.80478365629E+02  0.10728114369E+03  0.41800000000E+01 0.  1.
        -11    1    3    3    0    0  0.33095390961E+02 -0.39051638200E+01 -0.17560176101E+02  0.37668488050E+02  0.00000000000E+00 0. -1.
         11    1    3    3    0    0 -0.35268729639E+02  0.41503179036E+02  0.27105448823E+02  0.60836687257E+02  0.00000000000E+00 0.  1.
</event>
<event>
 7    1  0.6684706E-006  0.1547516E+03  0.7561462E-02  0.1194753E+00
         -1   -1    0    0    0  501 -0.00000000000E+00  0.00000000000E+00  0.32583479309E+02  0.32583479309E+02  0.00000000000E+00 0.  1.
          1   -1    0    0  501    0  0.00000000000E+00 -0.00000000000E+00 -0.83036094357E+03  0.83036094357E+03  0.00000000000E+00 0. -1.
         23    2    1    2    0    0  0.46450658185E+02  0.11380137868E+03 -0.35053784512E+03  0.38255005605E+03  0.91429465070E+02 0.  0.
          5    1    1    2  502    0 -0.73493109415E+02 -0.12225864129E+03 -0.32688195928E+03  0.35667590359E+03  0.41800000000E+01 0.  1.
         -5    1    1    2    0  502  0.27042451230E+02  0.84572626082E+01 -0.12035765986E+03  0.12371846324E+03  0.41800000000E+01 0.  1.
        -11    1    3    3    0    0  0.33701796846E+02  0.12333324977E+02 -0.32294245970E+02  0.48278777309E+02  0.00000000000E+00 0.  1.
         11    1    3    3    0    0  0.12748861338E+02  0.10146805370E+03 -0.31824359915E+03  0.33427127874E+03  0.00000000000E+00 0. -1.
</event>
<event>
 7    1  0.6684706E-006  0.1103309E+03  0.7561462E-02  0.1259958E+00
         -1   -1    0    0    0  501 -0.00000000000E+00  0.00000000000E+00  0.19851949853E+03  0.19851949853E+03  0.00000000000E+00 0.  1.
          1   -1    0    0  501    0  0.00000000000E+00 -0.00000000000E+00 -0.13710896799E+03  0.13710896799E+03  0.00000000000E+00 0. -1.
         23    2    1    2    0    0  0.25830262226E+01  0.99118188854E+02  0.99822923077E+02  0.17145145150E+03  0.97979063388E+02 0.  0.
          5    1    1    2  502    0  0.25508823909E+02 -0.18715964338E+02  0.38038333308E+02  0.49652538899E+02  0.41800000000E+01 0. -1.
         -5    1    1    2    0  502 -0.28091850132E+02 -0.80402224516E+02 -0.76450725838E+02  0.11452447613E+03  0.41800000000E+01 0. -1.
        -11    1    3    3    0    0  0.15483547647E+02  0.38402081573E+02  0.10122284520E+03  0.10936418293E+03  0.00000000000E+00 0.  1.
         11    1    3    3    0    0 -0.12900521424E+02  0.60716107281E+02 -0.13999221237E+01  0.62087268568E+02  0.00000000000E+00 0. -1.
</event>
<event>
 7    1  0.6684706E-006  0.1299499E+03  0.7561462E-02  0.1227530E+00
          2   -1    0    0  501    0  0.00000000000E+00  0.00000000000E+00  0.29168418004E+03  0.29168418004E+03  0.00000000000E+00 0.  1.
         -2   -1    0    0    0  501 -0.00000000000E+00 -0.00000000000E+00 -0.92330360540E+02  0.92330360540E+02  0.00000000000E+00 0. -1.
         23    2    1    2    0    0 -0.39013494304E+02  0.10102486324E+03  0.23925661264E+02  0.14286912221E+03  0.90061496125E+02 0.  0.
          5    1    1    2  502    0  0.98131181515E+01 -0.11064898948E+03  0.70281158111E+02  0.13151581557E+03  0.41800000000E+01 0.  1.
         -5    1    1    2    0  502  0.29200376153E+02  0.96241262409E+01  0.10514700013E+03  0.10962960279E+03  0.41800000000E+01 0.  1.
        -11    1    3    3    0    0  0.23505310285E+01  0.57922661428E+02 -0.27390499622E+02  0.64115514289E+02  0.00000000000E+00 0. -1.
         11    1    3    3    0    0 -0.41364025333E+02  0.43102201811E+02  0.51316160886E+02  0.78753607922E+02  0.00000000000E+00 0.  1.
</event>
<event>
 7    1  0.6684706E-006  0.1493850E+03  0.7561462E-02  0.1201231E+00
         -2   -1    0    0    0  501 -0.00000000000E+00  0.00000000000E+00  0.74677789322E+02  0.74677789322E+02  0.00000000000E+00 0.  1.
          2   -1    0    0  501    0  0.00000000000E+00 -0.00000000000E+00 -0.40189236391E+03  0.40189236391E+03  0.00000000000E+00 0. -1.
         23    2    1    2    0    0  0.31573637094E+02  0.11826538122E+03 -0.85171603806E+02  0.17787833535E+03  0.96968578101E+02 0.  0.
          5    1    1    2  502    0  0.38721446737E+02 -0.87140564931E+02 -0.15900690917E+03  0.18545484102E+03  0.41800000000E+01 0. -1.
         -5    1    1    2    0  502 -0.70295083831E+02 -0.31124816288E+02 -0.83036061605E+02  0.11323697685E+03  0.41800000000E+01 0. -1.
        -11    1    3    3    0    0 -0.61271329019E+01  0.24864120979E+02 -0.71851286884E+02  0.76278264903E+02  0.00000000000E+00 0. -1.
         11    1    3    3    0    0  0.37700769996E+02  0.93401260240E+02 -0.13320316922E+02  0.10160007045E+03  0.00000000000E+00 0.  1.
</event>
<event>
 7    1  0.6684706E-006  0.1137989E+03  0.7561462E-02  0.1253692E+00
          2   -1    0    0  501    0  0.00000000000E+00  0.00000000000E+00  0.61908777731E+03  0.61908777731E+03  0.00000000000E+00 0. -1.
         -2   -1    0    0    0  501 -0.00000000000E+00 -0.00000000000E+00 -0.31564981135E+02  0.31564981135E+02  0.00000000000E+00 0.  1.
         23    2    1    2    0    0 -0.44474016994E+00  0.76206296240E+02  0.16522958930E+03  0.20367735079E+03  0.91520755381E+02 0.  0.
          5    1    1    2  502    0 -0.20911308213E+02  0.90998604727E+01  0.97653439555E+01  0.25157993051E+02  0.41800000000E+01 0.  1.
         -5    1    1    2    0  502  0.21356048383E+02 -0.85306156712E+02  0.41252786292E+03  0.42181741460E+03  0.41800000000E+01 0.  1.
        -11    1    3    3    0    0  0.40713173820E+02  0.16663655008E+02  0.42350200973E+02  0.61063732634E+02  0.00000000000E+00 0.  1.
         11    1    3    3    0    0 -0.41157913990E+02  0.59542641232E+02  0.12287938832E+03  0.14261361816E+03  0.00000000000E+00 0. -1.
</event>
<event>
 7    1  0.6684706E-006  0.7931696E+02  0.7561462E-02  0.1331001E+00
          1   -1    0    0  501    0  0.00000000000E+00  0.00000000000E+00  0.34645814234E+03  0.34645814234E+03  0.00000000000E+00 0. -1.
         -1   -1    0    0    0  501 -0.00000000000E+00 -0.00000000000E+00 -0.41117466781E+02  0.41117466781E+02  0.00000000000E+00 0.  1.
         23    2    1    2    0    0  0.15290108857E+02 -0.47713941381E+02  0.91908139603E+02  0.13587033788E+03  0.86621215410E+02 0.  0.
          5    1    1    2  502    0 -0.29664157245E+02  0.36525257673E+02  0.11118517527E+02  0.48529892902E+02  0.41800000000E+01 0.  1.
         -5    1    1    2    0  502  0.14374048388E+02  0.11188683708E+02  0.20231401843E+03  0.20317537834E+03  0.41800000000E+01 0.  1.
        -11    1    3    3    0    0  0.32985718523E+02 -0.61824184436E+02  0.43618598381E+02  0.82540108628E+02  0.00000000000E+00 0.  1.
         11    1    3    3    0    0 -0.17695609666E+02  0.14110243055E+02  0.48289541222E+02  0.53330229251E+02  0.00000000000E+00 0. -1.
</event>
<event>
 7    1  0.6684706E-006  0.9966295E+02  0.7561462E-02  0.1281006E+00
         -2   -1    0    0    0  501 -0.00000000000E+00  0.00000000000E+00  0.17894901865E+02  0.17894901865E+02  0.00000000000E+00 0.  1.
          2   -1    0    0  501    0  0.00000000000E+00 -0.00000000000E+00 -0.14991981250E+04  0.14991981250E+04  0.00000000000E+00 0. -1.
         23    2    1    2    0    0 -0.44654630414E+02  0.63334901655E+02 -0.17020253391E+03  0.19776080471E+03  0.64304646397E+02 0.  0.
          5    1    1    2  502    0  0.11637468673E+01  0.22585354237E+02 -0.72448456478E+03  0.72484950820E+03  0.41800000000E+01 0.  1.
         -5    1    1    2    0  502  0.43490883547E+02 -0.85920255892E+02 -0.58661612449E+03  0.59448271399E+03  0.41800000000E+01 0.  1.
        -11    1    3    3    0    0 -0.40897520538E+02  0.43333085297E+02 -0.56037185466E+02  0.81795657723E+02  0.00000000000E+00 0.  1.
         11    1    3    3    0    0 -0.37571098762E+01  0.20001816359E+02 -0.11416534844E+03  0.11596514699E+03  0.00000000000E+00 0. -1.
</event>
<event>
 7    1  0.6684706E-006  0.1447460E+03  0.7561462E-02  0.1207082E+00
          1   -1    0    0  501    0  0.00000000000E+00  0.00000000000E+00  0.21846583498E+03  0.21846583498E+03  0.00000000000E+00 0. -1.
         -1   -1    0    0    0  501 -0.00000000000E+00 -0.00000000000E+00 -0.12946225332E+03  0.12946225332E+03  0.00000000000E+00 0.  1.
         23    2    1    2    0    0  0.12229875943E+03  0.37169211804E+02  0.47765268513E+02  0.16438939084E+03  0.91672319043E+02 0.  0.
          5    1    1    2  502    0  0.32045768383E+01 -0.15782678024E+02 -0.32386910469E+02  0.36410803453E+02  0.41800000000E+01 0. -1.
         -5    1    1    2    0  502 -0.12550333627E+03 -0.21386533780E+02  0.73625223618E+02  0.14712789401E+03  0.41800000000E+01 0. -1.
        -11    1    3    3    0    0  0.30638653290E+02  0.43934830814E+02 -0.11824526349E+02  0.54852674114E+02  0.00000000000E+00 0.  1.
         11    1    3    3    0    0  0.91660106143E+02 -0.67656190105E+01  0.59589794862E+02  0.10953671672E+03  0.00000000000E+00 0. -1.
</event>
<event>
 7    1  0.6684706E-006  0.1163818E+03  0.7561462E-02  0.1249188E+00
         -1   -1    0    0    0  501 -0.00000000000E+00  0.00000000000E+00  0.41606232430E+03  0.41606232430E+03  0.00000000000E+00 0.  1.
          1   -1    0    0  501    0  0.00000000000E+00 -0.00000000000E+00 -0.46244608684E+02  0.46244608684E+02  0.00000000000E+00 0. -1.
         23    2    1    2    0    0 -0.33788882873E+02 -0.35710802839E+02  0.27884621337E+03  0.30001224421E+03  0.99172505860E+02 0.  0.
          5    1    1    2  502    0  0.42824075779E+02  0.75683733398E+02  0.83103421506E+02  0.12035605524E+03  0.41800000000E+01 0.  1.
         -5    1    1    2    0  502 -0.90351929064E+01 -0.39972930560E+02  0.78680807422E+01  0.41938633537E+02  0.41800000000E+01 0.  1.
        -11    1    3    3    0    0 -0.61778869376E+02 -0.35587047266E+01  0.21098612929E+03  0.21987369064E+03  0.00000000000E+00 0.  1.
         11    1    3    3    0    0  0.27989986503E+02 -0.32152098112E+02  0.67860084081E+02  0.80138553574E+02  0.00000000000E+00 0. -1.
</event>
<event>
 7    1  0.6684706E-006  0.2931194E+03  0.7561462E-02  0.1088732E+00
          2   -1    0    0  501    0  0.00000000000E+00  0.00000000000E+00  0.13602707318E+03  0.13602707318E+03  0.00000000000E+00 0. -1.
         -2   -1    0    0    0  501 -0.00000000000E+00 -0.00000000000E+00 -0.73578954826E+03  0.73578954826E+03  0.00000000000E+00 0.  1.
         23    2    1    2    0    0 -0.26839339299E+03  0.94576082911E+02 -0.40643625799E+03  0.50575255240E+03  0.98058980178E+02 0.  0.
          5    1    1    2  502    0  0.11844446867E+03 -0.19205760132E+02 -0.15103244413E+03  0.19294098828E+03  0.41800000000E+01 0. -1.
         -5    1    1    2    0  502  0.14994892432E+03 -0.75370322779E+02 -0.42293772957E+02  0.17312308076E+03  0.41800000000E+01 0. -1.
        -11    1    3    3    0    0  0.48480571233E+00  0.18990490846E+02 -0.45989885054E+02  0.49758851538E+02  0.00000000000E+00 0.  1.
         11    1    3    3    0    0 -0.26887819870E+03  0.75585592065E+02 -0.36044637293E+03  0.45599370086E+03  0.00000000000E+00 0. -1.
</event>
<event>
 7    1  0.6684706E-006  0.1178317E+03  0.7561462E-02  0.1246718E+00
         -2   -1    0    0    0  501 -0.00000000000E+00  0.00000000000E+00  0.15397319499E+02  0.15397319499E+02  0.00000000000E+00 0. -1.
          2   -1    0    0  501    0  0.00000000000E+00 -0.00000000000E+00 -0.10139910426E+04  0.10139910426E+04  0.00000000000E+00 0.  1.
         23    2    1    2    0    0  0.23962026438E+02  0.49232400299E+02 -0.36823002230E+03  0.38440405907E+03  0.95786864188E+02 0.  0.
          5    1    1    2  502    0  0.41084650922E+02 -0.56624661934E+02 -0.36177251276E+03  0.36849847255E+03  0.41800000000E+01 0. -1.
         -5    1    1    2    0  502 -0.65046677360E+02  0.73922616349E+01 -0.26859118803E+03  0.27648583048E+03  0.41800000000E+01 0. -1.
        -11    1    3    3    0    0 -0.74562667780E+01  0.64583535138E+02 -0.30775653440E+03  0.31454842773E+03  0.00000000000E+00 0. -1.
         11    1    3    3    0    0  0.31418293216E+02 -0.15351134839E+02 -0.60473487906E+02  0.69855631334E+02  0.00000000000E+00 0.  1.
</event>
<event>
 7    1  0.6684706E-006  0.1027309E+03  0.7561462E-02  0.1274656E+00
         -1   -1    0    0    0  501 -0.00000000000E+00  0.00000000000E+00  0.23824010453E+03  0.23824010453E+03  0.00000000000E+00 0.  1.
          1   -1    0    0  501    0  0.00000000000E+00 -0.00000000000E+00 -0.62377918901E+02  0.62377918901E+02  0.00000000000E+00 0. -1.
         23    2    1    2    0    0  0.32803661726E+02 -0.40922875355E+02  0.10014620948E+03  0.14526895080E+03  0.91230712173E+02 0.  0.
          5    1    1    2  502    0 -0.42212089791E+02 -0.26696059083E+02 -0.40380088244E+01  0.50282382704E+02  0.41800000000E+01 0. -1.
         -5    1    1    2    0  502  0.94084280649E+01  0.67618934438E+02  0.79753984976E+02  0.10506668993E+03  0.41800000000E+01 0. -1.
        -11    1    3    3    0    0  0.50067630424E+02 -0.93126640640E+01  0.15427501562E+02  0.53211851431E+02  0.00000000000E+00 0. -1.
         11    1    3    3    0    0 -0.17263968699E+02 -0.31610211291E+02  0.84718707917E+02  0.92057099369E+02  0.00000000000E+00 0.  1.
</event>
<event>
 7    1  0.6684706E-006  0.1102730E+03  0.7561462E-02  0.1260065E+00
         -2   -1    0    0    0  501 -0.00000000000E+00  0.00000000000E+00  0.15740084789E+02  0.15740084789E+02  0.00000000000E+00 0.  1.
          2   -1    0    0  501    0  0.00000000000E+00 -0.00000000000E+00 -0.85187289459E+03  0.85187289459E+03  0.00000000000E+00 0. -1.
         23    2    1    2    0    0  0.45955978555E+02 -0.59689905731E+00 -0.37839374713E+03  0.39223697606E+03  0.92497077065E+02 0.  0.
          5    1    1    2  502    0 -0.55830937452E+02  0.44957028012E+02 -0.36523974828E+03  0.37223080752E+03  0.41800000000E+01 0. -1.
         -5    1    1    2    0  502  0.98749588977E+01 -0.44360128954E+02 -0.92499314399E+02  0.10314519581E+03  0.41800000000E+01 0.  1.
        -11    1    3    3    0    0  0.68829757764E+02 -0.21509438993E+02 -0.25373794907E+03  0.26378616021E+03  0.00000000000E+00 0.  1.
         11    1    3    3    0    0 -0.22873779210E+02  0.20912539936E+02 -0.12465579806E+03  0.12845081585E+03  0.00000000000E+00 0. -1.
</event>
<event>
 7    1  0.6684706E-006  0.9998807E+02  0.7561462E-02  0.1280321E+00
         -1   -1    0    0    0  501 -0.00000000000E+00  0.00000000000E+00  0.27847688050E+02  0.27847688050E+02  0.00000000000E+00 0.  1.
          1   -1    0    0  501    0  0.00000000000E+00 -0.00000000000E+00 -0.31081972446E+04  0.31081972446E+04  0.00000000000E+00 0. -1.
         23    2    1    2    0    0  0.37686476919E+02 -0.26571795583E+02 -0.70954139791E+02  0.12376437607E+03  0.90315004107E+02 0.  0.
          5    1    1    2  502    0  0.92490948304E+01  0.47517128381E+02 -0.49999698060E+03  0.50235234274E+03  0.41800000000E+01 0. -1.
         -5    1    1    2    0  502 -0.46935571750E+02 -0.20945332798E+02 -0.25093984361E+04  0.25099282138E+04  0.41800000000E+01 0.  1.
        -11    1    3    3    0    0  0.57725832212E+02 -0.44535004602E+02 -0.41603513433E+02  0.83943377758E+02  0.00000000000E+00 0. -1.
         11    1    3    3    0    0 -0.20039355292E+02  0.17963209019E+02 -0.29350626358E+02  0.39820998310E+02  0.00000000000E+00 0.  1.
</event>
<event>
 7    1  0.6684706E-006  0.7929469E+02  0.7561462E-02  0.1331065E+00
         -3   -1    0    0    0  501 -0.00000000000E+00  0.00000000000E+00  0.64379129891E+02  0.64379129891E+02  0.00000000000E+00 0.  1.
          3   -1    0    0  501    0  0.00000000000E+00 -0.00000000000E+00 -0.28244649151E+03  0.28244649151E+03  0.00000000000E+00 0. -1.
         23    2    1    2    0    0  0.46655837301E+02 -0.22849279974E+02 -0.21465894512E+02  0.10808389410E+03  0.92317315754E+02 0.  0.
          5    1    1    2  502    0 -0.45304414739E+01  0.64090387324E+01  0.17632276192E+02  0.19747664195E+02  0.41800000000E+01 0.  1.
         -5    1    1    2    0  502 -0.42125395827E+02  0.16440241241E+02 -0.21423374330E+03  0.21899406310E+03  0.41800000000E+01 0.  1.
        -11    1    3    3    0    0 -0.23709159453E+02  0.11075381281E+02 -0.13822625537E+02  0.29594818622E+02  0.00000000000E+00 0. -1.
         11    1    3    3    0    0  0.70364996755E+02 -0.33924661255E+02 -0.76432689755E+01  0.78489075483E+02  0.00000000000E+00 0.  1.
</event>
<event>
 7    1  0.6684706E-006  0.1464238E+03  0.7561462E-02  0.1204938E+00
          2   -1    0    0  501    0  0.00000000000E+00  0.00000000000E+00  0.70847992958E+03  0.70847992958E+03  0.00000000000E+00 0. -1.
         -2   -1    0    0    0  501 -0.00000000000E+00 -0.00000000000E+00 -0.38133467331E+02  0.38133467331E+02  0.00000000000E+00 0.  1.
         23    2    1    2    0    0  0.70284104514E+02  0.95934919522E+02  0.26492671751E+03  0.30598191625E+03  0.96412671836E+02 0.  0.
          5    1    1    2  502    0  0.31294424883E+02 -0.30983845349E+01  0.47240148420E+02  0.56903822703E+02  0.41800000000E+01 0.  1.
         -5    1    1    2    0  502 -0.10157852940E+03 -0.92836534988E+02  0.35817959632E+03  0.38372765796E+03  0.41800000000E+01 0.  1.
        -11    1    3    3    0    0  0.54699937657E+02  0.47086921047E+02  0.57406710826E+02  0.92221427886E+02  0.00000000000E+00 0.  1.
         11    1    3    3    0    0  0.15584166857E+02  0.48847998475E+02  0.20752000669E+03  0.21376048837E+03  0.00000000000E+00 0. -1.
</event>
<event>
 7    1  0.6684706E-006  0.1212611E+03  0.7561462E-02  0.1241031E+00
          2   -1    0    0  501    0  0.00000000000E+00  0.00000000000E+00  0.85210024201E+02  0.85210024201E+02  0.00000000000E+00 0. -1.
         -2   -1    0    0    0  501 -0.00000000000E+00 -0.00000000000E+00 -0.26484808553E+03  0.26484808553E+03  0.00000000000E+00 0.  1.
         23    2    1    2    0    0 -0.44737873526E+02  0.64236218645E+02 -0.16096612536E+03  0.20131448844E+03  0.92139354408E+02 0.  0.
          5    1    1    2  502    0  0.18649483304E+02 -0.99909154023E+02 -0.33293798597E+01  0.10177523989E+03  0.41800000000E+01 0.  1.
         -5    1    1    2    0  502  0.26088390221E+02  0.35672935377E+02 -0.15342556112E+02  0.46968381394E+02  0.41800000000E+01 0.  1.
        -11    1    3    3    0    0  0.12605519989E+02  0.21386459578E+02 -0.11167465369E+03  0.11440064713E+03  0.00000000000E+00 0.  1.
         11    1    3    3    0    0 -0.57343393514E+02  0.42849759068E+02 -0.49291471663E+02  0.86913841306E+02  0.00000000000E+00 0. -1.
</event>
<event>
 7    1  0.6684706E-006  0.1593952E+03  0.7561462E-02  0.1189381E+00
          2   -1    0    0  501    0  0.00000000000E+00  0.00000000000E+00  0.51493699712E+03  0.51493699712E+03  0.00000000000E+00 0. -1.
         -2   -1    0    0    0  501 -0.00000000000E+00 -0.00000000000E+00 -0.23193874718E+03  0.23193874718E+03  0.00000000000E+00 0.  1.
         23    2    1    2    0    0  0.87480916386E+02 -0.10296557249E+03 -0.16177303487E+02  0.16335392934E+03  0.90376884396E+02 0.  0.
          5    1    1    2  502    0  0.21084913477E+02  0.26839238382E+01  0.40253877439E+03  0.40312121541E+03  0.41800000000E+01 0. -1.
         -5    1    1    2    0  502 -0.10856582986E+03  0.10028164865E+03 -0.10336322097E+03  0.18040059955E+03  0.41800000000E+01 0.  1.
        -11    1    3    3    0    0  0.68678309791E+02 -0.10959721421E+03  0.10823276455E+02  0.12978984133E+03  0.00000000000E+00 0. -1.
         11    1    3    3    0    0  0.18802606596E+02  0.66316417266E+01 -0.27000579942E+02  0.33564088011E+02  0.00000000000E+00 0.  1.
</event>
<event>
 7    1  0.6684706E-006  0.2243053E+03  0.7561462E-02  0.1130713E+00
         -2   -1    0    0    0  501 -0.00000000000E+00  0.00000000000E+00  0.22779795848E+03  0.22779795848E+03  0.00000000000E+00 0.  1.
          2   -1    0    0  501    0  0.00000000000E+00 -0.00000000000E+00 -0.33456963141E+03  0.33456963141E+03  0.00000000000E+00 0. -1.
         23    2    1    2    0    0 -0.11669505859E+03  0.11722016429E+03  0.89747457449E+02  0.20938192274E+03  0.91803484874E+02 0.  0.
          5    1    1    2  502    0  0.20333353316E+02 -0.16308158928E+03 -0.18191243965E+03  0.24519106452E+03  0.41800000000E+01 0. -1.
         -5    1    1    2    0  502  0.96361705270E+02  0.45861424985E+02 -0.14606690728E+02  0.10779460264E+03  0.41800000000E+01 0.  1.
        -11    1    3    3    0    0 -0.56922886090E+02  0.10024113397E+03  0.91568171988E+02  0.14721830736E+03  0.00000000000E+00 0.  1.
         11    1    3    3    0    0 -0.59772172496E+02  0.16979030328E+02 -0.18207145388E+01  0.62163615380E+02  0.00000000000E+00 0. -1.
</event>
<event>
 7    1  0.6684706E-006  0.1392537E+03  0.7561462E-02  0.1214337E+00
         -2   -1    0    0    0  501 -0.00000000000E+00  0.00000000000E+00  0.22796161774E+02  0.22796161774E+02  0.00000000000E+00 0.  1.
          2   -1    0    0  501    0  0.00000000000E+00 -0.00000000000E+00 -0.89447402982E+03  0.89447402982E+03  0.00000000000E+00 0. -1.
         23    2    1    2    0    0 -0.11795916007E+02  0.90735439837E+02 -0.41657737757E+03  0.43650440775E+03  0.92883382828E+02 0.  0.
          5    1    1    2  502    0 -0.55497922935E+02 -0.56286707618E+02 -0.22349708159E+03  0.23710046559E+03  0.41800000000E+01 0.  1.
         -5    1    1    2    0  502  0.67293838943E+02 -0.34448732219E+02 -0.23160340888E+03  0.24366531825E+03  0.41800000000E+01 0.  1.
        -11    1    3    3    0    0  0.17210719483E+02  0.92965239053E+02 -0.24751874230E+03  0.26496088829E+03  0.00000000000E+00 0.  1.
         11    1    3    3    0    0 -0.29006635491E+02 -0.22297992164E+01 -0.16905863527E+03  0.17154351946E+03  0.00000000000E+00 0. -1.
</event>
<event>
 7    1  0.6684706E-006  0.1333273E+03  0.7561462E-02  0.1222600E+00
          2   -1    0    0  501    0  0.00000000000E+00  0.00000000000E+00  0.36613374748E+02  0.36613374748E+02  0.00000000000E+00 0.  1.
         -2   -1    0    0    0  501 -0.00000000000E+00 -0.00000000000E+00 -0.54859678895E+03  0.54859678895E+03  0.00000000000E+00 0. -1.
         23    2    1    2    0    0  0.16772136464E-01  0.73843140142E+02 -0.33397522242E+03  0.35545547443E+03  0.96728152504E+02 0.  0.
          5    1    1    2  502    0  0.59194312300E+02 -0.14009586567E+02 -0.75592859025E+02  0.97118421836E+02  0.41800000000E+01 0. -1.
         -5    1    1    2    0  502 -0.59211084437E+02 -0.59833553576E+02 -0.10241533276E+03  0.13263626743E+03  0.41800000000E+01 0. -1.
        -11    1    3    3    0    0 -0.48097647150E+02  0.33565590390E+02 -0.14905561194E+03  0.16017992375E+03  0.00000000000E+00 0.  1.
         11    1    3    3    0    0  0.48114419287E+02  0.40277549753E+02 -0.18491961047E+03  0.19527555068E+03  0.00000000000E+00 0. -1.
</event>
<event>
 7    1  0.6684706E-006  0.1308044E+03  0.7561462E-02  0.1226267E+00
         -1   -1    0    0    0  501 -0.00000000000E+00  0.00000000000E+00  0.75469292247E+02  0.75469292247E+02  0.00000000000E+00 0.  1.
          1   -1    0    0  501    0  0.00000000000E+00 -0.00000000000E+00 -0.39769304363E+03  0.39769304363E+03  0.00000000000E+00 0. -1.
         23    2    1    2    0    0  0.36967855751E+02 -0.67206506559E+02 -0.81123381032E+01  0.11908489422E+03  0.90730728636E+02 0.  0.
          5    1    1    2  502    0 -0.22812918967E+02 -0.36305930875E+02 -0.17398889968E+03  0.17924329695E+03  0.41800000000E+01 0. -1.
         -5    1    1    2    0  502 -0.14154936785E+02  0.10351243743E+03 -0.14012251359E+03  0.17483414471E+03  0.41800000000E+01 0.  1.
        -11    1    3    3    0    0  0.58245759103E+02 -0.71540502136E+02  0.71704830945E+01  0.92531225687E+02  0.00000000000E+00 0.  1.
         11    1    3    3    0    0 -0.21277903352E+02  0.43339955764E+01 -0.15282821198E+02  0.26553668531E+02  0.00000000000E+00 0. -1.
</event>
<event>
 7    1  0.6684706E-006  0.1029186E+03  0.7561462E-02  0.1274275E+00
         -2   -1    0    0    0  501 -0.00000000000E+00  0.00000000000E+00  0.31606293764E+03  0.31606293764E+03  0.00000000000E+00 0.  1.
          2   -1    0    0  501    0  0.00000000000E+00 -0.00000000000E+00 -0.68843977253E+02  0.68843977253E+02  0.00000000000E+00 0. -1.
         23    2    1    2    0    0 -0.52513056193E+02 -0.83931830805E+02  0.10741042109E+03  0.17278227335E+03  0.92274276659E+02 0.  0.
          5    1    1    2  502    0  0.35637003408E+02  0.30404415242E+02  0.14796218732E+03  0.15525690244E+03  0.41800000000E+01 0. -1.
         -5    1    1    2    0  502  0.16876052785E+02  0.53527415563E+02 -0.81536480236E+01  0.56867739101E+02  0.41800000000E+01 0. -1.
        -11    1    3    3    0    0  0.95432616124E+00 -0.16227585518E+02  0.80919289283E+02  0.82535911264E+02  0.00000000000E+00 0.  1.
         11    1    3    3    0    0 -0.53467382354E+02 -0.67704245287E+02  0.26491131807E+02  0.90246362088E+02  0.00000000000E+00 0. -1.
</event>
<event>
 7    1  0.6684706E-006  0.1216730E+03  0.7561462E-02  0.1240362E+00
          1   -1    0    0  501    0  0.00000000000E+00  0.00000000000E+00  0.41247523866E+02  0.41247523866E+02  0.00000000000E+00 0. -1.
         -1   -1    0    0    0  501 -0.00000000000E+00 -0.00000000000E+00 -0.61817939923E+03  0.61817939923E+03  0.00000000000E+00 0.  1.
         23    2    1    2    0    0 -0.39323473575E+02  0.94397967929E+02 -0.38118332993E+03  0.40561257892E+03  0.93613680847E+02 0.  0.
          5    1    1    2  502    0 -0.25786094257E+02 -0.27597612470E+02 -0.12016752891E+01  0.38019301606E+02  0.41800000000E+01 0. -1.
         -5    1    1    2    0  502  0.65109567831E+02 -0.66800355459E+02 -0.19454687014E+03  0.21579504256E+03  0.41800000000E+01 0. -1.
        -11    1    3    3    0    0 -0.18974087243E+02  0.41059899832E+01 -0.77885542040E+01  0.20917378350E+02  0.00000000000E+00 0. -1.
         11    1    3    3    0    0 -0.20349386332E+02  0.90291977946E+02 -0.37339477573E+03  0.38469520057E+03  0.00000000000E+00 0.  1.
</event>
<event>
 7    1  0.6684706E-006  0.1540101E+03  0.7561462E-02  0.1195630E+00
         -2   -1    0    0    0  501 -0.00000000000E+00  0.00000000000E+00  0.28776878997E+03  0.28776878997E+03  0.00000000000E+00 0.  1.
          2   -1    0    0  501    0  0.00000000000E+00 -0.00000000000E+00 -0.93567218302E+02  0.93567218302E+02  0.00000000000E+00 0. -1.
         23    2    1    2    0    0  0.87440200595E+02  0.74980594247E+02  0.13727884381E+03  0.20201044376E+03  0.93246234437E+02 0.  0.
          5    1    1    2  502    0 -0.96595113789E+02 -0.35881107276E+01  0.43083340638E+02  0.10591098709E+03  0.41800000000E+01 0.  1.
         -5    1    1    2    0  502  0.91549131941E+01 -0.71392483519E+02  0.13839387216E+02  0.73414577416E+02  0.41800000000E+01 0.  1.
        -11    1    3    3    0    0  0.46422404598E+02  0.85085528910E+02  0.60156552106E+02  0.11407627992E+03  0.00000000000E+00 0. -1.
         11    1    3    3    0    0  0.41017795997E+02 -0.10104934663E+02  0.77122291705E+02  0.87934163843E+02  0.00000000000E+00 0.  1.
</event>
<event>
 7    1  0.6684706E-006  0.1389060E+03  0.7561462E-02  0.1214809E+00
          2   -1    0    0  501    0  0.00000000000E+00  0.00000000000E+00  0.98174444304E+02  0.98174444304E+02  0.00000000000E+00 0. -1.
         -2   -1    0    0    0  501 -0.00000000000E+00 -0.00000000000E+00 -0.27521179982E+03  0.27521179982E+03  0.00000000000E+00 0.  1.
         23    2    1    2    0    0 -0.57974843178E+02  0.94591232922E+02 -0.13853293728E+03  0.20180658649E+03  0.96051756120E+02 0.  0.
          5    1    1    2  502    0  0.20906262495E+02 -0.11988795502E+03 -0.23046193992E+02  0.12393059762E+03  0.41800000000E+01 0.  1.
         -5    1    1    2    0  502  0.37068580683E+02  0.25296722095E+02 -0.15458224241E+02  0.47649060004E+02  0.41800000000E+01 0.  1.
        -11    1    3    3    0    0 -0.14368838122E+02  0.21458266915E+02 -0.10848082937E+03  0.11151238079E+03  0.00000000000E+00 0.  1.
         11    1    3    3    0    0 -0.43606005056E+02  0.73132966007E+02 -0.30052107906E+02  0.90294205703E+02  0.00000000000E+00 0. -1.
</event>
<event>
 6    1  0.6684706E-006  0.6758087E+02  0.7561462E-02  0.1368518E+00
         -2   -1    0    0    0  501 -0.00000000000E+00  0.00000000000E+00  0.36411000244E+02  0.36411000244E+02  0.00000000000E+00 0.  1.
          2   -1    0    0  501    0  0.00000000000E+00 -0.00000000000E+00 -0.20785908165E+03  0.20785908165E+03  0.00000000000E+00 0. -1.
          5    1    1    2  502    0 -0.41862033217E+02 -0.44016638915E+02 -0.26646590946E+02  0.66463580520E+02  0.41800000000E+01 0. -1.
         -5    1    1    2    0  502  0.36761554255E+02  0.15119810479E+02 -0.13073382239E+03  0.13670707829E+03  0.41800000000E+01 0. -1.
        -11    1    1    2    0    0  0.11003638592E+02  0.11422448594E+02  0.27992587027E+01  0.16105534559E+02  0.00000000000E+00 0.  1.
         11    1    1    2    0    0 -0.59031596305E+01  0.17474379842E+02 -0.16866926778E+02  0.24993888522E+02  0.00000000000E+00 0. -1.
</event>
<event>
 7    1  0.6684706E-006  0.9958975E+02  0.7561462E-02  0.1281161E+00
          1   -1    0    0  501    0  0.00000000000E+00  0.00000000000E+00  0.70029569970E+03  0.70029569970E+03  0.00000000000E+00 0. -1.
         -1   -1    0    0    0  501 -0.00000000000E+00 -0.00000000000E+00 -0.34367083605E+02  0.34367083605E+02  0.00000000000E+00 0.  1.
         23    2    1    2    0    0 -0.26545099792E+02  0.74082214537E+02  0.11553381028E+03  0.16480354871E+03  0.87288782306E+02 0.  0.
          5    1    1    2  502    0 -0.21510446535E+02 -0.12791705575E+02  0.16430206790E+02  0.30228316804E+02  0.41800000000E+01 0. -1.
         -5    1    1    2    0  502  0.48055546327E+02 -0.61290508962E+02  0.53396459903E+03  0.53963091780E+03  0.41800000000E+01 0. -1.
        -11    1    3    3    0    0  0.16939575158E+02  0.16438597966E+02 -0.51578288344E+01  0.24161537780E+02  0.00000000000E+00 0.  1.
         11    1    3    3    0    0 -0.43484674950E+02  0.57643616570E+02  0.12069163911E+03  0.14064201093E+03  0.00000000000E+00 0. -1.
</event>
<event>
 7    1  0.6684706E-006  0.1073483E+03  0.7561462E-02  0.1265561E+00
          2   -1    0    0  501    0  0.00000000000E+00  0.00000000000E+00  0.67969150308E+03  0.67969150308E+03  0.00000000000E+00 0. -1.
         -2   -1    0    0    0  501 -0.00000000000E+00 -0.00000000000E+00 -0.26288283564E+02  0.26288283564E+02  0.00000000000E+00 0.  1.
         23    2    1    2    0    0 -0.36630849717E+02 -0.24895672376E+02  0.12549603776E+03  0.16166449455E+03  0.91785291025E+02 0.  0.
          5    1    1    2  502    0  0.69423977420E+02  0.49245500350E+02  0.26909346961E+03  0.28226508061E+03  0.41800000000E+01 0. -1.
         -5    1    1    2    0  502 -0.32793127703E+02 -0.24349827974E+02  0.25881371215E+03  0.26205021149E+03  0.41800000000E+01 0. -1.
        -11    1    3    3    0    0 -0.10513188473E+02  0.27737182686E+02  0.86845058082E+01  0.30907912843E+02  0.00000000000E+00 0.  1.
         11    1    3    3    0    0 -0.26117661244E+02 -0.52632855062E+02  0.11681153196E+03  0.13075658170E+03  0.00000000000E+00 0. -1.
</event>
<event>
 7    1  0.6684706E-006  0.1125556E+03  0.7561462E-02  0.1255909E+00
         -2   -1    0    0    0  501 -0.00000000000E+00  0.00000000000E+00  0.41003381933E+03  0.41003381933E+03  0.00000000000E+00 0.  1.
          2   -1    0    0  501    0  0.00000000000E+00 -0.00000000000E+00 -0.52077980881E+02  0.52077980881E+02  0.00000000000E+00 0. -1.
         23    2    1    2    0    0  0.47482708214E+02 -0.64729602024E+02  0.25035881627E+03  0.27862035998E+03  0.92223853496E+02 0.  0.
          5    1    1    2  502    0  0.38834090975E+02  0.36904116708E+02  0.61511150292E+02  0.81676768191E+02  0.41800000000E+01 0.  1.
         -5    1    1    2    0  502 -0.86316799189E+02  0.27825485316E+02  0.46085871892E+02  0.10181467204E+03  0.41800000000E+01 0.  1.
        -11    1    3    3    0    0  0.94641836405E+01 -0.18095551853E+02 -0.71925120654E+00  0.20433724358E+02  0.00000000000E+00 0. -1.
         11    1    3    3    0    0  0.38018524574E+02 -0.46634050171E+02  0.25107806747E+03  0.25818663562E+03  0.00000000000E+00 0.  1.
</event>
<event>
 7    1  0.6684706E-006  0.1035443E+03  0.7561462E-02  0.1273014E+00
          2   -1    0    0  501    0  0.00000000000E+00  0.00000000000E+00  0.22916698682E+03  0.22916698682E+03  0.00000000000E+00 0.  1.
         -2   -1    0    0    0  501 -0.00000000000E+00 -0.00000000000E+00 -0.74326866158E+02  0.74326866158E+02  0.00000000000E+00 0. -1.
         23    2    1    2    0    0 -0.56367908430E+02  0.20853099210E+02  0.21263354329E+02  0.11087398348E+03  0.90712276609E+02 0.  0.
          5    1    1    2  502    0  0.66255541829E+02  0.28115292018E+02  0.12113779448E+03  0.14096845080E+03  0.41800000000E+01 0. -1.
         -5    1    1    2    0  502 -0.98876333992E+01 -0.48968391227E+02  0.12438971855E+02  0.51651418707E+02  0.41800000000E+01 0. -1.
        -11    1    3    3    0    0 -0.74546256053E+01  0.33517022932E+02 -0.24916150202E+02  0.42423776470E+02  0.00000000000E+00 0. -1.
         11    1    3    3    0    0 -0.48913282824E+02 -0.12663923722E+02  0.46179504531E+02  0.68450207008E+02  0.00000000000E+00 0.  1.
</event>
<event>
 7    1  0.6684706E-006  0.7612152E+02  0.7561462E-02  0.1340433E+00
          1   -1    0    0  501    0  0.00000000000E+00  0.00000000000E+00  0.98841926579E+02  0.98841926579E+02  0.00000000000E+00 0. -1.
         -1   -1    0    0    0  501 -0.00000000000E+00 -0.00000000000E+00 -0.12786349047E+03  0.12786349047E+03  0.00000000000E+00 0.  1.
         23    2    1    2    0    0  0.43882585914E+01 -0.17049311946E+02 -0.35272600070E+02  0.10023753996E+03  0.92160036075E+02 0.  0.
          5    1    1    2  502    0  0.13065583012E+02 -0.24702873964E+02 -0.47998525851E+02  0.55698045974E+02  0.41800000000E+01 0. -1.
         -5    1    1    2    0  502 -0.17453841604E+02  0.41752185910E+02  0.54249562035E+02  0.70769831115E+02  0.41800000000E+01 0. -1.
        -11    1    3    3    0    0  0.97825202828E+01 -0.47051352418E+02  0.65318685383E+01  0.48499410039E+02  0.00000000000E+00 0.  1.
         11    1    3    3    0    0 -0.53942616914E+01  0.30002040472E+02 -0.41804468609E+02  0.51738129917E+02  0.00000000000E+00 0. -1.
</event>
<event>
 7    1  0.6684706E-006  0.4983467E+02  0.7561462E-02  0.1446235E+00
          2   -1    0    0  501    0  0.00000000000E+00  0.00000000000E+00  0.28769217273E+03  0.28769217273E+03  0.00000000000E+00 0. -1.
         -2   -1    0    0    0  501 -0.00000000000E+00 -0.00000000000E+00 -0.41541037247E+02  0.41541037247E+02  0.00000000000E+00 0.  1.
         23    2    1    2    0    0 -0.16983074746E+02  0.10840338607E+02  0.81754525012E+02  0.12168047282E+03  0.87843026686E+02 0.  0.
          5    1    1    2  502    0  0.14573618028E+02 -0.30953363994E+02 -0.67829728245E+01  0.35128082859E+02  0.41800000000E+01 0. -1.
         -5    1    1    2    0  502  0.24094567180E+01  0.20113025387E+02  0.17117958330E+03  0.17242465430E+03  0.41800000000E+01 0. -1.
        -11    1    3    3    0    0  0.39928533393E+01  0.20883978082E+02  0.93316734847E+02  0.95708392636E+02  0.00000000000E+00 0. -1.
         11    1    3    3    0    0 -0.20975928086E+02 -0.10043639475E+02 -0.11562209835E+02  0.25972080187E+02  0.00000000000E+00 0.  1.
</event>
<event>
 7    1  0.6684706E-006  0.9872927E+02  0.7561462E-02  0.1282991E+00
          2   -1    0    0  501    0  0.00000000000E+00  0.00000000000E+00  0.37831260543E+03  0.37831260543E+03  0.00000000000E+00 0. -1.
         -2   -1    0    0    0  501 -0.00000000000E+00 -0.00000000000E+00 -0.41145279249E+02  0.41145279249E+02  0.00000000000E+00 0.  1.
         23    2    1    2    0    0 -0.16309737600E+02 -0.39455487430E+02  0.73181710496E+02  0.12423261123E+03  0.90859429414E+02 0.  0.
          5    1    1    2  502    0 -0.27711628204E+02  0.44570068931E+02  0.23784653799E+03  0.24360392734E+03  0.41800000000E+01 0.  1.
         -5    1    1    2    0  502  0.44021365804E+02 -0.51145815011E+01  0.26139077697E+02  0.51621346108E+02  0.41800000000E+01 0.  1.
        -11    1    3    3    0    0 -0.45777146150E+02 -0.51104482185E+02  0.47529046591E+02  0.83463917227E+02  0.00000000000E+00 0.  1.
         11    1    3    3    0    0  0.29467408550E+02  0.11648994755E+02  0.25652663905E+02  0.40768694005E+02  0.00000000000E+00 0. -1.
</event>
<event>
 7    1  0.6684706E-006  0.1191258E+03  0.7561462E-02  0.1244546E+00
         -2   -1    0    0    0  501 -0.00000000000E+00  0.00000000000E+00  0.29945095875E+02  0.29945095875E+02  0.00000000000E+00 0.  1.
          2   -1    0    0  501    0  0.00000000000E+00 -0.00000000000E+00 -0.62168673725E+03  0.62168673725E+03  0.00000000000E+00 0. -1.
         23    2    1    2    0    0  0.68159840379E+02  0.14042111875E+02 -0.17643604425E+03  0.21235056309E+03  0.95499419844E+02 0.  0.
          5    1    1    2  502    0 -0.93979863859E+02 -0.23679263668E+02 -0.38914201512E+03  0.40105099759E+03  0.41800000000E+01 0. -1.
         -5    1    1    2    0  502  0.25820023480E+02  0.96371517932E+01 -0.26163582008E+02  0.38230272438E+02  0.41800000000E+01 0. -1.
        -11    1    3    3    0    0  0.63544570941E+02 -0.29163960704E+02 -0.13635614711E+03  0.15323657512E+03  0.00000000000E+00 0. -1.
         11    1    3    3    0    0  0.46152694381E+01  0.43206072578E+02 -0.40079897136E+02  0.59113987973E+02  0.00000000000E+00 0.  1.
</event>
<event>
 7    1  0.6684706E-006  0.1104795E+03  0.7561462E-02  0.1259685E+00
         -1   -1    0    0    0  501 -0.00000000000E+00  0.00000000000E+00  0.27669989347E+02  0.27669989347E+02  0.00000000000E+00 0.  1.
          1   -1    0    0  501    0  0.00000000000E+00 -0.00000000000E+00 -0.45402383433E+03  0.45402383433E+03  0.00000000000E+00 0. -1.
         23    2    1    2    0    0 -0.20620552871E+01  0.22703900039E+02 -0.15513262285E+03  0.18214627948E+03  0.92689898633E+02 0.  0.
          5    1    1    2  502    0  0.58330820016E+02  0.13376545636E+02 -0.13631191817E+03  0.14892893598E+03  0.41800000000E+01 0.  1.
         -5    1    1    2    0  502 -0.56268764729E+02 -0.36080445675E+02 -0.13490930397E+03  0.15061860822E+03  0.41800000000E+01 0.  1.
        -11    1    3    3    0    0  0.34334776374E+02  0.40818887111E+02 -0.10342979425E+03  0.11637345381E+03  0.00000000000E+00 0. -1.
         11    1    3    3    0    0 -0.36396831661E+02 -0.18114987072E+02 -0.51702828596E+02  0.65772825669E+02  0.00000000000E+00 0.  1.
</event>
<event>
 7    1  0.6684706E-006  0.1269710E+03  0.7561462E-02  0.1232021E+00
          2   -1    0    0  501    0  0.00000000000E+00  0.00000000000E+00  0.79046746474E+02  0.79046746474E+02  0.00000000000E+00 0. -1.
         -2   -1    0    0    0  501 -0.00000000000E+00 -0.00000000000E+00 -0.26024715569E+03  0.26024715569E+03  0.00000000000E+00 0.  1.
         23    2    1    2    0    0  0.91058421801E+02  0.38995690024E+01 -0.10605287302E+03  0.16724187296E+03  0.91737611558E+02 0.  0.
          5    1    1    2  502    0 -0.59241455574E+01  0.51673531715E+02 -0.34085531509E+02  0.62326120036E+02  0.41800000000E+01 0. -1.
         -5    1    1    2    0  502 -0.85134276243E+02 -0.55573100717E+02 -0.41062004683E+02  0.10972590917E+03  0.41800000000E+01 0. -1.
        -11    1    3    3    0    0  0.13210738221E+02 -0.14910792721E+02  0.12978260971E+02  0.23775840716E+02  0.00000000000E+00 0. -1.
         11    1    3    3    0    0  0.77847683580E+02  0.18810361724E+02 -0.11903113399E+03  0.14346603224E+03  0.00000000000E+00 0.  1.
</event>
<event>
 7    1  0.6684706E-006  0.9062233E+02  0.7561462E-02  0.1301352E+00
         -2   -1    0    0    0  501 -0.00000000000E+00  0.00000000000E+00  0.23564687321E+02  0.23564687321E+02  0.00000000000E+00 0.  1.
          2   -1    0    0  501    0  0.00000000000E+00 -0.00000000000E+00 -0.49655091529E+03  0.49655091529E+03  0.00000000000E+00 0. -1.
         23    2    1    2    0    0 -0.41993930245E+01  0.16292877718E+01 -0.20069068066E+03  0.22021102563E+03  0.90530972750E+02 0.  0.
          5    1    1    2  502    0  0.48954739745E+02  0.43177018917E+01 -0.23799035646E+03  0.24304750824E+03  0.41800000000E+01 0. -1.
         -5    1    1    2    0  502 -0.44755346720E+02 -0.59469896635E+01 -0.34305190846E+02  0.56857068734E+02  0.41800000000E+01 0.  1.
        -11    1    3    3    0    0  0.18925403474E+02  0.38590558545E+02 -0.13228422427E+03  0.13909176142E+03  0.00000000000E+00 0.  1.
         11    1    3    3    0    0 -0.23124796498E+02 -0.36961270773E+02 -0.68406456391E+02  0.81119264212E+02  0.00000000000E+00 0. -1.
</event>
<event>
 7    1  0.6684706E-006  0.1191997E+03  0.7561462E-02  0.1244423E+00
          1   -1    0    0  501    0  0.00000000000E+00  0.00000000000E+00  0.69330710124E+03  0.69330710124E+03  0.00000000000E+00 0. -1.
         -1   -1    0    0    0  501 -0.00000000000E+00 -0.00000000000E+00 -0.25950527677E+02  0.25950527677E+02  0.00000000000E+00 0.  1.
         23    2    1    2    0    0 -0.69038452648E+00  0.64522150600E+02  0.18456887504E+03  0.21637059204E+03  0.92665953403E+02 0.  0.
          5    1    1    2  502    0  0.59774379280E+02 -0.52855273601E+02  0.29537600655E+03  0.30599201625E+03  0.41800000000E+01 0.  1.
         -5    1    1    2    0  502 -0.59083994754E+02 -0.11666876998E+02  0.18741169197E+03  0.19689502061E+03  0.41800000000E+01 0.  1.
        -11    1    3    3    0    0  0.35876501767E+02  0.41766675573E+02  0.15402453198E+03  0.16356996980E+03  0.00000000000E+00 0. -1.
         11    1    3    3    0    0 -0.36566886293E+02  0.22755475026E+02  0.30544343055E+02  0.52800622246E+02  0.00000000000E+00 0.  1.
</event>
<event>
 7    1  0.6684706E-006  0.8176727E+02  0.7561462E-02  0.1324110E+00
         -2   -1    0    0    0  501 -0.00000000000E+00  0.00000000000E+00  0.38968045886E+02  0.38968045886E+02  0.00000000000E+00 0.  1.
          2   -1    0    0  501    0  0.00000000000E+00 -0.00000000000E+00 -0.59668437751E+03  0.59668437751E+03  0.00000000000E+00 0. -1.
         23    2    1    2    0    0 -0.13207109563E+02  0.23210867560E+02 -0.40419009598E+02  0.10277583252E+03  0.90642171738E+02 0.  0.
          5    1    1    2  502    0  0.40846240918E+02 -0.43135832069E+02 -0.11867883224E+03  0.13278272865E+03  0.41800000000E+01 0. -1.
         -5    1    1    2    0  502 -0.27639131355E+02  0.19924964510E+02 -0.39861848979E+03  0.40009386223E+03  0.41800000000E+01 0. -1.
        -11    1    3    3    0    0  0.10925855297E+01 -0.22106533855E+02  0.17242032044E+02  0.28056732726E+02  0.00000000000E+00 0.  1.
         11    1    3    3    0    0 -0.14299695092E+02  0.45317401415E+02 -0.57661041642E+02  0.74719099794E+02  0.00000000000E+00 0. -1.
</event>
<event>
 7    1  0.6684706E-006  0.1474472E+03  0.7561462E-02  0.1203645E+00
         -1   -1    0    0    0  501 -0.00000000000E+00  0.00000000000E+00  0.44292996201E+02  0.44292996201E+02  0.00000000000E+00 0.  1.
          1   -1    0    0  501    0  0.00000000000E+00 -0.00000000000E+00 -0.51608570755E+03  0.51608570755E+03  0.00000000000E+00 0. -1.
         23    2    1    2    0    0  0.79238105755E+02  0.63771601397E+02 -0.26120434535E+03  0.29516766984E+03  0.92470258673E+02 0.  0.
          5    1    1    2  502    0 -0.62757606012E+02 -0.99667178841E+02 -0.13066699154E+03  0.17596419729E+03  0.41800000000E+01 0.  1.
         -5    1    1    2    0  502 -0.16480499743E+02  0.35895577443E+02 -0.79921374455E+02  0.89246836620E+02  0.41800000000E+01 0.  1.
        -11    1    3    3    0    0  0.28475939437E+02 -0.23126129216E+02 -0.75835782238E+02  0.84242286573E+02  0.00000000000E+00 0.  1.
         11    1    3    3    0    0  0.50762166318E+02  0.86897730614E+02 -0.18536856312E+03  0.21092538327E+03  0.00000000000E+00 0. -1.
</event>
<event>
 7    1  0.6684706E-006  0.8636513E+02  0.7561462E-02  0.1311901E+00
         -1   -1    0    0    0  501 -0.00000000000E+00  0.00000000000E+00  0.24023253751E+02  0.24023253751E+02  0.00000000000E+00 0.  1.
          1   -1    0    0  501    0  0.00000000000E+00 -0.00000000000E+00 -0.66953573830E+03  0.66953573830E+03  0.00000000000E+00 0. -1.
         23    2    1    2    0    0  0.29701429872E+02 -0.57167257011E+02 -0.24743948772E+03  0.27135065893E+03  0.90854883249E+02 0.  0.
          5    1    1    2  502    0  0.64896332708E+01  0.19876864591E+02 -0.60061242220E+00  0.21331624909E+02  0.41800000000E+01 0.  1.
         -5    1    1    2    0  502 -0.36191063143E+02  0.37290392419E+02 -0.39747238441E+03  0.40087670821E+03  0.41800000000E+01 0.  1.
        -11    1    3    3    0    0  0.14446180493E+02  0.17712294455E+02 -0.12461720662E+03  0.12669595768E+03  0.00000000000E+00 0. -1.
         11    1    3    3    0    0  0.15255249379E+02 -0.74879551466E+02 -0.12282228110E+03  0.14465470125E+03  0.00000000000E+00 0.  1.
</event>
<event>
 7    1  0.6684706E-006  0.9980051E+02  0.7561462E-02  0.1280716E+00
          2   -1    0    0  501    0  0.00000000000E+00  0.00000000000E+00  0.28296217064E+02  0.28296217064E+02  0.00000000000E+00 0. -1.
         -2   -1    0    0    0  501 -0.00000000000E+00 -0.00000000000E+00 -0.47272943391E+03  0.47272943391E+03  0.00000000000E+00 0.  1.
         23    2    1    2    0    0  0.32604977374E+02 -0.13780576877E+02 -0.24065408499E+03  0.25930994932E+03  0.89856954916E+02 0.  0.
          5    1    1    2  502    0 -0.45757885646E+02 -0.36727117419E+02 -0.16877817037E+03  0.17873502300E+03  0.41800000000E+01 0.  1.
         -5    1    1    2    0  502  0.13152908272E+02  0.50507694295E+02 -0.35000961491E+02  0.62980678659E+02  0.41800000000E+01 0.  1.
        -11    1    3    3    0    0  0.35107185706E+02 -0.45013776209E+02 -0.19996990883E+03  0.20795845493E+03  0.00000000000E+00 0.  1.
         11    1    3    3    0    0 -0.25022083319E+01  0.31233199333E+02 -0.40684176155E+02  0.51351494394E+02  0.00000000000E+00 0. -1.
</event>
<event>
 7    1  0.6684706E-006  0.1343651E+03  0.7561462E-02  0.1221119E+00
         -1   -1    0    0    0  501 -0.00000000000E+00  0.00000000000E+00  0.94872871279E+02  0.94872871279E+02  0.00000000000E+00 0.  1.
          1   -1    0    0  501    0  0.00000000000E+00 -0.00000000000E+00 -0.21846806609E+03  0.21846806609E+03  0.00000000000E+00 0. -1.
         23    2    1    2    0    0 -0.24934592079E+02 -0.90296367564E+02 -0.35066570117E+02  0.13373118042E+03  0.88764837634E+02 0.  0.
          5    1    1    2  502    0  0.57959469416E+01 -0.31744268270E+02 -0.15460810389E+02  0.36025000025E+02  0.41800000000E+01 0.  1.
         -5    1    1    2    0  502  0.19138645137E+02  0.12204063583E+03 -0.73067814305E+02  0.14358475692E+03  0.41800000000E+01 0.  1.
        -11    1    3    3    0    0  0.18758668242E+02 -0.49000117278E+02  0.15996106021E+02  0.54852297448E+02  0.00000000000E+00 0.  1.
         11    1    3    3    0    0 -0.43693260321E+02 -0.41296250286E+02 -0.51062676137E+02  0.78878882976E+02  0.00000000000E+00 0. -1.
</event>
<event>
 7    1  0.6684706E-006  0.8277528E+02  0.7561462E-02  0.1321355E+00
          3   -1    0    0  501    0  0.00000000000E+00  0.00000000000E+00  0.31176848662E+03  0.31176848662E+03  0.00000000000E+00 0. -1.
         -3   -1    0    0    0  501 -0.00000000000E+00 -0.00000000000E+00 -0.58935835541E+02  0.58935835541E+02  0.00000000000E+00 0.  1.
         23    2    1    2    0    0  0.30741045745E+02  0.17115300077E+02  0.13122265949E+02  0.98039931954E+02  0.90563176864E+02 0.  0.
          5    1    1    2  502    0 -0.41949393430E+02  0.34935945638E+02  0.45333260011E+02  0.71083393068E+02  0.41800000000E+01 0. -1.
         -5    1    1    2    0  502  0.11208347685E+02 -0.52051245715E+02  0.19437712512E+03  0.20158099714E+03  0.41800000000E+01 0. -1.
        -11    1    3    3    0    0  0.41576633137E+02  0.62462396489E+01 -0.30405498913E+02  0.51885704167E+02  0.00000000000E+00 0.  1.
         11    1    3    3    0    0 -0.10835587392E+02  0.10869060428E+02  0.43527764862E+02  0.46154227787E+02  0.00000000000E+00 0. -1.
</event>
<event>
 7    1  0.6684706E-006  0.1143970E+03  0.7561462E-02  0.1252637E+00
         -1   -1    0    0    0  501 -0.00000000000E+00  0.00000000000E+00  0.12334266501E+02  0.12334266501E+02  0.00000000000E+00 0.  1.
          1   -1    0    0  501    0  0.00000000000E+00 -0.00000000000E+00 -0.13544831978E+04  0.13544831978E+04  0.00000000000E+00 0. -1.
         23    2    1    2    0    0 -0.51326833962E+02  0.11254756756E+02 -0.35744158064E+03  0.37280708371E+03  0.91975674281E+02 0.  0.
          5    1    1    2  502    0  0.37579997607E+02  0.54923716232E+02 -0.55659523206E+03  0.56057523632E+03  0.41800000000E+01 0.  1.
         -5    1    1    2    0  502  0.13746836355E+02 -0.66178472988E+02 -0.42811211863E+03  0.43343514430E+03  0.41800000000E+01 0.  1.
        -11    1    3    3    0    0  0.88770972317E+01  0.30041538496E+02 -0.50296642597E+02  0.59254106583E+02  0.00000000000E+00 0.  1.
         11    1    3    3    0    0 -0.60203931194E+02 -0.18786781740E+02 -0.30714493804E+03  0.31355297712E+03  0.00000000000E+00 0. -1.
</event>
<event>
 7    1  0.6684706E-006  0.1005724E+03  0.7561462E-02  0.1279097E+00
          2   -1    0    0  501    0  0.00000000000E+00  0.00000000000E+00  0.70612176921E+03  0.70612176921E+03  0.00000000000E+00 0. -1.
         -2   -1    0    0    0  501 -0.00000000000E+00 -0.00000000000E+00 -0.27702619552E+02  0.27702619552E+02  0.00000000000E+00 0.  1.
         23    2    1    2    0    0 -0.74029072977E+02  0.17696983719E+02  0.19588611723E+03  0.22956737593E+03  0.92392219860E+02 0.  0.
          5    1    1    2  502    0  0.57947916309E+01  0.29464745317E+02  0.32282084453E+03  0.32424145462E+03  0.41800000000E+01 0.  1.
         -5    1    1    2    0  502  0.68234281346E+02 -0.47161729036E+02  0.15971218789E+03  0.18001555821E+03  0.41800000000E+01 0.  1.
        -11    1    3    3    0    0 -0.42856948065E+02 -0.12223639249E+02  0.20713429895E+02  0.49144496456E+02  0.00000000000E+00 0.  1.
         11    1    3    3    0    0 -0.31172124912E+02  0.29920622969E+02  0.17517268733E+03  0.18042287948E+03  0.00000000000E+00 0. -1.
</event>
<event>
 7    1  0.6684706E-006  0.1239170E+03  0.7561462E-02  0.1236772E+00
          2   -1    0    0  501    0  0.00000000000E+00  0.00000000000E+00  0.36441449547E+03  0.36441449547E+03  0.00000000000E+00 0. -1.
         -2   -1    0    0    0  501 -0.00000000000E+00 -0.00000000000E+00 -0.58710957259E+02  0.58710957259E+02  0.00000000000E+00 0.  1.
         23    2    1    2    0    0 -0.13662887472E+02  0.50869270956E+02  0.49081462747E+02  0.11595777519E+03  0.90900266340E+02 0.  0.
          5    1    1    2  502    0  0.60813863524E+02 -0.73442562477E+02  0.22856236246E+03  0.24769005211E+03  0.41800000000E+01 0. -1.
         -5    1    1    2    0  502 -0.47150976052E+02  0.22573291521E+02  0.28059713005E+02  0.59477625429E+02  0.41800000000E+01 0.  1.
        -11    1    3    3    0    0 -0.49786435121E+02  0.32107349223E+02  0.11076003602E+02  0.60268141268E+02  0.00000000000E+00 0.  1.
         11    1    3    3    0    0  0.36123547649E+02  0.18761921733E+02  0.38005459145E+02  0.55689633925E+02  0.00000000000E+00 0. -1.
</event>
<event>
 7    1  0.6684706E-006  0.9094379E+02  0.7561462E-02  0.1300582E+00
          1   -1    0    0  501    0  0.00000000000E+00  0.00000000000E+00  0.79959475628E+03  0.79959475628E+03  0.00000000000E+00 0. -1.
         -1   -1    0    0    0  501 -0.00000000000E+00 -0.00000000000E+00 -0.24325984566E+02  0.24325984566E+02  0.00000000000E+00 0.  1.
         23    2    1    2    0    0  0.64987919931E+02  0.46863079748E+02  0.27524143444E+03  0.30228945662E+03  0.95924399257E+02 0.  0.
          5    1    1    2  502    0 -0.34533052218E+02 -0.45183600133E+02  0.69031011225E+02  0.89536821070E+02  0.41800000000E+01 0.  1.
         -5    1    1    2    0  502 -0.30454867713E+02 -0.16794796145E+01  0.43099632605E+03  0.43209446315E+03  0.41800000000E+01 0.  1.
        -11    1    3    3    0    0  0.62773640741E+02  0.18239495241E+02  0.26313309850E+03  0.27113140114E+03  0.00000000000E+00 0. -1.
         11    1    3    3    0    0  0.22142791901E+01  0.28623584507E+02  0.12108335944E+02  0.31158055487E+02  0.00000000000E+00 0.  1.
</event>
<event>
 7    1  0.6684706E-006  0.9674381E+02  0.7561462E-02  0.1287296E+00
          2   -1    0    0  501    0  0.00000000000E+00  0.00000000000E+00  0.52054756616E+03  0.52054756616E+03  0.00000000000E+00 0. -1.
         -2   -1    0    0    0  501 -0.00000000000E+00 -0.00000000000E+00 -0.37026371807E+02  0.37026371807E+02  0.00000000000E+00 0.  1.
         23    2    1    2    0    0 -0.83378238689E+02  0.14275123579E+02  0.18664204585E+03  0.22449674694E+03  0.91694199762E+02 0.  0.
          5    1    1    2  502    0  0.13531903185E+02  0.24935040271E+02  0.22037712933E+03  0.22223505612E+03  0.41800000000E+01 0. -1.
         -5    1    1    2    0  502  0.69846335504E+02 -0.39210163850E+02  0.76502019186E+02  0.11084213491E+03  0.41800000000E+01 0. -1.
        -11    1    3    3    0    0 -0.56368656504E+02  0.89992734692E+01  0.18846152994E+03  0.19691663370E+03  0.00000000000E+00 0. -1.
         11    1    3    3    0    0 -0.27009582185E+02  0.52758501100E+01 -0.18194840955E+01  0.27580113245E+02  0.00000000000E+00 0.  1.
</event>
<event>
 7    1  0.6684706E-006  0.8158872E+02  0.7561462E-02  0.1324602E+00
          4   -1    0    0  501    0  0.00000000000E+00  0.00000000000E+00  0.37172729963E+03  0.37172729963E+03  0.00000000000E+00 0. -1.
         -4   -1    0    0    0  501 -0.00000000000E+00 -0.00000000000E+00 -0.36704351969E+02  0.36704351969E+02  0.00000000000E+00 0.  1.
         23    2    1    2    0    0  0.77780882669E+01  0.41239350149E+02  0.86033844010E+02  0.12664319849E+03  0.82918603168E+02 0.  0.
          5    1    1    2  502    0  0.31377874583E+02 -0.55680569874E+02  0.22397433532E+03  0.23295251052E+03  0.41800000000E+01 0.  1.
         -5    1    1    2    0  502 -0.39155962850E+02  0.14441219725E+02  0.25014768330E+02  0.48835942588E+02  0.41800000000E+01 0.  1.
        -11    1    3    3    0    0 -0.97761967894E+01  0.38122315392E+02  0.59127524385E+00  0.39360317084E+02  0.00000000000E+00 0.  1.
         11    1    3    3    0    0  0.17554285056E+02  0.31170347568E+01  0.85442568767E+02  0.87282881408E+02  0.00000000000E+00 0. -1.
</event>
<event>
 7    1  0.6684706E-006  0.1337032E+03  0.7561462E-02  0.1222062E+00
         -2   -1    0    0    0  501 -0.00000000000E+00  0.00000000000E+00  0.17137833959E+02  0.17137833959E+02  0.00000000000E+00 0.  1.
          2   -1    0    0  501    0  0.00000000000E+00 -0.00000000000E+00 -0.13027739434E+04  0.13027739434E+04  0.00000000000E+00 0. -1.
         23    2    1    2    0    0  0.86974299467E+02 -0.48602575691E+02 -0.48446163904E+03  0.50293178810E+03  0.91162298405E+02 0.  0.
          5    1    1    2  502    0 -0.24607309723E+02 -0.37894127592E+02 -0.13785940265E+03  0.14513501265E+03  0.41800000000E+01 0. -1.
         -5    1    1    2    0  502 -0.62366989744E+02  0.86496703283E+02 -0.66331506779E+03  0.67184497665E+03  0.41800000000E+01 0. -1.
        -11    1    3    3    0    0 -0.85309244442E+01 -0.74198222356E+01 -0.50758951615E+01  0.12393350861E+02  0.00000000000E+00 0.  1.
         11    1    3    3    0    0  0.95505223911E+02 -0.41182753456E+02 -0.47938574388E+03  0.49053843724E+03  0.00000000000E+00 0. -1.
</event>
<event>
 7    1  0.6684706E-006  0.8646828E+02  0.7561462E-02  0.1311637E+00
         -2   -1    0    0    0  501 -0.00000000000E+00  0.00000000000E+00  0.21876179354E+03  0.21876179354E+03  0.00000000000E+00 0.  1.
          2   -1    0    0  501    0  0.00000000000E+00 -0.00000000000E+00 -0.87033604945E+02  0.87033604945E+02  0.00000000000E+00 0. -1.
         23    2    1    2    0    0  0.59167400065E+00  0.47221166726E+02  0.13738876594E+03  0.17196909224E+03  0.92019057891E+02 0.  0.
          5    1    1    2  502    0 -0.19625903567E+02 -0.47827946508E+02 -0.58097936377E+02  0.77881520075E+02  0.41800000000E+01 0.  1.
         -5    1    1    2    0  502  0.19034229566E+02  0.60677978223E+00  0.52437359035E+02  0.55944786169E+02  0.41800000000E+01 0.  1.
        -11    1    3    3    0    0 -0.37376055267E+02  0.51206555122E+02  0.69412524178E+02  0.94006272704E+02  0.00000000000E+00 0. -1.
         11    1    3    3    0    0  0.37967729268E+02 -0.39853883967E+01  0.67976241758E+02  0.77962819536E+02  0.00000000000E+00 0.  1.
</event>
<event>
 7    1  0.6684706E-006  0.1212667E+03  0.7561462E-02  0.1241022E+00
         -2   -1    0    0    0  501 -0.00000000000E+00  0.00000000000E+00  0.87396108266E+02  0.87396108266E+02  0.00000000000E+00 0.  1.
          2   -1    0    0  501    0  0.00000000000E+00 -0.00000000000E+00 -0.28402846495E+03  0.28402846495E+03  0.00000000000E+00 0. -1.
         23    2    1    2    0    0  0.51584574286E+02  0.72476373190E+02 -0.61372457017E+01  0.12678777962E+03  0.90131472313E+02 0.  0.
          5    1    1    2  502    0  0.84898127398E+01  0.31730392669E+02 -0.42808253241E+02  0.54119439066E+02  0.41800000000E+01 0.  1.
         -5    1    1    2    0  502 -0.60074387026E+02 -0.10420676586E+03 -0.14768685774E+03  0.19051735453E+03  0.41800000000E+01 0.  1.
        -11    1    3    3    0    0  0.34726784172E+02  0.52224179553E+02 -0.46856045975E+02  0.78286675197E+02  0.00000000000E+00 0. -1.
         11    1    3    3    0    0  0.16857790114E+02  0.20252193636E+02  0.40718800273E+02  0.48501104424E+02  0.00000000000E+00 0.  1.
</event>
<event>
 7    1  0.6684706E-006  0.9341971E+02  0.7561462E-02  0.1294775E+00
          2   -1    0    0  501    0  0.00000000000E+00  0.00000000000E+00  0.21247424893E+04  0.21247424893E+04  0.00000000000E+00 0.  1.
         -2   -1    0    0    0  501 -0.00000000000E+00 -0.00000000000E+00 -0.12796767416E+02  0.12796767416E+02  0.00000000000E+00 0. -1.
         23    2    1    2    0    0  0.45675307446E+02  0.66683462402E+02  0.37076897871E+03  0.39000466593E+03  0.90006033165E+02 0.  0.
          5    1    1    2  502    0  0.24527856583E+01 -0.25685122723E+01  0.12365623996E+04  0.12365745647E+04  0.41800000000E+01 0. -1.
         -5    1    1    2    0  502 -0.48128093105E+02 -0.64114950129E+02  0.50461434359E+03  0.51096002616E+03  0.41800000000E+01 0. -1.
        -11    1    3    3    0    0  0.25991833877E+02 -0.52345093840E+01  0.25535018930E+02  0.36810497261E+02  0.00000000000E+00 0. -1.
         11    1    3    3    0    0  0.19683473569E+02  0.71917971786E+02  0.34523395978E+03  0.35319416867E+03  0.00000000000E+00 0.  1.
</event>
<event>
 7    1  0.6684706E-006  0.9100230E+02  0.7561462E-02  0.1300442E+00
         -1   -1    0    0    0  501 -0.00000000000E+00  0.00000000000E+00  0.30105037921E+03  0.30105037921E+03  0.00000000000E+00 0.  1.
          1   -1    0    0  501    0  0.00000000000E+00 -0.00000000000E+00 -0.52125995067E+02  0.52125995067E+02  0.00000000000E+00 0. -1.
         23    2    1    2    0    0  0.43539770300E+02  0.37983163348E+02  0.85204309340E+02  0.13919140643E+03  0.93680526242E+02 0.  0.
          5    1    1    2  502    0 -0.48183945936E+02  0.28823887790E+02  0.28663812152E+02  0.63179076286E+02  0.41800000000E+01 0.  1.
         -5    1    1    2    0  502  0.46441756363E+01 -0.66807051138E+02  0.13505626265E+03  0.15080589156E+03  0.41800000000E+01 0.  1.
        -11    1    3    3    0    0  0.27432600774E+02  0.17473544798E+02  0.10274008951E+03  0.10776547845E+03  0.00000000000E+00 0.  1.
         11    1    3    3    0    0  0.16107169526E+02  0.20509618550E+02 -0.17535780168E+02  0.31425927978E+02  0.00000000000E+00 0. -1.
</event>
<event>
 7    1  0.6684706E-006  0.1060923E+03  0.7561462E-02  0.1267982E+00
          1   -1    0    0  501    0  0.00000000000E+00  0.00000000000E+00  0.87816656121E+03  0.87816656121E+03  0.00000000000E+00 0. -1.
         -1   -1    0    0    0  501 -0.00000000000E+00 -0.00000000000E+00 -0.21081328570E+02  0.21081328570E+02  0.00000000000E+00 0.  1.
         23    2    1    2    0    0  0.26686652739E+01 -0.55605620977E+02  0.18340822182E+03  0.21179815366E+03  0.90115343902E+02 0.  0.
          5    1    1    2  502    0  0.49365277556E+02  0.11570133819E+02  0.46741112784E+03  0.47017170635E+03  0.41800000000E+01 0.  1.
         -5    1    1    2    0  502 -0.52033942830E+02  0.44035487158E+02  0.20626588299E+03  0.21727802977E+03  0.41800000000E+01 0.  1.
        -11    1    3    3    0    0  0.35345613126E+02 -0.47747452463E+02  0.62178103647E+02  0.85995628709E+02  0.00000000000E+00 0.  1.
         11    1    3    3    0    0 -0.32676947852E+02 -0.78581685141E+01  0.12123011817E+03  0.12580252495E+03  0.00000000000E+00 0. -1.
</event>
<event>
 7    1  0.6684706E-006  0.1991551E+03  0.7561462E-02  0.1150454E+00
         -1   -1    0    0    0  501 -0.00000000000E+00  0.00000000000E+00  0.60152288795E+02  0.60152288795E+02  0.00000000000E+00 0.  1.
          1   -1    0    0  501    0  0.00000000000E+00 -0.00000000000E+00 -0.87070757214E+03  0.87070757214E+03  0.00000000000E+00 0. -1.
         23    2    1    2    0    0  0.22837225525E+01  0.17864389460E+03 -0.20515919400E+03  0.28737670490E+03  0.92607878543E+02 0.  0.
          5    1    1    2  502    0 -0.49101405878E+02 -0.63491654553E+02 -0.13680812016E+03  0.15866969591E+03  0.41800000000E+01 0.  1.
         -5    1    1    2    0  502  0.46817683326E+02 -0.11515224005E+03 -0.46858796917E+03  0.48481346012E+03  0.41800000000E+01 0.  1.
        -11    1    3    3    0    0 -0.30262611814E+02  0.34960781940E+02 -0.19038016830E+02  0.50005280046E+02  0.00000000000E+00 0.  1.
         11    1    3    3    0    0  0.32546334367E+02  0.14368311266E+03 -0.18612117717E+03  0.23737142485E+03  0.00000000000E+00 0. -1.
</event>
<event>
 7    1  0.6684706E-006  0.1110373E+03  0.7561462E-02  0.1258661E+00
          1   -1    0    0  501    0  0.00000000000E+00  0.00000000000E+00  0.23818341948E+03  0.23818341948E+03  0.00000000000E+00 0. -1.
         -1   -1    0    0    0  501 -0.00000000000E+00 -0.00000000000E+00 -0.70189810698E+02  0.70189810698E+02  0.00000000000E+00 0.  1.
         23    2    1    2    0    0 -0.25852538016E+02 -0.11445886595E+02  0.13325525045E+01  0.98080098296E+02  0.93907230519E+02 0.  0.
          5    1    1    2  502    0  0.18141109914E+02  0.67949526629E+02  0.81700793174E+02  0.10788294603E+03  0.41800000000E+01 0. -1.
         -5    1    1    2    0  502  0.77114281021E+01 -0.56503640034E+02  0.84960263107E+02  0.10241018586E+03  0.41800000000E+01 0. -1.
        -11    1    3    3    0    0 -0.28105562688E+01 -0.49701851918E+02 -0.12501886406E+02  0.51327092986E+02  0.00000000000E+00 0.  1.
         11    1    3    3    0    0 -0.23041981747E+02  0.38255965323E+02  0.13834438911E+02  0.46753005311E+02  0.00000000000E+00 0. -1.
</event>
<event>
 7    1  0.6684706E-006  0.1039971E+03  0.7561462E-02  0.1272108E+00
         -4   -1    0    0    0  501 -0.00000000000E+00  0.00000000000E+00  0.53340491680E+02  0.53340491680E+02  0.00000000000E+00 0.  1.
          4   -1    0    0  501    0  0.00000000000E+00 -0.00000000000E+00 -0.36579125400E+03  0.36579125400E+03  0.00000000000E+00 0. -1.
         23    2    1    2    0    0 -0.38257688784E+02 -0.70039531087E+02 -0.86381932793E+02  0.14871964989E+03  0.91030265766E+02 0.  0.
          5    1    1    2  502    0 -0.24871858042E+02  0.50798964227E+02 -0.31420245487E+02  0.64837090584E+02  0.41800000000E+01 0. -1.
         -5    1    1    2    0  502  0.63129546826E+02  0.19240566860E+02 -0.19464858404E+03  0.20557500520E+03  0.41800000000E+01 0. -1.
        -11    1    3    3    0    0 -0.32117185766E+02 -0.27832784040E+02  0.97040072047E+01  0.43592949484E+02  0.00000000000E+00 0.  1.
         11    1    3    3    0    0 -0.61405030180E+01 -0.42206747047E+02 -0.96085939998E+02  0.10512670041E+03  0.00000000000E+00 0. -1.
</event>
<event>
 7    1  0.6684706E-006  0.1009272E+03  0.7561462E-02  0.1278358E+00
          2   -1    0    0  501    0  0.00000000000E+00  0.00000000000E+00  0.44041629513E+03  0.44041629513E+03  0.00000000000E+00 0. -1.
         -2   -1    0    0    0  501 -0.00000000000E+00 -0.00000000000E+00 -0.36732548276E+02  0.36732548276E+02  0.00000000000E+00 0.  1.
         23    2    1    2    0    0 -0.38166454907E+02 -0.57751377467E+02  0.16695128306E+03  0.20059572213E+03  0.87028805250E+02 0.  0.
          5    1    1    2  502    0 -0.15421387791E+02  0.10437720908E+02 -0.86368421972E+01  0.20948333162E+02  0.41800000000E+01 0. -1.
         -5    1    1    2    0  502  0.53587842698E+02  0.47313656559E+02  0.24536930600E+03  0.25560478811E+03  0.41800000000E+01 0. -1.
        -11    1    3    3    0    0 -0.55534414082E+02 -0.70406041168E+02  0.13678624580E+03  0.16355903772E+03  0.00000000000E+00 0. -1.
         11    1    3    3    0    0  0.17367959175E+02  0.12654663701E+02  0.30165037259E+02  0.37036684411E+02  0.00000000000E+00 0.  1.
</event>
<event>
 7    1  0.6684706E-006  0.9062784E+02  0.7561462E-02  0.1301338E+00
         -2   -1    0    0    0  501 -0.00000000000E+00  0.00000000000E+00  0.70569528324E+02  0.70569528324E+02  0.00000000000E+00 0.  1.
          2   -1    0    0  501    0  0.00000000000E+00 -0.00000000000E+00 -0.19434878621E+03  0.19434878621E+03  0.00000000000E+00 0. -1.
         23    2    1    2    0    0 -0.12452657098E+02 -0.35578564782E+02 -0.35451579676E+02  0.10722377191E+03  0.93910701309E+02 0.  0.
          5    1    1    2  502    0 -0.43305877347E+02 -0.29554592724E+00  0.42848001777E+01  0.43718626153E+02  0.41800000000E+01 0.  1.
         -5    1    1    2    0  502  0.55758534445E+02  0.35874110709E+02 -0.92612478391E+02  0.11397591647E+03  0.41800000000E+01 0.  1.
        -11    1    3    3    0    0  0.24316627034E+02 -0.19557995301E+02  0.21262106641E+02  0.37760968067E+02  0.00000000000E+00 0.  1.
         11    1    3    3    0    0 -0.36769284132E+02 -0.16020569481E+02 -0.56713686317E+02  0.69462803843E+02  0.00000000000E+00 0. -1.
</event>
<event>
 7    1  0.6684706E-006  0.1056948E+03  0.7561462E-02  0.1268757E+00
          2   -1    0    0  501    0  0.00000000000E+00  0.00000000000E+00  0.86631214434E+03  0.86631214434E+03  0.00000000000E+00 0. -1.
         -2   -1    0    0    0  501 -0.00000000000E+00 -0.00000000000E+00 -0.22752724401E+02  0.22752724401E+02  0.00000000000E+00 0.  1.
         23    2    1    2    0    0 -0.25456011106E+02 -0.47772562739E+02  0.16155381744E+03  0.19357253941E+03  0.91872007867E+02 0.  0.
          5    1    1    2  502    0  0.36951368761E+02  0.84350558974E+02  0.37939200313E+03  0.39043076838E+03  0.41800000000E+01 0.  1.
         -5    1    1    2    0  502 -0.11495357655E+02 -0.36577996235E+02  0.30261359936E+03  0.30506156096E+03  0.41800000000E+01 0.  1.
        -11    1    3    3    0    0 -0.25502556793E+02  0.65370371200E+01  0.36361544878E+01  0.26576961391E+02  0.00000000000E+00 0.  1.
         11    1    3    3    0    0  0.46545687607E-01 -0.54309599859E+02  0.15791766296E+03  0.16699557802E+03  0.00000000000E+00 0. -1.
</event>
<event>
 7    1  0.6684706E-006  0.1997528E+03  0.7561462E-02  0.1149948E+00
          2   -1    0    0  501    0  0.00000000000E+00  0.00000000000E+00  0.26969873545E+04  0.26969873545E+04  0.00000000000E+00 0. -1.
         -2   -1    0    0    0  501 -0.00000000000E+00 -0.00000000000E+00 -0.18366990239E+02  0.18366990239E+02  0.00000000000E+00 0.  1.
         23    2    1    2    0    0 -0.14876085659E+03  0.10857042982E+03  0.91607432577E+03  0.93880277715E+03  0.90780798481E+02 0.  0.
          5    1    1    2  502    0  0.93416533516E+01 -0.38315586185E+02  0.83563009235E+03  0.83657066304E+03  0.41800000000E+01 0. -1.
         -5    1    1    2    0  502  0.13941920324E+03 -0.70254843636E+02  0.92691594615E+03  0.93998090455E+03  0.41800000000E+01 0. -1.
        -11    1    3    3    0    0 -0.90451314293E+00  0.41164667747E+02  0.14159798295E+03  0.14746300142E+03  0.00000000000E+00 0.  1.
         11    1    3    3    0    0 -0.14785634344E+03  0.67405762075E+02  0.77447634282E+03  0.79133977573E+03  0.00000000000E+00 0. -1.
</event>
<event>
 7    1  0.6684706E-006  0.1193093E+03  0.7561462E-02  0.1244241E+00
         -2   -1    0    0    0  501 -0.00000000000E+00  0.00000000000E+00  0.24607257950E+02  0.24607257950E+02  0.00000000000E+00 0.  1.
          2   -1    0    0  501    0  0.00000000000E+00 -0.00000000000E+00 -0.65158091043E+03  0.65158091043E+03  0.00000000000E+00 0. -1.
         23    2    1    2    0    0 -0.55113420928E+02  0.33921772037E+02 -0.29884042555E+03  0.31910724976E+03  0.91299841847E+02 0.  0.
          5    1    1    2  502    0  0.24832273271E+02 -0.79474063668E+02 -0.16314727133E+03  0.18321373621E+03  0.41800000000E+01 0. -1.
         -5    1    1    2    0  502  0.30281147657E+02  0.45552291632E+02 -0.16498595560E+03  0.17386718242E+03  0.41800000000E+01 0. -1.
        -11    1    3    3    0    0 -0.74800019103E+02  0.27041483658E+02 -0.27974037309E+03  0.29082806095E+03  0.00000000000E+00 0.  1.
         11    1    3    3    0    0  0.19686598175E+02  0.68802883782E+01 -0.19100052451E+02  0.28279188806E+02  0.00000000000E+00 0. -1.
</event>
<event>
 7    1  0.6684706E-006  0.1041611E+03  0.7561462E-02  0.1271781E+00
          2   -1    0    0  501    0  0.00000000000E+00  0.00000000000E+00  0.92805241330E+03  0.92805241330E+03  0.00000000000E+00 0. -1.
         -2   -1    0    0    0  501 -0.00000000000E+00 -0.00000000000E+00 -0.15306341183E+02  0.15306341183E+02  0.00000000000E+00 0.  1.
         23    2    1    2    0    0  0.16708739215E+02 -0.37794978984E+02  0.25740670409E+03  0.27592646020E+03  0.90385605733E+02 0.  0.
          5    1    1    2  502    0 -0.12883847060E+02 -0.36857324656E+02  0.38241048982E+03  0.38442126765E+03  0.41800000000E+01 0. -1.
         -5    1    1    2    0  502 -0.38248921553E+01  0.74652303640E+02  0.27292887820E+03  0.28301102663E+03  0.41800000000E+01 0.  1.
        -11    1    3    3    0    0  0.36932921804E+01  0.27429686435E+02  0.12156963414E+03  0.12468040764E+03  0.00000000000E+00 0. -1.
         11    1    3    3    0    0  0.13015447035E+02 -0.65224665419E+02  0.13583706995E+03  0.15124605255E+03  0.00000000000E+00 0.  1.
</event>
<event>
 7    1  0.6684706E-006  0.1437832E+03  0.7561462E-02  0.1208327E+00
          2   -1    0    0  501    0  0.00000000000E+00  0.00000000000E+00  0.32086602977E+03  0.32086602977E+03  0.00000000000E+00 0. -1.
         -2   -1    0    0    0  501 -0.00000000000E+00 -0.00000000000E+00 -0.87585019194E+02  0.87585019194E+02  0.00000000000E+00 0.  1.
         23    2    1    2    0    0  0.72499276536E+02 -0.95216103172E+02  0.57076326764E+02  0.16143306713E+03  0.92090589559E+02 0.  0.
          5    1    1    2  502    0 -0.86351567355E+02  0.78484256954E+02  0.65004858290E+02  0.13363934965E+03  0.41800000000E+01 0.  1.
         -5    1    1    2    0  502  0.13852290819E+02  0.16731846219E+02  0.11119982552E+03  0.11337863218E+03  0.41800000000E+01 0.  1.
        -11    1    3    3    0    0  0.47338849421E+02 -0.10982137810E+03  0.56671281319E+02  0.13233796084E+03  0.00000000000E+00 0.  1.
         11    1    3    3    0    0  0.25160427115E+02  0.14605274930E+02  0.40504544505E+00  0.29095106293E+02  0.00000000000E+00 0. -1.
</event>
<event>
 7    1  0.6684706E-006  0.2773051E+03  0.7561462E-02  0.1097170E+00
         -1   -1    0    0    0  501 -0.00000000000E+00  0.00000000000E+00  0.85602489668E+03  0.85602489668E+03  0.00000000000E+00 0.  1.
          1   -1    0    0  501    0  0.00000000000E+00 -0.00000000000E+00 -0.94257179519E+02  0.94257179519E+02  0.00000000000E+00 0. -1.
         23    2    1    2    0    0  0.24643342729E+03 -0.82754075475E+02  0.45363933365E+03  0.53062360847E+03  0.90526779116E+02 0.  0.
          5    1    1    2  502    0 -0.14470638001E+03 -0.12369287387E+02  0.16648563150E+03  0.22097030022E+03  0.41800000000E+01 0. -1.
         -5    1    1    2    0  502 -0.10172704728E+03  0.95123362862E+02  0.14164275202E+03  0.19868816751E+03  0.41800000000E+01 0.  1.
        -11    1    3    3    0    0  0.19272543841E+03 -0.95040250138E+02  0.39809717839E+03  0.45239043668E+03  0.00000000000E+00 0.  1.
         11    1    3    3    0    0  0.53707988880E+02  0.12286174663E+02  0.55542155259E+02  0.78233171789E+02  0.00000000000E+00 0. -1.
</event>
<event>
 7    1  0.6684706E-006  0.9389921E+02  0.7561462E-02  0.1293675E+00
         -1   -1    0    0    0  501 -0.00000000000E+00  0.00000000000E+00  0.41895444989E+02  0.41895444989E+02  0.00000000000E+00 0.  1.
          1   -1    0    0  501    0  0.00000000000E+00 -0.00000000000E+00 -0.31506820088E+03  0.31506820088E+03  0.00000000000E+00 0. -1.
         23    2    1    2    0    0  0.29712467293E+02  0.61902063203E+00 -0.84341175819E+02  0.12851530514E+03  0.92301331620E+02 0.  0.
          5    1    1    2  502    0 -0.44278403513E+02 -0.38988035634E+02 -0.34012437582E+02  0.68227283770E+02  0.41800000000E+01 0. -1.
         -5    1    1    2    0  502  0.14565936221E+02  0.38369015002E+02 -0.15481914249E+03  0.16022105695E+03  0.41800000000E+01 0. -1.
        -11    1    3    3    0    0 -0.28521517487E+02 -0.47698939261E+01 -0.57087818262E+02  0.63994123494E+02  0.00000000000E+00 0. -1.
         11    1    3    3    0    0  0.58233984780E+02  0.53889145581E+01 -0.27253357557E+02  0.64521181651E+02  0.00000000000E+00 0.  1.
</event>
<event>
 7    1  0.6684706E-006  0.9942116E+02  0.7561462E-02  0.1281518E+00
         -4   -1    0    0    0  501 -0.00000000000E+00  0.00000000000E+00  0.30913485271E+02  0.30913485271E+02  0.00000000000E+00 0.  1.
          4   -1    0    0  501    0  0.00000000000E+00 -0.00000000000E+00 -0.50788641282E+03  0.50788641282E+03  0.00000000000E+00 0. -1.
         23    2    1    2    0    0  0.55378704970E+02 -0.43168182386E+01 -0.15275217935E+03  0.18687361623E+03  0.92212169808E+02 0.  0.
          5    1    1    2  502    0 -0.55061436162E+02  0.31824536387E+02 -0.31677369135E+03  0.32312165944E+03  0.41800000000E+01 0. -1.
         -5    1    1    2    0  502 -0.31726880754E+00 -0.27507718148E+02 -0.74470568439E+01  0.28804622421E+02  0.41800000000E+01 0. -1.
        -11    1    3    3    0    0  0.75184597908E+02 -0.24430915942E+02 -0.11910958270E+03  0.14295693795E+03  0.00000000000E+00 0.  1.
         11    1    3    3    0    0 -0.19805892938E+02  0.20114097704E+02 -0.33642596656E+02  0.43916678281E+02  0.00000000000E+00 0. -1.
</event>
<event>
 7    1  0.6684706E-006  0.1039574E+03  0.7561462E-02  0.1272187E+00
          2   -1    0    0  501    0  0.00000000000E+00  0.00000000000E+00  0.12115271724E+04  0.12115271724E+04  0.00000000000E+00 0. -1.
         -2   -1    0    0    0  501 -0.00000000000E+00 -0.00000000000E+00 -0.16580664771E+02  0.16580664771E+02  0.00000000000E+00 0.  1.
         23    2    1    2    0    0  0.49054433638E+01  0.10158109847E+02  0.15760137871E+03  0.18318696534E+03  0.92693144997E+02 0.  0.
          5    1    1    2  502    0 -0.52107890407E+02 -0.35844654058E+02  0.36886793202E+03  0.37427409092E+03  0.41800000000E+01 0.  1.
         -5    1    1    2    0  502  0.47202447043E+02  0.25686544211E+02  0.66847719687E+03  0.67064678087E+03  0.41800000000E+01 0.  1.
        -11    1    3    3    0    0 -0.13721198829E+02 -0.37248232279E+02  0.91489824682E+02  0.99730086361E+02  0.00000000000E+00 0. -1.
         11    1    3    3    0    0  0.18626642193E+02  0.47406342126E+02  0.66111554028E+02  0.83456878981E+02  0.00000000000E+00 0.  1.
</event>
<event>
 7    1  0.6684706E-006  0.2606683E+03  0.7561462E-02  0.1106742E+00
         -2   -1    0    0    0  501 -0.00000000000E+00  0.00000000000E+00  0.10385899111E+03  0.10385899111E+03  0.00000000000E+00 0.  1.
          2   -1    0    0  501    0  0.00000000000E+00 -0.00000000000E+00 -0.70824661091E+03  0.70824661091E+03  0.00000000000E+00 0. -1.
         23    2    1    2    0    0  0.21709934746E+03 -0.10312240811E+03 -0.30465790429E+03  0.40806159985E+03  0.12621993864E+03 0.  0.
          5    1    1    2  502    0 -0.17199593275E+03  0.18253468063E+02 -0.21397824440E+03  0.27517258485E+03  0.41800000000E+01 0. -1.
         -5    1    1    2    0  502 -0.45103414701E+02  0.84868940051E+02 -0.85751471108E+02  0.12887141731E+03  0.41800000000E+01 0. -1.
        -11    1    3    3    0    0  0.18728071875E+03 -0.11528530657E+03 -0.30480165987E+03  0.37585744822E+03  0.00000000000E+00 0. -1.
         11    1    3    3    0    0  0.29818628707E+02  0.12162898453E+02  0.14375557917E+00  0.32204151633E+02  0.00000000000E+00 0.  1.
</event>
<event>
 7    1  0.6684706E-006  0.1152179E+03  0.7561462E-02  0.1251201E+00
          1   -1    0    0  501    0  0.00000000000E+00  0.00000000000E+00  0.40343113826E+02  0.40343113826E+02  0.00000000000E+00 0. -1.
         -1   -1    0    0    0  501 -0.00000000000E+00 -0.00000000000E+00 -0.37678619254E+03  0.37678619254E+03  0.00000000000E+00 0.  1.
         23    2    1    2    0    0  0.41583560861E+02  0.24311534512E+02 -0.20170537574E+03  0.22706917700E+03  0.92493833822E+02 0.  0.
          5    1    1    2  502    0 -0.72254734346E+02  0.18518159560E+02 -0.10665506828E+03  0.13021691464E+03  0.41800000000E+01 0.  1.
         -5    1    1    2    0  502  0.30671173484E+02 -0.42829694072E+02 -0.28082634687E+02  0.59843214722E+02  0.41800000000E+01 0.  1.
        -11    1    3    3    0    0  0.30042278851E+01 -0.33361777055E+02 -0.49195010938E+02  0.59516238580E+02  0.00000000000E+00 0. -1.
         11    1    3    3    0    0  0.38579332976E+02  0.57673311567E+02 -0.15251036480E+03  0.16755293842E+03  0.00000000000E+00 0.  1.
</event>
<event>
 7    1  0.6684706E-006  0.1613056E+03  0.7561462E-02  0.1187231E+00
          2   -1    0    0  501    0  0.00000000000E+00  0.00000000000E+00  0.29852108217E+03  0.29852108217E+03  0.00000000000E+00 0. -1.
         -2   -1    0    0    0  501 -0.00000000000E+00 -0.00000000000E+00 -0.99609095073E+02  0.99609095073E+02  0.00000000000E+00 0.  1.
         23    2    1    2    0    0  0.46710804546E+02 -0.12406567838E+03  0.11426798162E+03  0.19716318476E+03  0.90785230014E+02 0.  0.
          5    1    1    2  502    0 -0.26108635926E+02  0.14211868667E+03  0.93162895229E+02  0.17197726425E+03  0.41800000000E+01 0.  1.
         -5    1    1    2    0  502 -0.20602168621E+02 -0.18053008294E+02 -0.85188897543E+01  0.28989728232E+02  0.41800000000E+01 0.  1.
        -11    1    3    3    0    0  0.56997179845E+02 -0.50770340603E+02  0.92678557783E+02  0.12006507014E+03  0.00000000000E+00 0. -1.
         11    1    3    3    0    0 -0.10286375299E+02 -0.73295337772E+02  0.21589423835E+02  0.77098114617E+02  0.00000000000E+00 0.  1.
</event>
<event>
 7    1  0.6684706E-006  0.3094440E+03  0.7561462E-02  0.1080613E+00
          1   -1    0    0  501    0  0.00000000000E+00  0.00000000000E+00  0.51620209375E+03  0.51620209375E+03  0.00000000000E+00 0. -1.
         -1   -1    0    0    0  501 -0.00000000000E+00 -0.00000000000E+00 -0.19942571456E+03  0.19942571456E+03  0.00000000000E+00 0.  1.
         23    2    1    2    0    0 -0.21260367916E+03 -0.20555735364E+03  0.87764597340E+02  0.32123398289E+03  0.89635356807E+02 0.  0.
          5    1    1    2  502    0  0.93327621278E+02  0.15390905094E+03  0.18228212859E+03  0.25620750898E+03  0.41800000000E+01 0. -1.
         -5    1    1    2    0  502  0.11927605789E+03  0.51648302700E+02  0.46729653262E+02  0.13818631644E+03  0.41800000000E+01 0. -1.
        -11    1    3    3    0    0 -0.87199619263E+02 -0.14579762814E+03  0.42346794423E+02  0.17508276034E+03  0.00000000000E+00 0. -1.
         11    1    3    3    0    0 -0.12540405990E+03 -0.59759725498E+02  0.45417802918E+02  0.14615122255E+03  0.00000000000E+00 0.  1.
</event>
<event>
 7    1  0.6684706E-006  0.8745392E+02  0.7561462E-02  0.1309137E+00
          2   -1    0    0  501    0  0.00000000000E+00  0.00000000000E+00  0.53928718975E+03  0.53928718975E+03  0.00000000000E+00 0. -1.
         -2   -1    0    0    0  501 -0.00000000000E+00 -0.00000000000E+00 -0.23929300172E+02  0.23929300172E+02  0.00000000000E+00 0.  1.
         23    2    1    2    0    0 -0.27050473008E+02 -0.17041096044E+02  0.18547002946E+03  0.20894988407E+03  0.90767809168E+02 0.  0.
          5    1    1    2  502    0  0.55480509861E+02 -0.94047162832E+01  0.63158964626E+02  0.84693936474E+02  0.41800000000E+01 0. -1.
         -5    1    1    2    0  502 -0.28430036853E+02  0.26445812327E+02  0.26672889549E+03  0.26957266938E+03  0.41800000000E+01 0. -1.
        -11    1    3    3    0    0 -0.52314298734E+02 -0.11597657145E+02  0.17128131351E+03  0.17946748971E+03  0.00000000000E+00 0. -1.
         11    1    3    3    0    0  0.25263825725E+02 -0.54434388983E+01  0.14188715952E+02  0.29482394368E+02  0.00000000000E+00 0.  1.
</event>
<event>
 7    1  0.6684706E-006  0.1382437E+03  0.7561462E-02  0.1215712E+00
          1   -1    0    0  501    0  0.00000000000E+00  0.00000000000E+00  0.24325892436E+02  0.24325892436E+02  0.00000000000E+00 0. -1.
         -1   -1    0    0    0  501 -0.00000000000E+00 -0.00000000000E+00 -0.89921459945E+03  0.89921459945E+03  0.00000000000E+00 0.  1.
         23    2    1    2    0    0  0.25274119150E+01  0.99715252225E+02 -0.43908058688E+03  0.45929215241E+03  0.90598014053E+02 0.  0.
          5    1    1    2  502    0  0.32755364949E+02 -0.11411725280E+03 -0.36327818284E+03  0.38220959151E+03  0.41800000000E+01 0. -1.
         -5    1    1    2    0  502 -0.35282776864E+02  0.14402000571E+02 -0.72529937292E+02  0.82038747963E+02  0.41800000000E+01 0. -1.
        -11    1    3    3    0    0  0.77715092614E+01 -0.82063964127E+01 -0.57247371323E+01  0.12669408570E+02  0.00000000000E+00 0. -1.
         11    1    3    3    0    0 -0.52440973464E+01  0.10792164864E+03 -0.43335584975E+03  0.44662274384E+03  0.00000000000E+00 0.  1.
</event>
<event>
 7    1  0.6684706E-006  0.7025980E+02  0.7561462E-02  0.1359212E+00
         -1   -1    0    0    0  501 -0.00000000000E+00  0.00000000000E+00  0.14770711166E+03  0.14770711166E+03  0.00000000000E+00 0.  1.
          1   -1    0    0  501    0  0.00000000000E+00 -0.00000000000E+00 -0.12729875561E+03  0.12729875561E+03  0.00000000000E+00 0. -1.
         23    2    1    2    0    0  0.11095863025E+02 -0.48119915660E+02  0.60690972860E+02  0.13461808346E+03  0.10954446471E+03 0.  0.
          5    1    1    2  502    0  0.26857801207E+02  0.19451600401E+02  0.36801023246E+02  0.49714122298E+02  0.41800000000E+01 0. -1.
         -5    1    1    2    0  502 -0.37953664232E+02  0.28668315258E+02 -0.77083640053E+02  0.90673661514E+02  0.41800000000E+01 0. -1.
        -11    1    3    3    0    0  0.16684389434E+02 -0.74095380685E+01 -0.29962595982E+02  0.35085998107E+02  0.00000000000E+00 0. -1.
         11    1    3    3    0    0 -0.55885264084E+01 -0.40710377591E+02  0.90653568842E+02  0.99532085353E+02  0.00000000000E+00 0.  1.
</event>
<event>
 7    1  0.6684706E-006  0.1309708E+03  0.7561462E-02  0.1226022E+00
         -2   -1    0    0    0  501 -0.00000000000E+00  0.00000000000E+00  0.23248896154E+03  0.23248896154E+03  0.00000000000E+00 0.  1.
          2   -1    0    0  501    0  0.00000000000E+00 -0.00000000000E+00 -0.81566948169E+02  0.81566948169E+02  0.00000000000E+00 0. -1.
         23    2    1    2    0    0  0.40661262009E+02  0.66571424675E+02  0.10481312271E+03  0.15959097115E+03  0.91642755138E+02 0.  0.
          5    1    1    2  502    0  0.25581611477E+02 -0.73636085045E+02  0.39212523154E+02  0.87360095230E+02  0.41800000000E+01 0.  1.
         -5    1    1    2    0  502 -0.66242873486E+02  0.70646603706E+01  0.68963675119E+01  0.67104843333E+02  0.41800000000E+01 0.  1.
        -11    1    3    3    0    0  0.58626283115E+02  0.76671754250E+02  0.98805410714E+02  0.13812352500E+03  0.00000000000E+00 0.  1.
         11    1    3    3    0    0 -0.17965021106E+02 -0.10100329575E+02  0.60077119945E+01  0.21467446152E+02  0.00000000000E+00 0. -1.
</event>
<event>
 7    1  0.6684706E-006  0.9477694E+02  0.7561462E-02  0.1291679E+00
          1   -1    0    0  501    0  0.00000000000E+00  0.00000000000E+00  0.22006732052E+03  0.22006732052E+03  0.00000000000E+00 0. -1.
         -1   -1    0    0    0  501 -0.00000000000E+00 -0.00000000000E+00 -0.64061276006E+02  0.64061276006E+02  0.00000000000E+00 0.  1.
         23    2    1    2    0    0 -0.91311782421E+01 -0.37140323793E+00  0.10555868190E+02  0.92067308971E+02  0.91002454206E+02 0.  0.
          5    1    1    2  502    0  0.76732977465E+01  0.50443265261E+02  0.12961488024E+03  0.13935886082E+03  0.41800000000E+01 0. -1.
         -5    1    1    2    0  502  0.14578804956E+01 -0.50071862023E+02  0.15835296086E+02  0.52702426739E+02  0.41800000000E+01 0. -1.
        -11    1    3    3    0    0 -0.63007197665E+01  0.43588375863E+02  0.17654607358E+02  0.47448190070E+02  0.00000000000E+00 0.  1.
         11    1    3    3    0    0 -0.28304584756E+01 -0.43959779101E+02 -0.70987391682E+01  0.44619118902E+02  0.00000000000E+00 0. -1.
</event>
<event>
 7    1  0.6684706E-006  0.1304428E+03  0.7561462E-02  0.1226800E+00
          3   -1    0    0  501    0  0.00000000000E+00  0.00000000000E+00  0.10087025399E+04  0.10087025399E+04  0.00000000000E+00 0. -1.
         -3   -1    0    0    0  501 -0.00000000000E+00 -0.00000000000E+00 -0.20255283589E+02  0.20255283589E+02  0.00000000000E+00 0.  1.
         23    2    1    2    0    0 -0.45861149279E+02  0.15452477010E+02  0.27300879126E+03  0.29156298919E+03  0.90183992508E+02 0.  0.
          5    1    1    2  502    0  0.52270569435E+02 -0.79617069607E+02  0.57440259080E+03  0.58226016429E+03  0.41800000000E+01 0. -1.
         -5    1    1    2    0  502 -0.64094201561E+01  0.64164592598E+02  0.14103587422E+03  0.15513466997E+03  0.41800000000E+01 0.  1.
        -11    1    3    3    0    0 -0.59797719320E+02  0.40532609499E+02  0.17191413074E+03  0.18647554268E+03  0.00000000000E+00 0.  1.
         11    1    3    3    0    0  0.13936570041E+02 -0.25080132490E+02  0.10109466052E+03  0.10508744651E+03  0.00000000000E+00 0. -1.
</event>
<event>
 7    1  0.6684706E-006  0.2104625E+03  0.7561462E-02  0.1141200E+00
         -2   -1    0    0    0  501 -0.00000000000E+00  0.00000000000E+00  0.29006423107E+02  0.29006423107E+02  0.00000000000E+00 0.  1.
          2   -1    0    0  501    0  0.00000000000E+00 -0.00000000000E+00 -0.20881738600E+04  0.20881738600E+04  0.00000000000E+00 0. -1.
         23    2    1    2    0    0  0.17910748773E+03 -0.58896993913E+02 -0.50587999077E+03  0.54750011118E+03  0.91068428266E+02 0.  0.
          5    1    1    2  502    0 -0.75826708142E+02 -0.25216105596E+02 -0.34973699975E+03  0.35877427868E+03  0.41800000000E+01 0. -1.
         -5    1    1    2    0  502 -0.10328077958E+03  0.84113099508E+02 -0.12035504464E+04  0.12109058933E+04  0.41800000000E+01 0. -1.
        -11    1    3    3    0    0  0.37807895135E+02 -0.54428659299E+02 -0.13007502567E+03  0.14598434228E+03  0.00000000000E+00 0.  1.
         11    1    3    3    0    0  0.14129959259E+03 -0.44683346141E+01 -0.37580496510E+03  0.40151576890E+03  0.00000000000E+00 0. -1.
</event>
<event>
 7    1  0.6684706E-006  0.1025540E+03  0.7561462E-02  0.1275015E+00
         -2   -1    0    0    0  501 -0.00000000000E+00  0.00000000000E+00  0.30501592370E+02  0.30501592370E+02  0.00000000000E+00 0.  1.
          2   -1    0    0  501    0  0.00000000000E+00 -0.00000000000E+00 -0.14334822841E+04  0.14334822841E+04  0.00000000000E+00 0. -1.
         23    2    1    2    0    0  0.29561499436E+02  0.78331603614E+01 -0.58886909684E+02  0.11433845058E+03  0.93114835004E+02 0.  0.
          5    1    1    2  502    0 -0.34028864331E+02  0.44376564042E+02 -0.99882052834E+03  0.10003935042E+04  0.41800000000E+01 0. -1.
         -5    1    1    2    0  502  0.44673648944E+01 -0.52209724403E+02 -0.34527325367E+03  0.34925192164E+03  0.41800000000E+01 0.  1.
        -11    1    3    3    0    0  0.62852385142E+02  0.53742147077E+01 -0.47860568646E+02  0.79182943447E+02  0.00000000000E+00 0.  1.
         11    1    3    3    0    0 -0.33290885706E+02  0.24589456537E+01 -0.11026341039E+02  0.35155507129E+02  0.00000000000E+00 0. -1.
</event>
<event>
 7    1  0.6684706E-006  0.1406121E+03  0.7561462E-02  0.1212508E+00
          2   -1    0    0  501    0  0.00000000000E+00  0.00000000000E+00  0.87941502766E+02  0.87941502766E+02  0.00000000000E+00 0.  1.
         -2   -1    0    0    0  501 -0.00000000000E+00 -0.00000000000E+00 -0.22858642090E+03  0.22858642090E+03  0.00000000000E+00 0. -1.
         23    2    1    2    0    0 -0.38980293181E+02  0.82175046684E+02 -0.50817284552E+02  0.13767362217E+03  0.89996823712E+02 0.  0.
          5    1    1    2  502    0  0.82500726969E+02 -0.35853417490E+02 -0.62081227787E+02  0.10937727707E+03  0.41800000000E+01 0.  1.
         -5    1    1    2    0  502 -0.43520433787E+02 -0.46321629194E+02 -0.27746405793E+02  0.69477024422E+02  0.41800000000E+01 0.  1.
        -11    1    3    3    0    0 -0.17926818030E+02  0.98947650744E+02 -0.35129921435E+02  0.10651816640E+03  0.00000000000E+00 0.  1.
         11    1    3    3    0    0 -0.21053475151E+02 -0.16772604060E+02 -0.15687363116E+02  0.31155455773E+02  0.00000000000E+00 0. -1.
</event>
<event>
 7    1  0.6684706E-006  0.5962568E+02  0.7561462E-02  0.1399409E+00
          2   -1    0    0  501    0  0.00000000000E+00  0.00000000000E+00  0.37367859384E+02  0.37367859384E+02  0.00000000000E+00 0. -1.
         -2   -1    0    0    0  501 -0.00000000000E+00 -0.00000000000E+00 -0.36304130966E+03  0.36304130966E+03  0.00000000000E+00 0.  1.
         23    2    1    2    0    0 -0.20518002048E+02  0.57703742649E+01 -0.20448527902E+03  0.22494226728E+03  0.91271620153E+02 0.  0.
          5    1    1    2  502    0  0.15211838972E+01 -0.19738921909E+02 -0.14218543686E+03  0.14361793026E+03  0.41800000000E+01 0. -1.
         -5    1    1    2    0  502  0.18996818150E+02  0.13968547644E+02  0.20997265600E+02  0.31848971503E+02  0.41800000000E+01 0. -1.
        -11    1    3    3    0    0  0.78564807096E+01  0.34088668505E+02 -0.30540800928E+02  0.46438153828E+02  0.00000000000E+00 0.  1.
         11    1    3    3    0    0 -0.28374482757E+02 -0.28318294240E+02 -0.17394447809E+03  0.17850411345E+03  0.00000000000E+00 0. -1.
</event>
<event>
 7    1  0.6684706E-006  0.9138285E+02  0.7561462E-02  0.1299537E+00
          3   -1    0    0  501    0  0.00000000000E+00  0.00000000000E+00  0.10814304822E+03  0.10814304822E+03  0.00000000000E+00 0. -1.
         -3   -1    0    0    0  501 -0.00000000000E+00 -0.00000000000E+00 -0.13373835343E+03  0.13373835343E+03  0.00000000000E+00 0.  1.
         23    2    1    2    0    0  0.35175051311E+02  0.37164644720E+02 -0.82157320082E+01  0.10561664230E+03  0.92026527843E+02 0.  0.
          5    1    1    2  502    0  0.32194960910E+02  0.22681711300E+02  0.12016267459E+02  0.41386454537E+02  0.41800000000E+01 0.  1.
         -5    1    1    2    0  502 -0.67370012221E+02 -0.59846356020E+02 -0.29395840660E+02  0.94878304810E+02  0.41800000000E+01 0.  1.
        -11    1    3    3    0    0  0.27362257536E+02  0.19388564846E+02 -0.49617654289E+02  0.59887571343E+02  0.00000000000E+00 0.  1.
         11    1    3    3    0    0  0.78127937747E+01  0.17776079874E+02  0.41401922281E+02  0.45729070959E+02  0.00000000000E+00 0. -1.
</event>
<event>
 7    1  0.6684706E-006  0.1574119E+03  0.7561462E-02  0.1191650E+00
         -2   -1    0    0    0  501 -0.00000000000E+00  0.00000000000E+00  0.52229602369E+02  0.52229602369E+02  0.00000000000E+00 0.  1.
          2   -1    0    0  501    0  0.00000000000E+00 -0.00000000000E+00 -0.84500185356E+03  0.84500185356E+03  0.00000000000E+00 0. -1.
         23    2    1    2    0    0 -0.27261082998E+02  0.13144166672E+03 -0.12566190278E+03  0.20534641981E+03  0.91412033811E+02 0.  0.
          5    1    1    2  502    0 -0.17059122987E+02 -0.12078549395E+03 -0.58757261529E+03  0.60011598868E+03  0.41800000000E+01 0.  1.
         -5    1    1    2    0  502  0.44320205985E+02 -0.10656172765E+02 -0.79537733120E+02  0.91769047431E+02  0.41800000000E+01 0.  1.
        -11    1    3    3    0    0 -0.44449907211E+02  0.11464530773E+03 -0.13209529999E+03  0.18046747384E+03  0.00000000000E+00 0. -1.
         11    1    3    3    0    0  0.17188824214E+02  0.16796358992E+02  0.64333972114E+01  0.24878945977E+02  0.00000000000E+00 0.  1.
</event>
<event>
 7    1  0.6684706E-006  0.1766742E+03  0.7561462E-02  0.1171061E+00
          2   -1    0    0  501    0  0.00000000000E+00  0.00000000000E+00  0.12659158420E+04  0.12659158420E+04  0.00000000000E+00 0. -1.
         -2   -1    0    0    0  501 -0.00000000000E+00 -0.00000000000E+00 -0.44897805765E+02  0.44897805765E+02  0.00000000000E+00 0.  1.
         23    2    1    2    0    0  0.22165472976E+02  0.34363746530E+02  0.54910618270E+02  0.11406307336E+03  0.91230660617E+02 0.  0.
          5    1    1    2  502    0 -0.10287708960E+03 -0.10449574726E+03  0.86134989167E+03  0.87375291990E+03  0.41800000000E+01 0. -1.
         -5    1    1    2    0  502  0.80711616623E+02  0.70132000731E+02  0.30475752633E+03  0.32299765454E+03  0.41800000000E+01 0.  1.
        -11    1    3    3    0    0  0.34805522811E+02 -0.22465074689E+02  0.18277320256E+02  0.45278741532E+02  0.00000000000E+00 0.  1.
         11    1    3    3    0    0 -0.12640049835E+02  0.56828821219E+02  0.36633298014E+02  0.68784331824E+02  0.00000000000E+00 0. -1.
</event>
<event>
 7    1  0.6684706E-006  0.1172452E+03  0.7561462E-02  0.1247712E+00
         -1   -1    0    0    0  501 -0.00000000000E+00  0.00000000000E+00  0.13195712713E+03  0.13195712713E+03  0.00000000000E+00 0.  1.
          1   -1    0    0  501    0  0.00000000000E+00 -0.00000000000E+00 -0.13444725252E+03  0.13444725252E+03  0.00000000000E+00 0. -1.
         23    2    1    2    0    0 -0.78569957561E+02  0.62639054304E+01  0.20110955616E+02  0.12421758936E+03  0.93878028469E+02 0.  0.
          5    1    1    2  502    0  0.43824848936E+02  0.48554319606E+02 -0.37437395196E+02  0.75479601852E+02  0.41800000000E+01 0. -1.
         -5    1    1    2    0  502  0.34745108624E+02 -0.54818225037E+02  0.14836314188E+02  0.66707188430E+02  0.41800000000E+01 0.  1.
        -11    1    3    3    0    0 -0.84631882251E+01 -0.25557544272E+02  0.36644917707E+02  0.45471569336E+02  0.00000000000E+00 0. -1.
         11    1    3    3    0    0 -0.70106769336E+02  0.31821449702E+02 -0.16533962091E+02  0.78746020028E+02  0.00000000000E+00 0.  1.
</event>
<event>
 7    1  0.6684706E-006  0.1174085E+03  0.7561462E-02  0.1247434E+00
         -2   -1    0    0    0  501 -0.00000000000E+00  0.00000000000E+00  0.68537520680E+02  0.68537520680E+02  0.00000000000E+00 0.  1.
          2   -1    0    0  501    0  0.00000000000E+00 -0.00000000000E+00 -0.26211416628E+03  0.26211416628E+03  0.00000000000E+00 0. -1.
         23    2    1    2    0    0 -0.48869959187E+02 -0.14883000078E+02 -0.36174761108E+02  0.12321019013E+03  0.10612427153E+03 0.  0.
          5    1    1    2  502    0 -0.35989448910E+02 -0.19469121614E+02 -0.31955695627E+02  0.52085756328E+02  0.41800000000E+01 0. -1.
         -5    1    1    2    0  502  0.84859408097E+02  0.34352121692E+02 -0.12544618886E+03  0.15535574050E+03  0.41800000000E+01 0. -1.
        -11    1    3    3    0    0 -0.68621546562E+02  0.10984998979E+02  0.62087174413E+01  0.69772021809E+02  0.00000000000E+00 0.  1.
         11    1    3    3    0    0  0.19751587375E+02 -0.25867999057E+02 -0.42383478549E+02  0.53438168316E+02  0.00000000000E+00 0. -1.
</event>
<event>
 7    1  0.6684706E-006  0.1140869E+03  0.7561462E-02  0.1253183E+00
         -2   -1    0    0    0  501 -0.00000000000E+00  0.00000000000E+00  0.15398547792E+02  0.15398547792E+02  0.00000000000E+00 0.  1.
          2   -1    0    0  501    0  0.00000000000E+00 -0.00000000000E+00 -0.93691424018E+03  0.93691424018E+03  0.00000000000E+00 0. -1.
         23    2    1    2    0    0  0.45717079331E+02 -0.18783354163E+02 -0.36745995943E+03  0.38216588565E+03  0.92634100804E+02 0.  0.
          5    1    1    2  502    0 -0.64257191803E+02 -0.34197660335E+02 -0.38855479638E+03  0.39533627314E+03  0.41800000000E+01 0.  1.
         -5    1    1    2    0  502  0.18540112473E+02  0.52981014497E+02 -0.16550093657E+03  0.17481062918E+03  0.41800000000E+01 0.  1.
        -11    1    3    3    0    0 -0.13886199323E+02 -0.34623566542E+02 -0.81509954780E+02  0.89640898143E+02  0.00000000000E+00 0.  1.
         11    1    3    3    0    0  0.59603278654E+02  0.15840212379E+02 -0.28595000465E+03  0.29252498751E+03  0.00000000000E+00 0. -1.
</event>
<event>
 7    1  0.6684706E-006  0.1103264E+03  0.7561462E-02  0.1259967E+00
          1   -1    0    0  501    0  0.00000000000E+00  0.00000000000E+00  0.52581938741E+03  0.52581938741E+03  0.00000000000E+00 0. -1.
         -1   -1    0    0    0  501 -0.00000000000E+00 -0.00000000000E+00 -0.25997557761E+02  0.25997557761E+02  0.00000000000E+00 0.  1.
         23    2    1    2    0    0 -0.13593791626E+02 -0.11064889616E+02  0.13044269159E+03  0.16143706369E+03  0.93484794438E+02 0.  0.
          5    1    1    2  502    0 -0.51277377137E+02 -0.18760790438E+02  0.15581521414E+03  0.16515807586E+03  0.41800000000E+01 0. -1.
         -5    1    1    2    0  502  0.64871168763E+02  0.29825680054E+02  0.21356392392E+03  0.22522180562E+03  0.41800000000E+01 0. -1.
        -11    1    3    3    0    0 -0.25109745380E+02  0.37127187214E+02  0.51942115423E+02  0.68606928936E+02  0.00000000000E+00 0.  1.
         11    1    3    3    0    0  0.11515953755E+02 -0.48192076830E+02  0.78500576166E+02  0.92830134754E+02  0.00000000000E+00 0. -1.
</event>
<event>
 7    1  0.6684706E-006  0.1363728E+03  0.7561462E-02  0.1218295E+00
         -1   -1    0    0    0  501 -0.00000000000E+00  0.00000000000E+00  0.31677876180E+03  0.31677876180E+03  0.00000000000E+00 0.  1.
          1   -1    0    0  501    0  0.00000000000E+00 -0.00000000000E+00 -0.65146059261E+02  0.65146059261E+02  0.00000000000E+00 0. -1.
         23    2    1    2    0    0 -0.62927567409E+02  0.68332448184E+02  0.99916589848E+02  0.16443808953E+03  0.91800643490E+02 0.  0.
          5    1    1    2  502    0  0.62662942180E+02  0.13519486827E+02  0.10515506116E+03  0.12322532262E+03  0.41800000000E+01 0.  1.
         -5    1    1    2    0  502  0.26462522851E+00 -0.81851935011E+02  0.46561051534E+02  0.94261408920E+02  0.41800000000E+01 0.  1.
        -11    1    3    3    0    0 -0.79393721839E+01 -0.20549119909E+02  0.35145661652E+02  0.41479121166E+02  0.00000000000E+00 0.  1.
         11    1    3    3    0    0 -0.54988195225E+02  0.88881568093E+02  0.64770928196E+02  0.12295896836E+03  0.00000000000E+00 0. -1.
</event>
<event>
 7    1  0.6684706E-006  0.5343808E+02  0.7561462E-02  0.1427633E+00
         -2   -1    0    0    0  501 -0.00000000000E+00  0.00000000000E+00  0.22571802758E+03  0.22571802758E+03  0.00000000000E+00 0. -1.
          2   -1    0    0  501    0  0.00000000000E+00 -0.00000000000E+00 -0.36092771089E+02  0.36092771089E+02  0.00000000000E+00 0.  1.
         23    2    1    2    0    0  0.21249515823E+01 -0.10953396463E+02  0.79265802803E+02  0.10040088867E+03  0.60603454011E+02 0.  0.
          5    1    1    2  502    0 -0.20266307744E+02 -0.43788660442E+01  0.12912864550E+03  0.13084944473E+03  0.41800000000E+01 0. -1.
         -5    1    1    2    0  502  0.18141356162E+02  0.15332262507E+02 -0.18769191806E+02  0.30560465278E+02  0.41800000000E+01 0.  1.
        -11    1    3    3    0    0  0.97921734878E+01  0.23948592425E+02  0.34370264595E+02  0.43020190947E+02  0.00000000000E+00 0.  1.
         11    1    3    3    0    0 -0.76672219054E+01 -0.34901988888E+02  0.44895538208E+02  0.57380697722E+02  0.00000000000E+00 0. -1.
</event>
<event>
 7    1  0.6684706E-006  0.1104999E+03  0.7561462E-02  0.1259647E+00
          2   -1    0    0  501    0  0.00000000000E+00  0.00000000000E+00  0.65797271127E+02  0.65797271127E+02  0.00000000000E+00 0. -1.
         -2   -1    0    0    0  501 -0.00000000000E+00 -0.00000000000E+00 -0.19105715106E+03  0.19105715106E+03  0.00000000000E+00 0.  1.
         23    2    1    2    0    0  0.14189548024E+02  0.34557633922E+02 -0.64428165406E+02  0.11282921562E+03  0.84757713891E+02 0.  0.
          5    1    1    2  502    0  0.49013848922E+02  0.13507247299E+02 -0.22484580842E+02  0.55747931723E+02  0.41800000000E+01 0. -1.
         -5    1    1    2    0  502 -0.63203396947E+02 -0.48064881222E+02 -0.38347133686E+02  0.88277274847E+02  0.41800000000E+01 0. -1.
        -11    1    3    3    0    0 -0.32197071635E+02  0.29752717378E+02 -0.19181931015E+02  0.47852085542E+02  0.00000000000E+00 0.  1.
         11    1    3    3    0    0  0.46386619659E+02  0.48049165440E+01 -0.45246234391E+02  0.64977130077E+02  0.00000000000E+00 0. -1.
</event>
<event>
 7    1  0.6684706E-006  0.1060107E+03  0.7561462E-02  0.1268141E+00
          2   -1    0    0  501    0  0.00000000000E+00  0.00000000000E+00  0.10918632970E+03  0.10918632970E+03  0.00000000000E+00 0. -1.
         -2   -1    0    0    0  501 -0.00000000000E+00 -0.00000000000E+00 -0.13671729593E+03  0.13671729593E+03  0.00000000000E+00 0.  1.
         23    2    1    2    0    0 -0.18063067949E+02 -0.45300031709E+02 -0.69221513386E+01  0.11004124920E+03  0.98401184187E+02 0.  0.
          5    1    1    2  502    0 -0.22259279173E+02 -0.28414706893E+02 -0.35072613204E+02  0.50501798721E+02  0.41800000000E+01 0.  1.
         -5    1    1    2    0  502  0.40322347122E+02  0.73714738602E+02  0.14463798317E+02  0.85360577706E+02  0.41800000000E+01 0.  1.
        -11    1    3    3    0    0 -0.26657003898E+02  0.15041664394E+02  0.26537659033E+02  0.40510429170E+02  0.00000000000E+00 0. -1.
         11    1    3    3    0    0  0.85939359488E+01 -0.60341696103E+02 -0.33459810371E+02  0.69530820028E+02  0.00000000000E+00 0.  1.
</event>
<event>
 7    1  0.6684706E-006  0.9791348E+02  0.7561462E-02  0.1284746E+00
          4   -1    0    0  501    0  0.00000000000E+00  0.00000000000E+00  0.50717670391E+03  0.50717670391E+03  0.00000000000E+00 0. -1.
         -4   -1    0    0    0  501 -0.00000000000E+00 -0.00000000000E+00 -0.27673514873E+02  0.27673514873E+02  0.00000000000E+00 0.  1.
         23    2    1    2    0    0  0.75051121265E+01  0.18670704872E+02  0.10889932565E+03  0.14318827103E+03  0.90768364008E+02 0.  0.
          5    1    1    2  502    0 -0.63938800411E+02 -0.20191339468E+02  0.15885472600E+03  0.17247653974E+03  0.41800000000E+01 0.  1.
         -5    1    1    2    0  502  0.56433688284E+02  0.15206345961E+01  0.21174913739E+03  0.21918540802E+03  0.41800000000E+01 0.  1.
        -11    1    3    3    0    0  0.36640024260E+01  0.45140954679E+02  0.18512535906E+02  0.48926932141E+02  0.00000000000E+00 0.  1.
         11    1    3    3    0    0  0.38411097005E+01 -0.26470249807E+02  0.90386789743E+02  0.94261338886E+02  0.00000000000E+00 0. -1.
</event>
<event>
 7    1  0.6684706E-006  0.8965311E+02  0.7561462E-02  0.1303694E+00
          2   -1    0    0  501    0  0.00000000000E+00  0.00000000000E+00  0.46931136900E+02  0.46931136900E+02  0.00000000000E+00 0. -1.
         -2   -1    0    0    0  501 -0.00000000000E+00 -0.00000000000E+00 -0.33766148729E+03  0.33766148729E+03  0.00000000000E+00 0.  1.
         23    2    1    2    0    0  0.96650493925E+00  0.15532833641E+02 -0.22317076560E+03  0.24157604916E+03  0.91167943136E+02 0.  0.
          5    1    1    2  502    0  0.17899366735E+02 -0.46684012632E+02 -0.87813336799E+02  0.10113574484E+03  0.41800000000E+01 0.  1.
         -5    1    1    2    0  502 -0.18865871674E+02  0.31151178991E+02  0.20253752013E+02  0.41880830187E+02  0.41800000000E+01 0.  1.
        -11    1    3    3    0    0  0.37548054678E+02 -0.19077555492E+02 -0.99826330943E+02  0.10834715448E+03  0.00000000000E+00 0. -1.
         11    1    3    3    0    0 -0.36581549739E+02  0.34610389132E+02 -0.12334443466E+03  0.13322889468E+03  0.00000000000E+00 0.  1.
</event>
<event>
 7    1  0.6684706E-006  0.1995749E+03  0.7561462E-02  0.1150098E+00
         -2   -1    0    0    0  501 -0.00000000000E+00  0.00000000000E+00  0.23366376135E+02  0.23366376135E+02  0.00000000000E+00 0.  1.
          2   -1    0    0  501    0  0.00000000000E+00 -0.00000000000E+00 -0.17291573426E+04  0.17291573426E+04  0.00000000000E+00 0. -1.
         23    2    1    2    0    0 -0.15649684036E+03 -0.62305541677E+02 -0.72608630838E+03  0.75060492656E+03  0.88505293591E+02 0.  0.
          5    1    1    2  502    0  0.32896567046E+02  0.78069619686E+02 -0.36990588663E+03  0.37950610931E+03  0.41800000000E+01 0.  1.
         -5    1    1    2    0  502  0.12360027332E+03 -0.15764078008E+02 -0.60979877146E+03  0.62241268287E+03  0.41800000000E+01 0.  1.
        -11    1    3    3    0    0 -0.91732680772E+02  0.10364585059E+02 -0.32317352764E+03  0.33610033965E+03  0.00000000000E+00 0. -1.
         11    1    3    3    0    0 -0.64764159591E+02 -0.72670126736E+02 -0.40291278073E+03  0.41450458691E+03  0.00000000000E+00 0.  1.
</event>
<event>
 6    1  0.2272965E-005  0.6610329E+02  0.7561462E-02  0.1373869E+00
         -2   -1    0    0    0  501 -0.00000000000E+00  0.00000000000E+00  0.10392119344E+02  0.10392119344E+02  0.00000000000E+00 0.  1.
          2   -1    0    0  501    0  0.00000000000E+00 -0.00000000000E+00 -0.86549008096E+03  0.86549008096E+03  0.00000000000E+00 0. -1.
          5    1    1    2  502    0 -0.14335767488E+02 -0.40754803122E+02 -0.60900066833E+03  0.61054545665E+03  0.41800000000E+01 0. -1.
         -5    1    1    2    0  502  0.45814826754E+02  0.25176508017E+02 -0.19764927350E+03  0.20448853909E+03  0.41800000000E+01 0.  1.
        -11    1    1    2    0    0 -0.19792905034E+02  0.14670980268E+02 -0.37086334733E+02  0.44524071867E+02  0.00000000000E+00 0. -1.
         11    1    1    2    0    0 -0.11686154232E+02  0.90731483613E+00 -0.11361685054E+02  0.16324132694E+02  0.00000000000E+00 0.  1.
</event>
<event>
 7    1  0.8872071E-006  0.1694951E+03  0.7561462E-02  0.1178375E+00
         -2   -1    0    0    0  501 -0.00000000000E+00  0.00000000000E+00  0.11390208026E+03  0.11390208026E+03  0.00000000000E+00 0. -1.
          2   -1    0    0  501    0  0.00000000000E+00 -0.00000000000E+00 -0.32414636917E+03  0.32414636917E+03  0.00000000000E+00 0.  1.
         23    2    1    2    0    0  0.12041474335E+03  0.84185949945E+02 -0.31811995444E+02  0.17523255012E+03  0.90041429257E+02 0.  0.
          5    1    1    2  502    0 -0.74282990239E+02 -0.93968200876E+02 -0.57475829447E+02  0.13292452289E+03  0.41800000000E+01 0.  1.
         -5    1    1    2    0  502 -0.46131753112E+02  0.97822509315E+01 -0.12095646403E+03  0.12989137642E+03  0.41800000000E+01 0.  1.
        -11    1    3    3    0    0  0.37500187983E+02  0.80487577606E+02 -0.95835524358E+01  0.89310462573E+02  0.00000000000E+00 0.  1.
         11    1    3    3    0    0  0.82914555368E+02  0.36983723388E+01 -0.22228443008E+02  0.85922087547E+02  0.00000000000E+00 0. -1.
</event>
<event>
 7    1  0.6684706E-006  0.7549010E+02  0.7561462E-02  0.1342360E+00
          2   -1    0    0  501    0  0.00000000000E+00  0.00000000000E+00  0.20051943139E+03  0.20051943139E+03  0.00000000000E+00 0. -1.
         -2   -1    0    0    0  501 -0.00000000000E+00 -0.00000000000E+00 -0.66144120674E+02  0.66144120674E+02  0.00000000000E+00 0.  1.
         23    2    1    2    0    0 -0.28277177420E+02 -0.15238993003E+02  0.42219547885E+02  0.10800327481E+03  0.94076519261E+02 0.  0.
          5    1    1    2  502    0  0.42872627293E+02  0.45950716799E+02  0.10469318127E+03  0.12217882448E+03  0.41800000000E+01 0.  1.
         -5    1    1    2    0  502 -0.14595449873E+02 -0.30711723796E+02 -0.12537418440E+02  0.36481452777E+02  0.41800000000E+01 0.  1.
        -11    1    3    3    0    0 -0.19716181108E+01 -0.25444478289E+02  0.66215617537E+02  0.70963488917E+02  0.00000000000E+00 0. -1.
         11    1    3    3    0    0 -0.26305559309E+02  0.10205485286E+02 -0.23996069653E+02  0.37039785897E+02  0.00000000000E+00 0.  1.
</event>
<event>
 7    1  0.6684706E-006  0.9358506E+02  0.7561462E-02  0.1294395E+00
          2   -1    0    0  501    0  0.00000000000E+00  0.00000000000E+00  0.59742208674E+03  0.59742208674E+03  0.00000000000E+00 0. -1.
         -2   -1    0    0    0  501 -0.00000000000E+00 -0.00000000000E+00 -0.31085642211E+02  0.31085642211E+02  0.00000000000E+00 0.  1.
         23    2    1    2    0    0  0.46117354644E+02 -0.67922153682E+02  0.24780120029E+03  0.27657882495E+03  0.91379331304E+02 0.  0.
          5    1    1    2  502    0 -0.13371625863E+02  0.17981049855E+02 -0.46346331459E+01  0.23260927679E+02  0.41800000000E+01 0. -1.
         -5    1    1    2    0  502 -0.32745728782E+02  0.49941103826E+02  0.32316987739E+03  0.32866797632E+03  0.41800000000E+01 0. -1.
        -11    1    3    3    0    0 -0.14986891895E+02 -0.27275214042E+02  0.15587229040E+03  0.15894878151E+03  0.00000000000E+00 0. -1.
         11    1    3    3    0    0  0.61104246539E+02 -0.40646939639E+02  0.91928909884E+02  0.11763004344E+03  0.00000000000E+00 0.  1.
</event>
<event>
 6    1  0.6684706E-006  0.2551297E+03  0.7561462E-02  0.1110105E+00
         -1   -1    0    0    0  501 -0.00000000000E+00  0.00000000000E+00  0.25979681346E+03  0.25979681346E+03  0.00000000000E+00 0.  1.
          1   -1    0    0  501    0  0.00000000000E+00 -0.00000000000E+00 -0.29681736914E+03  0.29681736914E+03  0.00000000000E+00 0. -1.
          5    1    1    2  502    0 -0.27743316052E+02  0.95710372152E+01 -0.49118084817E+02  0.57370332011E+02  0.41800000000E+01 0. -1.
         -5    1    1    2    0  502 -0.16002530054E+03 -0.94984232441E+02  0.21566588243E+02  0.18738380761E+03  0.41800000000E+01 0.  1.
        -11    1    1    2    0    0  0.16379880122E+03 -0.38503214357E+02  0.45332041164E+02  0.17426284387E+03  0.00000000000E+00 0.  1.
         11    1    1    2    0    0  0.23969815368E+02  0.12391640958E+03 -0.54801100267E+02  0.13759719911E+03  0.00000000000E+00 0. -1.
</event>
<event>
 7    1  0.6684706E-006  0.1580453E+03  0.7561462E-02  0.1190921E+00
         -4   -1    0    0    0  501 -0.00000000000E+00  0.00000000000E+00  0.17029866889E+03  0.17029866889E+03  0.00000000000E+00 0. -1.
          4   -1    0    0  501    0  0.00000000000E+00 -0.00000000000E+00 -0.17184141268E+03  0.17184141268E+03  0.00000000000E+00 0.  1.
         23    2    1    2    0    0 -0.11813999931E+03 -0.21469448368E+02  0.51734917135E+02  0.16074616598E+03  0.93513804204E+02 0.  0.
          5    1    1    2  502    0  0.11598488267E+03 -0.31465446387E+02 -0.36992355179E+02  0.12581126367E+03  0.41800000000E+01 0. -1.
         -5    1    1    2    0  502  0.21551166395E+01  0.52934894755E+02 -0.16285305741E+02  0.55582651912E+02  0.41800000000E+01 0. -1.
        -11    1    3    3    0    0 -0.10700170084E+02  0.23811692071E+02  0.33917561257E+02  0.42800599070E+02  0.00000000000E+00 0. -1.
         11    1    3    3    0    0 -0.10743982923E+03 -0.45281140439E+02  0.17817355878E+02  0.11794556691E+03  0.00000000000E+00 0.  1.
</event>
<event>
 7    1  0.6684706E-006  0.1409636E+03  0.7561462E-02  0.1212038E+00
         -2   -1    0    0    0  501 -0.00000000000E+00  0.00000000000E+00  0.75495996571E+03  0.75495996571E+03  0.00000000000E+00 0.  1.
          2   -1    0    0  501    0  0.00000000000E+00 -0.00000000000E+00 -0.31738313542E+02  0.31738313542E+02  0.00000000000E+00 0. -1.
         23    2    1    2    0    0 -0.17027257275E+02  0.10746630464E+03  0.40592603161E+03  0.42870078374E+03  0.84672809750E+02 0.  0.
          5    1    1    2  502    0  0.34235718251E+02  0.11852948601E+01  0.17633480444E+02  0.38754372149E+02  0.41800000000E+01 0. -1.
         -5    1    1    2    0  502 -0.17208460976E+02 -0.10865159950E+03  0.29966214011E+03  0.31924312337E+03  0.41800000000E+01 0. -1.
        -11    1    3    3    0    0 -0.44008794016E+02  0.25110743100E+02  0.13189637156E+03  0.14129393547E+03  0.00000000000E+00 0. -1.
         11    1    3    3    0    0  0.26981536740E+02  0.82355561536E+02  0.27402966005E+03  0.28740684826E+03  0.00000000000E+00 0.  1.
</event>
<event>
 7    1  0.6684706E-006  0.1628356E+03  0.7561462E-02  0.1185532E+00
          2   -1    0    0  501    0  0.00000000000E+00  0.00000000000E+00  0.14915830288E+03  0.14915830288E+03  0.00000000000E+00 0. -1.
         -2   -1    0    0    0  501 -0.00000000000E+00 -0.00000000000E+00 -0.25326972491E+03  0.25326972491E+03  0.00000000000E+00 0.  1.
         23    2    1    2    0    0  0.28363153563E+02  0.11821892125E+03 -0.15688849022E+03  0.22022853018E+03  0.95427592017E+02 0.  0.
          5    1    1    2  502    0  0.33844994914E+02 -0.10474067011E+03  0.27101780154E+02  0.11343751824E+03  0.41800000000E+01 0.  1.
         -5    1    1    2    0  502 -0.62208148477E+02 -0.13478251142E+02  0.25675288041E+02  0.68761979370E+02  0.41800000000E+01 0.  1.
        -11    1    3    3    0    0 -0.33351691950E+02  0.43735300890E+02 -0.37480684091E+02  0.66557595958E+02  0.00000000000E+00 0. -1.
         11    1    3    3    0    0  0.61714845513E+02  0.74483620364E+02 -0.11940780613E+03  0.15367093422E+03  0.00000000000E+00 0.  1.
</event>
<event>
 7    1  0.6684706E-006  0.8207049E+02  0.7561462E-02  0.1323276E+00
         -1   -1    0    0    0  501 -0.00000000000E+00  0.00000000000E+00  0.61937503285E+02  0.61937503285E+02  0.00000000000E+00 0.  1.
          1   -1    0    0  501    0  0.00000000000E+00 -0.00000000000E+00 -0.32212289699E+03  0.32212289699E+03  0.00000000000E+00 0. -1.
         23    2    1    2    0    0  0.23150840901E+02  0.48540959427E+02 -0.19907055436E+02  0.10788234660E+03  0.91379011133E+02 0.  0.
          5    1    1    2  502    0  0.18426295328E+02 -0.42860808851E+02 -0.22726931709E+03  0.23204609927E+03  0.41800000000E+01 0. -1.
         -5    1    1    2    0  502 -0.41577136230E+02 -0.56801505752E+01 -0.13009021179E+02  0.44131954406E+02  0.41800000000E+01 0. -1.
        -11    1    3    3    0    0  0.14561027420E+02 -0.88894340815E+01  0.27875231543E+02  0.32681402837E+02  0.00000000000E+00 0.  1.
         11    1    3    3    0    0  0.85898134817E+01  0.57430393508E+02 -0.47782286979E+02  0.75200943765E+02  0.00000000000E+00 0. -1.
</event>
<event>
 7    1  0.6684706E-006  0.1008041E+03  0.7561462E-02  0.1278614E+00
          2   -1    0    0  501    0  0.00000000000E+00  0.00000000000E+00  0.17507456346E+03  0.17507456346E+03  0.00000000000E+00 0. -1.
         -2   -1    0    0    0  501 -0.00000000000E+00 -0.00000000000E+00 -0.70055140506E+02  0.70055140506E+02  0.00000000000E+00 0.  1.
         23    2    1    2    0    0  0.56904033606E+01  0.13671592497E+02  0.24230588259E+02  0.95482670541E+02  0.91162085509E+02 0.  0.
          5    1    1    2  502    0 -0.27639359649E+02 -0.60572754100E+02  0.19920171591E+02  0.69622398531E+02  0.41800000000E+01 0.  1.
         -5    1    1    2    0  502  0.21948956289E+02  0.46901161603E+02  0.60868663108E+02  0.80024634897E+02  0.41800000000E+01 0.  1.
        -11    1    3    3    0    0 -0.37060678559E+02 -0.27175116910E+01  0.32004473931E+02  0.49042482774E+02  0.00000000000E+00 0.  1.
         11    1    3    3    0    0  0.42751081920E+02  0.16389104188E+02 -0.77738856720E+01  0.46440187767E+02  0.00000000000E+00 0. -1.
</event>
<event>
 7    1  0.6684706E-006  0.2032369E+03  0.7561462E-02  0.1147036E+00
          1   -1    0    0  501    0  0.00000000000E+00  0.00000000000E+00  0.17970522635E+03  0.17970522635E+03  0.00000000000E+00 0. -1.
         -1   -1    0    0    0  501 -0.00000000000E+00 -0.00000000000E+00 -0.34951750755E+03  0.34951750755E+03  0.00000000000E+00 0.  1.
         23    2    1    2    0    0  0.14919148309E+03 -0.11183725834E+03 -0.21715265250E+03  0.29976210934E+03  0.89086344250E+02 0.  0.
          5    1    1    2  502    0 -0.16284954564E+03  0.90225910850E+02  0.13314850267E+02  0.18669613585E+03  0.41800000000E+01 0. -1.
         -5    1    1    2    0  502  0.13658062554E+02  0.21611347493E+02  0.34025521030E+02  0.42764488709E+02  0.41800000000E+01 0. -1.
        -11    1    3    3    0    0 -0.40978997262E+00 -0.17460771628E+02 -0.62205504571E+02  0.64610922239E+02  0.00000000000E+00 0.  1.
         11    1    3    3    0    0  0.14960127306E+03 -0.94376486715E+02 -0.15494714793E+03  0.23515118710E+03  0.00000000000E+00 0. -1.
</event>
<event>
 7    1  0.6684706E-006  0.1331301E+03  0.7561462E-02  0.1222884E+00
          4   -1    0    0  501    0  0.00000000000E+00  0.00000000000E+00  0.15939242320E+03  0.15939242320E+03  0.00000000000E+00 0. -1.
         -4   -1    0    0    0  501 -0.00000000000E+00 -0.00000000000E+00 -0.15752039962E+03  0.15752039962E+03  0.00000000000E+00 0.  1.
         23    2    1    2    0    0  0.37011885441E+02 -0.10574065739E+03  0.53803037858E+01  0.14895461263E+03  0.98018175185E+02 0.  0.
          5    1    1    2  502    0 -0.37874303943E+02  0.16269357028E+02 -0.51692513869E+02  0.66247590654E+02  0.41800000000E+01 0.  1.
         -5    1    1    2    0  502  0.86241850253E+00  0.89471300357E+02  0.48184233663E+02  0.10171061954E+03  0.41800000000E+01 0.  1.
        -11    1    3    3    0    0  0.49597591891E+02 -0.28926336694E+02  0.33163966888E+02  0.66306129246E+02  0.00000000000E+00 0. -1.
         11    1    3    3    0    0 -0.12585706450E+02 -0.76814320692E+02 -0.27783663102E+02  0.82648483384E+02  0.00000000000E+00 0.  1.
</event>
<event>
 7    1  0.6684706E-006  0.8821481E+02  0.7561462E-02  0.1307233E+00
          1   -1    0    0  501    0  0.00000000000E+00  0.00000000000E+00  0.12602921946E+03  0.12602921946E+03  0.00000000000E+00 0. -1.
         -1   -1    0    0    0  501 -0.00000000000E+00 -0.00000000000E+00 -0.96722011885E+02  0.96722011885E+02  0.00000000000E+00 0.  1.
         23    2    1    2    0    0 -0.24261692940E+01  0.22025278608E+02  0.96138812795E+01  0.94175857659E+02  0.91025635166E+02 0.  0.
          5    1    1    2  502    0 -0.28495843773E+02  0.18271773342E+02  0.56299819188E+02  0.65825624601E+02  0.41800000000E+01 0.  1.
         -5    1    1    2    0  502  0.30922013067E+02 -0.40297051950E+02 -0.36606492894E+02  0.62749749083E+02  0.41800000000E+01 0.  1.
        -11    1    3    3    0    0 -0.71225931763E+01 -0.34200646670E+02  0.13885072902E+02  0.37592696308E+02  0.00000000000E+00 0. -1.
         11    1    3    3    0    0  0.46964238823E+01  0.56225925278E+02 -0.42711916227E+01  0.56583161351E+02  0.00000000000E+00 0.  1.
</event>
<event>
 7    1  0.6684706E-006  0.6668037E+02  0.7561462E-02  0.1371760E+00
          2   -1    0    0  501    0  0.00000000000E+00  0.00000000000E+00  0.75882616703E+03  0.75882616703E+03  0.00000000000E+00 0.  1.
         -2   -1    0    0    0  501 -0.00000000000E+00 -0.00000000000E+00 -0.18751536259E+02  0.18751536259E+02  0.00000000000E+00 0. -1.
         23    2    1    2    0    0 -0.21225777116E+02  0.19880097674E+02  0.18014519752E+03  0.20310843536E+03  0.89190764239E+02 0.  0.
          5    1    1    2  502    0  0.27517943308E+02 -0.26811069347E+02  0.56255946504E+03  0.56388535603E+03  0.41800000000E+01 0. -1.
         -5    1    1    2    0  502 -0.62921661923E+01  0.69309716725E+01 -0.26300317955E+01  0.10583911893E+02  0.41800000000E+01 0. -1.
        -11    1    3    3    0    0 -0.19878032073E+01 -0.30484209690E+02  0.11267886950E+03  0.11674658896E+03  0.00000000000E+00 0.  1.
         11    1    3    3    0    0 -0.19237973909E+02  0.50364307364E+02  0.67466328020E+02  0.86361846396E+02  0.00000000000E+00 0. -1.
</event>
<event>
 7    1  0.6684706E-006  0.1877466E+03  0.7561462E-02  0.1160510E+00
          1   -1    0    0  501    0  0.00000000000E+00  0.00000000000E+00  0.17194691765E+03  0.17194691765E+03  0.00000000000E+00 0. -1.
         -1   -1    0    0    0  501 -0.00000000000E+00 -0.00000000000E+00 -0.45418066138E+03  0.45418066138E+03  0.00000000000E+00 0.  1.
         23    2    1    2    0    0  0.34770766700E+02 -0.16046858890E+03 -0.36098691491E+03  0.40520001777E+03  0.83164460109E+02 0.  0.
          5    1    1    2  502    0 -0.82073962155E+02  0.96630098780E+02  0.48576885110E+02  0.13583334429E+03  0.41800000000E+01 0.  1.
         -5    1    1    2    0  502  0.47303195456E+02  0.63838490118E+02  0.30176286071E+02  0.85094216971E+02  0.41800000000E+01 0.  1.
        -11    1    3    3    0    0 -0.23482151227E+01 -0.84443563473E+02 -0.10033441595E+03  0.13116106339E+03  0.00000000000E+00 0. -1.
         11    1    3    3    0    0  0.37118981822E+02 -0.76025025425E+02 -0.26065249896E+03  0.27403895438E+03  0.00000000000E+00 0.  1.
</event>
<event>
 7    1  0.6684706E-006  0.2281106E+03  0.7561462E-02  0.1127977E+00
          1   -1    0    0  501    0  0.00000000000E+00  0.00000000000E+00  0.67772443987E+03  0.67772443987E+03  0.00000000000E+00 0. -1.
         -1   -1    0    0    0  501 -0.00000000000E+00 -0.00000000000E+00 -0.92904728111E+02  0.92904728111E+02  0.00000000000E+00 0.  1.
         23    2    1    2    0    0 -0.10269533111E+03 -0.21556512547E+02  0.74136500011E+02  0.15832216590E+03  0.92513098086E+02 0.  0.
          5    1    1    2  502    0  0.18143880046E+03 -0.77820388368E+02  0.39034241104E+03  0.43744796423E+03  0.41800000000E+01 0. -1.
         -5    1    1    2    0  502 -0.78743469346E+02  0.99376900916E+02  0.12034080071E+03  0.17485903785E+03  0.41800000000E+01 0.  1.
        -11    1    3    3    0    0 -0.72347360416E+02  0.24804660725E+02  0.16247983709E+02  0.78188290219E+02  0.00000000000E+00 0. -1.
         11    1    3    3    0    0 -0.30347970695E+02 -0.46361173273E+02  0.57888516303E+02  0.80133875685E+02  0.00000000000E+00 0.  1.
</event>
<event>
 7    1  0.6684706E-006  0.3357816E+03  0.7561462E-02  0.1068607E+00
         -1   -1    0    0    0  501 -0.00000000000E+00  0.00000000000E+00  0.19323058254E+03  0.19323058254E+03  0.00000000000E+00 0.  1.
          1   -1    0    0  501    0  0.00000000000E+00 -0.00000000000E+00 -0.11561263961E+04  0.11561263961E+04  0.00000000000E+00 0. -1.
         23    2    1    2    0    0 -0.26109310645E+03  0.18880257201E+03 -0.88023623217E+01  0.33458710246E+03  0.89749797295E+02 0.  0.
          5    1    1    2  502    0  0.18016413480E+03 -0.19309074221E+03 -0.70961219708E+03  0.75717243270E+03  0.41800000000E+01 0. -1.
         -5    1    1    2    0  502  0.80928971648E+02  0.42881701947E+01 -0.24448125419E+03  0.25759744352E+03  0.41800000000E+01 0. -1.
        -11    1    3    3    0    0 -0.54163882477E+02  0.67072277354E+02  0.30225572564E+02  0.91356454568E+02  0.00000000000E+00 0.  1.
         11    1    3    3    0    0 -0.20692922397E+03  0.12173029466E+03 -0.39027934886E+02  0.24323064789E+03  0.00000000000E+00 0. -1.
</event>
<event>
 7    1  0.6684706E-006  0.6936794E+02  0.7561462E-02  0.1362256E+00
          1   -1    0    0  501    0  0.00000000000E+00  0.00000000000E+00  0.12649329697E+03  0.12649329697E+03  0.00000000000E+00 0. -1.
         -1   -1    0    0    0  501 -0.00000000000E+00 -0.00000000000E+00 -0.11108856199E+03  0.11108856199E+03  0.00000000000E+00 0.  1.
         23    2    1    2    0    0  0.27605741428E+01 -0.32840123874E+01 -0.53680562058E+02  0.94617987653E+02  0.77798170529E+02 0.  0.
          5    1    1    2  502    0  0.37397457784E+02  0.35783024939E+02  0.74543886709E+02  0.90847444478E+02  0.41800000000E+01 0. -1.
         -5    1    1    2    0  502 -0.40158031927E+02 -0.32499012552E+02 -0.54585896725E+01  0.52116426837E+02  0.41800000000E+01 0. -1.
        -11    1    3    3    0    0 -0.15340538970E+02  0.33464814671E+01  0.15942050735E+02  0.22375881116E+02  0.00000000000E+00 0. -1.
         11    1    3    3    0    0  0.18101113113E+02 -0.66304938545E+01 -0.69622612793E+02  0.72242106537E+02  0.00000000000E+00 0.  1.
</event>
<event>
 7    1  0.6684706E-006  0.1683551E+03  0.7561462E-02  0.1179574E+00
         -2   -1    0    0    0  501 -0.00000000000E+00  0.00000000000E+00  0.22443476125E+03  0.22443476125E+03  0.00000000000E+00 0.  1.
          2   -1    0    0  501    0  0.00000000000E+00 -0.00000000000E+00 -0.14699269911E+03  0.14699269911E+03  0.00000000000E+00 0. -1.
         23    2    1    2    0    0  0.12110869028E+03  0.79273309858E+02  0.40683968865E+02  0.17662105115E+03  0.92672746093E+02 0.  0.
          5    1    1    2  502    0 -0.14188431549E+03 -0.89446732668E+02  0.33206791928E+02  0.17103227882E+03  0.41800000000E+01 0. -1.
         -5    1    1    2    0  502  0.20775625210E+02  0.10173422810E+02  0.35513013469E+01  0.23774130390E+02  0.41800000000E+01 0. -1.
        -11    1    3    3    0    0  0.45864343324E+02  0.38270658117E+02 -0.28785389419E+02  0.66308218988E+02  0.00000000000E+00 0. -1.
         11    1    3    3    0    0  0.75244346955E+02  0.41002651741E+02  0.69469358284E+02  0.11031283216E+03  0.00000000000E+00 0.  1.
</event>
<event>
 7    1  0.6684706E-006  0.1708778E+03  0.7561462E-02  0.1176935E+00
         -1   -1    0    0    0  501 -0.00000000000E+00  0.00000000000E+00  0.49355022367E+02  0.49355022367E+02  0.00000000000E+00 0.  1.
          1   -1    0    0  501    0  0.00000000000E+00 -0.00000000000E+00 -0.79880437269E+03  0.79880437269E+03  0.00000000000E+00 0. -1.
         23    2    1    2    0    0  0.12879903563E+03  0.21595525612E+02 -0.16368890091E+03  0.22778419001E+03  0.89643865572E+02 0.  0.
          5    1    1    2  502    0 -0.13518267840E+03  0.27625924005E+02 -0.29907219698E+03  0.32939216691E+03  0.41800000000E+01 0. -1.
         -5    1    1    2    0  502  0.63836427710E+01 -0.49221449617E+02 -0.28668825243E+03  0.29098303813E+03  0.41800000000E+01 0.  1.
        -11    1    3    3    0    0  0.72138170606E+02  0.52636256035E+02 -0.67625551620E+02  0.11201654494E+03  0.00000000000E+00 0.  1.
         11    1    3    3    0    0  0.56660865019E+02 -0.31040730423E+02 -0.96063349287E+02  0.11576764507E+03  0.00000000000E+00 0. -1.
</event>
<event>
 7    1  0.6684706E-006  0.1997984E+03  0.7561462E-02  0.1149909E+00
         -1   -1    0    0    0  501 -0.00000000000E+00  0.00000000000E+00  0.27347964562E+03  0.27347964562E+03  0.00000000000E+00 0.  1.
          1   -1    0    0  501    0  0.00000000000E+00 -0.00000000000E+00 -0.17254354551E+03  0.17254354551E+03  0.00000000000E+00 0. -1.
         23    2    1    2    0    0  0.11179869345E+03  0.14919095631E+03  0.22872375596E+02  0.20832842603E+03  0.90114916778E+02 0.  0.
          5    1    1    2  502    0 -0.17092296336E+02 -0.61961093009E+02 -0.28569636975E+02  0.70462899442E+02  0.41800000000E+01 0. -1.
         -5    1    1    2    0  502 -0.94706397115E+02 -0.87229863302E+02  0.10663336150E+03  0.16723186565E+03  0.41800000000E+01 0. -1.
        -11    1    3    3    0    0  0.75608350477E+02  0.29233494014E+02  0.59260530894E+00  0.81065226917E+02  0.00000000000E+00 0. -1.
         11    1    3    3    0    0  0.36190342974E+02  0.11995746230E+03  0.22279770287E+02  0.12726319912E+03  0.00000000000E+00 0.  1.
</event>
<event>
 7    1  0.6684706E-006  0.1217978E+03  0.7561462E-02  0.1240160E+00
          2   -1    0    0  501    0  0.00000000000E+00  0.00000000000E+00  0.25384729112E+03  0.25384729112E+03  0.00000000000E+00 0. -1.
         -2   -1    0    0    0  501 -0.00000000000E+00 -0.00000000000E+00 -0.72931724643E+02  0.72931724643E+02  0.00000000000E+00 0.  1.
         23    2    1    2    0    0  0.37023595847E+02 -0.44404487418E+02  0.11690663174E+02  0.10854348647E+03  0.91118119483E+02 0.  0.
          5    1    1    2  502    0  0.32609568856E+02  0.56058819124E+02  0.62228919587E+02  0.89977141628E+02  0.41800000000E+01 0. -1.
         -5    1    1    2    0  502 -0.69633164704E+02 -0.11654331706E+02  0.10699598372E+03  0.12825838766E+03  0.41800000000E+01 0. -1.
        -11    1    3    3    0    0  0.66114114677E+02 -0.17818395220E+02  0.61906260125E+01  0.68752419726E+02  0.00000000000E+00 0.  1.
         11    1    3    3    0    0 -0.29090518830E+02 -0.26586092198E+02  0.55000371613E+01  0.39791066748E+02  0.00000000000E+00 0. -1.
</event>
<event>
 7    1  0.6684706E-006  0.1074958E+03  0.7561462E-02  0.1265279E+00
          2   -1    0    0  501    0  0.00000000000E+00  0.00000000000E+00  0.21029417817E+03  0.21029417817E+03  0.00000000000E+00 0. -1.
         -2   -1    0    0    0  501 -0.00000000000E+00 -0.00000000000E+00 -0.59760152815E+02  0.59760152815E+02  0.00000000000E+00 0.  1.
         23    2    1    2    0    0  0.22213876358E+02 -0.13338721265E+02  0.61739160771E+02  0.11448510970E+03  0.92864086614E+02 0.  0.
          5    1    1    2  502    0 -0.54002598329E+02 -0.36394796432E+02  0.28883486746E+02  0.71362385331E+02  0.41800000000E+01 0.  1.
         -5    1    1    2    0  502  0.31788721971E+02  0.49733517697E+02  0.59911377841E+02  0.84206835956E+02  0.41800000000E+01 0.  1.
        -11    1    3    3    0    0  0.51533693168E+02 -0.27043056325E+02  0.19723917665E+02  0.61449827949E+02  0.00000000000E+00 0. -1.
         11    1    3    3    0    0 -0.29319816810E+02  0.13704335060E+02  0.42015243106E+02  0.53035281752E+02  0.00000000000E+00 0.  1.
</event>
<event>
 7    1  0.6684706E-006  0.1117725E+03  0.7561462E-02  0.1257322E+00
          2   -1    0    0  501    0  0.00000000000E+00  0.00000000000E+00  0.14948463233E+03  0.14948463233E+03  0.00000000000E+00 0. -1.
         -2   -1    0    0    0  501 -0.00000000000E+00 -0.00000000000E+00 -0.11315906696E+03  0.11315906696E+03  0.00000000000E+00 0.  1.
         23    2    1    2    0    0 -0.68033171338E+02  0.13974381860E+02  0.13936651268E+02  0.11781961389E+03  0.94145819964E+02 0.  0.
          5    1    1    2  502    0  0.96573354015E+02 -0.30394201230E+02  0.37902949107E+02  0.10818653394E+03  0.41800000000E+01 0. -1.
         -5    1    1    2    0  502 -0.28540182677E+02  0.16419819370E+02 -0.15514035011E+02  0.36637551470E+02  0.41800000000E+01 0. -1.
        -11    1    3    3    0    0 -0.72849241535E+02  0.24978607730E+02 -0.21865189273E+02  0.80056413474E+02  0.00000000000E+00 0.  1.
         11    1    3    3    0    0  0.48160701969E+01 -0.11004225870E+02  0.35801840541E+02  0.37763200411E+02  0.00000000000E+00 0. -1.
</event>
<event>
 7    1  0.6684706E-006  0.1862982E+03  0.7561462E-02  0.1161843E+00
         -2   -1    0    0    0  501 -0.00000000000E+00  0.00000000000E+00  0.51493584227E+02  0.51493584227E+02  0.00000000000E+00 0.  1.
          2   -1    0    0  501    0  0.00000000000E+00 -0.00000000000E+00 -0.88847049905E+03  0.88847049905E+03  0.00000000000E+00 0. -1.
         23    2    1    2    0    0 -0.64000880230E+02 -0.16537018443E+03 -0.50965609027E+03  0.54724267011E+03  0.91004390365E+02 0.  0.
          5    1    1    2  502    0 -0.19621808002E+02  0.29499457317E+02 -0.92478278683E+01  0.36854145649E+02  0.41800000000E+01 0.  1.
         -5    1    1    2    0  502  0.83622688231E+02  0.13587072712E+03 -0.31807299668E+03  0.35586726752E+03  0.41800000000E+01 0.  1.
        -11    1    3    3    0    0 -0.43642694247E+02 -0.11380625912E+03 -0.21263389822E+03  0.24509125657E+03  0.00000000000E+00 0.  1.
         11    1    3    3    0    0 -0.20358185982E+02 -0.51563925314E+02 -0.29702219205E+03  0.30215141354E+03  0.00000000000E+00 0. -1.
</event>
<event>
 7    1  0.6684706E-006  0.1211153E+03  0.7561462E-02  0.1241268E+00
          1   -1    0    0  501    0  0.00000000000E+00  0.00000000000E+00  0.76342458876E+02  0.76342458876E+02  0.00000000000E+00 0. -1.
         -1   -1    0    0    0  501 -0.00000000000E+00 -0.00000000000E+00 -0.28095055887E+03  0.28095055887E+03  0.00000000000E+00 0.  1.
         23    2    1    2    0    0 -0.74303661033E+02  0.56097124820E+02 -0.12781769779E+03  0.18347752798E+03  0.93052232360E+02 0.  0.
          5    1    1    2  502    0  0.97832981485E+02 -0.42761231235E+02 -0.17181091589E+02  0.10822420003E+03  0.41800000000E+01 0. -1.
         -5    1    1    2    0  502 -0.23529320451E+02 -0.13335893585E+02 -0.59609310614E+02  0.65591289746E+02  0.41800000000E+01 0. -1.
        -11    1    3    3    0    0 -0.62102260035E+02  0.13301274688E+02 -0.12336573451E+03  0.13875416773E+03  0.00000000000E+00 0.  1.
         11    1    3    3    0    0 -0.12201400999E+02  0.42795850132E+02 -0.44519632787E+01  0.44723360248E+02  0.00000000000E+00 0. -1.
</event>
<event>
 7    1  0.6684706E-006  0.7700170E+02  0.7561462E-02  0.1337782E+00
         -2   -1    0    0    0  501 -0.00000000000E+00  0.00000000000E+00  0.11018468311E+03  0.11018468311E+03  0.00000000000E+00 0. -1.
          2   -1    0    0  501    0  0.00000000000E+00 -0.00000000000E+00 -0.10837332070E+03  0.10837332070E+03  0.00000000000E+00 0.  1.
         23    2    1    2    0    0 -0.64041023351E+01 -0.10931004591E+02  0.18943334303E+02  0.91665970307E+02  0.88787954193E+02 0.  0.
          5    1    1    2  502    0  0.47082218489E+02  0.13610827850E+02  0.35155040332E+02  0.60459401199E+02  0.41800000000E+01 0. -1.
         -5    1    1    2    0  502 -0.40678116154E+02 -0.26798232589E+01 -0.52287012225E+02  0.66432632297E+02  0.41800000000E+01 0. -1.
        -11    1    3    3    0    0 -0.27419511325E+02 -0.26148425082E+02  0.42277013700E+02  0.56770728575E+02  0.00000000000E+00 0. -1.
         11    1    3    3    0    0  0.21015408990E+02  0.15217420491E+02 -0.23333679396E+02  0.34895241732E+02  0.00000000000E+00 0.  1.
</event>
<event>
 7    1  0.6684706E-006  0.1022853E+03  0.7561462E-02  0.1275562E+00
         -1   -1    0    0    0  501 -0.00000000000E+00  0.00000000000E+00  0.37732937971E+02  0.37732937971E+02  0.00000000000E+00 0. -1.
          1   -1    0    0  501    0  0.00000000000E+00 -0.00000000000E+00 -0.50580543101E+03  0.50580543101E+03  0.00000000000E+00 0.  1.
         23    2    1    2    0    0  0.75330315169E+02  0.54611390219E+02 -0.19268861071E+03  0.22708920376E+03  0.76049624848E+02 0.  0.
          5    1    1    2  502    0 -0.60196870343E+02 -0.53702338059E+02 -0.28618770699E+03  0.29736926597E+03  0.41800000000E+01 0. -1.
         -5    1    1    2    0  502 -0.15133444826E+02 -0.90905215972E+00  0.10803824664E+02  0.19079899253E+02  0.41800000000E+01 0. -1.
        -11    1    3    3    0    0  0.71781312805E+02  0.21736198033E+02 -0.17311671830E+03  0.18866482801E+03  0.00000000000E+00 0.  1.
         11    1    3    3    0    0  0.35490023642E+01  0.32875192185E+02 -0.19571892414E+02  0.38424375748E+02  0.00000000000E+00 0. -1.
</event>
<event>
 7    1  0.6684706E-006  0.1350023E+03  0.7561462E-02  0.1220216E+00
          2   -1    0    0  501    0  0.00000000000E+00  0.00000000000E+00  0.48173551335E+03  0.48173551335E+03  0.00000000000E+00 0. -1.
         -2   -1    0    0    0  501 -0.00000000000E+00 -0.00000000000E+00 -0.11326940537E+03  0.11326940537E+03  0.00000000000E+00 0.  1.
         23    2    1    2    0    0  0.95831020332E+02  0.94685037250E+01 -0.50845929518E+02  0.14696023411E+03  0.98685180454E+02 0.  0.
          5    1    1    2  502    0 -0.26794293295E+02  0.50844891903E+02  0.96052839422E+02  0.11201230980E+03  0.41800000000E+01 0. -1.
         -5    1    1    2    0  502 -0.69036727037E+02 -0.60313395628E+02  0.32325919808E+03  0.33603237480E+03  0.41800000000E+01 0. -1.
        -11    1    3    3    0    0  0.76777687253E+02 -0.25406483085E+02 -0.66043716093E+02  0.10441300244E+03  0.00000000000E+00 0.  1.
         11    1    3    3    0    0  0.19053333080E+02  0.34874986810E+02  0.15197786575E+02  0.42547231675E+02  0.00000000000E+00 0. -1.
</event>
<event>
 7    1  0.6684706E-006  0.2214515E+03  0.7561462E-02  0.1132806E+00
          1   -1    0    0  501    0  0.00000000000E+00  0.00000000000E+00  0.61338909943E+03  0.61338909943E+03  0.00000000000E+00 0. -1.
         -1   -1    0    0    0  501 -0.00000000000E+00 -0.00000000000E+00 -0.11132340817E+03  0.11132340817E+03  0.00000000000E+00 0.  1.
         23    2    1    2    0    0  0.16356461085E+03  0.10798627792E+03  0.62070421789E+02  0.22705953024E+03  0.96378809245E+02 0.  0.
          5    1    1    2  502    0 -0.11213262101E+03 -0.13332001816E+03  0.31259701304E+03  0.35788589927E+03  0.41800000000E+01 0.  1.
         -5    1    1    2    0  502 -0.51431989843E+02  0.25333740243E+02  0.12739825643E+03  0.13976707808E+03  0.41800000000E+01 0.  1.
        -11    1    3    3    0    0 -0.82806424115E+01  0.11218589013E+02  0.21635517658E+02  0.25739491108E+02  0.00000000000E+00 0. -1.
         11    1    3    3    0    0  0.17184525326E+03  0.96767688905E+02  0.40434904132E+02  0.20132003914E+03  0.00000000000E+00 0.  1.
</event>
<event>
 7    1  0.6684706E-006  0.1001149E+03  0.7561462E-02  0.1280054E+00
         -1   -1    0    0    0  501 -0.00000000000E+00  0.00000000000E+00  0.41386973309E+02  0.41386973309E+02  0.00000000000E+00 0. -1.
          1   -1    0    0  501    0  0.00000000000E+00 -0.00000000000E+00 -0.36695519635E+03  0.36695519635E+03  0.00000000000E+00 0.  1.
         23    2    1    2    0    0 -0.41992018525E+01 -0.90525085194E+00 -0.49126326720E+02  0.10488513057E+03  0.92569119383E+02 0.  0.
          5    1    1    2  502    0 -0.30344916304E+02  0.48845001571E+02 -0.82349669627E+02  0.10052655675E+03  0.41800000000E+01 0.  1.
         -5    1    1    2    0  502  0.34544118156E+02 -0.47939750719E+02 -0.19409222669E+03  0.20293048234E+03  0.41800000000E+01 0.  1.
        -11    1    3    3    0    0  0.21309592244E+02 -0.34867000449E+02 -0.12487969415E+01  0.40882342591E+02  0.00000000000E+00 0. -1.
         11    1    3    3    0    0 -0.25508794097E+02  0.33961749597E+02 -0.47877529779E+02  0.64002787984E+02  0.00000000000E+00 0.  1.
</event>
<event>
 7    1  0.6684706E-006  0.9275869E+02  0.7561462E-02  0.1296305E+00
          1   -1    0    0  501    0  0.00000000000E+00  0.00000000000E+00  0.21811548284E+04  0.21811548284E+04  0.00000000000E+00 0. -1.
         -1   -1    0    0    0  501 -0.00000000000E+00 -0.00000000000E+00 -0.96654261763E+01  0.96654261763E+01  0.00000000000E+00 0.  1.
         23    2    1    2    0    0  0.58905511018E+02  0.12677213156E+02  0.40053130879E+03  0.41442747575E+03  0.87716773610E+02 0.  0.
          5    1    1    2  502    0 -0.14077920442E+02 -0.27972179252E+02  0.15524303316E+04  0.15527517630E+04  0.41800000000E+01 0.  1.
         -5    1    1    2    0  502 -0.44827590576E+02  0.15294966096E+02  0.21852776185E+03  0.22364101584E+03  0.41800000000E+01 0.  1.
        -11    1    3    3    0    0  0.25950019170E+02  0.50154069857E+02  0.20676260842E+03  0.21433527582E+03  0.00000000000E+00 0.  1.
         11    1    3    3    0    0  0.32955491848E+02 -0.37476856701E+02  0.19376870037E+03  0.20009219993E+03  0.00000000000E+00 0. -1.
</event>
<event>
 7    1  0.6684706E-006  0.1369328E+03  0.7561462E-02  0.1217517E+00
         -1   -1    0    0    0  501 -0.00000000000E+00  0.00000000000E+00  0.78196941638E+03  0.78196941638E+03  0.00000000000E+00 0.  1.
          1   -1    0    0  501    0  0.00000000000E+00 -0.00000000000E+00 -0.34322644272E+02  0.34322644272E+02  0.00000000000E+00 0. -1.
         23    2    1    2    0    0 -0.38350109907E+02 -0.10948442952E+03  0.44321082495E+03  0.46731332447E+03  0.92132169381E+02 0.  0.
          5    1    1    2  502    0  0.69048117519E+02  0.42651835097E+02  0.85400052560E+02  0.11788750123E+03  0.41800000000E+01 0.  1.
         -5    1    1    2    0  502 -0.30698007611E+02  0.66832594423E+02  0.21903589460E+03  0.23109123495E+03  0.41800000000E+01 0.  1.
        -11    1    3    3    0    0 -0.32682581732E+02 -0.53705916079E+02  0.36893247897E+03  0.37425078572E+03  0.00000000000E+00 0.  1.
         11    1    3    3    0    0 -0.56675281756E+01 -0.55778513441E+02  0.74278345982E+02  0.93062538752E+02  0.00000000000E+00 0. -1.
</event>
<event>
 7    1  0.6684706E-006  0.1105386E+03  0.7561462E-02  0.1259576E+00
          2   -1    0    0  501    0  0.00000000000E+00  0.00000000000E+00  0.12274490313E+04  0.12274490313E+04  0.00000000000E+00 0. -1.
         -2   -1    0    0    0  501 -0.00000000000E+00 -0.00000000000E+00 -0.12412632514E+02  0.12412632514E+02  0.00000000000E+00 0.  1.
         23    2    1    2    0    0 -0.19589292988E+00  0.35340991639E+02  0.27732390194E+03  0.29319617016E+03  0.88353967341E+02 0.  0.
          5    1    1    2  502    0  0.59780984156E+02 -0.33142603588E+02  0.42520924005E+03  0.43068848192E+03  0.41800000000E+01 0.  1.
         -5    1    1    2    0  502 -0.59585091226E+02 -0.21983880503E+01  0.51250325675E+03  0.51597701169E+03  0.41800000000E+01 0.  1.
        -11    1    3    3    0    0  0.36077929372E+02  0.42606696302E+02  0.13378882181E+03  0.14497032938E+03  0.00000000000E+00 0. -1.
         11    1    3    3    0    0 -0.36273822302E+02 -0.72657046629E+01  0.14353508012E+03  0.14822584078E+03  0.00000000000E+00 0.  1.
</event>
<event>
 7    1  0.6684706E-006  0.9965026E+02  0.7561462E-02  0.1281033E+00
         -2   -1    0    0    0  501 -0.00000000000E+00  0.00000000000E+00  0.26308032499E+03  0.26308032499E+03  0.00000000000E+00 0.  1.
          2   -1    0    0  501    0  0.00000000000E+00 -0.00000000000E+00 -0.11025312870E+03  0.11025312870E+03  0.00000000000E+00 0. -1.
         23    2    1    2    0    0  0.46582346365E+02 -0.30379299829E+02  0.20084713553E+03  0.22825976173E+03  0.93113533512E+02 0.  0.
          5    1    1    2  502    0 -0.29812847993E+02 -0.21913181866E+02  0.31208007353E+02  0.48584005268E+02  0.41800000000E+01 0. -1.
         -5    1    1    2    0  502 -0.16769498372E+02  0.52292481695E+02 -0.79227946596E+02  0.96489686699E+02  0.41800000000E+01 0. -1.
        -11    1    3    3    0    0  0.68032748048E+02  0.21027052948E+01  0.10902413915E+03  0.12852680302E+03  0.00000000000E+00 0. -1.
         11    1    3    3    0    0 -0.21450401683E+02 -0.32482005124E+02  0.91822996382E+02  0.99732958714E+02  0.00000000000E+00 0.  1.
</event>
<event>
 7    1  0.6684706E-006  0.1004926E+03  0.7561462E-02  0.1279264E+00
         -1   -1    0    0    0  501 -0.00000000000E+00  0.00000000000E+00  0.98291614429E+01  0.98291614429E+01  0.00000000000E+00 0.  1.
          1   -1    0    0  501    0  0.00000000000E+00 -0.00000000000E+00 -0.13707042365E+04  0.13707042365E+04  0.00000000000E+00 0. -1.
         23    2    1    2    0    0  0.24510295277E+01  0.16416578161E+02 -0.35972638785E+03  0.37146409844E+03  0.91142694326E+02 0.  0.
          5    1    1    2  502    0  0.37413303316E+02  0.29231317786E+02 -0.71275939058E+03  0.71435120667E+03  0.41800000000E+01 0. -1.
         -5    1    1    2    0  502 -0.39864332843E+02 -0.45647895947E+02 -0.28838929663E+03  0.29471809284E+03  0.41800000000E+01 0. -1.
        -11    1    3    3    0    0  0.31880916368E+02 -0.25868690802E+02 -0.16660258206E+03  0.17158671959E+03  0.00000000000E+00 0.  1.
         11    1    3    3    0    0 -0.29429886840E+02  0.42285268963E+02 -0.19312380579E+03  0.19987737885E+03  0.00000000000E+00 0. -1.
</event>
<event>
 7    1  0.6684706E-006  0.1511836E+03  0.7561462E-02  0.1199026E+00
         -1   -1    0    0    0  501 -0.00000000000E+00  0.00000000000E+00  0.23567207993E+03  0.23567207993E+03  0.00000000000E+00 0.  1.
          1   -1    0    0  501    0  0.00000000000E+00 -0.00000000000E+00 -0.12405262780E+03  0.12405262780E+03  0.00000000000E+00 0. -1.
         23    2    1    2    0    0 -0.93825246366E+02 -0.90467635922E+02  0.31518372220E+02  0.16211083133E+03  0.91098539188E+02 0.  0.
          5    1    1    2  502    0  0.87307234381E+02  0.82859321296E+01  0.82652182498E+01  0.88187278443E+02  0.41800000000E+01 0.  1.
         -5    1    1    2    0  502  0.65180119849E+01  0.82181703793E+02  0.71835861669E+02  0.10942659796E+03  0.41800000000E+01 0.  1.
        -11    1    3    3    0    0 -0.42688915425E+02 -0.55739150504E+02  0.61567747271E+02  0.93379783161E+02  0.00000000000E+00 0.  1.
         11    1    3    3    0    0 -0.51136330941E+02 -0.34728485419E+02 -0.30049375051E+02  0.68731048170E+02  0.00000000000E+00 0. -1.
</event>
<event>
 7    1  0.6684706E-006  0.1746291E+03  0.7561462E-02  0.1173105E+00
          2   -1    0    0  501    0  0.00000000000E+00  0.00000000000E+00  0.36485919364E+02  0.36485919364E+02  0.00000000000E+00 0.  1.
         -2   -1    0    0    0  501 -0.00000000000E+00 -0.00000000000E+00 -0.10333804444E+04  0.10333804444E+04  0.00000000000E+00 0. -1.
         23    2    1    2    0    0 -0.52951574699E+01  0.15801366407E+03 -0.40323755875E+03  0.44290979496E+03  0.92586181295E+02 0.  0.
          5    1    1    2  502    0  0.31368880068E+02 -0.81115277701E+02 -0.13157259277E+03  0.15777361783E+03  0.41800000000E+01 0.  1.
         -5    1    1    2    0  502 -0.26073722598E+02 -0.76898386367E+02 -0.46208437354E+03  0.46918295100E+03  0.41800000000E+01 0.  1.
        -11    1    3    3    0    0  0.41260249955E+02  0.80625066023E+02 -0.23714106958E+03  0.25384778191E+03  0.00000000000E+00 0.  1.
         11    1    3    3    0    0 -0.46555407425E+02  0.77388598045E+02 -0.16609648916E+03  0.18906201305E+03  0.00000000000E+00 0. -1.
</event>
<event>
 7    1  0.6684706E-006  0.1021461E+03  0.7561462E-02  0.1275847E+00
          1   -1    0    0  501    0  0.00000000000E+00  0.00000000000E+00  0.10201000882E+03  0.10201000882E+03  0.00000000000E+00 0. -1.
         -1   -1    0    0    0  501 -0.00000000000E+00 -0.00000000000E+00 -0.13252689864E+03  0.13252689864E+03  0.00000000000E+00 0.  1.
         23    2    1    2    0    0  0.31661375566E+02 -0.24637352003E+02 -0.32506818203E+02  0.10315656996E+03  0.89303655467E+02 0.  0.
          5    1    1    2  502    0 -0.65719286125E+02  0.86945855738E+00 -0.35899771846E+02  0.75006976646E+02  0.41800000000E+01 0.  1.
         -5    1    1    2    0  502  0.34057910559E+02  0.23767893446E+02  0.37889700225E+02  0.56373360851E+02  0.41800000000E+01 0.  1.
        -11    1    3    3    0    0  0.62523701237E+02 -0.14222631777E+02 -0.29072223746E+02  0.70403768824E+02  0.00000000000E+00 0.  1.
         11    1    3    3    0    0 -0.30862325671E+02 -0.10414720226E+02 -0.34345944566E+01  0.32752801136E+02  0.00000000000E+00 0. -1.
</event>
<event>
 7    1  0.6684706E-006  0.1349366E+03  0.7561462E-02  0.1220309E+00
         -4   -1    0    0    0  501 -0.00000000000E+00  0.00000000000E+00  0.60509069131E+03  0.60509069131E+03  0.00000000000E+00 0.  1.
          4   -1    0    0  501    0  0.00000000000E+00 -0.00000000000E+00 -0.40584402294E+02  0.40584402294E+02  0.00000000000E+00 0. -1.
         23    2    1    2    0    0  0.94866317698E+02 -0.29958257514E+02  0.36842149555E+03  0.39270650126E+03  0.92665432187E+02 0.  0.
          5    1    1    2  502    0 -0.53090566688E+01  0.45085079084E+02  0.11211622407E+02  0.46947026697E+02  0.41800000000E+01 0. -1.
         -5    1    1    2    0  502 -0.89557261029E+02 -0.15126821569E+02  0.18487317106E+03  0.20602156565E+03  0.41800000000E+01 0. -1.
        -11    1    3    3    0    0 -0.14959305710E+02 -0.17205140356E+02  0.96713512600E+02  0.99364486621E+02  0.00000000000E+00 0. -1.
         11    1    3    3    0    0  0.10982562341E+03 -0.12753117158E+02  0.27170798295E+03  0.29334201464E+03  0.00000000000E+00 0.  1.
</event>
<event>
 7    1  0.6684706E-006  0.1235828E+03  0.7561462E-02  0.1237301E+00
         -2   -1    0    0    0  501 -0.00000000000E+00  0.00000000000E+00  0.67011557031E+03  0.67011557031E+03  0.00000000000E+00 0.  1.
          2   -1    0    0  501    0  0.00000000000E+00 -0.00000000000E+00 -0.42638906816E+02  0.42638906816E+02  0.00000000000E+00 0. -1.
         23    2    1    2    0    0  0.95319308714E+02 -0.12210506096E+02  0.46775198878E+03  0.48827262984E+03  0.10189882716E+03 0.  0.
          5    1    1    2  502    0 -0.27200292528E+02  0.29085327968E+02 -0.95713133029E+01  0.41169098301E+02  0.41800000000E+01 0.  1.
         -5    1    1    2    0  502 -0.68119016185E+02 -0.16874821872E+02  0.16929598802E+03  0.18331274898E+03  0.41800000000E+01 0.  1.
        -11    1    3    3    0    0  0.41879025903E+02  0.42972467648E+02  0.15459770285E+03  0.16583406017E+03  0.00000000000E+00 0.  1.
         11    1    3    3    0    0  0.53440282810E+02 -0.55182973744E+02  0.31315428593E+03  0.32243856967E+03  0.00000000000E+00 0. -1.
</event>
<event>
 7    1  0.6684706E-006  0.1069230E+03  0.7561462E-02  0.1266377E+00
         -2   -1    0    0    0  501 -0.00000000000E+00  0.00000000000E+00  0.50406567016E+02  0.50406567016E+02  0.00000000000E+00 0.  1.
          2   -1    0    0  501    0  0.00000000000E+00 -0.00000000000E+00 -0.34528397884E+03  0.34528397884E+03  0.00000000000E+00 0. -1.
         23    2    1    2    0    0  0.28970965384E+02  0.17328780921E+02 -0.31258707026E+02  0.10195394316E+03  0.90982944982E+02 0.  0.
          5    1    1    2  502    0 -0.43489570667E+01  0.53225576342E+02 -0.12963032701E+03  0.14026178911E+03  0.41800000000E+01 0.  1.
         -5    1    1    2    0  502 -0.24622008317E+02 -0.70554357262E+02 -0.13398837779E+03  0.15347481358E+03  0.41800000000E+01 0.  1.
        -11    1    3    3    0    0  0.55459267010E+02  0.19669535385E+02  0.25999411722E+01  0.58901448316E+02  0.00000000000E+00 0.  1.
         11    1    3    3    0    0 -0.26488301627E+02 -0.23407544648E+01 -0.33858648198E+02  0.43052494845E+02  0.00000000000E+00 0. -1.
</event>
<event>
 7    1  0.6684706E-006  0.1126949E+03  0.7561462E-02  0.1255659E+00
         -3   -1    0    0    0  501 -0.00000000000E+00  0.00000000000E+00  0.45579343418E+03  0.45579343418E+03  0.00000000000E+00 0.  1.
          3   -1    0    0  501    0  0.00000000000E+00 -0.00000000000E+00 -0.38871939320E+02  0.38871939320E+02  0.00000000000E+00 0. -1.
         23    2    1    2    0    0  0.12579612529E+02  0.43995740446E+02  0.30276363874E+03  0.31924162709E+03  0.90307938145E+02 0.  0.
          5    1    1    2  502    0 -0.58121159295E+02 -0.51583955561E+02  0.10047335527E+03  0.12708792684E+03  0.41800000000E+01 0. -1.
         -5    1    1    2    0  502  0.45541546765E+02  0.75882151150E+01  0.13684500847E+02  0.48335819574E+02  0.41800000000E+01 0. -1.
        -11    1    3    3    0    0  0.48854881292E+02  0.69272425098E+01  0.14367451212E+03  0.15191165705E+03  0.00000000000E+00 0.  1.
         11    1    3    3    0    0 -0.36275268763E+02  0.37068497936E+02  0.15908912662E+03  0.16732997004E+03  0.00000000000E+00 0. -1.
</event>
<event>
 7    1  0.6684706E-006  0.9751355E+02  0.7561462E-02  0.1285613E+00
         -1   -1    0    0    0  501 -0.00000000000E+00  0.00000000000E+00  0.37366694449E+02  0.37366694449E+02  0.00000000000E+00 0.  1.
          1   -1    0    0  501    0  0.00000000000E+00 -0.00000000000E+00 -0.44407413575E+03  0.44407413575E+03  0.00000000000E+00 0. -1.
         23    2    1    2    0    0  0.21264571163E+02 -0.33574840856E+02 -0.14266081947E+03  0.17567343505E+03  0.94496531388E+02 0.  0.
          5    1    1    2  502    0  0.52992610871E+02  0.55296596537E+02 -0.13145387350E+03  0.15219567554E+03  0.41800000000E+01 0. -1.
         -5    1    1    2    0  502 -0.74257182034E+02 -0.21721755681E+02 -0.13259274833E+03  0.15357171960E+03  0.41800000000E+01 0.  1.
        -11    1    3    3    0    0  0.91104700564E+01 -0.65832784599E+01  0.13021551789E+02  0.17201774063E+02  0.00000000000E+00 0.  1.
         11    1    3    3    0    0  0.12154101107E+02 -0.26991562396E+02 -0.15568237126E+03  0.15847166098E+03  0.00000000000E+00 0. -1.
</event>
<event>
 7    1  0.6684706E-006  0.1011892E+03  0.7561462E-02  0.1277815E+00
         -1   -1    0    0    0  501 -0.00000000000E+00  0.00000000000E+00  0.35624732206E+02  0.35624732206E+02  0.00000000000E+00 0.  1.
          1   -1    0    0  501    0  0.00000000000E+00 -0.00000000000E+00 -0.41156212176E+03  0.41156212176E+03  0.00000000000E+00 0. -1.
         23    2    1    2    0    0 -0.67590290359E+00  0.59581481313E+01 -0.58566088010E+02  0.10599875497E+03  0.88146429407E+02 0.  0.
          5    1    1    2  502    0 -0.36457317845E+02  0.47494670668E+02 -0.15217664626E+03  0.16358509661E+03  0.41800000000E+01 0.  1.
         -5    1    1    2    0  502  0.37133220749E+02 -0.53452818800E+02 -0.16519465529E+03  0.17760300239E+03  0.41800000000E+01 0.  1.
        -11    1    3    3    0    0 -0.38173718819E+02 -0.38863546819E+01 -0.33300417384E+01  0.38515266313E+02  0.00000000000E+00 0. -1.
         11    1    3    3    0    0  0.37497815915E+02  0.98445028131E+01 -0.55236046272E+02  0.67483488660E+02  0.00000000000E+00 0.  1.
</event>
<event>
 7    1  0.6684706E-006  0.1187676E+03  0.7561462E-02  0.1245144E+00
         -2   -1    0    0    0  501 -0.00000000000E+00  0.00000000000E+00  0.31782778239E+02  0.31782778239E+02  0.00000000000E+00 0.  1.
          2   -1    0    0  501    0  0.00000000000E+00 -0.00000000000E+00 -0.60353296935E+03  0.60353296935E+03  0.00000000000E+00 0. -1.
         23    2    1    2    0    0 -0.40319742509E+02  0.75760073183E+02 -0.25054762869E+03  0.28009217390E+03  0.91171493974E+02 0.  0.
          5    1    1    2  502    0  0.40958727070E+02 -0.37812482752E+01 -0.20786579319E+02  0.46276013673E+02  0.41800000000E+01 0. -1.
         -5    1    1    2    0  502 -0.63898456139E+00 -0.71978824908E+02 -0.30041598310E+03  0.30894756001E+03  0.41800000000E+01 0. -1.
        -11    1    3    3    0    0 -0.50376019480E+02  0.28171673845E+01 -0.83906323907E+02  0.97907869767E+02  0.00000000000E+00 0.  1.
         11    1    3    3    0    0  0.10056276971E+02  0.72942905799E+02 -0.16664130479E+03  0.18218430414E+03  0.00000000000E+00 0. -1.
</event>
<event>
 7    1  0.6684706E-006  0.9255246E+02  0.7561462E-02  0.1296786E+00
         -2   -1    0    0    0  501 -0.00000000000E+00  0.00000000000E+00  0.11747827593E+03  0.11747827593E+03  0.00000000000E+00 0.  1.
          2   -1    0    0  501    0  0.00000000000E+00 -0.00000000000E+00 -0.10498691786E+03  0.10498691786E+03  0.00000000000E+00 0. -1.
         23    2    1    2    0    0  0.22065102966E+02  0.54533936947E+01 -0.10428091394E+02  0.93287630112E+02  0.89873403018E+02 0.  0.
          5    1    1    2  502    0 -0.64621500442E+02  0.10155826543E+02  0.44067210352E+02  0.78983989266E+02  0.41800000000E+01 0.  1.
         -5    1    1    2    0  502  0.42556397476E+02 -0.15609220238E+02 -0.21147760887E+02  0.50193574420E+02  0.41800000000E+01 0.  1.
        -11    1    3    3    0    0 -0.25921976039E+01 -0.30406417878E+02  0.23163534997E+02  0.38312127194E+02  0.00000000000E+00 0.  1.
         11    1    3    3    0    0  0.24657300570E+02  0.35859811573E+02 -0.33591626390E+02  0.54975502917E+02  0.00000000000E+00 0. -1.
</event>
<event>
 7    1  0.6684706E-006  0.9972768E+02  0.7561462E-02  0.1280870E+00
          1   -1    0    0  501    0  0.00000000000E+00  0.00000000000E+00  0.50804015874E+03  0.50804015874E+03  0.00000000000E+00 0. -1.
         -1   -1    0    0    0  501 -0.00000000000E+00 -0.00000000000E+00 -0.41379109293E+02  0.41379109293E+02  0.00000000000E+00 0.  1.
         23    2    1    2    0    0 -0.83528057470E+02 -0.51557823398E+01  0.12385228162E+03  0.17502935917E+03  0.91062453472E+02 0.  0.
          5    1    1    2  502    0  0.44899833001E+02  0.40792437967E+01  0.20425577541E+02  0.49672042955E+02  0.41800000000E+01 0. -1.
         -5    1    1    2    0  502  0.38628224469E+02  0.10765385430E+01  0.32238319029E+03  0.32471786591E+03  0.41800000000E+01 0. -1.
        -11    1    3    3    0    0 -0.60803387815E+02 -0.40666391674E+02  0.10702748881E+03  0.12963676462E+03  0.00000000000E+00 0. -1.
         11    1    3    3    0    0 -0.22724669656E+02  0.35510609334E+02  0.16824792808E+02  0.45392594542E+02  0.00000000000E+00 0.  1.
</event>
<event>
 7    1  0.6684706E-006  0.1005260E+03  0.7561462E-02  0.1279194E+00
          1   -1    0    0  501    0  0.00000000000E+00  0.00000000000E+00  0.35590536324E+02  0.35590536324E+02  0.00000000000E+00 0. -1.
         -1   -1    0    0    0  501 -0.00000000000E+00 -0.00000000000E+00 -0.37253864403E+03  0.37253864403E+03  0.00000000000E+00 0.  1.
         23    2    1    2    0    0  0.32860860058E+02  0.10358409769E+02 -0.13533170675E+03  0.16837228045E+03  0.94060731421E+02 0.  0.
          5    1    1    2  502    0 -0.75935012480E+02  0.13681005832E+02 -0.14680272258E+03  0.16589697947E+03  0.41800000000E+01 0.  1.
         -5    1    1    2    0  502  0.43074152422E+02 -0.24039415600E+02 -0.54813678377E+02  0.73859920434E+02  0.41800000000E+01 0.  1.
        -11    1    3    3    0    0  0.15414270827E+02  0.38327910376E+02 -0.12813660597E+03  0.13463141628E+03  0.00000000000E+00 0.  1.
         11    1    3    3    0    0  0.17446589230E+02 -0.27969500607E+02 -0.71951007799E+01  0.33740864174E+02  0.00000000000E+00 0. -1.
</event>
<event>
 7    1  0.6684706E-006  0.1774038E+03  0.7561462E-02  0.1170340E+00
         -1   -1    0    0    0  501 -0.00000000000E+00  0.00000000000E+00  0.73029453159E+02  0.73029453159E+02  0.00000000000E+00 0.  1.
          1   -1    0    0  501    0  0.00000000000E+00 -0.00000000000E+00 -0.59804911803E+03  0.59804911803E+03  0.00000000000E+00 0. -1.
         23    2    1    2    0    0 -0.11079016896E+03 -0.10485867912E+03 -0.10369189391E+03  0.20585325722E+03  0.91398854044E+02 0.  0.
          5    1    1    2  502    0  0.72036773019E+02  0.11994676778E+03 -0.38566385468E+03  0.41028112920E+03  0.41800000000E+01 0. -1.
         -5    1    1    2    0  502  0.38753395937E+02 -0.15088088655E+02 -0.35663916279E+02  0.54944184772E+02  0.41800000000E+01 0. -1.
        -11    1    3    3    0    0 -0.79300012150E+02 -0.18947873683E+02 -0.72727533298E+02  0.10925569982E+03  0.00000000000E+00 0. -1.
         11    1    3    3    0    0 -0.31490156806E+02 -0.85910805441E+02 -0.30964360614E+02  0.96597557399E+02  0.00000000000E+00 0.  1.
</event>
<event>
 7    1  0.6684706E-006  0.1165742E+03  0.7561462E-02  0.1248858E+00
          2   -1    0    0  501    0  0.00000000000E+00  0.00000000000E+00  0.45171991340E+03  0.45171991340E+03  0.00000000000E+00 0.  1.
         -2   -1    0    0    0  501 -0.00000000000E+00 -0.00000000000E+00 -0.37771240351E+02  0.37771240351E+02  0.00000000000E+00 0. -1.
         23    2    1    2    0    0  0.61452085272E+02 -0.65941045579E+01  0.11151464857E+03  0.15642398898E+03  0.90626190935E+02 0.  0.
          5    1    1    2  502    0 -0.73800633158E+02 -0.41070666710E+02  0.23278802346E+03  0.24767129301E+03  0.41800000000E+01 0. -1.
         -5    1    1    2    0  502  0.12348547886E+02  0.47664771268E+02  0.69646001022E+02  0.85395871758E+02  0.41800000000E+01 0. -1.
        -11    1    3    3    0    0 -0.39230915000E+01 -0.29605047750E+02  0.68824911047E+02  0.75024781771E+02  0.00000000000E+00 0.  1.
         11    1    3    3    0    0  0.65375176772E+02  0.23010943192E+02  0.42689737528E+02  0.81399207212E+02  0.00000000000E+00 0. -1.
</event>
<event>
 7    1  0.6684706E-006  0.1087973E+03  0.7561462E-02  0.1262813E+00
         -2   -1    0    0    0  501 -0.00000000000E+00  0.00000000000E+00  0.22920589548E+02  0.22920589548E+02  0.00000000000E+00 0.  1.
          2   -1    0    0  501    0  0.00000000000E+00 -0.00000000000E+00 -0.24774180545E+04  0.24774180545E+04  0.00000000000E+00 0. -1.
         23    2    1    2    0    0  0.12186170931E+02  0.85281556892E+01 -0.80374501565E+02  0.12287628363E+03  0.91745781245E+02 0.  0.
          5    1    1    2  502    0  0.45308513291E+01 -0.65392754636E+02 -0.13846038654E+04  0.13861609133E+04  0.41800000000E+01 0. -1.
         -5    1    1    2    0  502 -0.16717022260E+02  0.56864598946E+02 -0.98951909804E+03  0.99130144720E+03  0.41800000000E+01 0. -1.
        -11    1    3    3    0    0 -0.78216384069E+01 -0.39603914506E+02 -0.41117396464E+02  0.57621943420E+02  0.00000000000E+00 0.  1.
         11    1    3    3    0    0  0.20007809338E+02  0.48132070195E+02 -0.39257105101E+02  0.65254340213E+02  0.00000000000E+00 0. -1.
</event>
<event>
 7    1  0.6684706E-006  0.1583996E+03  0.7561462E-02  0.1190515E+00
         -2   -1    0    0    0  501 -0.00000000000E+00  0.00000000000E+00  0.94942288474E+02  0.94942288474E+02  0.00000000000E+00 0.  1.
          2   -1    0    0  501    0  0.00000000000E+00 -0.00000000000E+00 -0.36472892698E+03  0.36472892698E+03  0.00000000000E+00 0. -1.
         23    2    1    2    0    0 -0.69445377833E+02 -0.11174021537E+03 -0.35271184272E+02  0.16311083768E+03  0.89736016710E+02 0.  0.
          5    1    1    2  502    0 -0.34023938848E+02  0.32485475377E+02 -0.91833811423E+02  0.10326594717E+03  0.41800000000E+01 0. -1.
         -5    1    1    2    0  502  0.10346931668E+03  0.79254739994E+02 -0.14268164281E+03  0.19329443060E+03  0.41800000000E+01 0. -1.
        -11    1    3    3    0    0 -0.23013110796E+02 -0.79186921337E+02  0.18994407097E+02  0.84622451396E+02  0.00000000000E+00 0.  1.
         11    1    3    3    0    0 -0.46432267037E+02 -0.32553294034E+02 -0.54265591369E+02  0.78488386283E+02  0.00000000000E+00 0. -1.
</event>
<event>
 7    1  0.6684706E-006  0.8574744E+02  0.7561462E-02  0.1313489E+00
         -4   -1    0    0    0  501 -0.00000000000E+00  0.00000000000E+00  0.23297210950E+03  0.23297210950E+03  0.00000000000E+00 0.  1.
          4   -1    0    0  501    0  0.00000000000E+00 -0.00000000000E+00 -0.55973903967E+02  0.55973903967E+02  0.00000000000E+00 0. -1.
         23    2    1    2    0    0  0.29886593199E+02  0.32630459360E+01  0.83497549474E+02  0.12990731924E+03  0.94869462436E+02 0.  0.
          5    1    1    2  502    0  0.16902758598E+02  0.51571917753E+02  0.26514221703E+02  0.60546199728E+02  0.41800000000E+01 0.  1.
         -5    1    1    2    0  502 -0.46789351797E+02 -0.54834963689E+02  0.66986434355E+02  0.98492494496E+02  0.41800000000E+01 0.  1.
        -11    1    3    3    0    0  0.12578783738E+02  0.18113057074E+02  0.99585823182E+02  0.10199825889E+03  0.00000000000E+00 0.  1.
         11    1    3    3    0    0  0.17307809461E+02 -0.14850011138E+02 -0.16088273708E+02  0.27909060357E+02  0.00000000000E+00 0. -1.
</event>
<event>
 7    1  0.6684706E-006  0.9756933E+02  0.7561462E-02  0.1285492E+00
         -2   -1    0    0    0  501 -0.00000000000E+00  0.00000000000E+00  0.30625977218E+02  0.30625977218E+02  0.00000000000E+00 0.  1.
          2   -1    0    0  501    0  0.00000000000E+00 -0.00000000000E+00 -0.61465211859E+03  0.61465211859E+03  0.00000000000E+00 0. -1.
         23    2    1    2    0    0  0.57767617152E+02  0.47022516666E+01 -0.11837222144E+03  0.15964368330E+03  0.90082817716E+02 0.  0.
          5    1    1    2  502    0 -0.68951075791E+02 -0.16731165704E+02 -0.46306729026E+03  0.46849009644E+03  0.41800000000E+01 0.  1.
         -5    1    1    2    0  502  0.11183458639E+02  0.12028914037E+02 -0.25866296683E+01  0.17144316057E+02  0.41800000000E+01 0.  1.
        -11    1    3    3    0    0  0.61023349074E+02 -0.32930917120E+02 -0.76194964522E+02  0.10302410909E+03  0.00000000000E+00 0. -1.
         11    1    3    3    0    0 -0.32557319226E+01  0.37633168787E+02 -0.42177256921E+02  0.56619574218E+02  0.00000000000E+00 0.  1.
</event>
<event>
 7    1  0.6684706E-006  0.1605419E+03  0.7561462E-02  0.1188086E+00
          2   -1    0    0  501    0  0.00000000000E+00  0.00000000000E+00  0.15426400967E+04  0.15426400967E+04  0.00000000000E+00 0. -1.
         -2   -1    0    0    0  501 -0.00000000000E+00 -0.00000000000E+00 -0.22111169549E+02  0.22111169549E+02  0.00000000000E+00 0.  1.
         23    2    1    2    0    0 -0.13271946855E+03  0.13632537410E+02  0.44485329708E+03  0.47364005872E+03  0.92952385112E+02 0.  0.
          5    1    1    2  502    0  0.69895394144E+02 -0.62960839386E+02  0.41148413150E+03  0.42212094984E+03  0.41800000000E+01 0. -1.
         -5    1    1    2    0  502  0.62824074403E+02  0.49328301977E+02  0.66419149860E+03  0.66899025771E+03  0.41800000000E+01 0. -1.
        -11    1    3    3    0    0 -0.95677540745E+02  0.37615678418E+02  0.20035663148E+03  0.22519305239E+03  0.00000000000E+00 0.  1.
         11    1    3    3    0    0 -0.37041927802E+02 -0.23983141008E+02  0.24449666560E+03  0.24844700634E+03  0.00000000000E+00 0. -1.
</event>
<event>
 7    1  0.6684706E-006  0.2009500E+03  0.7561462E-02  0.1148940E+00
          1   -1    0    0  501    0  0.00000000000E+00  0.00000000000E+00  0.11674181020E+04  0.11674181020E+04  0.00000000000E+00 0. -1.
         -1   -1    0    0    0  501 -0.00000000000E+00 -0.00000000000E+00 -0.39192895847E+02  0.39192895847E+02  0.00000000000E+00 0.  1.
         23    2    1    2    0    0  0.15843790290E+03  0.92006670625E+02  0.50935884843E+03  0.54918352864E+03  0.92673163024E+02 0.  0.
          5    1    1    2  502    0 -0.73902788411E+02  0.20958201280E+02  0.27904961063E+03  0.28945988656E+03  0.41800000000E+01 0.  1.
         -5    1    1    2    0  502 -0.84535114491E+02 -0.11296487191E+03  0.33981674705E+03  0.36796758260E+03  0.41800000000E+01 0.  1.
        -11    1    3    3    0    0  0.74204801535E+02  0.34569084331E+02  0.11061348916E+03  0.13761074866E+03  0.00000000000E+00 0.  1.
         11    1    3    3    0    0  0.84233101366E+02  0.57437586294E+02  0.39874535927E+03  0.41157277998E+03  0.00000000000E+00 0. -1.
</event>
<event>
 7    1  0.6684706E-006  0.2903616E+03  0.7561462E-02  0.1090160E+00
         -1   -1    0    0    0  501 -0.00000000000E+00  0.00000000000E+00  0.81143605939E+03  0.81143605939E+03  0.00000000000E+00 0.  1.
          1   -1    0    0  501    0  0.00000000000E+00 -0.00000000000E+00 -0.19900296816E+03  0.19900296816E+03  0.00000000000E+00 0. -1.
         23    2    1    2    0    0  0.12923845926E+03  0.23871337181E+03  0.64892750785E+03  0.70933006258E+03  0.91408828873E+02 0.  0.
          5    1    1    2  502    0 -0.12206478205E+03 -0.97258837413E+02 -0.31786339147E+02  0.15933278454E+03  0.41800000000E+01 0.  1.
         -5    1    1    2    0  502 -0.71736772120E+01 -0.14145453439E+03 -0.47080774833E+01  0.14177618044E+03  0.41800000000E+01 0.  1.
        -11    1    3    3    0    0  0.49208539294E+02  0.26063871566E+02  0.17704602652E+03  0.18559660893E+03  0.00000000000E+00 0.  1.
         11    1    3    3    0    0  0.80029919970E+02  0.21264950024E+03  0.47188148134E+03  0.52373345365E+03  0.00000000000E+00 0. -1.
</event>
<event>
 7    1  0.6684706E-006  0.1161652E+03  0.7561462E-02  0.1249561E+00
          2   -1    0    0  501    0  0.00000000000E+00  0.00000000000E+00  0.55260950876E+03  0.55260950876E+03  0.00000000000E+00 0.  1.
         -2   -1    0    0    0  501 -0.00000000000E+00 -0.00000000000E+00 -0.82630178433E+02  0.82630178433E+02  0.00000000000E+00 0. -1.
         23    2    1    2    0    0  0.32762427964E+02 -0.40065103092E+02 -0.35807287793E+02  0.11164662787E+03  0.92218319678E+02 0.  0.
          5    1    1    2  502    0  0.33107444821E+02 -0.25243121582E+02  0.13360299159E+03  0.14000196374E+03  0.41800000000E+01 0.  1.
         -5    1    1    2    0  502 -0.65869872785E+02  0.65308224674E+02  0.37218362653E+03  0.38359109558E+03  0.41800000000E+01 0.  1.
        -11    1    3    3    0    0 -0.28129461734E+02 -0.11814061185E+02  0.79365780129E+01  0.31525036553E+02  0.00000000000E+00 0.  1.
         11    1    3    3    0    0  0.60891889698E+02 -0.28251041907E+02 -0.43743865806E+02  0.80121591319E+02  0.00000000000E+00 0. -1.
</event>
<event>
 7    1  0.6684706E-006  0.1202805E+03  0.7561462E-02  0.1242635E+00
         -1   -1    0    0    0  501 -0.00000000000E+00  0.00000000000E+00  0.20181873309E+03  0.20181873309E+03  0.00000000000E+00 0.  1.
          1   -1    0    0  501    0  0.00000000000E+00 -0.00000000000E+00 -0.93359983791E+02  0.93359983791E+02  0.00000000000E+00 0. -1.
         23    2    1    2    0    0  0.54083298704E+02  0.56517710406E+02  0.21096137293E+02  0.12371706864E+03  0.93496584297E+02 0.  0.
          5    1    1    2  502    0  0.17471217004E+02 -0.65158013955E+02  0.14979465801E+02  0.69229090719E+02  0.41800000000E+01 0. -1.
         -5    1    1    2    0  502 -0.71554515708E+02  0.86403035486E+01  0.72383146206E+02  0.10223255753E+03  0.41800000000E+01 0. -1.
        -11    1    3    3    0    0  0.34986551417E+02 -0.59198722993E+01 -0.25333633404E+02  0.43599273498E+02  0.00000000000E+00 0. -1.
         11    1    3    3    0    0  0.19096747287E+02  0.62437582706E+02  0.46429770697E+02  0.80117795140E+02  0.00000000000E+00 0.  1.
</event>
<event>
 7    1  0.6684706E-006  0.1056676E+03  0.7561462E-02  0.1268810E+00
          1   -1    0    0  501    0  0.00000000000E+00  0.00000000000E+00  0.10405735017E+04  0.10405735017E+04  0.00000000000E+00 0. -1.
         -1   -1    0    0    0  501 -0.00000000000E+00 -0.00000000000E+00 -0.29631528112E+02  0.29631528112E+02  0.00000000000E+00 0.  1.
         23    2    1    2    0    0 -0.94274190440E+00  0.33213259697E+02  0.66928677842E+02  0.11735965260E+03  0.90497683725E+02 0.  0.
          5    1    1    2  502    0  0.57372348452E+02 -0.14955069758E+01  0.29219788652E+03  0.29781017477E+03  0.41800000000E+01 0.  1.
         -5    1    1    2    0  502 -0.56429606548E+02 -0.31717752722E+02  0.65181540926E+03  0.65503520247E+03  0.41800000000E+01 0.  1.
        -11    1    3    3    0    0 -0.21085499545E+01 -0.27809815623E+02  0.15695610241E+01  0.27933767195E+02  0.00000000000E+00 0.  1.
         11    1    3    3    0    0  0.11658080501E+01  0.61023075320E+02  0.65359116818E+02  0.89425885409E+02  0.00000000000E+00 0. -1.
</event>
<event>
 7    1  0.6684706E-006  0.9026526E+02  0.7561462E-02  0.1302211E+00
         -3   -1    0    0    0  501 -0.00000000000E+00  0.00000000000E+00  0.42002254390E+02  0.42002254390E+02  0.00000000000E+00 0.  1.
          3   -1    0    0  501    0  0.00000000000E+00 -0.00000000000E+00 -0.37027832908E+03  0.37027832908E+03  0.00000000000E+00 0. -1.
         23    2    1    2    0    0 -0.37283029155E+02 -0.43831258003E+02 -0.10692744712E+03  0.15160170050E+03  0.90765594840E+02 0.  0.
          5    1    1    2  502    0  0.50920261823E+02  0.61319357815E+02 -0.22415210806E+03  0.23793817822E+03  0.41800000000E+01 0.  1.
         -5    1    1    2    0  502 -0.13637232668E+02 -0.17488099811E+02  0.28034804827E+01  0.22740704753E+02  0.41800000000E+01 0.  1.
        -11    1    3    3    0    0  0.14116728213E+01 -0.39145637587E+02 -0.14999642515E+01  0.39199791518E+02  0.00000000000E+00 0.  1.
         11    1    3    3    0    0 -0.38694701977E+02 -0.46856204162E+01 -0.10542748287E+03  0.11240190898E+03  0.00000000000E+00 0. -1.
</event>
<event>
 7    1  0.6684706E-006  0.2326535E+03  0.7561462E-02  0.1124786E+00
         -1   -1    0    0    0  501 -0.00000000000E+00  0.00000000000E+00  0.56070861774E+03  0.56070861774E+03  0.00000000000E+00 0.  1.
          1   -1    0    0  501    0  0.00000000000E+00 -0.00000000000E+00 -0.11817455181E+03  0.11817455181E+03  0.00000000000E+00 0. -1.
         23    2    1    2    0    0  0.19207739470E+03 -0.12623721012E+03  0.16615099219E+03  0.29826816394E+03  0.92348181580E+02 0.  0.
          5    1    1    2  502    0 -0.71089278718E+02  0.57312822392E+02  0.27602820471E+02  0.95487346058E+02  0.41800000000E+01 0.  1.
         -5    1    1    2    0  502 -0.12098811598E+03  0.68924387724E+02  0.24878025326E+03  0.28512765956E+03  0.41800000000E+01 0.  1.
        -11    1    3    3    0    0  0.48305812297E+02 -0.57898077819E+02  0.11403218994E+02  0.76260555468E+02  0.00000000000E+00 0. -1.
         11    1    3    3    0    0  0.14377158240E+03 -0.68339132298E+02  0.15474777320E+03  0.22200760847E+03  0.00000000000E+00 0.  1.
</event>
<event>
 7    1  0.6684706E-006  0.2220727E+03  0.7561462E-02  0.1132347E+00
         -1   -1    0    0    0  501 -0.00000000000E+00  0.00000000000E+00  0.61160084284E+02  0.61160084284E+02  0.00000000000E+00 0.  1.
          1   -1    0    0  501    0  0.00000000000E+00 -0.00000000000E+00 -0.88408792804E+03  0.88408792804E+03  0.00000000000E+00 0. -1.
         23    2    1    2    0    0 -0.16267449081E+03 -0.12405220700E+03 -0.36101382565E+03  0.42480176491E+03  0.90959425793E+02 0.  0.
          5    1    1    2  502    0  0.17225672048E+03  0.13895827108E+03 -0.42042980847E+03  0.47514258398E+03  0.41800000000E+01 0.  1.
         -5    1    1    2    0  502 -0.95822296705E+01 -0.14906064089E+02 -0.41484209635E+02  0.45303663440E+02  0.41800000000E+01 0.  1.
        -11    1    3    3    0    0 -0.72800843936E+02 -0.56267543652E+02 -0.25128126900E+03  0.26759722625E+03  0.00000000000E+00 0. -1.
         11    1    3    3    0    0 -0.89873646873E+02 -0.67784663343E+02 -0.10973255665E+03  0.15720453866E+03  0.00000000000E+00 0.  1.
</event>
<event>
 7    1  0.6684706E-006  0.2743798E+03  0.7561462E-02  0.1098799E+00
         -2   -1    0    0    0  501 -0.00000000000E+00  0.00000000000E+00  0.16242076509E+03  0.16242076509E+03  0.00000000000E+00 0.  1.
          2   -1    0    0  501    0  0.00000000000E+00 -0.00000000000E+00 -0.71078349621E+03  0.71078349621E+03  0.00000000000E+00 0. -1.
         23    2    1    2    0    0  0.25892734551E+03 -0.45746032279E+02 -0.31587357511E+02  0.28004219193E+03  0.91048329942E+02 0.  0.
          5    1    1    2  502    0 -0.79812692746E+02  0.59545841457E+02 -0.27066973141E+03  0.28843603981E+03  0.41800000000E+01 0.  1.
         -5    1    1    2    0  502 -0.17911465276E+03 -0.13799809177E+02 -0.24610564219E+03  0.30472602955E+03  0.41800000000E+01 0.  1.
        -11    1    3    3    0    0  0.75444946421E+02  0.13388426717E+02 -0.41254554749E+02  0.87023722042E+02  0.00000000000E+00 0.  1.
         11    1    3    3    0    0  0.18348239909E+03 -0.59134458997E+02  0.96671972384E+01  0.19301846989E+03  0.00000000000E+00 0. -1.
</event>
<event>
 7    1  0.6684706E-006  0.1085216E+03  0.7561462E-02  0.1263332E+00
         -1   -1    0    0    0  501 -0.00000000000E+00  0.00000000000E+00  0.23996098792E+02  0.23996098792E+02  0.00000000000E+00 0.  1.
          1   -1    0    0  501    0  0.00000000000E+00 -0.00000000000E+00 -0.10049773548E+04  0.10049773548E+04  0.00000000000E+00 0. -1.
         23    2    1    2    0    0 -0.49243758336E+02  0.15051256468E+02 -0.12343047429E+03  0.16104886386E+03  0.89722720154E+02 0.  0.
          5    1    1    2  502    0  0.12501176610E+02 -0.57845901075E+02 -0.21965336081E+03  0.22752472174E+03  0.41800000000E+01 0. -1.
         -5    1    1    2    0  502  0.36742581726E+02  0.42794644607E+02 -0.63789742090E+03  0.64039986798E+03  0.41800000000E+01 0.  1.
        -11    1    3    3    0    0  0.23756571013E+02 -0.72272908416E+01 -0.46299949275E+02  0.52538497334E+02  0.00000000000E+00 0. -1.
         11    1    3    3    0    0 -0.73000329349E+02  0.22278547310E+02 -0.77130525011E+02  0.10851036653E+03  0.00000000000E+00 0.  1.
</event>
<event>
 7    1  0.6684706E-006  0.1107878E+03  0.7561462E-02  0.1259118E+00
         -2   -1    0    0    0  501 -0.00000000000E+00  0.00000000000E+00  0.32914263569E+02  0.32914263569E+02  0.00000000000E+00 0.  1.
          2   -1    0    0  501    0  0.00000000000E+00 -0.00000000000E+00 -0.50029152602E+03  0.50029152602E+03  0.00000000000E+00 0. -1.
         23    2    1    2    0    0 -0.46323035996E+02 -0.50496366544E+02 -0.94811861883E+02  0.13427308619E+03  0.65911044773E+02 0.  0.
          5    1    1    2  502    0  0.80153281097E+01 -0.36069896284E+02 -0.18602940428E+03  0.18970950045E+03  0.41800000000E+01 0.  1.
         -5    1    1    2    0  502  0.38307707886E+02  0.86566262828E+02 -0.18653599629E+03  0.20922320296E+03  0.41800000000E+01 0.  1.
        -11    1    3    3    0    0 -0.57283221678E+02 -0.53381956835E+02 -0.62987869940E+02  0.10049115663E+03  0.00000000000E+00 0.  1.
         11    1    3    3    0    0  0.10960185683E+02  0.28855902911E+01 -0.31823991943E+02  0.33781929558E+02  0.00000000000E+00 0. -1.
</event>
<event>
 7    1  0.6684706E-006  0.1364085E+03  0.7561462E-02  0.1218245E+00
         -1   -1    0    0    0  501 -0.00000000000E+00  0.00000000000E+00  0.25502973996E+02  0.25502973996E+02  0.00000000000E+00 0.  1.
          1   -1    0    0  501    0  0.00000000000E+00 -0.00000000000E+00 -0.13803403582E+04  0.13803403582E+04  0.00000000000E+00 0. -1.
         23    2    1    2    0    0  0.16094549732E+02  0.11208024093E+03 -0.25766182289E+03  0.29576391587E+03  0.90915697308E+02 0.  0.
          5    1    1    2  502    0  0.13758622137E+02 -0.88600373984E+02 -0.10202105248E+04  0.10241515089E+04  0.41800000000E+01 0. -1.
         -5    1    1    2    0  502 -0.29853171869E+02 -0.23479866949E+02 -0.76965036544E+02  0.85927907416E+02  0.41800000000E+01 0. -1.
        -11    1    3    3    0    0  0.28143307175E+02  0.12444238152E+03 -0.21964907172E+03  0.25401509160E+03  0.00000000000E+00 0. -1.
         11    1    3    3    0    0 -0.12048757443E+02 -0.12362140586E+02 -0.38012751174E+02  0.41748824266E+02  0.00000000000E+00 0.  1.
</event>
<event>
 7    1  0.6684706E-006  0.1529966E+03  0.7561462E-02  0.1196838E+00
          2   -1    0    0  501    0  0.00000000000E+00  0.00000000000E+00  0.10083666697E+04  0.10083666697E+04  0.00000000000E+00 0. -1.
         -2   -1    0    0    0  501 -0.00000000000E+00 -0.00000000000E+00 -0.26401663558E+02  0.26401663558E+02  0.00000000000E+00 0.  1.
         23    2    1    2    0    0  0.77886843649E+02  0.90686344911E+02  0.36630231333E+03  0.39525396936E+03  0.88079180198E+02 0.  0.
          5    1    1    2  502    0 -0.35920823642E+02 -0.11745758479E+03  0.45049541593E+03  0.46695843709E+03  0.41800000000E+01 0.  1.
         -5    1    1    2    0  502 -0.41966020006E+02  0.26771239881E+02  0.16516727685E+03  0.17255592677E+03  0.41800000000E+01 0.  1.
        -11    1    3    3    0    0 -0.54645649945E+01  0.28835066873E+02  0.17652059196E+03  0.17894368371E+03  0.00000000000E+00 0. -1.
         11    1    3    3    0    0  0.83351408643E+02  0.61851278037E+02  0.18978172137E+03  0.21631028566E+03  0.00000000000E+00 0.  1.
</event>
<event>
 7    1  0.6684706E-006  0.8874890E+02  0.7561462E-02  0.1305910E+00
         -2   -1    0    0    0  501 -0.00000000000E+00  0.00000000000E+00  0.24376473501E+02  0.24376473501E+02  0.00000000000E+00 0.  1.
          2   -1    0    0  501    0  0.00000000000E+00 -0.00000000000E+00 -0.73345960216E+03  0.73345960216E+03  0.00000000000E+00 0. -1.
         23    2    1    2    0    0  0.64817306438E+02  0.45596798066E+01 -0.18923841953E+03  0.21921938845E+03  0.89576151691E+02 0.  0.
          5    1    1    2  502    0 -0.57353509625E+02  0.88626247110E+01 -0.51944653899E+03  0.52269508363E+03  0.41800000000E+01 0.  1.
         -5    1    1    2    0  502 -0.74637968133E+01 -0.13422304518E+02 -0.39817014796E+00  0.15921603591E+02  0.41800000000E+01 0.  1.
        -11    1    3    3    0    0  0.67660272726E+02  0.32675650026E+02 -0.96687878880E+02  0.12245062896E+03  0.00000000000E+00 0.  1.
         11    1    3    3    0    0 -0.28429662878E+01 -0.28115970219E+02 -0.92550540648E+02  0.96768759489E+02  0.00000000000E+00 0. -1.
</event>
<event>
 7    1  0.6684706E-006  0.1959288E+03  0.7561462E-02  0.1153220E+00
          1   -1    0    0  501    0  0.00000000000E+00  0.00000000000E+00  0.58555269844E+03  0.58555269844E+03  0.00000000000E+00 0. -1.
         -1   -1    0    0    0  501 -0.00000000000E+00 -0.00000000000E+00 -0.72445154859E+02  0.72445154859E+02  0.00000000000E+00 0.  1.
         23    2    1    2    0    0 -0.40031688986E+02 -0.16251292981E+03  0.16611551043E+03  0.25294897897E+03  0.91519586331E+02 0.  0.
          5    1    1    2  502    0 -0.42696248171E+02  0.85166264171E+02  0.14852241938E+03  0.17650111507E+03  0.41800000000E+01 0. -1.
         -5    1    1    2    0  502  0.82727937157E+02  0.77346665636E+02  0.19846961378E+03  0.22854775926E+03  0.41800000000E+01 0. -1.
        -11    1    3    3    0    0 -0.62196872400E+02 -0.12419352115E+03  0.15329458954E+03  0.20686157887E+03  0.00000000000E+00 0. -1.
         11    1    3    3    0    0  0.22165183414E+02 -0.38319408659E+02  0.12820920888E+02  0.46087400102E+02  0.00000000000E+00 0.  1.
</event>
<event>
 7    1  0.6684706E-006  0.8666582E+02  0.7561462E-02  0.1311133E+00
          2   -1    0    0  501    0  0.00000000000E+00  0.00000000000E+00  0.32309051296E+03  0.32309051296E+03  0.00000000000E+00 0. -1.
         -2   -1    0    0    0  501 -0.00000000000E+00 -0.00000000000E+00 -0.41048124932E+02  0.41048124932E+02  0.00000000000E+00 0.  1.
         23    2    1    2    0    0  0.38383548997E+01 -0.31665569506E+02  0.81665602744E+02  0.12577995074E+03  0.90188048415E+02 0.  0.
          5    1    1    2  502    0  0.54542410386E+02  0.21334909669E+02  0.51666028876E+02  0.78210637647E+02  0.41800000000E+01 0. -1.
         -5    1    1    2    0  502 -0.58380765286E+02  0.10330659837E+02  0.14871075640E+03  0.16014804950E+03  0.41800000000E+01 0. -1.
        -11    1    3    3    0    0 -0.80375430208E+01 -0.39918194782E+02  0.96697270161E+02  0.10492104855E+03  0.00000000000E+00 0. -1.
         11    1    3    3    0    0  0.11875897920E+02  0.82526252756E+01 -0.15031667417E+02  0.20858902193E+02  0.00000000000E+00 0.  1.
</event>
<event>
 7    1  0.6684706E-006  0.1149966E+03  0.7561462E-02  0.1251587E+00
         -1   -1    0    0    0  501 -0.00000000000E+00  0.00000000000E+00  0.57319913145E+02  0.57319913145E+02  0.00000000000E+00 0.  1.
          1   -1    0    0  501    0  0.00000000000E+00 -0.00000000000E+00 -0.38976710774E+03  0.38976710774E+03  0.00000000000E+00 0. -1.
         23    2    1    2    0    0  0.20669808173E+02 -0.83875662071E+02 -0.70485910872E+02  0.14421176548E+03  0.91468038209E+02 0.  0.
          5    1    1    2  502    0 -0.42610380225E+01  0.10593904490E+03 -0.12897938163E+03  0.16701613983E+03  0.41800000000E+01 0. -1.
         -5    1    1    2    0  502 -0.16408770150E+02 -0.22063382826E+02 -0.13298190209E+03  0.13585911557E+03  0.41800000000E+01 0. -1.
        -11    1    3    3    0    0 -0.96407340911E+01 -0.48680117142E+02 -0.82463303412E+02  0.96243929515E+02  0.00000000000E+00 0. -1.
         11    1    3    3    0    0  0.30310542264E+02 -0.35195544929E+02  0.11977392540E+02  0.47967835966E+02  0.00000000000E+00 0.  1.
</event>
<event>
 7    1  0.6684706E-006  0.1212059E+03  0.7561462E-02  0.1241121E+00
          2   -1    0    0  501    0  0.00000000000E+00  0.00000000000E+00  0.10308570544E+04  0.10308570544E+04  0.00000000000E+00 0. -1.
         -2   -1    0    0    0  501 -0.00000000000E+00 -0.00000000000E+00 -0.69422413915E+02  0.69422413915E+02  0.00000000000E+00 0.  1.
         23    2    1    2    0    0 -0.29943476866E+02  0.93111567048E+02  0.98870231761E+01  0.13577029697E+03  0.93645312675E+02 0.  0.
          5    1    1    2  502    0  0.49607399579E+02 -0.86935867812E+02  0.92607009654E+03  0.93147304594E+03  0.41800000000E+01 0. -1.
         -5    1    1    2    0  502 -0.19663922713E+02 -0.61756992356E+01  0.25477520767E+02  0.33036125408E+02  0.41800000000E+01 0.  1.
        -11    1    3    3    0    0  0.13576464283E+02  0.71186718467E+02 -0.24084427603E+02  0.76367066996E+02  0.00000000000E+00 0. -1.
         11    1    3    3    0    0 -0.43519941148E+02  0.21924848581E+02  0.33971450780E+02  0.59403229970E+02  0.00000000000E+00 0.  1.
</event>
<event>
 7    1  0.6684706E-006  0.8663654E+02  0.7561462E-02  0.1311207E+00
         -4   -1    0    0    0  501 -0.00000000000E+00  0.00000000000E+00  0.79961956572E+02  0.79961956572E+02  0.00000000000E+00 0. -1.
          4   -1    0    0  501    0  0.00000000000E+00 -0.00000000000E+00 -0.22922520612E+03  0.22922520612E+03  0.00000000000E+00 0.  1.
         23    2    1    2    0    0 -0.11880193344E+02  0.50830580882E+02  0.55039479696E+01  0.10345285636E+03  0.89147703838E+02 0.  0.
          5    1    1    2  502    0  0.27938996649E+02 -0.81357036530E+02 -0.14662676491E+03  0.17004833288E+03  0.41800000000E+01 0.  1.
         -5    1    1    2    0  502 -0.16058803306E+02  0.30526455648E+02 -0.81404326052E+01  0.35685973449E+02  0.41800000000E+01 0.  1.
        -11    1    3    3    0    0 -0.36819510307E+01  0.25936159322E+02 -0.41824907334E+02  0.49351433589E+02  0.00000000000E+00 0.  1.
         11    1    3    3    0    0 -0.81982423129E+01  0.24894421560E+02  0.47328855303E+02  0.54101422774E+02  0.00000000000E+00 0. -1.
</event>
<event>
 7    1  0.6684706E-006  0.8196955E+02  0.7561462E-02  0.1323553E+00
         -2   -1    0    0    0  501 -0.00000000000E+00  0.00000000000E+00  0.88407596021E+02  0.88407596021E+02  0.00000000000E+00 0.  1.
          2   -1    0    0  501    0  0.00000000000E+00 -0.00000000000E+00 -0.24653877814E+03  0.24653877814E+03  0.00000000000E+00 0. -1.
         23    2    1    2    0    0 -0.17845690975E+02  0.64901311189E+02  0.10491668922E+02  0.11446456322E+03  0.91985934988E+02 0.  0.
          5    1    1    2  502    0  0.10751620309E+02 -0.57789547777E+02 -0.79760026487E+01  0.59466950399E+02  0.41800000000E+01 0. -1.
         -5    1    1    2    0  502  0.70940706660E+01 -0.71117634128E+01 -0.16064684839E+03  0.16101486054E+03  0.41800000000E+01 0. -1.
        -11    1    3    3    0    0 -0.20617601364E+02 -0.73023405777E+01  0.32281564478E+02  0.38993705505E+02  0.00000000000E+00 0.  1.
         11    1    3    3    0    0  0.27719103887E+01  0.72203651767E+02 -0.21789895556E+02  0.75470857714E+02  0.00000000000E+00 0. -1.
</event>
<event>
 7    1  0.6684706E-006  0.6740562E+02  0.7561462E-02  0.1369144E+00
         -1   -1    0    0    0  501 -0.00000000000E+00  0.00000000000E+00  0.46185251525E+03  0.46185251525E+03  0.00000000000E+00 0.  1.
          1   -1    0    0  501    0  0.00000000000E+00 -0.00000000000E+00 -0.27748626771E+02  0.27748626771E+02  0.00000000000E+00 0. -1.
         23    2    1    2    0    0 -0.58157467490E+01  0.70225407077E+01  0.25199354587E+03  0.26848481127E+03  0.92196571162E+02 0.  0.
          5    1    1    2  502    0 -0.15324730299E+02  0.64557335072E+01 -0.14752558719E+02  0.22619333382E+02  0.41800000000E+01 0. -1.
         -5    1    1    2    0  502  0.21140477049E+02 -0.13478274215E+02  0.19686290133E+03  0.19849699737E+03  0.41800000000E+01 0. -1.
        -11    1    3    3    0    0  0.16496953344E+02  0.45150760387E+02  0.14370393866E+03  0.15153073160E+03  0.00000000000E+00 0.  1.
         11    1    3    3    0    0 -0.22312700093E+02 -0.38128219680E+02  0.10828960721E+03  0.11695407967E+03  0.00000000000E+00 0. -1.
</event>
<event>
 7    1  0.6684706E-006  0.1025630E+03  0.7561462E-02  0.1274997E+00
         -2   -1    0    0    0  501 -0.00000000000E+00  0.00000000000E+00  0.78611089753E+02  0.78611089753E+02  0.00000000000E+00 0. -1.
          2   -1    0    0  501    0  0.00000000000E+00 -0.00000000000E+00 -0.23353072675E+03  0.23353072675E+03  0.00000000000E+00 0.  1.
         23    2    1    2    0    0  0.19589699492E+01 -0.80834745184E+02 -0.84893403681E+02  0.14755219871E+03  0.89591672405E+02 0.  0.
          5    1    1    2  502    0  0.56640709933E+01  0.64415197527E+01  0.34614418254E+02  0.35905504147E+02  0.41800000000E+01 0.  1.
         -5    1    1    2    0  502 -0.76230409425E+01  0.74393225431E+02 -0.10464065157E+03  0.12868411365E+03  0.41800000000E+01 0.  1.
        -11    1    3    3    0    0 -0.32430398080E+02 -0.79957470570E+02 -0.60682592406E+02  0.10548604098E+03  0.00000000000E+00 0.  1.
         11    1    3    3    0    0  0.34389368029E+02 -0.87727461376E+00 -0.24210811274E+02  0.42066157737E+02  0.00000000000E+00 0. -1.
</event>
<event>
 7    1  0.6684706E-006  0.1157147E+03  0.7561462E-02  0.1250339E+00
          3   -1    0    0  501    0  0.00000000000E+00  0.00000000000E+00  0.55990230156E+03  0.55990230156E+03  0.00000000000E+00 0. -1.
         -3   -1    0    0    0  501 -0.00000000000E+00 -0.00000000000E+00 -0.28928352078E+02  0.28928352078E+02  0.00000000000E+00 0.  1.
         23    2    1    2    0    0  0.64290302111E+02 -0.11555356194E+02  0.18085476798E+03  0.21134350751E+03  0.87697559029E+02 0.  0.
          5    1    1    2  502    0 -0.69054407751E+02  0.59750576618E+02  0.25007633301E+03  0.26625981178E+03  0.41800000000E+01 0. -1.
         -5    1    1    2    0  502  0.47641056394E+01 -0.48195220424E+02  0.10004284848E+03  0.11122733435E+03  0.41800000000E+01 0. -1.
        -11    1    3    3    0    0  0.33849382338E+02 -0.38138325738E+02  0.40012375416E+02  0.64817457225E+02  0.00000000000E+00 0.  1.
         11    1    3    3    0    0  0.30440919774E+02  0.26582969543E+02  0.14084239257E+03  0.14652605028E+03  0.00000000000E+00 0. -1.
</event>
<event>
 7    1  0.6684706E-006  0.8362675E+02  0.7561462E-02  0.1319063E+00
          2   -1    0    0  501    0  0.00000000000E+00  0.00000000000E+00  0.32221454016E+03  0.32221454016E+03  0.00000000000E+00 0. -1.
         -2   -1    0    0    0  501 -0.00000000000E+00 -0.00000000000E+00 -0.43129984070E+02  0.43129984070E+02  0.00000000000E+00 0.  1.
         23    2    1    2    0    0  0.97304027031E+00  0.57409768096E+01  0.60381316863E+02  0.11332840801E+03  0.95726271286E+02 0.  0.
          5    1    1    2  502    0  0.55181569461E+02 -0.18680366547E+02  0.15686653765E+03  0.16738740913E+03  0.41800000000E+01 0.  1.
         -5    1    1    2    0  502 -0.56154609731E+02  0.12939389738E+02  0.61836701580E+02  0.84628707086E+02  0.41800000000E+01 0.  1.
        -11    1    3    3    0    0 -0.23053552248E+02 -0.67061938696E+01 -0.18258654113E+02  0.30163185467E+02  0.00000000000E+00 0.  1.
         11    1    3    3    0    0  0.24026592519E+02  0.12447170679E+02  0.78639970976E+02  0.83165222545E+02  0.00000000000E+00 0. -1.
</event>
<event>
 7    1  0.6684706E-006  0.1496031E+03  0.7561462E-02  0.1200962E+00
          3   -1    0    0  501    0  0.00000000000E+00  0.00000000000E+00  0.13706613160E+03  0.13706613160E+03  0.00000000000E+00 0. -1.
         -3   -1    0    0    0  501 -0.00000000000E+00 -0.00000000000E+00 -0.19061250034E+03  0.19061250034E+03  0.00000000000E+00 0.  1.
         23    2    1    2    0    0 -0.10414044295E+03  0.25340184291E+02 -0.77637690938E+02  0.16120018238E+03  0.92035487434E+02 0.  0.
          5    1    1    2  502    0  0.12881400915E+03 -0.98082301359E+01  0.36813715372E+02  0.13439483759E+03  0.41800000000E+01 0. -1.
         -5    1    1    2    0  502 -0.24673566204E+02 -0.15531954155E+02 -0.12722393178E+02  0.32083611973E+02  0.41800000000E+01 0. -1.
        -11    1    3    3    0    0 -0.66362081145E+02 -0.30535265790E+02 -0.48768224497E+02  0.87833182747E+02  0.00000000000E+00 0. -1.
         11    1    3    3    0    0 -0.37778361802E+02  0.55875450081E+02 -0.28869466441E+02  0.73366999631E+02  0.00000000000E+00 0.  1.
</event>
<event>
 7    1  0.6684706E-006  0.9886699E+02  0.7561462E-02  0.1282697E+00
          2   -1    0    0  501    0  0.00000000000E+00  0.00000000000E+00  0.67307311520E+03  0.67307311520E+03  0.00000000000E+00 0. -1.
         -2   -1    0    0    0  501 -0.00000000000E+00 -0.00000000000E+00 -0.22869936422E+02  0.22869936422E+02  0.00000000000E+00 0.  1.
         23    2    1    2    0    0  0.23515778871E+02 -0.28763937813E+02  0.16767972111E+03  0.19608589222E+03  0.94619407516E+02 0.  0.
          5    1    1    2  502    0 -0.46014612064E+02 -0.13964785944E+02  0.40871904305E+03  0.41155933754E+03  0.41800000000E+01 0.  1.
         -5    1    1    2    0  502  0.22498833193E+02  0.42728723757E+02  0.73804414618E+02  0.88297821864E+02  0.41800000000E+01 0.  1.
        -11    1    3    3    0    0  0.27419611397E+02  0.30838024075E+02  0.79656444575E+02  0.89710467507E+02  0.00000000000E+00 0. -1.
         11    1    3    3    0    0 -0.39038325259E+01 -0.59601961888E+02  0.88023276539E+02  0.10637542471E+03  0.00000000000E+00 0.  1.
</event>
<event>
 7    1  0.6684706E-006  0.1320935E+03  0.7561462E-02  0.1224382E+00
         -2   -1    0    0    0  501 -0.00000000000E+00  0.00000000000E+00  0.32220958415E+03  0.32220958415E+03  0.00000000000E+00 0.  1.
          2   -1    0    0  501    0  0.00000000000E+00 -0.00000000000E+00 -0.76190588228E+02  0.76190588228E+02  0.00000000000E+00 0. -1.
         23    2    1    2    0    0  0.32744188106E+02 -0.10410925881E+03  0.14994932971E+03  0.20659834814E+03  0.91033819816E+02 0.  0.
          5    1    1    2  502    0  0.62552427275E+01 -0.49123275739E+01 -0.23588552166E+02  0.25241854470E+02  0.41800000000E+01 0.  1.
         -5    1    1    2    0  502 -0.38999430834E+02  0.10902158638E+03  0.11965821838E+03  0.16655996976E+03  0.41800000000E+01 0.  1.
        -11    1    3    3    0    0  0.34866781698E+02  0.34016479050E+00  0.56702622482E+02  0.66565723721E+02  0.00000000000E+00 0. -1.
         11    1    3    3    0    0 -0.21225935915E+01 -0.10444942360E+03  0.93246707228E+02  0.14003262442E+03  0.00000000000E+00 0.  1.
</event>
<event>
 7    1  0.6684706E-006  0.1009464E+03  0.7561462E-02  0.1278318E+00
          1   -1    0    0  501    0  0.00000000000E+00  0.00000000000E+00  0.20387193875E+03  0.20387193875E+03  0.00000000000E+00 0. -1.
         -1   -1    0    0    0  501 -0.00000000000E+00 -0.00000000000E+00 -0.68531514203E+02  0.68531514203E+02  0.00000000000E+00 0.  1.
         23    2    1    2    0    0 -0.18120263492E+02 -0.27842323790E+02  0.16598024444E+02  0.96756806729E+02  0.89346775487E+02 0.  0.
          5    1    1    2  502    0 -0.23907995880E+02  0.58226565807E+02  0.10388423068E+03  0.12153736470E+03  0.41800000000E+01 0.  1.
         -5    1    1    2    0  502  0.42028259371E+02 -0.30384242017E+02  0.14858169419E+02  0.54109281526E+02  0.41800000000E+01 0.  1.
        -11    1    3    3    0    0  0.28782823387E+02 -0.27599849733E+02  0.27703842379E+02  0.48556209799E+02  0.00000000000E+00 0. -1.
         11    1    3    3    0    0 -0.46903086879E+02 -0.24247405730E+00 -0.11105817936E+02  0.48200596931E+02  0.00000000000E+00 0.  1.
</event>
<event>
 7    1  0.6684706E-006  0.1644811E+03  0.7561462E-02  0.1183729E+00
         -3   -1    0    0    0  501 -0.00000000000E+00  0.00000000000E+00  0.56860723549E+03  0.56860723549E+03  0.00000000000E+00 0.  1.
          3   -1    0    0  501    0  0.00000000000E+00 -0.00000000000E+00 -0.49781919677E+02  0.49781919677E+02  0.00000000000E+00 0. -1.
         23    2    1    2    0    0 -0.71262778169E+02  0.10185990377E+03  0.29569733513E+03  0.33398264918E+03  0.93025117031E+02 0.  0.
          5    1    1    2  502    0  0.92967139252E+02 -0.11704902537E+03  0.18903683990E+03  0.24103062577E+03  0.41800000000E+01 0. -1.
         -5    1    1    2    0  502 -0.21704361083E+02  0.15189121595E+02  0.34091140778E+02  0.43375880214E+02  0.41800000000E+01 0. -1.
        -11    1    3    3    0    0 -0.72297007918E+02  0.11694451004E+03  0.28131409782E+03  0.31311419229E+03  0.00000000000E+00 0.  1.
         11    1    3    3    0    0  0.10342297496E+01 -0.15084606264E+02  0.14383237319E+02  0.20868456893E+02  0.00000000000E+00 0. -1.
</event>
<event>
 7    1  0.6684706E-006  0.1369063E+03  0.7561462E-02  0.1217553E+00
         -2   -1    0    0    0  501 -0.00000000000E+00  0.00000000000E+00  0.90632233940E+03  0.90632233940E+03  0.00000000000E+00 0. -1.
          2   -1    0    0  501    0  0.00000000000E+00 -0.00000000000E+00 -0.45704208120E+02  0.45704208120E+02  0.00000000000E+00 0.  1.
         23    2    1    2    0    0 -0.99861553622E+02  0.48338837070E+02  0.71694902133E+03  0.73157877523E+03  0.94247716849E+02 0.  0.
          5    1    1    2  502    0 -0.83478328113E+00 -0.24816167868E+02  0.10813147834E+03  0.11102444802E+03  0.41800000000E+01 0. -1.
         -5    1    1    2    0  502  0.10069633690E+03 -0.23522669202E+02  0.35537631613E+02  0.10942332426E+03  0.41800000000E+01 0. -1.
        -11    1    3    3    0    0 -0.10926763529E+03  0.14748102401E+02  0.56762960853E+03  0.57823896022E+03  0.00000000000E+00 0. -1.
         11    1    3    3    0    0  0.94060816706E+01  0.33590734669E+02  0.14931941280E+03  0.15333981501E+03  0.00000000000E+00 0.  1.
</event>
<event>
 7    1  0.6684706E-006  0.1641765E+03  0.7561462E-02  0.1184061E+00
          1   -1    0    0  501    0  0.00000000000E+00  0.00000000000E+00  0.37419057581E+03  0.37419057581E+03  0.00000000000E+00 0. -1.
         -1   -1    0    0    0  501 -0.00000000000E+00 -0.00000000000E+00 -0.13985613561E+03  0.13985613561E+03  0.00000000000E+00 0.  1.
         23    2    1    2    0    0  0.19246019969E+02 -0.73489597383E+02 -0.65957543440E+02  0.14881639115E+03  0.10965760590E+03 0.  0.
          5    1    1    2  502    0 -0.94659028863E+02  0.79082236445E+02  0.13214966852E+03  0.18081852548E+03  0.41800000000E+01 0. -1.
         -5    1    1    2    0  502  0.75413008894E+02 -0.55926390621E+01  0.16814231512E+03  0.18441179479E+03  0.41800000000E+01 0.  1.
        -11    1    3    3    0    0  0.37520090614E+02 -0.94308953557E+02 -0.35214316647E+02  0.10743362610E+03  0.00000000000E+00 0.  1.
         11    1    3    3    0    0 -0.18274070645E+02  0.20819356174E+02 -0.30743226793E+02  0.41382765049E+02  0.00000000000E+00 0. -1.
</event>
<event>
 7    1  0.6684706E-006  0.1055527E+03  0.7561462E-02  0.1269035E+00
          3   -1    0    0  501    0  0.00000000000E+00  0.00000000000E+00  0.20204908767E+03  0.20204908767E+03  0.00000000000E+00 0. -1.
         -3   -1    0    0    0  501 -0.00000000000E+00 -0.00000000000E+00 -0.78811678566E+02  0.78811678566E+02  0.00000000000E+00 0.  1.
         23    2    1    2    0    0 -0.50247576993E+02 -0.36495220278E+02  0.58046577650E+02  0.12673638228E+03  0.93999921914E+02 0.  0.
          5    1    1    2  502    0 -0.45726419641E+01 -0.19910806361E+02  0.72099304443E+02  0.75054189528E+02  0.41800000000E+01 0. -1.
         -5    1    1    2    0  502  0.54820218957E+02  0.56406026639E+02 -0.69084729892E+01  0.79070194427E+02  0.41800000000E+01 0. -1.
        -11    1    3    3    0    0  0.49081276652E+00 -0.56823766355E+02  0.20442353122E+02  0.60390985429E+02  0.00000000000E+00 0.  1.
         11    1    3    3    0    0 -0.50738389760E+02  0.20328546077E+02  0.37604224528E+02  0.66345396851E+02  0.00000000000E+00 0. -1.
</event>
<event>
 7    1  0.6684706E-006  0.1562861E+03  0.7561462E-02  0.1192955E+00
         -3   -1    0    0    0  501 -0.00000000000E+00  0.00000000000E+00  0.48524367554E+03  0.48524367554E+03  0.00000000000E+00 0.  1.
          3   -1    0    0  501    0  0.00000000000E+00 -0.00000000000E+00 -0.66604340869E+02  0.66604340869E+02  0.00000000000E+00 0. -1.
         23    2    1    2    0    0 -0.20025360456E+02  0.13967383264E+03  0.23608094628E+03  0.28938451255E+03  0.89996601734E+02 0.  0.
          5    1    1    2  502    0  0.44775280083E+02 -0.54418850549E+02  0.15350818318E+03  0.16896292998E+03  0.41800000000E+01 0.  1.
         -5    1    1    2    0  502 -0.24749919627E+02 -0.85254982095E+02  0.29050205213E+02  0.93500573883E+02  0.41800000000E+01 0.  1.
        -11    1    3    3    0    0  0.92964684902E+01  0.11325413953E+03  0.11351052049E+03  0.16061619691E+03  0.00000000000E+00 0. -1.
         11    1    3    3    0    0 -0.29321828946E+02  0.26419693117E+02  0.12257042579E+03  0.12876831565E+03  0.00000000000E+00 0.  1.
</event>
<event>
 7    1  0.6684706E-006  0.1804931E+03  0.7561462E-02  0.1167327E+00
         -2   -1    0    0    0  501 -0.00000000000E+00  0.00000000000E+00  0.11544130416E+03  0.11544130416E+03  0.00000000000E+00 0.  1.
          2   -1    0    0  501    0  0.00000000000E+00 -0.00000000000E+00 -0.33314679585E+03  0.33314679585E+03  0.00000000000E+00 0. -1.
         23    2    1    2    0    0 -0.12515443449E+03 -0.10400769985E+03 -0.96412439954E+02  0.21017613727E+03  0.91637415918E+02 0.  0.
          5    1    1    2  502    0  0.75352942954E+02  0.22683809664E+02 -0.11925179542E+03  0.14293734412E+03  0.41800000000E+01 0.  1.
         -5    1    1    2    0  502  0.49801491537E+02  0.81323890190E+02 -0.20412563239E+01  0.95474618629E+02  0.41800000000E+01 0.  1.
        -11    1    3    3    0    0 -0.95184312307E+02 -0.19630403077E+02 -0.48329938203E+02  0.10854118555E+03  0.00000000000E+00 0.  1.
         11    1    3    3    0    0 -0.29970122184E+02 -0.84377296777E+02 -0.48082501751E+02  0.10163495171E+03  0.00000000000E+00 0. -1.
</event>
<event>
 7    1  0.6684706E-006  0.1025075E+03  0.7561462E-02  0.1275110E+00
          1   -1    0    0  501    0  0.00000000000E+00  0.00000000000E+00  0.79634668824E+02  0.79634668824E+02  0.00000000000E+00 0. -1.
         -1   -1    0    0    0  501 -0.00000000000E+00 -0.00000000000E+00 -0.19173517357E+03  0.19173517357E+03  0.00000000000E+00 0.  1.
         23    2    1    2    0    0 -0.25599842714E+02 -0.55072027774E+02 -0.51424542843E+02  0.11965070265E+03  0.89350583926E+02 0.  0.
          5    1    1    2  502    0  0.11908372539E+02 -0.22983729962E+02  0.24087306165E+02  0.35605222900E+02  0.41800000000E+01 0.  1.
         -5    1    1    2    0  502  0.13691470175E+02  0.78055757736E+02 -0.84763268065E+02  0.11611391684E+03  0.41800000000E+01 0.  1.
        -11    1    3    3    0    0 -0.35502220297E+02  0.73322679022E+01 -0.42464153083E+02  0.55833449613E+02  0.00000000000E+00 0. -1.
         11    1    3    3    0    0  0.99023775838E+01 -0.62404295676E+02 -0.89603897607E+01  0.63817253038E+02  0.00000000000E+00 0.  1.
</event>
<event>
 7    1  0.6684706E-006  0.9120862E+02  0.7561462E-02  0.1299951E+00
          1   -1    0    0  501    0  0.00000000000E+00  0.00000000000E+00  0.85603902689E+03  0.85603902689E+03  0.00000000000E+00 0. -1.
         -1   -1    0    0    0  501 -0.00000000000E+00 -0.00000000000E+00 -0.17125373716E+02  0.17125373716E+02  0.00000000000E+00 0.  1.
         23    2    1    2    0    0  0.36547610800E+02  0.39837807017E+02  0.33601625275E+03  0.35213140156E+03  0.90370477097E+02 0.  0.
          5    1    1    2  502    0  0.78745032828E+01  0.86881228082E+01  0.39073440771E+03  0.39093265538E+03  0.41800000000E+01 0.  1.
         -5    1    1    2    0  502 -0.44422114083E+02 -0.48525929825E+02  0.11216299272E+03  0.13010034366E+03  0.41800000000E+01 0.  1.
        -11    1    3    3    0    0 -0.11126402238E+02 -0.22777157536E+02  0.60507137103E+02  0.65602662847E+02  0.00000000000E+00 0.  1.
         11    1    3    3    0    0  0.47674013038E+02  0.62614964553E+02  0.27550911565E+03  0.28652873872E+03  0.00000000000E+00 0. -1.
</event>
<event>
 7    1  0.6684706E-006  0.1168545E+03  0.7561462E-02  0.1248378E+00
          1   -1    0    0  501    0  0.00000000000E+00  0.00000000000E+00  0.30514836005E+03  0.30514836005E+03  0.00000000000E+00 0. -1.
         -1   -1    0    0    0  501 -0.00000000000E+00 -0.00000000000E+00 -0.75913447780E+02  0.75913447780E+02  0.00000000000E+00 0.  1.
         23    2    1    2    0    0 -0.61109263827E+02 -0.64867976248E+02  0.45824785744E+02  0.14183626326E+03  0.10037638227E+03 0.  0.
          5    1    1    2  502    0  0.53761558773E+02  0.96757520445E+02  0.17147748174E+03  0.20414289630E+03  0.41800000000E+01 0.  1.
         -5    1    1    2    0  502  0.73477050539E+01 -0.31889544197E+02  0.11932644788E+02  0.35082648279E+02  0.41800000000E+01 0.  1.
        -11    1    3    3    0    0 -0.17591633940E+02 -0.11199222735E+02 -0.31728313316E+02  0.37968066061E+02  0.00000000000E+00 0.  1.
         11    1    3    3    0    0 -0.43517629887E+02 -0.53668753513E+02  0.77553099060E+02  0.10386819719E+03  0.00000000000E+00 0. -1.
</event>
<event>
 6    1  0.6684706E-006  0.8689352E+02  0.7561462E-02  0.1310554E+00
         -2   -1    0    0    0  501 -0.00000000000E+00  0.00000000000E+00  0.19996265843E+02  0.19996265843E+02  0.00000000000E+00 0.  1.
          2   -1    0    0  501    0  0.00000000000E+00 -0.00000000000E+00 -0.10480864417E+04  0.10480864417E+04  0.00000000000E+00 0. -1.
          5    1    1    2  502    0  0.81106115831E+02  0.25635321416E+02 -0.89497682276E+03  0.89901966464E+03  0.41800000000E+01 0. -1.
         -5    1    1    2    0  502 -0.27277687435E+02 -0.16652117940E+02 -0.93454194683E+02  0.98856078051E+02  0.41800000000E+01 0.  1.
        -11    1    1    2    0    0 -0.18387619087E+02  0.36893049803E+01 -0.59365343157E+01  0.19671246697E+02  0.00000000000E+00 0. -1.
         11    1    1    2    0    0 -0.35440809308E+02 -0.12672508456E+02 -0.33722624141E+02  0.50535718200E+02  0.00000000000E+00 0.  1.
</event>
<event>
 7    1  0.6684706E-006  0.1273427E+03  0.7561462E-02  0.1231453E+00
         -3   -1    0    0    0  501 -0.00000000000E+00  0.00000000000E+00  0.93376046301E+02  0.93376046301E+02  0.00000000000E+00 0.  1.
          3   -1    0    0  501    0  0.00000000000E+00 -0.00000000000E+00 -0.24087320955E+03  0.24087320955E+03  0.00000000000E+00 0. -1.
         23    2    1    2    0    0 -0.80292480055E+02  0.43007290716E+02 -0.12599040782E+02  0.12896532204E+03  0.90425710129E+02 0.  0.
          5    1    1    2  502    0 -0.29510551595E+02 -0.20902659601E+02 -0.10605193144E+02  0.37917494056E+02  0.41800000000E+01 0. -1.
         -5    1    1    2    0  502  0.10980303165E+03 -0.22104631115E+02 -0.12429292932E+03  0.16736643975E+03  0.41800000000E+01 0. -1.
        -11    1    3    3    0    0 -0.28615890816E+02  0.46285313793E+02  0.29798692080E+02  0.62041611276E+02  0.00000000000E+00 0.  1.
         11    1    3    3    0    0 -0.51676589240E+02 -0.32780230770E+01 -0.42397732861E+02  0.66923710765E+02  0.00000000000E+00 0. -1.
</event>
<event>
 7    1  0.7680783E-006  0.1214065E+03  0.7561462E-02  0.1240795E+00
          1   -1    0    0  501    0  0.00000000000E+00  0.00000000000E+00  0.82069485504E+02  0.82069485504E+02  0.00000000000E+00 0. -1.
         -1   -1    0    0    0  501 -0.00000000000E+00 -0.00000000000E+00 -0.21978285426E+03  0.21978285426E+03  0.00000000000E+00 0.  1.
         23    2    1    2    0    0  0.20275485822E+02 -0.74680024369E+02 -0.83506085941E+02  0.14509084316E+03  0.89943788077E+02 0.  0.
          5    1    1    2  502    0  0.29415265038E+02  0.79833963465E+02 -0.62889499673E+02  0.10588333726E+03  0.41800000000E+01 0. -1.
         -5    1    1    2    0  502 -0.49690750860E+02 -0.51539390968E+01  0.86822168574E+01  0.50878159350E+02  0.41800000000E+01 0. -1.
        -11    1    3    3    0    0 -0.17829221222E+02 -0.66068843557E+02 -0.21364153075E+02  0.71689610509E+02  0.00000000000E+00 0. -1.
         11    1    3    3    0    0  0.38104707044E+02 -0.86111808120E+01 -0.62141932866E+02  0.73401232648E+02  0.00000000000E+00 0.  1.
</event>
<event>
 7    1  0.6684706E-006  0.1118818E+03  0.7561462E-02  0.1257124E+00
         -2   -1    0    0    0  501 -0.00000000000E+00  0.00000000000E+00  0.11438776252E+02  0.11438776252E+02  0.00000000000E+00 0.  1.
          2   -1    0    0  501    0  0.00000000000E+00 -0.00000000000E+00 -0.28224290965E+04  0.28224290965E+04  0.00000000000E+00 0. -1.
         23    2    1    2    0    0 -0.41128034206E+02 -0.33777657599E+02 -0.27870070170E+03  0.29793206526E+03  0.90867975832E+02 0.  0.
          5    1    1    2  502    0 -0.43399140338E+02  0.19931798116E+02 -0.69933721964E+03  0.70097844555E+03  0.41800000000E+01 0. -1.
         -5    1    1    2    0  502  0.84527174544E+02  0.13845859483E+02 -0.18329523989E+04  0.18349573619E+04  0.41800000000E+01 0. -1.
        -11    1    3    3    0    0 -0.20519786978E+02  0.22311516879E+02 -0.31920190200E+02  0.44020040725E+02  0.00000000000E+00 0.  1.
         11    1    3    3    0    0 -0.20608247228E+02 -0.56089174478E+02 -0.24678051150E+03  0.25391202454E+03  0.00000000000E+00 0. -1.
</event>
<event>
 7    1  0.6684706E-006  0.1163713E+03  0.7561462E-02  0.1249206E+00
         -2   -1    0    0    0  501 -0.00000000000E+00  0.00000000000E+00  0.83719016387E+02  0.83719016387E+02  0.00000000000E+00 0.  1.
          2   -1    0    0  501    0  0.00000000000E+00 -0.00000000000E+00 -0.56447131630E+03  0.56447131630E+03  0.00000000000E+00 0. -1.
         23    2    1    2    0    0  0.66524628210E+02  0.15672552516E+02  0.31296129187E+02  0.11784691279E+03  0.90759528925E+02 0.  0.
          5    1    1    2  502    0 -0.91873492622E+02 -0.18285613607E+02 -0.48054715139E+03  0.48961019129E+03  0.41800000000E+01 0. -1.
         -5    1    1    2    0  502  0.25348864412E+02  0.26130610903E+01 -0.31501277716E+02  0.40733228610E+02  0.41800000000E+01 0.  1.
        -11    1    3    3    0    0 -0.19971348565E+02  0.17618926618E+02  0.29074983548E+01  0.26790574562E+02  0.00000000000E+00 0. -1.
         11    1    3    3    0    0  0.86495976776E+02 -0.19463741020E+01  0.28388630832E+02  0.91056338225E+02  0.00000000000E+00 0.  1.
</event>
<event>
 7    1  0.6684706E-006  0.8391675E+02  0.7561462E-02  0.1318290E+00
         -1   -1    0    0    0  501 -0.00000000000E+00  0.00000000000E+00  0.24347028123E+02  0.24347028123E+02  0.00000000000E+00 0.  1.
          1   -1    0    0  501    0  0.00000000000E+00 -0.00000000000E+00 -0.11197490678E+04  0.11197490678E+04  0.00000000000E+00 0. -1.
         23    2    1    2    0    0 -0.18138173269E+02  0.47968629718E+02 -0.11831336559E+03  0.15769863769E+03  0.90778990331E+02 0.  0.
          5    1    1    2  502    0 -0.25013762795E+02  0.14677950165E+02 -0.64568732259E+03  0.64635185580E+03  0.41800000000E+01 0. -1.
         -5    1    1    2    0  502  0.43151936064E+02 -0.62646579883E+02 -0.33140135151E+03  0.34004560244E+03  0.41800000000E+01 0. -1.
        -11    1    3    3    0    0  0.10842645961E+02  0.12752314978E+02  0.11366031322E+02  0.20232923090E+02  0.00000000000E+00 0.  1.
         11    1    3    3    0    0 -0.28980819229E+02  0.35216314739E+02 -0.12967939691E+03  0.13746571460E+03  0.00000000000E+00 0. -1.
</event>
<event>
 7    1  0.6684706E-006  0.1958971E+03  0.7561462E-02  0.1153248E+00
          1   -1    0    0  501    0  0.00000000000E+00  0.00000000000E+00  0.10582972863E+04  0.10582972863E+04  0.00000000000E+00 0. -1.
         -1   -1    0    0    0  501 -0.00000000000E+00 -0.00000000000E+00 -0.37138020115E+02  0.37138020115E+02  0.00000000000E+00 0.  1.
         23    2    1    2    0    0 -0.76452421825E+02 -0.14545540935E+03  0.54958221511E+03  0.58062008294E+03  0.89871133480E+02 0.  0.
          5    1    1    2  502    0 -0.10632657140E+02  0.11286348622E+03  0.25909085420E+03  0.28283699024E+03  0.41800000000E+01 0.  1.
         -5    1    1    2    0  502  0.87085078965E+02  0.32591923135E+02  0.21248619686E+03  0.23197823322E+03  0.41800000000E+01 0.  1.
        -11    1    3    3    0    0  0.17488987527E+02 -0.91614450147E+01  0.89881804890E+02  0.92024646751E+02  0.00000000000E+00 0.  1.
         11    1    3    3    0    0 -0.93941409351E+02 -0.13629396434E+03  0.45970041022E+03  0.48859543619E+03  0.00000000000E+00 0. -1.
</event>
<event>
 7    1  0.6684706E-006  0.9400040E+02  0.7561462E-02  0.1293443E+00
         -1   -1    0    0    0  501 -0.00000000000E+00  0.00000000000E+00  0.16490348614E+03  0.16490348614E+03  0.00000000000E+00 0.  1.
          1   -1    0    0  501    0  0.00000000000E+00 -0.00000000000E+00 -0.11587025457E+03  0.11587025457E+03  0.00000000000E+00 0. -1.
         23    2    1    2    0    0 -0.58693991844E+02  0.56000654378E+02  0.48036427399E+02  0.13167787924E+03  0.91926642248E+02 0.  0.
          5    1    1    2  502    0 -0.15246579389E+02 -0.39598461600E+01 -0.44787454374E+02  0.47660539590E+02  0.41800000000E+01 0.  1.
         -5    1    1    2    0  502  0.73940571233E+02 -0.52040808218E+02  0.45784258539E+02  0.10143532188E+03  0.41800000000E+01 0.  1.
        -11    1    3    3    0    0 -0.20095735988E+02  0.17075948940E+02 -0.27660414752E+02  0.38216818044E+02  0.00000000000E+00 0.  1.
         11    1    3    3    0    0 -0.38598255856E+02  0.38924705438E+02  0.75696842152E+02  0.93461061198E+02  0.00000000000E+00 0. -1.
</event>
<event>
 7    1  0.6684706E-006  0.8413057E+02  0.7561462E-02  0.1317722E+00
          2   -1    0    0  501    0  0.00000000000E+00  0.00000000000E+00  0.21629400059E+03  0.21629400059E+03  0.00000000000E+00 0. -1.
         -2   -1    0    0    0  501 -0.00000000000E+00 -0.00000000000E+00 -0.65434382846E+02  0.65434382846E+02  0.00000000000E+00 0.  1.
         23    2    1    2    0    0  0.93813664500E+01 -0.47199423437E+02  0.42208919171E+02  0.10919959197E+03  0.88471251935E+02 0.  0.
          5    1    1    2  502    0 -0.11565684024E+01 -0.16015379357E+02 -0.21728622428E+02  0.27339265883E+02  0.41800000000E+01 0. -1.
         -5    1    1    2    0  502 -0.82247980477E+01  0.63214802793E+02  0.13037932100E+03  0.14518952559E+03  0.41800000000E+01 0. -1.
        -11    1    3    3    0    0 -0.16057069658E+02 -0.57975207903E+02  0.52374108941E+02  0.79762155843E+02  0.00000000000E+00 0. -1.
         11    1    3    3    0    0  0.25438436108E+02  0.10775784466E+02 -0.10165189770E+02  0.29437436124E+02  0.00000000000E+00 0.  1.
</event>
<event>
 7    1  0.6684706E-006  0.9434227E+02  0.7561462E-02  0.1292664E+00
          2   -1    0    0  501    0  0.00000000000E+00  0.00000000000E+00  0.13439999671E+03  0.13439999671E+03  0.00000000000E+00 0. -1.
         -2   -1    0    0    0  501 -0.00000000000E+00 -0.00000000000E+00 -0.11141922802E+03  0.11141922802E+03  0.00000000000E+00 0.  1.
         23    2    1    2    0    0 -0.52289264580E+02  0.19404859713E+02 -0.32954215683E+01  0.10635987544E+03  0.90503301209E+02 0.  0.
          5    1    1    2  502    0  0.83023864313E+02 -0.41183152680E+02  0.37300220341E+02  0.99988964129E+02  0.41800000000E+01 0.  1.
         -5    1    1    2    0  502 -0.30734599733E+02  0.21778292966E+02 -0.11024030089E+02  0.39470385160E+02  0.41800000000E+01 0.  1.
        -11    1    3    3    0    0 -0.32725099204E+02  0.20157530674E+02 -0.45663996735E+02  0.59686336448E+02  0.00000000000E+00 0.  1.
         11    1    3    3    0    0 -0.19564165376E+02 -0.75267096047E+00  0.42368575167E+02  0.46673538993E+02  0.00000000000E+00 0. -1.
</event>
<event>
 7    1  0.6684706E-006  0.8726845E+02  0.7561462E-02  0.1309605E+00
          1   -1    0    0  501    0  0.00000000000E+00  0.00000000000E+00  0.91797217756E+03  0.91797217756E+03  0.00000000000E+00 0. -1.
         -1   -1    0    0    0  501 -0.00000000000E+00 -0.00000000000E+00 -0.16668411329E+02  0.16668411329E+02  0.00000000000E+00 0.  1.
         23    2    1    2    0    0  0.37481031474E+02 -0.42856140015E+02  0.38328044128E+03  0.39869567400E+03  0.93876873268E+02 0.  0.
          5    1    1    2  502    0  0.15339570990E+01  0.22977967533E+02  0.90809684535E+01  0.25105306300E+02  0.41800000000E+01 0.  1.
         -5    1    1    2    0  502 -0.39014988573E+02  0.19878172481E+02  0.50894235650E+03  0.51083960860E+03  0.41800000000E+01 0.  1.
        -11    1    3    3    0    0  0.26922812051E+02 -0.71615600501E+02  0.30930920290E+03  0.31863115830E+03  0.00000000000E+00 0. -1.
         11    1    3    3    0    0  0.10558219423E+02  0.28759460486E+02  0.73971238388E+02  0.80064515695E+02  0.00000000000E+00 0.  1.
</event>
<event>
 7    1  0.6684706E-006  0.1078022E+03  0.7561462E-02  0.1264695E+00
         -2   -1    0    0    0  501 -0.00000000000E+00  0.00000000000E+00  0.45749364052E+02  0.45749364052E+02  0.00000000000E+00 0.  1.
          2   -1    0    0  501    0  0.00000000000E+00 -0.00000000000E+00 -0.62574679358E+03  0.62574679358E+03  0.00000000000E+00 0. -1.
         23    2    1    2    0    0  0.78663151415E+02  0.57072959061E+02 -0.99932052744E+02  0.16597131349E+03  0.90082449402E+02 0.  0.
          5    1    1    2  502    0  0.13695106730E+00 -0.29562025909E+02 -0.15763722531E+02  0.33762397419E+02  0.41800000000E+01 0.  1.
         -5    1    1    2    0  502 -0.78800102482E+02 -0.27510933152E+02 -0.46430165425E+03  0.47176244672E+03  0.41800000000E+01 0.  1.
        -11    1    3    3    0    0  0.21562374696E+02  0.16559734681E+00  0.14506656013E+02  0.25988583910E+02  0.00000000000E+00 0. -1.
         11    1    3    3    0    0  0.57100776719E+02  0.56907361715E+02 -0.11443870876E+03  0.13998272958E+03  0.00000000000E+00 0.  1.
</event>
<event>
 7    1  0.6684706E-006  0.7103052E+02  0.7561462E-02  0.1356623E+00
         -2   -1    0    0    0  501 -0.00000000000E+00  0.00000000000E+00  0.83744368458E+02  0.83744368458E+02  0.00000000000E+00 0.  1.
          2   -1    0    0  501    0  0.00000000000E+00 -0.00000000000E+00 -0.17908548248E+03  0.17908548248E+03  0.00000000000E+00 0. -1.
         23    2    1    2    0    0  0.37362156846E+02  0.28923277493E+02 -0.64785549231E+01  0.10227927452E+03  0.90479785467E+02 0.  0.
          5    1    1    2  502    0  0.49820414567E+01 -0.30142168248E+02  0.24548460927E+02  0.39414088568E+02  0.41800000000E+01 0.  1.
         -5    1    1    2    0  502 -0.42344198303E+02  0.12188907545E+01 -0.11341102002E+03  0.12113648785E+03  0.41800000000E+01 0.  1.
        -11    1    3    3    0    0  0.25162754624E+02  0.43129037721E+02  0.32124864857E+02  0.59374111000E+02  0.00000000000E+00 0.  1.
         11    1    3    3    0    0  0.12199402222E+02 -0.14205760228E+02 -0.38603419780E+02  0.42905163523E+02  0.00000000000E+00 0. -1.
</event>
<event>
 7    1  0.6684706E-006  0.1032051E+03  0.7561462E-02  0.1273697E+00
         -2   -1    0    0    0  501 -0.00000000000E+00  0.00000000000E+00  0.16310692581E+02  0.16310692581E+02  0.00000000000E+00 0. -1.
          2   -1    0    0  501    0  0.00000000000E+00 -0.00000000000E+00 -0.12189949298E+04  0.12189949298E+04  0.00000000000E+00 0.  1.
         23    2    1    2    0    0 -0.54294655715E+02 -0.66164897533E+02 -0.42713745855E+03  0.44508658082E+03  0.91268574126E+02 0.  0.
          5    1    1    2  502    0  0.27408976573E+01  0.34825105133E+02 -0.64911314925E+03  0.65006588389E+03  0.41800000000E+01 0. -1.
         -5    1    1    2    0  502  0.51553758058E+02  0.31339792399E+02 -0.12643362941E+03  0.14015315767E+03  0.41800000000E+01 0. -1.
        -11    1    3    3    0    0 -0.96155055745E+01  0.15165410467E+02 -0.17512853841E+02  0.25082816264E+02  0.00000000000E+00 0. -1.
         11    1    3    3    0    0 -0.44679150141E+02 -0.81330307999E+02 -0.40962460471E+03  0.42000376455E+03  0.00000000000E+00 0.  1.
</event>
<event>
 7    1  0.6684706E-006  0.1158240E+03  0.7561462E-02  0.1250150E+00
         -1   -1    0    0    0  501 -0.00000000000E+00  0.00000000000E+00  0.13434903357E+02  0.13434903357E+02  0.00000000000E+00 0.  1.
          1   -1    0    0  501    0  0.00000000000E+00 -0.00000000000E+00 -0.10898924689E+04  0.10898924689E+04  0.00000000000E+00 0. -1.
         23    2    1    2    0    0 -0.32586786682E+02 -0.24245674996E+02 -0.37397014787E+03  0.38863956455E+03  0.97659040587E+02 0.  0.
          5    1    1    2  502    0 -0.27081756835E+02  0.54706825772E+02 -0.41381416629E+03  0.41831315419E+03  0.41800000000E+01 0. -1.
         -5    1    1    2    0  502  0.59668543517E+02 -0.30461150775E+02 -0.28867325137E+03  0.29637465352E+03  0.41800000000E+01 0. -1.
        -11    1    3    3    0    0 -0.25053490462E+02  0.35316712875E+02 -0.11717514831E+03  0.12491982618E+03  0.00000000000E+00 0.  1.
         11    1    3    3    0    0 -0.75332962192E+01 -0.59562387871E+02 -0.25679499956E+03  0.26371973836E+03  0.00000000000E+00 0. -1.
</event>
<event>
 7    1  0.6684706E-006  0.1065012E+03  0.7561462E-02  0.1267190E+00
          2   -1    0    0  501    0  0.00000000000E+00  0.00000000000E+00  0.48390842200E+03  0.48390842200E+03  0.00000000000E+00 0. -1.
         -2   -1    0    0    0  501 -0.00000000000E+00 -0.00000000000E+00 -0.27840829347E+02  0.27840829347E+02  0.00000000000E+00 0.  1.
         23    2    1    2    0    0  0.13930155848E+02  0.37197485506E+02  0.15825890185E+03  0.18630290892E+03  0.89917693948E+02 0.  0.
          5    1    1    2  502    0  0.50594871418E+02 -0.42708834547E+02  0.15231487397E+03  0.16613602498E+03  0.41800000000E+01 0.  1.
         -5    1    1    2    0  502 -0.64525027266E+02  0.55113490412E+01  0.14549381683E+03  0.15931031745E+03  0.41800000000E+01 0.  1.
        -11    1    3    3    0    0  0.19918191022E+02 -0.17637050531E+02  0.10531545898E+02  0.28613167319E+02  0.00000000000E+00 0.  1.
         11    1    3    3    0    0 -0.59880351736E+01  0.54834536037E+02  0.14772735595E+03  0.15768974160E+03  0.00000000000E+00 0. -1.
</event>
<event>
 7    1  0.6684706E-006  0.1105374E+03  0.7561462E-02  0.1259578E+00
          2   -1    0    0  501    0  0.00000000000E+00  0.00000000000E+00  0.61015064208E+03  0.61015064208E+03  0.00000000000E+00 0. -1.
         -2   -1    0    0    0  501 -0.00000000000E+00 -0.00000000000E+00 -0.38216450829E+02  0.38216450829E+02  0.00000000000E+00 0.  1.
         23    2    1    2    0    0 -0.70086412970E+02  0.78770852982E+02  0.23556717806E+03  0.27432313348E+03  0.92974908552E+02 0.  0.
          5    1    1    2  502    0  0.43202573068E+02 -0.62632567383E+02  0.63055398563E+02  0.98907818218E+02  0.41800000000E+01 0. -1.
         -5    1    1    2    0  502  0.26883839902E+02 -0.16138285599E+02  0.27331161463E+03  0.27513614121E+03  0.41800000000E+01 0. -1.
        -11    1    3    3    0    0 -0.22472721928E+02  0.56240467204E+02  0.20425300844E+03  0.21304296477E+03  0.00000000000E+00 0. -1.
         11    1    3    3    0    0 -0.47613691042E+02  0.22530385779E+02  0.31314169624E+02  0.61280168711E+02  0.00000000000E+00 0.  1.
</event>
<event>
 7    1  0.6684706E-006  0.2314470E+03  0.7561462E-02  0.1125625E+00
         -2   -1    0    0    0  501 -0.00000000000E+00  0.00000000000E+00  0.36542394659E+02  0.36542394659E+02  0.00000000000E+00 0.  1.
          2   -1    0    0  501    0  0.00000000000E+00 -0.00000000000E+00 -0.24630742068E+04  0.24630742068E+04  0.00000000000E+00 0. -1.
         23    2    1    2    0    0  0.20740120591E+03 -0.65638878566E+02 -0.45941193273E+03  0.51655566922E+03  0.91906000248E+02 0.  0.
          5    1    1    2  502    0 -0.19224538074E+02  0.49436535526E+02 -0.25123834732E+03  0.25681069579E+03  0.41800000000E+01 0. -1.
         -5    1    1    2    0  502 -0.18817666784E+03  0.16202343040E+02 -0.17158815321E+04  0.17262502364E+04  0.41800000000E+01 0. -1.
        -11    1    3    3    0    0  0.19008404507E+03 -0.48004313731E+02 -0.32238378971E+03  0.37731640064E+03  0.00000000000E+00 0.  1.
         11    1    3    3    0    0  0.17317160848E+02 -0.17634564835E+02 -0.13702814302E+03  0.13923926858E+03  0.00000000000E+00 0. -1.
</event>
<event>
 7    1  0.6684706E-006  0.1433841E+03  0.7561462E-02  0.1208847E+00
          2   -1    0    0  501    0  0.00000000000E+00  0.00000000000E+00  0.92637658263E+03  0.92637658263E+03  0.00000000000E+00 0. -1.
         -2   -1    0    0    0  501 -0.00000000000E+00 -0.00000000000E+00 -0.43448652434E+02  0.43448652434E+02  0.00000000000E+00 0.  1.
         23    2    1    2    0    0  0.89739170664E+02  0.58203115441E+02  0.10697653383E+03  0.17661121703E+03  0.91141767544E+02 0.  0.
          5    1    1    2  502    0 -0.53865268053E+02  0.25580043028E+02  0.16513417471E+03  0.17562053912E+03  0.41800000000E+01 0.  1.
         -5    1    1    2    0  502 -0.35873902612E+02 -0.83783158469E+02  0.61081722165E+03  0.61759347891E+03  0.41800000000E+01 0.  1.
        -11    1    3    3    0    0  0.71256689833E+02 -0.35009100735E+01  0.78822485856E+02  0.10631442279E+03  0.00000000000E+00 0.  1.
         11    1    3    3    0    0  0.18482480831E+02  0.61704025515E+02  0.28154047979E+02  0.70296794237E+02  0.00000000000E+00 0. -1.
</event>
<event>
 7    1  0.6684706E-006  0.8007550E+02  0.7561462E-02  0.1328837E+00
          2   -1    0    0  501    0  0.00000000000E+00  0.00000000000E+00  0.59140942297E+02  0.59140942297E+02  0.00000000000E+00 0. -1.
         -2   -1    0    0    0  501 -0.00000000000E+00 -0.00000000000E+00 -0.22613020150E+03  0.22613020150E+03  0.00000000000E+00 0.  1.
         23    2    1    2    0    0  0.29728352734E+02 -0.17192242414E+02 -0.10545443467E+03  0.14169664458E+03  0.88192704562E+02 0.  0.
          5    1    1    2  502    0 -0.51988478782E+02 -0.11151582471E+02  0.17889730823E+02  0.56255440506E+02  0.41800000000E+01 0.  1.
         -5    1    1    2    0  502  0.22260126048E+02  0.28343824885E+02 -0.79424555350E+02  0.87319058707E+02  0.41800000000E+01 0.  1.
        -11    1    3    3    0    0 -0.13550523751E+02 -0.23173022111E+02 -0.92217673834E+02  0.96045327918E+02  0.00000000000E+00 0.  1.
         11    1    3    3    0    0  0.43278876484E+02  0.59807796969E+01 -0.13236760839E+02  0.45651316663E+02  0.00000000000E+00 0. -1.
</event>
<event>
 7    1  0.6684706E-006  0.1302024E+03  0.7561462E-02  0.1227156E+00
         -1   -1    0    0    0  501 -0.00000000000E+00  0.00000000000E+00  0.68329196673E+02  0.68329196673E+02  0.00000000000E+00 0.  1.
          1   -1    0    0  501    0  0.00000000000E+00 -0.00000000000E+00 -0.42277364876E+03  0.42277364876E+03  0.00000000000E+00 0. -1.
         23    2    1    2    0    0 -0.71750631272E+02  0.31974686379E+02 -0.14977939488E+02  0.12089110392E+03  0.90663039209E+02 0.  0.
          5    1    1    2  502    0  0.61191132062E+02  0.37874963842E+02 -0.12410544402E+03  0.14352177941E+03  0.41800000000E+01 0.  1.
         -5    1    1    2    0  502  0.10559499209E+02 -0.69849650221E+02 -0.21536106857E+03  0.22668996210E+03  0.41800000000E+01 0.  1.
        -11    1    3    3    0    0 -0.55229295573E+02  0.62153866578E+02 -0.21480332057E+02  0.85876556087E+02  0.00000000000E+00 0. -1.
         11    1    3    3    0    0 -0.16521335698E+02 -0.30179180199E+02  0.65023925689E+01  0.35014547832E+02  0.00000000000E+00 0.  1.
</event>
<event>
 7    1  0.6684706E-006  0.9361844E+02  0.7561462E-02  0.1294318E+00
         -1   -1    0    0    0  501 -0.00000000000E+00  0.00000000000E+00  0.54272803777E+02  0.54272803777E+02  0.00000000000E+00 0.  1.
          1   -1    0    0  501    0  0.00000000000E+00 -0.00000000000E+00 -0.24188708173E+03  0.24188708173E+03  0.00000000000E+00 0. -1.
         23    2    1    2    0    0 -0.41147670722E+01  0.36471076939E+01 -0.32823803468E+02  0.97065834103E+02  0.91181913631E+02 0.  0.
          5    1    1    2  502    0  0.30456022360E+02 -0.56302550082E+02 -0.98391559072E+02  0.11745602471E+03  0.41800000000E+01 0.  1.
         -5    1    1    2    0  502 -0.26341255288E+02  0.52655442388E+02 -0.56398915415E+02  0.81638026699E+02  0.41800000000E+01 0.  1.
        -11    1    3    3    0    0 -0.29061147708E+02 -0.15201775621E+02 -0.51196512262E+02  0.60800716739E+02  0.00000000000E+00 0. -1.
         11    1    3    3    0    0  0.24946380635E+02  0.18848883315E+02  0.18372708794E+02  0.36265117364E+02  0.00000000000E+00 0.  1.
</event>
<event>
 7    1  0.6684706E-006  0.1493688E+03  0.7561462E-02  0.1201251E+00
         -2   -1    0    0    0  501 -0.00000000000E+00  0.00000000000E+00  0.95839759735E+02  0.95839759735E+02  0.00000000000E+00 0.  1.
          2   -1    0    0  501    0  0.00000000000E+00 -0.00000000000E+00 -0.30747727911E+03  0.30747727911E+03  0.00000000000E+00 0. -1.
         23    2    1    2    0    0 -0.68161390324E+01  0.60352542985E+02 -0.36804951775E+02  0.11010387730E+03  0.84138992889E+02 0.  0.
          5    1    1    2  502    0  0.79751560206E+02 -0.99069071685E+02 -0.16729428038E+03  0.21019001158E+03  0.41800000000E+01 0. -1.
         -5    1    1    2    0  502 -0.72935421173E+02  0.38716528700E+02 -0.75382872189E+01  0.83023149968E+02  0.41800000000E+01 0.  1.
        -11    1    3    3    0    0 -0.46396468106E+01 -0.13832996959E+02 -0.32659896661E+02  0.35770755895E+02  0.00000000000E+00 0. -1.
         11    1    3    3    0    0 -0.21764922218E+01  0.74185539944E+02 -0.41450551142E+01  0.74333121400E+02  0.00000000000E+00 0.  1.
</event>
<event>
 7    1  0.6684706E-006  0.5911023E+02  0.7561462E-02  0.1401604E+00
         -2   -1    0    0    0  501 -0.00000000000E+00  0.00000000000E+00  0.63829576813E+02  0.63829576813E+02  0.00000000000E+00 0.  1.
          2   -1    0    0  501    0  0.00000000000E+00 -0.00000000000E+00 -0.20039764095E+03  0.20039764095E+03  0.00000000000E+00 0. -1.
         23    2    1    2    0    0  0.17027980958E+02  0.26284272949E+02 -0.38935165427E+02  0.10248290396E+03  0.89476160829E+02 0.  0.
          5    1    1    2  502    0  0.22725215469E+01 -0.71695173233E+01 -0.12362048454E+03  0.12391958251E+03  0.41800000000E+01 0. -1.
         -5    1    1    2    0  502 -0.19300502504E+02 -0.19114755625E+02  0.25987585834E+02  0.37824731288E+02  0.41800000000E+01 0. -1.
        -11    1    3    3    0    0  0.38399464780E+02 -0.10305402846E+02  0.65768722285E+01  0.40298579026E+02  0.00000000000E+00 0.  1.
         11    1    3    3    0    0 -0.21371483822E+02  0.36589675795E+02 -0.45512037656E+02  0.62184324931E+02  0.00000000000E+00 0. -1.
</event>
<event>
 7    1  0.6684706E-006  0.1065213E+03  0.7561462E-02  0.1267151E+00
          1   -1    0    0  501    0  0.00000000000E+00  0.00000000000E+00  0.15205689247E+03  0.15205689247E+03  0.00000000000E+00 0. -1.
         -1   -1    0    0    0  501 -0.00000000000E+00 -0.00000000000E+00 -0.75319184996E+02  0.75319184996E+02  0.00000000000E+00 0.  1.
         23    2    1    2    0    0  0.25103856337E+02  0.14785050018E+02  0.38983205160E+02  0.93486564036E+02  0.79820085590E+02 0.  0.
          5    1    1    2  502    0 -0.67694660220E+02 -0.39840785563E+02  0.26833086784E+02  0.83110421506E+02  0.41800000000E+01 0. -1.
         -5    1    1    2    0  502  0.42590803883E+02  0.25055735545E+02  0.10921415527E+02  0.50779091920E+02  0.41800000000E+01 0. -1.
        -11    1    3    3    0    0 -0.11082432414E+02  0.39464642094E+02  0.21876171657E+02  0.46463374503E+02  0.00000000000E+00 0.  1.
         11    1    3    3    0    0  0.36186288751E+02 -0.24679592076E+02  0.17107033503E+02  0.47023189534E+02  0.00000000000E+00 0. -1.
</event>
<event>
 7    1  0.6684706E-006  0.1835828E+03  0.7561462E-02  0.1164380E+00
         -1   -1    0    0    0  501 -0.00000000000E+00  0.00000000000E+00  0.20995831801E+03  0.20995831801E+03  0.00000000000E+00 0.  1.
          1   -1    0    0  501    0  0.00000000000E+00 -0.00000000000E+00 -0.18398003384E+03  0.18398003384E+03  0.00000000000E+00 0. -1.
         23    2    1    2    0    0  0.88543211355E+02 -0.11929889905E+03  0.81589053065E+02  0.19191771166E+03  0.90019480551E+02 0.  0.
          5    1    1    2  502    0 -0.11212156015E+03  0.54688410546E+02 -0.28904735893E+02  0.12812112494E+03  0.41800000000E+01 0. -1.
         -5    1    1    2    0  502  0.23578348792E+02  0.64610488499E+02 -0.26706033010E+02  0.73899515256E+02  0.41800000000E+01 0. -1.
        -11    1    3    3    0    0 -0.12975449926E+02 -0.47135333251E+02  0.18247574609E+02  0.52183099952E+02  0.00000000000E+00 0.  1.
         11    1    3    3    0    0  0.10151866128E+03 -0.72163565794E+02  0.63341478457E+02  0.13973461171E+03  0.00000000000E+00 0. -1.
</event>
<event>
 7    1  0.6684706E-006  0.1089048E+03  0.7561462E-02  0.1262612E+00
         -2   -1    0    0    0  501 -0.00000000000E+00  0.00000000000E+00  0.16248516845E+03  0.16248516845E+03  0.00000000000E+00 0.  1.
          2   -1    0    0  501    0  0.00000000000E+00 -0.00000000000E+00 -0.82850289937E+02  0.82850289937E+02  0.00000000000E+00 0. -1.
         23    2    1    2    0    0 -0.29039630981E+02  0.35153452740E+02  0.35510429631E+02  0.10942000891E+03  0.92912229178E+02 0.  0.
          5    1    1    2  502    0  0.10138210467E+02 -0.73074797526E+02 -0.96690095691E+00  0.73899368349E+02  0.41800000000E+01 0. -1.
         -5    1    1    2    0  502  0.18901420515E+02  0.37921344786E+02  0.45091349838E+02  0.62016081125E+02  0.41800000000E+01 0.  1.
        -11    1    3    3    0    0 -0.25218239489E+02  0.65794289908E+02  0.14136067533E+02  0.71865684389E+02  0.00000000000E+00 0.  1.
         11    1    3    3    0    0 -0.38213914920E+01 -0.30640837168E+02  0.21374362099E+02  0.37554324523E+02  0.00000000000E+00 0. -1.
</event>
<event>
 7    1  0.6684706E-006  0.1544081E+03  0.7561462E-02  0.1195159E+00
         -1   -1    0    0    0  501 -0.00000000000E+00  0.00000000000E+00  0.46624280828E+03  0.46624280828E+03  0.00000000000E+00 0.  1.
          1   -1    0    0  501    0  0.00000000000E+00 -0.00000000000E+00 -0.56458398190E+02  0.56458398190E+02  0.00000000000E+00 0. -1.
         23    2    1    2    0    0  0.16941325766E+01  0.11944930111E+03  0.21546223076E+03  0.26254779489E+03  0.90754427417E+02 0.  0.
          5    1    1    2  502    0  0.37641707705E+02 -0.12320699561E+03  0.12118157209E+03  0.17691610368E+03  0.41800000000E+01 0. -1.
         -5    1    1    2    0  502 -0.39335840282E+02  0.37576944993E+01  0.73140607240E+02  0.83237307898E+02  0.41800000000E+01 0. -1.
        -11    1    3    3    0    0  0.15691037628E+02 -0.37984433079E+01  0.67823960958E+02  0.69718910731E+02  0.00000000000E+00 0.  1.
         11    1    3    3    0    0 -0.13996905052E+02  0.12324774442E+03  0.14763826980E+03  0.19282888416E+03  0.00000000000E+00 0. -1.
</event>
<event>
 7    1  0.6684706E-006  0.1198769E+03  0.7561462E-02  0.1243300E+00
         -1   -1    0    0    0  501 -0.00000000000E+00  0.00000000000E+00  0.11427336801E+03  0.11427336801E+03  0.00000000000E+00 0.  1.
          1   -1    0    0  501    0  0.00000000000E+00 -0.00000000000E+00 -0.24800593712E+03  0.24800593712E+03  0.00000000000E+00 0. -1.
         23    2    1    2    0    0  0.30349056065E+02 -0.98699968133E+02  0.19716333494E+02  0.13899190869E+03  0.90924517934E+02 0.  0.
          5    1    1    2  502    0  0.29296183149E+02  0.14940066839E+02  0.58257939043E+01  0.33658345456E+02  0.41800000000E+01 0.  1.
         -5    1    1    2    0  502 -0.59645239214E+02  0.83759901294E+02 -0.15927469652E+03  0.18962905098E+03  0.41800000000E+01 0.  1.
        -11    1    3    3    0    0  0.27729234189E+02 -0.77120349342E+02 -0.27961133943E+02  0.86592630880E+02  0.00000000000E+00 0. -1.
         11    1    3    3    0    0  0.26198218762E+01 -0.21579618791E+02  0.47677467437E+02  0.52399277811E+02  0.00000000000E+00 0.  1.
</event>
<event>
 7    1  0.6684706E-006  0.8522865E+02  0.7561462E-02  0.1314836E+00
         -1   -1    0    0    0  501 -0.00000000000E+00  0.00000000000E+00  0.92343057276E+02  0.92343057276E+02  0.00000000000E+00 0.  1.
          1   -1    0    0  501    0  0.00000000000E+00 -0.00000000000E+00 -0.19892890831E+03  0.19892890831E+03  0.00000000000E+00 0. -1.
         23    2    1    2    0    0  0.36085035072E+02 -0.20436059522E+02  0.28365716594E+02  0.10264535596E+03  0.89508060744E+02 0.  0.
          5    1    1    2  502    0 -0.67801589089E+02 -0.22350276049E+02 -0.10598622321E+03  0.12785594328E+03  0.41800000000E+01 0. -1.
         -5    1    1    2    0  502  0.31716554017E+02  0.42786335571E+02 -0.28965344425E+02  0.60770666344E+02  0.41800000000E+01 0. -1.
        -11    1    3    3    0    0  0.18423229413E+02 -0.20890071364E+02  0.60147044076E+02  0.66283311434E+02  0.00000000000E+00 0.  1.
         11    1    3    3    0    0  0.17661805659E+02  0.45401184292E+00 -0.31781327482E+02  0.36362044530E+02  0.00000000000E+00 0. -1.
</event>
<event>
 7    1  0.6684706E-006  0.1085080E+03  0.7561462E-02  0.1263358E+00
          1   -1    0    0  501    0  0.00000000000E+00  0.00000000000E+00  0.21311184527E+03  0.21311184527E+03  0.00000000000E+00 0. -1.
         -1   -1    0    0    0  501 -0.00000000000E+00 -0.00000000000E+00 -0.77481870118E+02  0.77481870118E+02  0.00000000000E+00 0.  1.
         23    2    1    2    0    0  0.11001010988E+02 -0.66966769773E+02  0.50621492567E+02  0.12482152166E+03  0.91718625498E+02 0.  0.
          5    1    1    2  502    0 -0.23779428746E+01  0.88522753869E+02  0.10315061982E+03  0.13601270284E+03  0.41800000000E+01 0. -1.
         -5    1    1    2    0  502 -0.86230681135E+01 -0.21555984096E+02 -0.18142137240E+02  0.29759490884E+02  0.41800000000E+01 0. -1.
        -11    1    3    3    0    0 -0.66282051112E+01 -0.81595538479E+02  0.16165483221E+02  0.83445118794E+02  0.00000000000E+00 0.  1.
         11    1    3    3    0    0  0.17629216099E+02  0.14628768706E+02  0.34456009345E+02  0.41376402866E+02  0.00000000000E+00 0. -1.
</event>
<event>
 7    1  0.6684706E-006  0.5207124E+02  0.7561462E-02  0.1434480E+00
          2   -1    0    0  501    0  0.00000000000E+00  0.00000000000E+00  0.56042003799E+02  0.56042003799E+02  0.00000000000E+00 0. -1.
         -2   -1    0    0    0  501 -0.00000000000E+00 -0.00000000000E+00 -0.27648768982E+03  0.27648768982E+03  0.00000000000E+00 0.  1.
         23    2    1    2    0    0  0.15103345573E+01 -0.83836621591E+01 -0.17534049067E+03  0.19927915589E+03  0.94315043340E+02 0.  0.
          5    1    1    2  502    0 -0.93980103408E+01  0.10986605296E+02  0.42534695306E+02  0.45118741107E+02  0.41800000000E+01 0. -1.
         -5    1    1    2    0  502  0.78876757834E+01 -0.26029431371E+01 -0.87639890653E+02  0.88131796622E+02  0.41800000000E+01 0. -1.
        -11    1    3    3    0    0  0.40227592327E+02 -0.23376514545E+00 -0.14184457883E+03  0.14743879535E+03  0.00000000000E+00 0. -1.
         11    1    3    3    0    0 -0.38717257770E+02 -0.81498970137E+01 -0.33495911841E+02  0.51840360537E+02  0.00000000000E+00 0.  1.
</event>
<event>
 7    1  0.6684706E-006  0.1139120E+03  0.7561462E-02  0.1253492E+00
          2   -1    0    0  501    0  0.00000000000E+00  0.00000000000E+00  0.34705580858E+03  0.34705580858E+03  0.00000000000E+00 0. -1.
         -2   -1    0    0    0  501 -0.00000000000E+00 -0.00000000000E+00 -0.46152409197E+02  0.46152409197E+02  0.00000000000E+00 0.  1.
         23    2    1    2    0    0  0.19707753888E+02  0.60079482843E+02  0.10980485391E+03  0.15621851860E+03  0.91373846305E+02 0.  0.
          5    1    1    2  502    0 -0.51282782976E+02 -0.82238174728E+02  0.16065609425E+03  0.18767230545E+03  0.41800000000E+01 0.  1.
         -5    1    1    2    0  502  0.31575029088E+02  0.22158691886E+02  0.30442451222E+02  0.49317393730E+02  0.41800000000E+01 0.  1.
        -11    1    3    3    0    0 -0.19165412017E+02  0.47398570185E+02  0.15490259250E+02  0.53421770890E+02  0.00000000000E+00 0.  1.
         11    1    3    3    0    0  0.38873165905E+02  0.12680912657E+02  0.94314594662E+02  0.10279674771E+03  0.00000000000E+00 0. -1.
</event>
<event>
 7    1  0.6684706E-006  0.1361722E+03  0.7561462E-02  0.1218574E+00
          2   -1    0    0  501    0  0.00000000000E+00  0.00000000000E+00  0.64605363998E+03  0.64605363998E+03  0.00000000000E+00 0.  1.
         -2   -1    0    0    0  501 -0.00000000000E+00 -0.00000000000E+00 -0.46601704501E+02  0.46601704501E+02  0.00000000000E+00 0. -1.
         23    2    1    2    0    0 -0.88583139954E+02 -0.17742664944E+02  0.81565109814E+02  0.15227045258E+03  0.91496714404E+02 0.  0.
          5    1    1    2  502    0  0.71854994506E+02 -0.47182036241E+02  0.32185880667E+03  0.33316639778E+03  0.41800000000E+01 0.  1.
         -5    1    1    2    0  502  0.16728145448E+02  0.64924701185E+02  0.19602801899E+03  0.20721849411E+03  0.41800000000E+01 0.  1.
        -11    1    3    3    0    0 -0.51528619396E+02 -0.48640874231E+02  0.75664863749E+02  0.10366438573E+03  0.00000000000E+00 0.  1.
         11    1    3    3    0    0 -0.37054520558E+02  0.30898209287E+02  0.59002460648E+01  0.48606066850E+02  0.00000000000E+00 0. -1.
</event>
<event>
 7    1  0.6684706E-006  0.1528512E+03  0.7561462E-02  0.1197013E+00
          1   -1    0    0  501    0  0.00000000000E+00  0.00000000000E+00  0.10696690654E+04  0.10696690654E+04  0.00000000000E+00 0. -1.
         -1   -1    0    0    0  501 -0.00000000000E+00 -0.00000000000E+00 -0.75111343903E+02  0.75111343903E+02  0.00000000000E+00 0.  1.
         23    2    1    2    0    0 -0.11242400461E+03 -0.60779871347E+02  0.24756302859E+02  0.15862888320E+03  0.90647109618E+02 0.  0.
          5    1    1    2  502    0  0.76752148725E+01 -0.33618889657E+02  0.27402875204E+03  0.27622159222E+03  0.41800000000E+01 0. -1.
         -5    1    1    2    0  502  0.10474878974E+03  0.94398761004E+02  0.69577266657E+03  0.70992993385E+03  0.41800000000E+01 0. -1.
        -11    1    3    3    0    0 -0.75023997021E+02 -0.52559220488E+02 -0.25838072722E+02  0.95177086472E+02  0.00000000000E+00 0. -1.
         11    1    3    3    0    0 -0.37400007587E+02 -0.82206508591E+01  0.50594375581E+02  0.63451796732E+02  0.00000000000E+00 0.  1.
</event>
<event>
 7    1  0.6684706E-006  0.1853010E+03  0.7561462E-02  0.1162769E+00
          1   -1    0    0  501    0  0.00000000000E+00  0.00000000000E+00  0.95978666250E+03  0.95978666250E+03  0.00000000000E+00 0. -1.
         -1   -1    0    0    0  501 -0.00000000000E+00 -0.00000000000E+00 -0.50480891342E+02  0.50480891342E+02  0.00000000000E+00 0.  1.
         23    2    1    2    0    0 -0.11249204099E+03  0.13767404662E+03  0.27710571123E+03  0.34173650568E+03  0.91584178327E+02 0.  0.
          5    1    1    2  502    0  0.15804031188E+02 -0.36464424754E+00  0.21761117813E+01  0.16495703371E+02  0.41800000000E+01 0. -1.
         -5    1    1    2    0  502  0.96688009804E+02 -0.13730940237E+03  0.63002394814E+03  0.65203534478E+03  0.41800000000E+01 0. -1.
        -11    1    3    3    0    0 -0.83788903644E+02  0.58893017536E+02  0.88588406678E+02  0.13541371306E+03  0.00000000000E+00 0. -1.
         11    1    3    3    0    0 -0.28703137348E+02  0.78781029081E+02  0.18851730456E+03  0.20632279262E+03  0.00000000000E+00 0.  1.
</event>
<event>
 7    1  0.6684706E-006  0.1126655E+03  0.7561462E-02  0.1255712E+00
         -1   -1    0    0    0  501 -0.00000000000E+00  0.00000000000E+00  0.29616754062E+02  0.29616754062E+02  0.00000000000E+00 0.  1.
          1   -1    0    0  501    0  0.00000000000E+00 -0.00000000000E+00 -0.47325772621E+03  0.47325772621E+03  0.00000000000E+00 0. -1.
         23    2    1    2    0    0  0.42723332711E+02  0.75730112490E+01 -0.17604907900E+03  0.20822409652E+03  0.10237852557E+03 0.  0.
          5    1    1    2  502    0 -0.78814344522E+02 -0.51358940753E+01 -0.22563406911E+03  0.23909471733E+03  0.41800000000E+01 0. -1.
         -5    1    1    2    0  502  0.36091011811E+02 -0.24371171737E+01 -0.41957824040E+02  0.55555666424E+02  0.41800000000E+01 0.  1.
        -11    1    3    3    0    0 -0.15464485841E+02 -0.34641757968E+02 -0.76984686847E+02  0.85824493744E+02  0.00000000000E+00 0. -1.
         11    1    3    3    0    0  0.58187818551E+02  0.42214769217E+02 -0.99064392149E+02  0.12239960278E+03  0.00000000000E+00 0.  1.
</event>
<event>
 7    1  0.6684706E-006  0.8661489E+02  0.7561462E-02  0.1311263E+00
          1   -1    0    0  501    0  0.00000000000E+00  0.00000000000E+00  0.32082464910E+04  0.32082464910E+04  0.00000000000E+00 0. -1.
         -1   -1    0    0    0  501 -0.00000000000E+00 -0.00000000000E+00 -0.84856011580E+01  0.84856011580E+01  0.00000000000E+00 0.  1.
         23    2    1    2    0    0 -0.39096490754E+02  0.47626169489E+02  0.44407626877E+03  0.45752170273E+03  0.91244662168E+02 0.  0.
          5    1    1    2  502    0  0.39660184836E+02 -0.30960392900E+02  0.36619553064E+03  0.36965945849E+03  0.41800000000E+01 0. -1.
         -5    1    1    2    0  502 -0.56369408242E+00 -0.16665776589E+02  0.23894890904E+04  0.23895509309E+04  0.41800000000E+01 0. -1.
        -11    1    3    3    0    0 -0.22720686150E+02  0.72384939878E+02  0.37040673017E+03  0.37809648881E+03  0.00000000000E+00 0. -1.
         11    1    3    3    0    0 -0.16375804603E+02 -0.24758770388E+02  0.73669538600E+02  0.79425213913E+02  0.00000000000E+00 0.  1.
</event>
<event>
 7    1  0.6684706E-006  0.1055422E+03  0.7561462E-02  0.1269055E+00
          2   -1    0    0  501    0  0.00000000000E+00  0.00000000000E+00  0.50943610205E+03  0.50943610205E+03  0.00000000000E+00 0. -1.
         -2   -1    0    0    0  501 -0.00000000000E+00 -0.00000000000E+00 -0.37222702589E+02  0.37222702589E+02  0.00000000000E+00 0.  1.
         23    2    1    2    0    0 -0.60405135002E+02  0.19635877876E+02  0.10190251513E+03  0.15066339624E+03  0.90999935935E+02 0.  0.
          5    1    1    2  502    0 -0.24695580882E+02 -0.37103871696E+02  0.67929033433E+02  0.81353518628E+02  0.41800000000E+01 0. -1.
         -5    1    1    2    0  502  0.85100715884E+02  0.17467993821E+02  0.30238185090E+03  0.31464188978E+03  0.41800000000E+01 0. -1.
        -11    1    3    3    0    0 -0.47868207461E+02 -0.84289074723E+01  0.48340202208E+01  0.48844442040E+02  0.00000000000E+00 0.  1.
         11    1    3    3    0    0 -0.12536927541E+02  0.28064785348E+02  0.97068494913E+02  0.10181895420E+03  0.00000000000E+00 0. -1.
</event>
<event>
 7    1  0.6684706E-006  0.1049041E+03  0.7561462E-02  0.1270309E+00
          1   -1    0    0  501    0  0.00000000000E+00  0.00000000000E+00  0.13991355197E+04  0.13991355197E+04  0.00000000000E+00 0. -1.
         -1   -1    0    0    0  501 -0.00000000000E+00 -0.00000000000E+00 -0.17450234094E+02  0.17450234094E+02  0.00000000000E+00 0.  1.
         23    2    1    2    0    0 -0.37973585586E+02  0.20371750546E+02  0.17365770611E+03  0.20133414578E+03  0.92311634943E+02 0.  0.
          5    1    1    2  502    0  0.78445479839E+02 -0.30319287530E+02  0.96255929068E+03  0.96623538177E+03  0.41800000000E+01 0. -1.
         -5    1    1    2    0  502 -0.40471894253E+02  0.99475369837E+01  0.24546828879E+03  0.24901622622E+03  0.41800000000E+01 0. -1.
        -11    1    3    3    0    0 -0.39554384010E+02  0.44499916580E+02  0.57798538839E+02  0.82978689806E+02  0.00000000000E+00 0.  1.
         11    1    3    3    0    0  0.15807984237E+01 -0.24128166034E+02  0.11585916727E+03  0.11835545598E+03  0.00000000000E+00 0. -1.
</event>
<event>
 7    1  0.6684706E-006  0.2644035E+03  0.7561462E-02  0.1104526E+00
         -2   -1    0    0    0  501 -0.00000000000E+00  0.00000000000E+00  0.78910204528E+02  0.78910204528E+02  0.00000000000E+00 0.  1.
          2   -1    0    0  501    0  0.00000000000E+00 -0.00000000000E+00 -0.11844165445E+04  0.11844165445E+04  0.00000000000E+00 0. -1.
         23    2    1    2    0    0 -0.25513355635E+03 -0.36763828698E+02 -0.28771178027E+03  0.39679543561E+03  0.90685382163E+02 0.  0.
          5    1    1    2  502    0  0.83517767102E+02  0.64759748981E+01 -0.11436048606E+03  0.14182012849E+03  0.41800000000E+01 0. -1.
         -5    1    1    2    0  502  0.17161578925E+03  0.30287853800E+02 -0.70343407364E+03  0.72471118493E+03  0.41800000000E+01 0. -1.
        -11    1    3    3    0    0 -0.92073914600E+02 -0.53848117172E+02 -0.14088399362E+03  0.17670745636E+03  0.00000000000E+00 0.  1.
         11    1    3    3    0    0 -0.16305964175E+03  0.17084288474E+02 -0.14682778665E+03  0.22008797925E+03  0.00000000000E+00 0. -1.
</event>
<event>
 7    1  0.6684706E-006  0.1903341E+03  0.7561462E-02  0.1158160E+00
          2   -1    0    0  501    0  0.00000000000E+00  0.00000000000E+00  0.20196730509E+04  0.20196730509E+04  0.00000000000E+00 0. -1.
         -2   -1    0    0    0  501 -0.00000000000E+00 -0.00000000000E+00 -0.23349007241E+02  0.23349007241E+02  0.00000000000E+00 0.  1.
         23    2    1    2    0    0  0.11021062393E+02  0.18140833572E+03  0.75564346617E+03  0.78287648951E+03  0.94170599349E+02 0.  0.
          5    1    1    2  502    0  0.29838776437E+02 -0.34895632968E+02  0.59477297487E+03  0.59655714044E+03  0.41800000000E+01 0. -1.
         -5    1    1    2    0  502 -0.40859838830E+02 -0.14651270275E+03  0.64590760260E+03  0.66358842816E+03  0.41800000000E+01 0. -1.
        -11    1    3    3    0    0 -0.35649963022E+01  0.62922507462E+02  0.11436388989E+03  0.13057967091E+03  0.00000000000E+00 0.  1.
         11    1    3    3    0    0  0.14586058695E+02  0.11848582826E+03  0.64127957628E+03  0.65229681861E+03  0.00000000000E+00 0. -1.
</event>
<event>
 7    1  0.6684706E-006  0.1553364E+03  0.7561462E-02  0.1194065E+00
          1   -1    0    0  501    0  0.00000000000E+00  0.00000000000E+00  0.90247623944E+02  0.90247623944E+02  0.00000000000E+00 0. -1.
         -1   -1    0    0    0  501 -0.00000000000E+00 -0.00000000000E+00 -0.33842455557E+03  0.33842455557E+03  0.00000000000E+00 0.  1.
         23    2    1    2    0    0  0.75236252456E+02 -0.11370425119E+03 -0.12298744249E+03  0.20526305779E+03  0.91748904414E+02 0.  0.
          5    1    1    2  502    0 -0.90220422971E+02  0.54431521450E+02 -0.29014460793E+02  0.10937013570E+03  0.41800000000E+01 0. -1.
         -5    1    1    2    0  502  0.14984170515E+02  0.59272729735E+02 -0.96175028350E+02  0.11403898603E+03  0.41800000000E+01 0. -1.
        -11    1    3    3    0    0  0.16761070391E+02 -0.67113234991E+02 -0.10167868087E+02  0.69917847028E+02  0.00000000000E+00 0. -1.
         11    1    3    3    0    0  0.58475182065E+02 -0.46591016195E+02 -0.11281957440E+03  0.13534521076E+03  0.00000000000E+00 0.  1.
</event>
<event>
 7    1  0.6684706E-006  0.1000397E+03  0.7561462E-02  0.1280213E+00
         -2   -1    0    0    0  501 -0.00000000000E+00  0.00000000000E+00  0.12906323454E+03  0.12906323454E+03  0.00000000000E+00 0.  1.
          2   -1    0    0  501    0  0.00000000000E+00 -0.00000000000E+00 -0.19753569589E+03  0.19753569589E+03  0.00000000000E+00 0. -1.
         23    2    1    2    0    0 -0.56997240512E+02  0.26778703354E+02  0.68414295527E+02  0.13076220419E+03  0.91937227678E+02 0.  0.
          5    1    1    2  502    0  0.70185775359E+02 -0.25644939486E+02 -0.19106710063E+02  0.77241470425E+02  0.41800000000E+01 0.  1.
         -5    1    1    2    0  502 -0.13188534848E+02 -0.11337638679E+01 -0.11778004681E+03  0.11859525580E+03  0.41800000000E+01 0.  1.
        -11    1    3    3    0    0 -0.80696676364E+02  0.32469045872E+02  0.55465216997E+02  0.10316289455E+03  0.00000000000E+00 0. -1.
         11    1    3    3    0    0  0.23699435853E+02 -0.56903425175E+01  0.12949078531E+02  0.27599309638E+02  0.00000000000E+00 0.  1.
</event>
<event>
 7    1  0.6684706E-006  0.1165370E+03  0.7561462E-02  0.1248922E+00
         -2   -1    0    0    0  501 -0.00000000000E+00  0.00000000000E+00  0.14698074821E+02  0.14698074821E+02  0.00000000000E+00 0. -1.
          2   -1    0    0  501    0  0.00000000000E+00 -0.00000000000E+00 -0.14166708196E+04  0.14166708196E+04  0.00000000000E+00 0.  1.
         23    2    1    2    0    0 -0.43016717873E+02  0.46861367209E+02 -0.28548614493E+03  0.30609732553E+03  0.90259669823E+02 0.  0.
          5    1    1    2  502    0  0.73898543144E+02 -0.62802317177E+02 -0.62003245949E+03  0.62758493364E+03  0.41800000000E+01 0.  1.
         -5    1    1    2    0  502 -0.30881825271E+02  0.15940949967E+02 -0.49645414035E+03  0.49768663523E+03  0.41800000000E+01 0.  1.
        -11    1    3    3    0    0 -0.97560904470E+01  0.63196110984E+02 -0.11453466204E+03  0.13117590691E+03  0.00000000000E+00 0. -1.
         11    1    3    3    0    0 -0.33260627426E+02 -0.16334743774E+02 -0.17095148289E+03  0.17492141862E+03  0.00000000000E+00 0.  1.
</event>
<event>
 7    1  0.6684706E-006  0.1161712E+03  0.7561462E-02  0.1249550E+00
         -2   -1    0    0    0  501 -0.00000000000E+00  0.00000000000E+00  0.17060320039E+03  0.17060320039E+03  0.00000000000E+00 0.  1.
          2   -1    0    0  501    0  0.00000000000E+00 -0.00000000000E+00 -0.93823321256E+02  0.93823321256E+02  0.00000000000E+00 0. -1.
         23    2    1    2    0    0 -0.33809989934E+02  0.52818005300E+02  0.53948421808E+02  0.12264630272E+03  0.90547370209E+02 0.  0.
          5    1    1    2  502    0  0.66823959296E+02 -0.73902730678E+02  0.23192288371E+02  0.10238364019E+03  0.41800000000E+01 0.  1.
         -5    1    1    2    0  502 -0.33013969362E+02  0.21084725378E+02 -0.36083104836E+00  0.39396578739E+02  0.41800000000E+01 0.  1.
        -11    1    3    3    0    0 -0.44529970561E+02  0.63848900012E+02  0.13022412677E+02  0.78925176862E+02  0.00000000000E+00 0. -1.
         11    1    3    3    0    0  0.10719980627E+02 -0.11030894711E+02  0.40926009131E+02  0.43721125856E+02  0.00000000000E+00 0.  1.
</event>
<event>
 7    1  0.6684706E-006  0.2238462E+03  0.7561462E-02  0.1131048E+00
         -2   -1    0    0    0  501 -0.00000000000E+00  0.00000000000E+00  0.55417618615E+02  0.55417618615E+02  0.00000000000E+00 0. -1.
          2   -1    0    0  501    0  0.00000000000E+00 -0.00000000000E+00 -0.11669302620E+04  0.11669302620E+04  0.00000000000E+00 0.  1.
         23    2    1    2    0    0  0.17511661369E+02 -0.20850877308E+03 -0.31460116281E+03  0.38897605923E+03  0.92444125136E+02 0.  0.
          5    1    1    2  502    0  0.43895839490E+02  0.13726301615E+03 -0.56436825888E+03  0.58249204660E+03  0.41800000000E+01 0.  1.
         -5    1    1    2    0  502 -0.61407500859E+02  0.71245756926E+02 -0.23254322173E+03  0.25087977482E+03  0.41800000000E+01 0.  1.
        -11    1    3    3    0    0  0.75496074112E+01 -0.13199832965E+03 -0.11590496132E+03  0.17582524182E+03  0.00000000000E+00 0. -1.
         11    1    3    3    0    0  0.99620539577E+01 -0.76510443432E+02 -0.19869620150E+03  0.21315081741E+03  0.00000000000E+00 0.  1.
</event>
<event>
 7    1  0.6684706E-006  0.1221540E+03  0.7561462E-02  0.1239585E+00
          1   -1    0    0  501    0  0.00000000000E+00  0.00000000000E+00  0.84607219746E+02  0.84607219746E+02  0.00000000000E+00 0. -1.
         -1   -1    0    0    0  501 -0.00000000000E+00 -0.00000000000E+00 -0.26377149843E+03  0.26377149843E+03  0.00000000000E+00 0.  1.
         23    2    1    2    0    0  0.61152401281E+02  0.57124155170E+02 -0.14924942763E+03  0.19493687860E+03  0.93392771151E+02 0.  0.
          5    1    1    2  502    0 -0.34439635393E+01 -0.85720709294E+02 -0.14843376005E+02  0.87164781294E+02  0.41800000000E+01 0.  1.
         -5    1    1    2    0  502 -0.57708437742E+02  0.28596554124E+02 -0.15071475045E+02  0.66277058281E+02  0.41800000000E+01 0.  1.
        -11    1    3    3    0    0  0.59960503875E+02  0.30586287715E+02 -0.31661613912E+02  0.74385756813E+02  0.00000000000E+00 0.  1.
         11    1    3    3    0    0  0.11918974060E+01  0.26537867455E+02 -0.11758781372E+03  0.12055112178E+03  0.00000000000E+00 0. -1.
</event>
<event>
 7    1  0.6684706E-006  0.9149491E+02  0.7561462E-02  0.1299271E+00
          1   -1    0    0  501    0  0.00000000000E+00  0.00000000000E+00  0.15236538704E+03  0.15236538704E+03  0.00000000000E+00 0. -1.
         -1   -1    0    0    0  501 -0.00000000000E+00 -0.00000000000E+00 -0.82093657217E+02  0.82093657217E+02  0.00000000000E+00 0.  1.
         23    2    1    2    0    0  0.15178714829E+02 -0.32345268078E+01  0.25425598133E+02  0.10067230131E+03  0.96164419948E+02 0.  0.
          5    1    1    2  502    0 -0.21265115223E+02  0.41421599872E+02  0.72357874356E+02  0.86145739551E+02  0.41800000000E+01 0.  1.
         -5    1    1    2    0  502  0.60864003948E+01 -0.38187073065E+02 -0.27511742671E+02  0.47641003388E+02  0.41800000000E+01 0.  1.
        -11    1    3    3    0    0 -0.41050047313E+02 -0.53824180530E+00  0.12494854919E+02  0.42912905846E+02  0.00000000000E+00 0.  1.
         11    1    3    3    0    0  0.56228762142E+02 -0.26962850025E+01  0.12930743214E+02  0.57759395468E+02  0.00000000000E+00 0. -1.
</event>
<event>
 7    1  0.6684706E-006  0.1265677E+03  0.7561462E-02  0.1232639E+00
         -2   -1    0    0    0  501 -0.00000000000E+00  0.00000000000E+00  0.20970877170E+02  0.20970877170E+02  0.00000000000E+00 0.  1.
          2   -1    0    0  501    0  0.00000000000E+00 -0.00000000000E+00 -0.14279565282E+04  0.14279565282E+04  0.00000000000E+00 0. -1.
         23    2    1    2    0    0 -0.70552588367E+02 -0.53182282871E+02 -0.22869675425E+03  0.26072791359E+03  0.88717622737E+02 0.  0.
          5    1    1    2  502    0  0.95024175405E+02  0.89556004507E+01 -0.92228224984E+03  0.92721724394E+03  0.41800000000E+01 0.  1.
         -5    1    1    2    0  502 -0.24471587038E+02  0.44226682421E+02 -0.25600664697E+03  0.26098224787E+03  0.41800000000E+01 0.  1.
        -11    1    3    3    0    0 -0.18711326544E+01  0.12028221715E+02  0.10579789311E+01  0.12218779581E+02  0.00000000000E+00 0.  1.
         11    1    3    3    0    0 -0.68681455713E+02 -0.65210504586E+02 -0.22975473318E+03  0.24850913401E+03  0.00000000000E+00 0. -1.
</event>
<event>
 7    1  0.6684706E-006  0.1541712E+03  0.7561462E-02  0.1195439E+00
          2   -1    0    0  501    0  0.00000000000E+00  0.00000000000E+00  0.22458308802E+03  0.22458308802E+03  0.00000000000E+00 0. -1.
         -2   -1    0    0    0  501 -0.00000000000E+00 -0.00000000000E+00 -0.20007114387E+03  0.20007114387E+03  0.00000000000E+00 0.  1.
         23    2    1    2    0    0 -0.35065871370E+02  0.19180597288E+02 -0.10925432698E+03  0.14916930211E+03  0.93367350182E+02 0.  0.
          5    1    1    2  502    0 -0.62077694938E+02 -0.95497807050E+02  0.86759524568E+02  0.14324161010E+03  0.41800000000E+01 0. -1.
         -5    1    1    2    0  502  0.97143566307E+02  0.76317209762E+02  0.47006746556E+02  0.13224331969E+03  0.41800000000E+01 0.  1.
        -11    1    3    3    0    0 -0.26075599434E+02 -0.18530733991E+02  0.12987052012E+01  0.32015802711E+02  0.00000000000E+00 0.  1.
         11    1    3    3    0    0 -0.89902719361E+01  0.37711331278E+02 -0.11055303218E+03  0.11715349939E+03  0.00000000000E+00 0. -1.
</event>
<event>
 7    1  0.6684706E-006  0.1307628E+03  0.7561462E-02  0.1226328E+00
          2   -1    0    0  501    0  0.00000000000E+00  0.00000000000E+00  0.16036160753E+03  0.16036160753E+03  0.00000000000E+00 0. -1.
         -2   -1    0    0    0  501 -0.00000000000E+00 -0.00000000000E+00 -0.16142673993E+03  0.16142673993E+03  0.00000000000E+00 0.  1.
         23    2    1    2    0    0  0.10192859997E+03  0.18394741601E+02 -0.58201588832E+02  0.14962804400E+03  0.90957795691E+02 0.  0.
          5    1    1    2  502    0 -0.10243767940E+03  0.23290416992E+01  0.87739510503E+02  0.13496146376E+03  0.41800000000E+01 0.  1.
         -5    1    1    2    0  502  0.50907942725E+00 -0.20723783300E+02 -0.30603054073E+02  0.37198839696E+02  0.41800000000E+01 0.  1.
        -11    1    3    3    0    0  0.47683057770E+02 -0.36956807956E+02 -0.24356170487E+02  0.65059224507E+02  0.00000000000E+00 0. -1.
         11    1    3    3    0    0  0.54245542204E+02  0.55351549557E+02 -0.33845418345E+02  0.84568819492E+02  0.00000000000E+00 0.  1.
</event>
<event>
 7    1  0.6684706E-006  0.9683496E+02  0.7561462E-02  0.1287096E+00
         -2   -1    0    0    0  501 -0.00000000000E+00  0.00000000000E+00  0.13218698741E+03  0.13218698741E+03  0.00000000000E+00 0. -1.
          2   -1    0    0  501    0  0.00000000000E+00 -0.00000000000E+00 -0.11475974526E+03  0.11475974526E+03  0.00000000000E+00 0.  1.
         23    2    1    2    0    0 -0.19305163826E+02 -0.49110774385E+02  0.32012442138E+02  0.11039598553E+03  0.91530976491E+02 0.  0.
          5    1    1    2  502    0 -0.50733320662E+02  0.33652303528E+02 -0.20716575056E+02  0.64443744772E+02  0.41800000000E+01 0. -1.
         -5    1    1    2    0  502  0.70038484488E+02  0.15458470857E+02  0.61313750645E+01  0.72107002371E+02  0.41800000000E+01 0. -1.
        -11    1    3    3    0    0 -0.27301082113E+02 -0.33114533598E+02  0.62045071451E+02  0.75442112320E+02  0.00000000000E+00 0. -1.
         11    1    3    3    0    0  0.79959182867E+01 -0.15996240787E+02 -0.30032629313E+02  0.34953873205E+02  0.00000000000E+00 0.  1.
</event>
<event>
 7    1  0.6684706E-006  0.1320904E+03  0.7561462E-02  0.1224387E+00
          2   -1    0    0  501    0  0.00000000000E+00  0.00000000000E+00  0.33112312824E+03  0.33112312824E+03  0.00000000000E+00 0. -1.
         -2   -1    0    0    0  501 -0.00000000000E+00 -0.00000000000E+00 -0.73232261413E+02  0.73232261413E+02  0.00000000000E+00 0.  1.
         23    2    1    2    0    0 -0.40945553964E+01  0.11102312702E+03  0.12037311773E+03  0.18779230625E+03  0.91833341969E+02 0.  0.
          5    1    1    2  502    0  0.48975964251E+02 -0.79788797881E+02  0.34509130928E+02  0.99866159729E+02  0.41800000000E+01 0.  1.
         -5    1    1    2    0  502 -0.44881408855E+02 -0.31234329142E+02  0.10300861817E+03  0.11669692367E+03  0.41800000000E+01 0.  1.
        -11    1    3    3    0    0 -0.18166808517E+02  0.58968078416E+02  0.68109064391E+01  0.62077819310E+02  0.00000000000E+00 0.  1.
         11    1    3    3    0    0  0.14072253121E+02  0.52055048608E+02  0.11356221130E+03  0.12571448694E+03  0.00000000000E+00 0. -1.
</event>
<event>
 7    1  0.6684706E-006  0.1978143E+03  0.7561462E-02  0.1151596E+00
          2   -1    0    0  501    0  0.00000000000E+00  0.00000000000E+00  0.63516100754E+03  0.63516100754E+03  0.00000000000E+00 0. -1.
         -2   -1    0    0    0  501 -0.00000000000E+00 -0.00000000000E+00 -0.68882304310E+02  0.68882304310E+02  0.00000000000E+00 0.  1.
         23    2    1    2    0    0 -0.16652450922E+03 -0.59335574938E+02  0.23249238410E+03  0.30616089016E+03  0.91818622129E+02 0.  0.
          5    1    1    2  502    0  0.17059385466E+03  0.69888527827E+02  0.33806551492E+03  0.38508756711E+03  0.41800000000E+01 0. -1.
         -5    1    1    2    0  502 -0.40693454401E+01 -0.10552952890E+02 -0.42791957929E+01  0.12794854577E+02  0.41800000000E+01 0. -1.
        -11    1    3    3    0    0  0.84174323718E+01 -0.17312170495E+02  0.20822386447E+02  0.28357295223E+02  0.00000000000E+00 0.  1.
         11    1    3    3    0    0 -0.17494194159E+03 -0.42023404443E+02  0.21166999766E+03  0.27780359493E+03  0.00000000000E+00 0. -1.
</event>
<event>
 7    1  0.6684706E-006  0.9084036E+02  0.7561462E-02  0.1300829E+00
         -2   -1    0    0    0  501 -0.00000000000E+00  0.00000000000E+00  0.35449522563E+02  0.35449522563E+02  0.00000000000E+00 0.  1.
          2   -1    0    0  501    0  0.00000000000E+00 -0.00000000000E+00 -0.40491094948E+03  0.40491094948E+03  0.00000000000E+00 0. -1.
         23    2    1    2    0    0 -0.23462066574E+02  0.44274996064E+02 -0.15170047633E+03  0.18427815176E+03  0.91840398816E+02 0.  0.
          5    1    1    2  502    0 -0.30499499227E+02 -0.26187511012E+02 -0.18687299077E+03  0.19119359891E+03  0.41800000000E+01 0. -1.
         -5    1    1    2    0  502  0.53961565801E+02 -0.18087485052E+02 -0.30887959823E+02  0.64888721371E+02  0.41800000000E+01 0. -1.
        -11    1    3    3    0    0  0.19892019860E+02  0.34395389458E+02 -0.18456745658E+02  0.43810806091E+02  0.00000000000E+00 0.  1.
         11    1    3    3    0    0 -0.43354086434E+02  0.98796066061E+01 -0.13324373067E+03  0.14046734567E+03  0.00000000000E+00 0. -1.
</event>
<event>
 7    1  0.6684706E-006  0.7392518E+02  0.7561462E-02  0.1347232E+00
         -1   -1    0    0    0  501 -0.00000000000E+00  0.00000000000E+00  0.14889055026E+02  0.14889055026E+02  0.00000000000E+00 0.  1.
          1   -1    0    0  501    0  0.00000000000E+00 -0.00000000000E+00 -0.99044828089E+03  0.99044828089E+03  0.00000000000E+00 0. -1.
         23    2    1    2    0    0  0.17635179917E+02 -0.78530313692E+01 -0.21730065754E+03  0.23658758174E+03  0.91550196023E+02 0.  0.
          5    1    1    2  502    0  0.70142479674E+01 -0.35738438449E+02 -0.62898582241E+03  0.63005323017E+03  0.41800000000E+01 0. -1.
         -5    1    1    2    0  502 -0.24649427884E+02  0.43591469818E+02 -0.12927274592E+03  0.13869652401E+03  0.41800000000E+01 0. -1.
        -11    1    3    3    0    0 -0.78641626930E+01  0.21005096780E+02 -0.80608947222E+01  0.23833530358E+02  0.00000000000E+00 0.  1.
         11    1    3    3    0    0  0.25499342610E+02 -0.28858128149E+02 -0.20923976282E+03  0.21275405138E+03  0.00000000000E+00 0. -1.
</event>
<event>
 7    1  0.6684706E-006  0.7985669E+02  0.7561462E-02  0.1329459E+00
          2   -1    0    0  501    0  0.00000000000E+00  0.00000000000E+00  0.85071051961E+03  0.85071051961E+03  0.00000000000E+00 0. -1.
         -2   -1    0    0    0  501 -0.00000000000E+00 -0.00000000000E+00 -0.23627541461E+02  0.23627541461E+02  0.00000000000E+00 0.  1.
         23    2    1    2    0    0 -0.76696803799E+01 -0.31066771173E+02  0.12331774452E+03  0.15505970484E+03  0.88387090033E+02 0.  0.
          5    1    1    2  502    0  0.58484463997E+01 -0.31642500161E+02  0.57567371269E+03  0.57658750248E+03  0.41800000000E+01 0. -1.
         -5    1    1    2    0  502  0.18212339802E+01  0.62709271334E+02  0.12809152095E+03  0.14269085375E+03  0.41800000000E+01 0.  1.
        -11    1    3    3    0    0 -0.30808601685E+02 -0.26856278001E+02  0.13941259029E+02  0.43183194754E+02  0.00000000000E+00 0.  1.
         11    1    3    3    0    0  0.23138921305E+02 -0.42104931727E+01  0.10937648549E+03  0.11187651009E+03  0.00000000000E+00 0. -1.
</event>
<event>
 7    1  0.6684706E-006  0.7055710E+02  0.7561462E-02  0.1358209E+00
         -1   -1    0    0    0  501 -0.00000000000E+00  0.00000000000E+00  0.20845665694E+03  0.20845665694E+03  0.00000000000E+00 0.  1.
          1   -1    0    0  501    0  0.00000000000E+00 -0.00000000000E+00 -0.60670244204E+02  0.60670244204E+02  0.00000000000E+00 0. -1.
         23    2    1    2    0    0 -0.27810748858E+02  0.55161051679E+01  0.61546587286E+02  0.11456860471E+03  0.92380287999E+02 0.  0.
          5    1    1    2  502    0 -0.19806524106E+02  0.25101766081E+02 -0.17214002123E+02  0.36553950903E+02  0.41800000000E+01 0. -1.
         -5    1    1    2    0  502  0.47617272965E+02 -0.30617871249E+02  0.10345382757E+03  0.11800434553E+03  0.41800000000E+01 0. -1.
        -11    1    3    3    0    0  0.11442284743E+02  0.58417130328E+01 -0.20169197981E+02  0.23913344361E+02  0.00000000000E+00 0. -1.
         11    1    3    3    0    0 -0.39253033601E+02 -0.32560786494E+00  0.81715785268E+02  0.90655260351E+02  0.00000000000E+00 0.  1.
</event>
<event>
 7    1  0.6684706E-006  0.9528354E+02  0.7561462E-02  0.1290539E+00
         -1   -1    0    0    0  501 -0.00000000000E+00  0.00000000000E+00  0.13835858409E+03  0.13835858409E+03  0.00000000000E+00 0. -1.
          1   -1    0    0  501    0  0.00000000000E+00 -0.00000000000E+00 -0.12419317152E+03  0.12419317152E+03  0.00000000000E+00 0.  1.
         23    2    1    2    0    0 -0.59195802899E+02  0.17588033389E+02  0.45665746856E+02  0.11953327484E+03  0.91593456965E+02 0.  0.
          5    1    1    2  502    0  0.40515227477E+02 -0.59115005636E+02  0.19630119976E+02  0.74423662629E+02  0.41800000000E+01 0.  1.
         -5    1    1    2    0  502  0.18680575422E+02  0.41526972247E+02 -0.51130454261E+02  0.68594818135E+02  0.41800000000E+01 0.  1.
        -11    1    3    3    0    0 -0.15792409428E+02  0.24453063570E+02  0.65231111118E+02  0.71431438255E+02  0.00000000000E+00 0. -1.
         11    1    3    3    0    0 -0.43403393471E+02 -0.68650301806E+01 -0.19565364262E+02  0.48101836585E+02  0.00000000000E+00 0.  1.
</event>
<event>
 7    1  0.6684706E-006  0.1930565E+03  0.7561462E-02  0.1155733E+00
          2   -1    0    0  501    0  0.00000000000E+00  0.00000000000E+00  0.23402928614E+03  0.23402928614E+03  0.00000000000E+00 0. -1.
         -2   -1    0    0    0  501 -0.00000000000E+00 -0.00000000000E+00 -0.20489966843E+03  0.20489966843E+03  0.00000000000E+00 0.  1.
         23    2    1    2    0    0  0.15850662971E+03 -0.80639026908E+02 -0.51878067889E+02  0.20690187436E+03  0.92141453014E+02 0.  0.
          5    1    1    2  502    0 -0.68947027655E+01  0.26118515804E+02 -0.26674525535E+02  0.38193147376E+02  0.41800000000E+01 0. -1.
         -5    1    1    2    0  502 -0.15161192694E+03  0.54520511104E+02  0.10768221113E+03  0.19383393283E+03  0.41800000000E+01 0. -1.
        -11    1    3    3    0    0  0.58337383443E+02  0.13790529928E+02 -0.31569358625E+02  0.67749933038E+02  0.00000000000E+00 0.  1.
         11    1    3    3    0    0  0.10016924626E+03 -0.94429556836E+02 -0.20308709264E+02  0.13915194132E+03  0.00000000000E+00 0. -1.
</event>
<event>
 7    1  0.6684706E-006  0.1994355E+03  0.7561462E-02  0.1150216E+00
          1   -1    0    0  501    0  0.00000000000E+00  0.00000000000E+00  0.10649560165E+04  0.10649560165E+04  0.00000000000E+00 0. -1.
         -1   -1    0    0    0  501 -0.00000000000E+00 -0.00000000000E+00 -0.40160003148E+02  0.40160003148E+02  0.00000000000E+00 0.  1.
         23    2    1    2    0    0 -0.17484285177E+03  0.27675033183E+00  0.44853159931E+03  0.49005631559E+03  0.91676046299E+02 0.  0.
          5    1    1    2  502    0  0.14095063200E+02  0.34515151455E+02  0.43361215925E+02  0.57337892646E+02  0.41800000000E+01 0. -1.
         -5    1    1    2    0  502  0.16074778857E+03 -0.34791901787E+02  0.53290319814E+03  0.55772181143E+03  0.41800000000E+01 0. -1.
        -11    1    3    3    0    0 -0.10109797019E+03 -0.44607706586E+02  0.27039357447E+03  0.29210157853E+03  0.00000000000E+00 0. -1.
         11    1    3    3    0    0 -0.73744881586E+02  0.44884456917E+02  0.17813802484E+03  0.19795473707E+03  0.00000000000E+00 0.  1.
</event>
<event>
 7    1  0.6684706E-006  0.1171364E+03  0.7561462E-02  0.1247897E+00
          2   -1    0    0  501    0  0.00000000000E+00  0.00000000000E+00  0.15990644275E+03  0.15990644275E+03  0.00000000000E+00 0. -1.
         -2   -1    0    0    0  501 -0.00000000000E+00 -0.00000000000E+00 -0.10502214638E+03  0.10502214638E+03  0.00000000000E+00 0.  1.
         23    2    1    2    0    0  0.55681883753E+02 -0.45617556801E+02  0.82557515081E+01  0.11326367604E+03  0.87057849794E+02 0.  0.
          5    1    1    2  502    0 -0.93706448759E+02  0.18799266914E+02  0.19468741566E+02  0.97625894484E+02  0.41800000000E+01 0.  1.
         -5    1    1    2    0  502  0.38024565007E+02  0.26818289887E+02  0.27159803301E+02  0.54039018604E+02  0.41800000000E+01 0.  1.
        -11    1    3    3    0    0  0.65658775566E+02 -0.27455362879E+02 -0.23844297014E+02  0.75056127397E+02  0.00000000000E+00 0.  1.
         11    1    3    3    0    0 -0.99768918135E+01 -0.18162193921E+02  0.32100048522E+02  0.38207548645E+02  0.00000000000E+00 0. -1.
</event>
<event>
 7    1  0.6684706E-006  0.1051357E+03  0.7561462E-02  0.1269853E+00
          2   -1    0    0  501    0  0.00000000000E+00  0.00000000000E+00  0.11122808244E+03  0.11122808244E+03  0.00000000000E+00 0. -1.
         -2   -1    0    0    0  501 -0.00000000000E+00 -0.00000000000E+00 -0.11368357515E+03  0.11368357515E+03  0.00000000000E+00 0.  1.
         23    2    1    2    0    0 -0.21938605354E+02 -0.40932039297E+01 -0.16549350662E+02  0.97089549454E+02  0.93029258207E+02 0.  0.
          5    1    1    2  502    0  0.41587579336E+02  0.53479017770E+02 -0.11231073317E+02  0.68797830667E+02  0.41800000000E+01 0.  1.
         -5    1    1    2    0  502 -0.19648973982E+02 -0.49385813840E+02  0.25324931268E+02  0.59024277471E+02  0.41800000000E+01 0.  1.
        -11    1    3    3    0    0 -0.40151892340E+02 -0.34961772573E+02  0.77309249654E+01  0.53798394035E+02  0.00000000000E+00 0. -1.
         11    1    3    3    0    0  0.18213286986E+02  0.30868568644E+02 -0.24280275627E+02  0.43291155418E+02  0.00000000000E+00 0.  1.
</event>
<event>
 7    1  0.6684706E-006  0.1047649E+03  0.7561462E-02  0.1270584E+00
          2   -1    0    0  501    0  0.00000000000E+00  0.00000000000E+00  0.17955903656E+03  0.17955903656E+03  0.00000000000E+00 0. -1.
         -2   -1    0    0    0  501 -0.00000000000E+00 -0.00000000000E+00 -0.10039392291E+03  0.10039392291E+03  0.00000000000E+00 0.  1.
         23    2    1    2    0    0  0.45034103170E+02 -0.45805392454E+02 -0.15358361409E+02  0.11051757652E+03  0.88611799605E+02 0.  0.
          5    1    1    2  502    0 -0.76663469511E+02  0.26099075104E+01  0.23381486172E+02  0.80301092584E+02  0.41800000000E+01 0.  1.
         -5    1    1    2    0  502  0.31629366340E+02  0.43195484943E+02  0.71141988891E+02  0.89134290360E+02  0.41800000000E+01 0.  1.
        -11    1    3    3    0    0  0.47124649850E+02 -0.16955586118E+02  0.28767328470E+02  0.57756243917E+02  0.00000000000E+00 0. -1.
         11    1    3    3    0    0 -0.20905466803E+01 -0.28849806335E+02 -0.44125689879E+02  0.52761332606E+02  0.00000000000E+00 0.  1.
</event>
<event>
 7    1  0.6684706E-006  0.1228284E+03  0.7561462E-02  0.1238503E+00
          1   -1    0    0  501    0  0.00000000000E+00  0.00000000000E+00  0.84243007057E+03  0.84243007057E+03  0.00000000000E+00 0. -1.
         -1   -1    0    0    0  501 -0.00000000000E+00 -0.00000000000E+00 -0.25507438704E+02  0.25507438704E+02  0.00000000000E+00 0.  1.
         23    2    1    2    0    0  0.84199919115E+02 -0.23859854061E+02  0.24597061344E+03  0.27692781426E+03  0.92350163082E+02 0.  0.
          5    1    1    2  502    0 -0.50505530094E+02  0.58608515585E+02  0.16643882310E+03  0.18358954465E+03  0.41800000000E+01 0.  1.
         -5    1    1    2    0  502 -0.33694389021E+02 -0.34748661523E+02  0.40451319532E+03  0.40742015036E+03  0.41800000000E+01 0.  1.
        -11    1    3    3    0    0  0.84798043833E+02  0.10306607234E+02  0.21279726986E+03  0.22930244755E+03  0.00000000000E+00 0. -1.
         11    1    3    3    0    0 -0.59812471831E+00 -0.34166461295E+02  0.33173343581E+02  0.47625366717E+02  0.00000000000E+00 0.  1.
</event>
<event>
 7    1  0.6684706E-006  0.1036936E+03  0.7561462E-02  0.1272715E+00
          4   -1    0    0  501    0  0.00000000000E+00  0.00000000000E+00  0.19845400506E+04  0.19845400506E+04  0.00000000000E+00 0. -1.
         -4   -1    0    0    0  501 -0.00000000000E+00 -0.00000000000E+00 -0.11869346852E+02  0.11869346852E+02  0.00000000000E+00 0.  1.
         23    2    1    2    0    0  0.10380518523E+02 -0.25747877855E+02  0.23008356779E+03  0.24911809271E+03  0.91381987098E+02 0.  0.
          5    1    1    2  502    0 -0.57301588160E+02  0.36719058377E+02  0.13523968566E+04  0.13541146523E+04  0.41800000000E+01 0. -1.
         -5    1    1    2    0  502  0.46921069637E+02 -0.10971180522E+02  0.39019027933E+03  0.39317665248E+03  0.41800000000E+01 0. -1.
        -11    1    3    3    0    0 -0.37844373084E+02 -0.44130261846E+01  0.60252652091E+02  0.71288522626E+02  0.00000000000E+00 0. -1.
         11    1    3    3    0    0  0.48224891607E+02 -0.21334851670E+02  0.16983091570E+03  0.17782957008E+03  0.00000000000E+00 0.  1.
</event>
<event>
 7    1  0.6684706E-006  0.1503050E+03  0.7561462E-02  0.1200099E+00
         -3   -1    0    0    0  501 -0.00000000000E+00  0.00000000000E+00  0.67541187357E+02  0.67541187357E+02  0.00000000000E+00 0.  1.
          3   -1    0    0  501    0  0.00000000000E+00 -0.00000000000E+00 -0.41893465439E+03  0.41893465439E+03  0.00000000000E+00 0. -1.
         23    2    1    2    0    0  0.10065560643E+03  0.79467266012E+02 -0.15090311787E+03  0.21760740435E+03  0.90192205729E+02 0.  0.
          5    1    1    2  502    0 -0.10586779730E+03 -0.14428103989E+02 -0.15839044432E+03  0.19110511752E+03  0.41800000000E+01 0. -1.
         -5    1    1    2    0  502  0.52121908692E+01 -0.65039162024E+02 -0.42099904840E+02  0.77763319875E+02  0.41800000000E+01 0. -1.
        -11    1    3    3    0    0  0.28851591607E+02  0.24986775367E+02 -0.11398740256E+03  0.12020765876E+03  0.00000000000E+00 0. -1.
         11    1    3    3    0    0  0.71804014819E+02  0.54480490646E+02 -0.36915715307E+02  0.97399745594E+02  0.00000000000E+00 0.  1.
</event>
<event>
 7    1  0.6684706E-006  0.1076779E+03  0.7561462E-02  0.1264931E+00
         -2   -1    0    0    0  501 -0.00000000000E+00  0.00000000000E+00  0.15166845046E+02  0.15166845046E+02  0.00000000000E+00 0.  1.
          2   -1    0    0  501    0  0.00000000000E+00 -0.00000000000E+00 -0.12362100618E+04  0.12362100618E+04  0.00000000000E+00 0. -1.
         23    2    1    2    0    0 -0.67737459933E+02  0.17318332414E+02 -0.33547847024E+03  0.35449289914E+03  0.90725539016E+02 0.  0.
          5    1    1    2  502    0  0.86735971796E+02 -0.14185521320E+02 -0.34775659136E+03  0.35871503600E+03  0.41800000000E+01 0. -1.
         -5    1    1    2    0  502 -0.18998511863E+02 -0.31328110940E+01 -0.53780815515E+03  0.53816897170E+03  0.41800000000E+01 0.  1.
        -11    1    3    3    0    0 -0.64866725372E+01  0.41359173671E+02 -0.75641943023E+02  0.86454390934E+02  0.00000000000E+00 0.  1.
         11    1    3    3    0    0 -0.61250787396E+02 -0.24040841257E+02 -0.25983652722E+03  0.26803850821E+03  0.00000000000E+00 0. -1.
</event>
<event>
 7    1  0.6684706E-006  0.1092064E+03  0.7561462E-02  0.1262047E+00
         -3   -1    0    0    0  501 -0.00000000000E+00  0.00000000000E+00  0.53191236154E+03  0.53191236154E+03  0.00000000000E+00 0.  1.
          3   -1    0    0  501    0  0.00000000000E+00 -0.00000000000E+00 -0.27124908684E+02  0.27124908684E+02  0.00000000000E+00 0. -1.
         23    2    1    2    0    0 -0.12377276586E+02 -0.50385227624E+02  0.22960916682E+03  0.25234102628E+03  0.90905202921E+02 0.  0.
          5    1    1    2  502    0  0.99775250702E+01  0.87973784728E+02  0.23642256266E+03  0.25249165994E+03  0.41800000000E+01 0.  1.
         -5    1    1    2    0  502  0.23997515159E+01 -0.37588557104E+02  0.38755723382E+02  0.54204584007E+02  0.41800000000E+01 0.  1.
        -11    1    3    3    0    0 -0.35925724923E+02  0.37058144452E+00  0.36205014080E+02  0.51005863255E+02  0.00000000000E+00 0. -1.
         11    1    3    3    0    0  0.23548448337E+02 -0.50755809068E+02  0.19340415274E+03  0.20133516302E+03  0.00000000000E+00 0.  1.
</event>
<event>
 7    1  0.6684706E-006  0.1363552E+03  0.7561462E-02  0.1218319E+00
          1   -1    0    0  501    0  0.00000000000E+00  0.00000000000E+00  0.14955291725E+03  0.14955291725E+03  0.00000000000E+00 0. -1.
         -1   -1    0    0    0  501 -0.00000000000E+00 -0.00000000000E+00 -0.13884268514E+03  0.13884268514E+03  0.00000000000E+00 0.  1.
         23    2    1    2    0    0  0.22620488672E+02  0.86040416705E+02 -0.24428682665E+02  0.13093328430E+03  0.92909227663E+02 0.  0.
          5    1    1    2  502    0 -0.67428887127E+02 -0.14960401545E+02  0.12198193090E+02  0.70261915347E+02  0.41800000000E+01 0.  1.
         -5    1    1    2    0  502  0.44808398455E+02 -0.71080015160E+02  0.22940721689E+02  0.87200402745E+02  0.41800000000E+01 0.  1.
        -11    1    3    3    0    0  0.51798584359E+01 -0.15508690201E+02 -0.22582994698E+02  0.27880854626E+02  0.00000000000E+00 0. -1.
         11    1    3    3    0    0  0.17440630236E+02  0.10154910691E+03 -0.18456879673E+01  0.10305242967E+03  0.00000000000E+00 0.  1.
</event>
<event>
 7    1  0.6684706E-006  0.1293735E+03  0.7561462E-02  0.1228388E+00
          2   -1    0    0  501    0  0.00000000000E+00  0.00000000000E+00  0.17332583128E+04  0.17332583128E+04  0.00000000000E+00 0.  1.
         -2   -1    0    0    0  501 -0.00000000000E+00 -0.00000000000E+00 -0.24816120005E+02  0.24816120005E+02  0.00000000000E+00 0. -1.
         23    2    1    2    0    0  0.89905248401E+01  0.12809825676E+03  0.30128184858E+03  0.33954112694E+03  0.89595935602E+02 0.  0.
          5    1    1    2  502    0 -0.47342612462E+01 -0.10976726495E+02  0.80280226737E+03  0.80290214512E+03  0.41800000000E+01 0. -1.
         -5    1    1    2    0  502 -0.42562635939E+01 -0.11712153026E+03  0.60435807685E+03  0.61563116074E+03  0.41800000000E+01 0. -1.
        -11    1    3    3    0    0  0.11236708433E+02  0.10291606428E+03  0.29617587127E+03  0.31374850856E+03  0.00000000000E+00 0.  1.
         11    1    3    3    0    0 -0.22461835927E+01  0.25182192471E+02  0.51059773161E+01  0.25792618376E+02  0.00000000000E+00 0. -1.
</event>
<event>
 6    1  0.6684706E-006  0.1169137E+03  0.7561462E-02  0.1248277E+00
          1   -1    0    0  501    0  0.00000000000E+00  0.00000000000E+00  0.29028340381E+03  0.29028340381E+03  0.00000000000E+00 0.  1.
         -1   -1    0    0    0  501 -0.00000000000E+00 -0.00000000000E+00 -0.62494798555E+02  0.62494798555E+02  0.00000000000E+00 0. -1.
          5    1    1    2  502    0 -0.46121679421E+02 -0.27330405981E+01  0.54946314451E+01  0.46715545574E+02  0.41800000000E+01 0. -1.
         -5    1    1    2    0  502  0.47451326598E+02  0.46690282022E+02  0.11247838965E+03  0.13076877062E+03  0.41800000000E+01 0. -1.
        -11    1    1    2    0    0 -0.37345197329E+02  0.23599692144E+02  0.35454319448E+01  0.44319062721E+02  0.00000000000E+00 0. -1.
         11    1    1    2    0    0  0.36015550152E+02 -0.67556933568E+02  0.10627015221E+03  0.13097482345E+03  0.00000000000E+00 0.  1.
</event>
<event>
 7    1  0.6684706E-006  0.1778585E+03  0.7561462E-02  0.1169892E+00
          1   -1    0    0  501    0  0.00000000000E+00  0.00000000000E+00  0.37747433669E+03  0.37747433669E+03  0.00000000000E+00 0. -1.
         -1   -1    0    0    0  501 -0.00000000000E+00 -0.00000000000E+00 -0.10513786222E+03  0.10513786222E+03  0.00000000000E+00 0.  1.
         23    2    1    2    0    0 -0.13165591064E+02 -0.14883695442E+03  0.38580397517E+02  0.17828563954E+03  0.89283539378E+02 0.  0.
          5    1    1    2  502    0  0.25385849582E+02  0.16894375951E+03  0.20220088421E+03  0.26474347057E+03  0.41800000000E+01 0. -1.
         -5    1    1    2    0  502 -0.12220258518E+02 -0.20106805090E+02  0.31555192747E+02  0.39583088794E+02  0.41800000000E+01 0. -1.
        -11    1    3    3    0    0  0.20056073120E+02 -0.99147848021E+02 -0.94646996668E+01  0.10159784632E+03  0.00000000000E+00 0.  1.
         11    1    3    3    0    0 -0.33221664184E+02 -0.49689106398E+02  0.48045097184E+02  0.76687793222E+02  0.00000000000E+00 0. -1.
</event>
<event>
 7    1  0.6684706E-006  0.1131567E+03  0.7561462E-02  0.1254833E+00
         -2   -1    0    0    0  501 -0.00000000000E+00  0.00000000000E+00  0.40990548083E+02  0.40990548083E+02  0.00000000000E+00 0.  1.
          2   -1    0    0  501    0  0.00000000000E+00 -0.00000000000E+00 -0.54889252190E+03  0.54889252190E+03  0.00000000000E+00 0. -1.
         23    2    1    2    0    0 -0.89266083964E+02 -0.20896214470E+02 -0.17223724000E+03  0.22012144888E+03  0.10189553420E+03 0.  0.
          5    1    1    2  502    0  0.25960779648E+02  0.25208223157E+02 -0.28799151912E+03  0.29028607283E+03  0.41800000000E+01 0.  1.
         -5    1    1    2    0  502  0.63305304315E+02 -0.43120086871E+01 -0.47673214695E+02  0.79475548269E+02  0.41800000000E+01 0.  1.
        -11    1    3    3    0    0 -0.63951760848E+02 -0.54639065740E+02 -0.69677234800E+02  0.10922532797E+03  0.00000000000E+00 0.  1.
         11    1    3    3    0    0 -0.25314323115E+02  0.33742851270E+02 -0.10256000520E+03  0.11089612091E+03  0.00000000000E+00 0. -1.
</event>
<event>
 7    1  0.6684706E-006  0.1082359E+03  0.7561462E-02  0.1263872E+00
         -2   -1    0    0    0  501 -0.00000000000E+00  0.00000000000E+00  0.26381211415E+03  0.26381211415E+03  0.00000000000E+00 0.  1.
          2   -1    0    0  501    0  0.00000000000E+00 -0.00000000000E+00 -0.55164587843E+03  0.55164587843E+03  0.00000000000E+00 0. -1.
         23    2    1    2    0    0 -0.70890527664E+01  0.78960505869E+02  0.23910687220E+03  0.26832699916E+03  0.92424379843E+02 0.  0.
          5    1    1    2  502    0  0.52603135558E+02 -0.67356420955E+02 -0.21097978210E+03  0.22767063528E+03  0.41800000000E+01 0. -1.
         -5    1    1    2    0  502 -0.45514082791E+02 -0.11604084914E+02 -0.31596085437E+03  0.31946035813E+03  0.41800000000E+01 0.  1.
        -11    1    3    3    0    0 -0.17179298453E+02  0.57951920692E+02  0.23738256550E+03  0.24495721220E+03  0.00000000000E+00 0.  1.
         11    1    3    3    0    0  0.10090245686E+02  0.21008585177E+02  0.17243067074E+01  0.23369786964E+02  0.00000000000E+00 0. -1.
</event>
<event>
 7    1  0.6684706E-006  0.1064899E+03  0.7561462E-02  0.1267212E+00
         -1   -1    0    0    0  501 -0.00000000000E+00  0.00000000000E+00  0.16882283967E+03  0.16882283967E+03  0.00000000000E+00 0.  1.
          1   -1    0    0  501    0  0.00000000000E+00 -0.00000000000E+00 -0.70999893530E+02  0.70999893530E+02  0.00000000000E+00 0. -1.
         23    2    1    2    0    0  0.12863051267E+02  0.40769672580E+01  0.55175699406E+02  0.10697503130E+03  0.90648881771E+02 0.  0.
          5    1    1    2  502    0 -0.28266617643E+02 -0.60107646060E+02  0.14366268985E+02  0.68086657080E+02  0.41800000000E+01 0.  1.
         -5    1    1    2    0  502  0.15403566376E+02  0.56030678802E+02  0.28280977752E+02  0.64761044824E+02  0.41800000000E+01 0.  1.
        -11    1    3    3    0    0 -0.15604178776E+02 -0.35868212857E+02  0.39226493923E+02  0.55396181405E+02  0.00000000000E+00 0.  1.
         11    1    3    3    0    0  0.28467230043E+02  0.39945180115E+02  0.15949205483E+02  0.51578849893E+02  0.00000000000E+00 0. -1.
</event>
<event>
 7    1  0.6684706E-006  0.8703674E+02  0.7561462E-02  0.1310191E+00
         -3   -1    0    0    0  501 -0.00000000000E+00  0.00000000000E+00  0.11656512261E+03  0.11656512261E+03  0.00000000000E+00 0.  1.
          3   -1    0    0  501    0  0.00000000000E+00 -0.00000000000E+00 -0.12595127179E+03  0.12595127179E+03  0.00000000000E+00 0. -1.
         23    2    1    2    0    0 -0.12962047703E+01 -0.41947422424E+02  0.31045054296E+02  0.10451637136E+03  0.90546176574E+02 0.  0.
          5    1    1    2  502    0  0.15847119891E+02 -0.42030886713E+02 -0.42452726857E+01  0.45312485993E+02  0.41800000000E+01 0.  1.
         -5    1    1    2    0  502 -0.14550915121E+02  0.83978309137E+02 -0.36185930792E+02  0.92687537046E+02  0.41800000000E+01 0.  1.
        -11    1    3    3    0    0 -0.66355771469E+01 -0.24435292871E+02  0.62883311623E+02  0.67789566324E+02  0.00000000000E+00 0.  1.
         11    1    3    3    0    0  0.53393723767E+01 -0.17512129553E+02 -0.31838257327E+02  0.36726805041E+02  0.00000000000E+00 0. -1.
</event>
<event>
 7    1  0.6684706E-006  0.1305663E+03  0.7561462E-02  0.1226618E+00
         -2   -1    0    0    0  501 -0.00000000000E+00  0.00000000000E+00  0.41975629839E+02  0.41975629839E+02  0.00000000000E+00 0. -1.
          2   -1    0    0  501    0  0.00000000000E+00 -0.00000000000E+00 -0.55053357780E+03  0.55053357780E+03  0.00000000000E+00 0.  1.
         23    2    1    2    0    0  0.72061652892E+01  0.90696941797E+02 -0.12698240360E+03  0.18078745940E+03  0.91003904210E+02 0.  0.
          5    1    1    2  502    0  0.39735552492E+02 -0.97733427288E+02 -0.23590091911E+03  0.25845203226E+03  0.41800000000E+01 0. -1.
         -5    1    1    2    0  502 -0.46941717781E+02  0.70364854905E+01 -0.14567462525E+03  0.15326971599E+03  0.41800000000E+01 0. -1.
        -11    1    3    3    0    0  0.29778699809E+02  0.74160704102E+02 -0.13004611137E+03  0.15263869784E+03  0.00000000000E+00 0.  1.
         11    1    3    3    0    0 -0.22572534520E+02  0.16536237695E+02  0.30637077738E+01  0.28148761555E+02  0.00000000000E+00 0. -1.
</event>
<event>
 7    1  0.6684706E-006  0.1064925E+03  0.7561462E-02  0.1267207E+00
          2   -1    0    0  501    0  0.00000000000E+00  0.00000000000E+00  0.99683330518E+03  0.99683330518E+03  0.00000000000E+00 0. -1.
         -2   -1    0    0    0  501 -0.00000000000E+00 -0.00000000000E+00 -0.13240749982E+02  0.13240749982E+02  0.00000000000E+00 0.  1.
         23    2    1    2    0    0 -0.31573165412E+01  0.27870619834E+02  0.31367523106E+03  0.32800164681E+03  0.91685274900E+02 0.  0.
          5    1    1    2  502    0  0.89612939300E+01 -0.72085327899E+02  0.53475423889E+03  0.53968154285E+03  0.41800000000E+01 0.  1.
         -5    1    1    2    0  502 -0.58039773888E+01  0.44214708065E+02  0.13516308526E+03  0.14239086550E+03  0.41800000000E+01 0.  1.
        -11    1    3    3    0    0 -0.44631632258E+02 -0.14304230158E+01  0.13111993504E+03  0.13851521964E+03  0.00000000000E+00 0.  1.
         11    1    3    3    0    0  0.41474315717E+02  0.29301042850E+02  0.18255529602E+03  0.18948642717E+03  0.00000000000E+00 0. -1.
</event>
<event>
 7    1  0.6684706E-006  0.1221017E+03  0.7561462E-02  0.1239670E+00
          2   -1    0    0  501    0  0.00000000000E+00  0.00000000000E+00  0.14255504254E+03  0.14255504254E+03  0.00000000000E+00 0. -1.
         -2   -1    0    0    0  501 -0.00000000000E+00 -0.00000000000E+00 -0.12173691506E+03  0.12173691506E+03  0.00000000000E+00 0.  1.
         23    2    1    2    0    0 -0.57239959241E+02  0.35024481413E+02 -0.23195830983E+02  0.11566787613E+03  0.91312013243E+02 0.  0.
          5    1    1    2  502    0  0.73250544333E+02  0.23554133096E+02  0.41908511295E+02  0.87716789442E+02  0.41800000000E+01 0.  1.
         -5    1    1    2    0  502 -0.16010585092E+02 -0.58578614509E+02  0.21054471672E+01  0.60907292015E+02  0.41800000000E+01 0.  1.
        -11    1    3    3    0    0 -0.48389068568E+02  0.61560194023E+02  0.15548056365E+01  0.78317155627E+02  0.00000000000E+00 0. -1.
         11    1    3    3    0    0 -0.88508906735E+01 -0.26535712609E+02 -0.24750636619E+02  0.37350720508E+02  0.00000000000E+00 0.  1.
</event>
<event>
 7    1  0.6684706E-006  0.1198267E+03  0.7561462E-02  0.1243383E+00
         -3   -1    0    0    0  501 -0.00000000000E+00  0.00000000000E+00  0.10654864951E+03  0.10654864951E+03  0.00000000000E+00 0.  1.
          3   -1    0    0  501    0  0.00000000000E+00 -0.00000000000E+00 -0.18766512739E+03  0.18766512739E+03  0.00000000000E+00 0. -1.
         23    2    1    2    0    0 -0.71947513305E+02 -0.55151727618E+02 -0.13777374869E+02  0.12568996145E+03  0.85965066282E+02 0.  0.
          5    1    1    2  502    0 -0.32090239824E+02  0.84521708950E+01 -0.38148708581E+02  0.50734791329E+02  0.41800000000E+01 0.  1.
         -5    1    1    2    0  502  0.10403775313E+03  0.46699556723E+02 -0.29190394431E+02  0.11778902411E+03  0.41800000000E+01 0.  1.
        -11    1    3    3    0    0 -0.24277480572E+02 -0.28640753007E+02  0.35874696226E+02  0.51929592961E+02  0.00000000000E+00 0.  1.
         11    1    3    3    0    0 -0.47670032733E+02 -0.26510974611E+02 -0.49652071095E+02  0.73760368489E+02  0.00000000000E+00 0. -1.
</event>
<event>
 7    1  0.6684706E-006  0.1064179E+03  0.7561462E-02  0.1267351E+00
          1   -1    0    0  501    0  0.00000000000E+00  0.00000000000E+00  0.13436964885E+04  0.13436964885E+04  0.00000000000E+00 0. -1.
         -1   -1    0    0    0  501 -0.00000000000E+00 -0.00000000000E+00 -0.13344555986E+02  0.13344555986E+02  0.00000000000E+00 0.  1.
         23    2    1    2    0    0  0.26926039700E+02  0.37357536601E+02  0.25491848819E+03  0.27310332165E+03  0.86495037572E+02 0.  0.
          5    1    1    2  502    0 -0.63846726318E+02 -0.26299644577E+01  0.86805587816E+03  0.87041472942E+03  0.41800000000E+01 0. -1.
         -5    1    1    2    0  502  0.36920686618E+02 -0.34727572143E+02  0.20737756612E+03  0.21352299337E+03  0.41800000000E+01 0.  1.
        -11    1    3    3    0    0  0.32355185625E+02  0.63484734038E+02  0.18929290226E+03  0.20225966562E+03  0.00000000000E+00 0.  1.
         11    1    3    3    0    0 -0.54291459248E+01 -0.26127197438E+02  0.65625585931E+02  0.70843656034E+02  0.00000000000E+00 0. -1.
</event>
<event>
 7    1  0.6684706E-006  0.8449756E+02  0.7561462E-02  0.1316752E+00
          3   -1    0    0  501    0  0.00000000000E+00  0.00000000000E+00  0.40207834583E+03  0.40207834583E+03  0.00000000000E+00 0. -1.
         -3   -1    0    0    0  501 -0.00000000000E+00 -0.00000000000E+00 -0.43464759975E+02  0.43464759975E+02  0.00000000000E+00 0.  1.
         23    2    1    2    0    0  0.31360064477E+02  0.26242547048E+02  0.53335731132E+02  0.11310551784E+03  0.90972704867E+02 0.  0.
          5    1    1    2  502    0  0.13871661309E+01  0.44176622005E+02  0.17649016756E+03  0.18198832327E+03  0.41800000000E+01 0. -1.
         -5    1    1    2    0  502 -0.32747230608E+02 -0.70419169054E+02  0.12878768717E+03  0.15044926470E+03  0.41800000000E+01 0. -1.
        -11    1    3    3    0    0  0.38524634385E+01  0.17564518402E+02 -0.24331514064E+02  0.30255187289E+02  0.00000000000E+00 0.  1.
         11    1    3    3    0    0  0.27507601038E+02  0.86780286463E+01  0.77667245196E+02  0.82850330551E+02  0.00000000000E+00 0. -1.
</event>
<event>
 7    1  0.6684706E-006  0.2381309E+03  0.7561462E-02  0.1121044E+00
          1   -1    0    0  501    0  0.00000000000E+00  0.00000000000E+00  0.10495669676E+04  0.10495669676E+04  0.00000000000E+00 0. -1.
         -1   -1    0    0    0  501 -0.00000000000E+00 -0.00000000000E+00 -0.64904315654E+02  0.64904315654E+02  0.00000000000E+00 0.  1.
         23    2    1    2    0    0 -0.12600537264E+03 -0.17063192673E+03  0.25336459857E+03  0.34282479097E+03  0.91337884459E+02 0.  0.
          5    1    1    2  502    0  0.91449993283E+01 -0.20131807297E+02  0.67254555838E+02  0.70919449791E+02  0.41800000000E+01 0. -1.
         -5    1    1    2    0  502  0.11686037331E+03  0.19076373402E+03  0.66404349755E+03  0.70072704251E+03  0.41800000000E+01 0. -1.
        -11    1    3    3    0    0 -0.42942557835E+02 -0.31484376231E+01  0.36008163057E+02  0.56129882768E+02  0.00000000000E+00 0.  1.
         11    1    3    3    0    0 -0.83062814808E+02 -0.16748348910E+03  0.21735643552E+03  0.28669490820E+03  0.00000000000E+00 0. -1.
</event>
<event>
 7    1  0.6684706E-006  0.8755719E+02  0.7561462E-02  0.1308877E+00
         -2   -1    0    0    0  501 -0.00000000000E+00  0.00000000000E+00  0.13117892878E+03  0.13117892878E+03  0.00000000000E+00 0.  1.
          2   -1    0    0  501    0  0.00000000000E+00 -0.00000000000E+00 -0.12381556655E+03  0.12381556655E+03  0.00000000000E+00 0. -1.
         23    2    1    2    0    0 -0.28043314299E+02  0.56810909991E+02  0.25372296841E+02  0.11362455360E+03  0.90845356309E+02 0.  0.
          5    1    1    2  502    0  0.29822095311E+02 -0.66259001925E+01  0.48777731840E+02  0.57706147381E+02  0.41800000000E+01 0. -1.
         -5    1    1    2    0  502 -0.17787810122E+01 -0.50185009799E+02 -0.66786666451E+02  0.83663794356E+02  0.41800000000E+01 0. -1.
        -11    1    3    3    0    0 -0.50827463423E+02  0.46472116435E+02  0.44616786397E+02  0.82059406970E+02  0.00000000000E+00 0.  1.
         11    1    3    3    0    0  0.22784149123E+02  0.10338793556E+02 -0.19244489556E+02  0.31565146630E+02  0.00000000000E+00 0. -1.
</event>
<event>
 7    1  0.6684706E-006  0.1276489E+03  0.7561462E-02  0.1230987E+00
          2   -1    0    0  501    0  0.00000000000E+00  0.00000000000E+00  0.67068031842E+03  0.67068031842E+03  0.00000000000E+00 0. -1.
         -2   -1    0    0    0  501 -0.00000000000E+00 -0.00000000000E+00 -0.27498060844E+02  0.27498060844E+02  0.00000000000E+00 0.  1.
         23    2    1    2    0    0 -0.79846993415E+02 -0.12282007693E+02  0.23299196896E+03  0.26179082230E+03  0.87879388762E+02 0.  0.
          5    1    1    2  502    0  0.20710823918E+02  0.65292320484E+02  0.16806688604E+03  0.18153780853E+03  0.41800000000E+01 0. -1.
         -5    1    1    2    0  502  0.59136169497E+02 -0.53010312790E+02  0.24212340258E+03  0.25484974844E+03  0.41800000000E+01 0. -1.
        -11    1    3    3    0    0 -0.89425382789E+02  0.25807051437E+01  0.22548006645E+03  0.24257951169E+03  0.00000000000E+00 0. -1.
         11    1    3    3    0    0  0.95783893743E+01 -0.14862712837E+02  0.75119025083E+01  0.19211310605E+02  0.00000000000E+00 0.  1.
</event>
<event>
 7    1  0.6684706E-006  0.8056668E+02  0.7561462E-02  0.1327451E+00
         -2   -1    0    0    0  501 -0.00000000000E+00  0.00000000000E+00  0.50126938991E+02  0.50126938991E+02  0.00000000000E+00 0. -1.
          2   -1    0    0  501    0  0.00000000000E+00 -0.00000000000E+00 -0.24238599098E+03  0.24238599098E+03  0.00000000000E+00 0.  1.
         23    2    1    2    0    0 -0.18157947623E+02  0.10687086703E+02 -0.68554885914E+02  0.11532898576E+03  0.90316541617E+02 0.  0.
          5    1    1    2  502    0  0.44815765897E+01 -0.42565627423E+02  0.54855072670E+01  0.43352974023E+02  0.41800000000E+01 0.  1.
         -5    1    1    2    0  502  0.13676371034E+02  0.31878540720E+02 -0.12918967334E+03  0.13383097019E+03  0.41800000000E+01 0.  1.
        -11    1    3    3    0    0  0.32170539184E+02  0.43808590977E+01 -0.53215898263E+02  0.62338329668E+02  0.00000000000E+00 0.  1.
         11    1    3    3    0    0 -0.50328486807E+02  0.63062276050E+01 -0.15338987651E+02  0.52990656092E+02  0.00000000000E+00 0. -1.
</event>
<event>
 7    1  0.7836279E-006  0.1079493E+03  0.7561462E-02  0.1264415E+00
         -2   -1    0    0    0  501 -0.00000000000E+00  0.00000000000E+00  0.37501446983E+02  0.37501446983E+02  0.00000000000E+00 0.  1.
          2   -1    0    0  501    0  0.00000000000E+00 -0.00000000000E+00 -0.40562811906E+03  0.40562811906E+03  0.00000000000E+00 0. -1.
         23    2    1    2    0    0 -0.38690018740E+02 -0.37428901179E+01 -0.50826872841E+02  0.99854754678E+02  0.76659469425E+02 0.  0.
          5    1    1    2  502    0  0.77388516593E+02  0.29928066495E+02 -0.18178188799E+03  0.19986695291E+03  0.41800000000E+01 0. -1.
         -5    1    1    2    0  502 -0.38698497853E+02 -0.26185176377E+02 -0.13551791125E+03  0.14340785846E+03  0.41800000000E+01 0. -1.
        -11    1    3    3    0    0 -0.17163841273E+02 -0.40120859201E+02 -0.24232954546E+02  0.49915096677E+02  0.00000000000E+00 0. -1.
         11    1    3    3    0    0 -0.21526177467E+02  0.36377969083E+02 -0.26593918294E+02  0.49939658000E+02  0.00000000000E+00 0.  1.
</event>
<event>
 7    1  0.6684706E-006  0.1496734E+03  0.7561462E-02  0.1200875E+00
          1   -1    0    0  501    0  0.00000000000E+00  0.00000000000E+00  0.18011556911E+03  0.18011556911E+03  0.00000000000E+00 0. -1.
         -1   -1    0    0    0  501 -0.00000000000E+00 -0.00000000000E+00 -0.13513974472E+03  0.13513974472E+03  0.00000000000E+00 0.  1.
         23    2    1    2    0    0 -0.73035232186E+02  0.79867278347E+02 -0.41643755736E+01  0.14270197874E+03  0.92917088964E+02 0.  0.
          5    1    1    2  502    0  0.71050310701E+02 -0.10737168579E+03  0.60648170924E+02  0.14238152477E+03  0.41800000000E+01 0.  1.
         -5    1    1    2    0  502  0.19849214852E+01  0.27504407444E+02 -0.11507970964E+02  0.30171810317E+02  0.41800000000E+01 0.  1.
        -11    1    3    3    0    0 -0.91956898028E+02  0.43685501206E+02 -0.34724877206E+01  0.10186536350E+03  0.00000000000E+00 0.  1.
         11    1    3    3    0    0  0.18921665841E+02  0.36181777142E+02 -0.69188785303E+00  0.40836615238E+02  0.00000000000E+00 0. -1.
</event>
<event>
 7    1  0.6684706E-006  0.1701267E+03  0.7561462E-02  0.1177716E+00
         -2   -1    0    0    0  501 -0.00000000000E+00  0.00000000000E+00  0.47163761938E+02  0.47163761938E+02  0.00000000000E+00 0.  1.
          2   -1    0    0  501    0  0.00000000000E+00 -0.00000000000E+00 -0.74800563936E+03  0.74800563936E+03  0.00000000000E+00 0. -1.
         23    2    1    2    0    0 -0.66707918383E+02  0.12609978020E+03 -0.21659224924E+03  0.27507603854E+03  0.91670734736E+02 0.  0.
          5    1    1    2  502    0  0.14284285574E+02 -0.11789469323E+03 -0.21519288806E+03  0.24582239723E+03  0.41800000000E+01 0. -1.
         -5    1    1    2    0  502  0.52423632808E+02 -0.82050869707E+01 -0.26905674011E+03  0.27427096552E+03  0.41800000000E+01 0. -1.
        -11    1    3    3    0    0  0.77324001368E+01  0.80562484546E+02 -0.12175390137E+03  0.14619889339E+03  0.00000000000E+00 0. -1.
         11    1    3    3    0    0 -0.74440318520E+02  0.45537295653E+02 -0.94838347868E+02  0.12887714515E+03  0.00000000000E+00 0.  1.
</event>
<event>
 7    1  0.6684706E-006  0.1029196E+03  0.7561462E-02  0.1274274E+00
         -2   -1    0    0    0  501 -0.00000000000E+00  0.00000000000E+00  0.13414561966E+02  0.13414561966E+02  0.00000000000E+00 0.  1.
          2   -1    0    0  501    0  0.00000000000E+00 -0.00000000000E+00 -0.17172007014E+04  0.17172007014E+04  0.00000000000E+00 0. -1.
         23    2    1    2    0    0  0.29041828246E+02  0.73163043199E+02 -0.38069695597E+03  0.39929640426E+03  0.91165714455E+02 0.  0.
          5    1    1    2  502    0 -0.46926096797E+02 -0.46084503350E+02 -0.27752221233E+03  0.28524005811E+03  0.41800000000E+01 0.  1.
         -5    1    1    2    0  502  0.17884268551E+02 -0.27078539849E+02 -0.10455669711E+04  0.10460788010E+04  0.41800000000E+01 0.  1.
        -11    1    3    3    0    0 -0.19409513435E+02  0.49753878714E+02 -0.98807261997E+02  0.11231675157E+03  0.00000000000E+00 0.  1.
         11    1    3    3    0    0  0.48451341681E+02  0.23409164485E+02 -0.28188969397E+03  0.28697965269E+03  0.00000000000E+00 0. -1.
</event>
<event>
 7    1  0.6684706E-006  0.9135054E+02  0.7561462E-02  0.1299614E+00
         -1   -1    0    0    0  501 -0.00000000000E+00  0.00000000000E+00  0.29812160616E+03  0.29812160616E+03  0.00000000000E+00 0.  1.
          1   -1    0    0  501    0  0.00000000000E+00 -0.00000000000E+00 -0.54144681603E+02  0.54144681603E+02  0.00000000000E+00 0. -1.
         23    2    1    2    0    0  0.24233333613E+02 -0.24969511358E+02  0.21013844749E+03  0.23165692773E+03  0.91082567466E+02 0.  0.
          5    1    1    2  502    0  0.89186437043E+01  0.54493531095E+02  0.48560727429E+02  0.73652588449E+02  0.41800000000E+01 0. -1.
         -5    1    1    2    0  502 -0.33151977318E+02 -0.29524019737E+02 -0.14722250366E+02  0.46956771581E+02  0.41800000000E+01 0.  1.
        -11    1    3    3    0    0  0.20006176332E+02 -0.51823319518E+02  0.18964384299E+03  0.19761247613E+03  0.00000000000E+00 0.  1.
         11    1    3    3    0    0  0.42271572813E+01  0.26853808159E+02  0.20494604502E+02  0.34044451604E+02  0.00000000000E+00 0. -1.
</event>
<event>
 7    1  0.6684706E-006  0.1158566E+03  0.7561462E-02  0.1250093E+00
          1   -1    0    0  501    0  0.00000000000E+00  0.00000000000E+00  0.63648605435E+02  0.63648605435E+02  0.00000000000E+00 0. -1.
         -1   -1    0    0    0  501 -0.00000000000E+00 -0.00000000000E+00 -0.32854869207E+03  0.32854869207E+03  0.00000000000E+00 0.  1.
         23    2    1    2    0    0 -0.98505597798E+01  0.65256534896E+02 -0.21618734215E+03  0.24260638063E+03  0.88121734794E+02 0.  0.
          5    1    1    2  502    0 -0.62424708060E+01 -0.92740258301E+02 -0.22070996395E+01  0.93070229614E+02  0.41800000000E+01 0.  1.
         -5    1    1    2    0  502  0.16093030586E+02  0.27483723406E+02 -0.46505644840E+02  0.56520687254E+02  0.41800000000E+01 0.  1.
        -11    1    3    3    0    0 -0.46630389333E+02  0.43750459644E+02 -0.98399995959E+02  0.11735013904E+03  0.00000000000E+00 0.  1.
         11    1    3    3    0    0  0.36779829553E+02  0.21506075252E+02 -0.11778734619E+03  0.12525624159E+03  0.00000000000E+00 0. -1.
</event>
<event>
 7    1  0.6684706E-006  0.1257248E+03  0.7561462E-02  0.1233941E+00
          2   -1    0    0  501    0  0.00000000000E+00  0.00000000000E+00  0.11319696488E+04  0.11319696488E+04  0.00000000000E+00 0. -1.
         -2   -1    0    0    0  501 -0.00000000000E+00 -0.00000000000E+00 -0.19559206828E+02  0.19559206828E+02  0.00000000000E+00 0.  1.
         23    2    1    2    0    0 -0.56900357121E+02 -0.69298774363E+02  0.32520884979E+03  0.34942364401E+03  0.91083018422E+02 0.  0.
          5    1    1    2  502    0 -0.33210203456E+01  0.75784718186E+02  0.61167362076E+03  0.61637362323E+03  0.41800000000E+01 0. -1.
         -5    1    1    2    0  502  0.60221377467E+02 -0.64859438225E+01  0.17552797147E+03  0.18573158843E+03  0.41800000000E+01 0. -1.
        -11    1    3    3    0    0 -0.72409941095E+02 -0.42952814568E+02  0.29366700579E+03  0.30549706077E+03  0.00000000000E+00 0. -1.
         11    1    3    3    0    0  0.15509583974E+02 -0.26345959796E+02  0.31541843999E+02  0.43926583244E+02  0.00000000000E+00 0.  1.
</event>
<event>
 7    1  0.6684706E-006  0.1012346E+03  0.7561462E-02  0.1277721E+00
          3   -1    0    0  501    0  0.00000000000E+00  0.00000000000E+00  0.40119005541E+03  0.40119005541E+03  0.00000000000E+00 0. -1.
         -3   -1    0    0    0  501 -0.00000000000E+00 -0.00000000000E+00 -0.31825103836E+02  0.31825103836E+02  0.00000000000E+00 0.  1.
         23    2    1    2    0    0  0.14106247294E+02 -0.16040014638E+01  0.96543958277E+02  0.13254913242E+03  0.89704947425E+02 0.  0.
          5    1    1    2  502    0  0.47926427561E+02  0.16210590806E+02  0.61722005884E+02  0.79917483215E+02  0.41800000000E+01 0.  1.
         -5    1    1    2    0  502 -0.62032674856E+02 -0.14606589342E+02  0.21109898741E+03  0.22054854361E+03  0.41800000000E+01 0.  1.
        -11    1    3    3    0    0 -0.35757850716E+02 -0.10318939805E+02  0.24716548258E+02  0.44676751945E+02  0.00000000000E+00 0. -1.
         11    1    3    3    0    0  0.49864098010E+02  0.87149383411E+01  0.71827410019E+02  0.87872380477E+02  0.00000000000E+00 0.  1.
</event>
<event>
 7    1  0.6684706E-006  0.1180695E+03  0.7561462E-02  0.1246316E+00
          2   -1    0    0  501    0  0.00000000000E+00  0.00000000000E+00  0.54179145361E+02  0.54179145361E+02  0.00000000000E+00 0. -1.
         -2   -1    0    0    0  501 -0.00000000000E+00 -0.00000000000E+00 -0.35462206088E+03  0.35462206088E+03  0.00000000000E+00 0.  1.
         23    2    1    2    0    0 -0.75572353565E+02 -0.14592228687E+02 -0.19364898654E+03  0.22720622324E+03  0.90546254092E+02 0.  0.
          5    1    1    2  502    0  0.78846027811E+02 -0.33362570584E+02 -0.10181315877E+03  0.13309075444E+03  0.41800000000E+01 0.  1.
         -5    1    1    2    0  502 -0.32736742458E+01  0.47954799270E+02 -0.49807702005E+01  0.48504228557E+02  0.41800000000E+01 0.  1.
        -11    1    3    3    0    0 -0.28054166135E+02  0.27065876140E+02 -0.13666133477E+03  0.14211234398E+03  0.00000000000E+00 0.  1.
         11    1    3    3    0    0 -0.47518187430E+02 -0.41658104827E+02 -0.56987651772E+02  0.85093879268E+02  0.00000000000E+00 0. -1.
</event>
<event>
 7    1  0.6684706E-006  0.1110589E+03  0.7561462E-02  0.1258621E+00
         -1   -1    0    0    0  501 -0.00000000000E+00  0.00000000000E+00  0.14803606136E+03  0.14803606136E+03  0.00000000000E+00 0.  1.
          1   -1    0    0  501    0  0.00000000000E+00 -0.00000000000E+00 -0.26505629502E+03  0.26505629502E+03  0.00000000000E+00 0. -1.
         23    2    1    2    0    0 -0.78266830228E+02 -0.45306987252E+01  0.98331693151E+02  0.15417396131E+03  0.89186683548E+02 0.  0.
          5    1    1    2  502    0  0.41898400733E+02  0.45272765072E+02 -0.18758141783E+03  0.19750787316E+03  0.41800000000E+01 0. -1.
         -5    1    1    2    0  502  0.36368429495E+02 -0.40742066347E+02 -0.27770508977E+02  0.61410521924E+02  0.41800000000E+01 0.  1.
        -11    1    3    3    0    0 -0.59617849451E+02 -0.35485655339E+02  0.95339755991E+02  0.11791178389E+03  0.00000000000E+00 0.  1.
         11    1    3    3    0    0 -0.18648980777E+02  0.30954956614E+02  0.29919371601E+01  0.36262177416E+02  0.00000000000E+00 0. -1.
</event>
<event>
 7    1  0.6684706E-006  0.8835027E+02  0.7561462E-02  0.1306897E+00
         -1   -1    0    0    0  501 -0.00000000000E+00  0.00000000000E+00  0.34761508981E+02  0.34761508981E+02  0.00000000000E+00 0.  1.
          1   -1    0    0  501    0  0.00000000000E+00 -0.00000000000E+00 -0.60186062326E+03  0.60186062326E+03  0.00000000000E+00 0. -1.
         23    2    1    2    0    0 -0.57157874859E+01 -0.24814739874E+02 -0.48863414566E+02  0.10289570800E+03  0.86899090335E+02 0.  0.
          5    1    1    2  502    0 -0.50363905105E+02 -0.63776008203E+01 -0.12047541451E+03  0.13080135562E+03  0.41800000000E+01 0.  1.
         -5    1    1    2    0  502  0.56079692591E+02  0.31192340694E+02 -0.39776028521E+03  0.40292506862E+03  0.41800000000E+01 0.  1.
        -11    1    3    3    0    0 -0.41936031192E+01  0.18066879593E+02 -0.56363362749E+02  0.59336557919E+02  0.00000000000E+00 0. -1.
         11    1    3    3    0    0 -0.15221843667E+01 -0.42881619467E+02  0.74999481825E+01  0.43559150085E+02  0.00000000000E+00 0.  1.
</event>
<event>
 7    1  0.6684706E-006  0.1028920E+03  0.7561462E-02  0.1274329E+00
          2   -1    0    0  501    0  0.00000000000E+00  0.00000000000E+00  0.21343673664E+03  0.21343673664E+03  0.00000000000E+00 0. -1.
         -2   -1    0    0    0  501 -0.00000000000E+00 -0.00000000000E+00 -0.66018475517E+02  0.66018475517E+02  0.00000000000E+00 0.  1.
         23    2    1    2    0    0 -0.28038042457E+02  0.10700938320E+02  0.17228276046E+02  0.96430662436E+02  0.90007873304E+02 0.  0.
          5    1    1    2  502    0 -0.43267112129E+02 -0.28821658626E+02  0.73140596540E+02  0.89831788695E+02  0.41800000000E+01 0. -1.
         -5    1    1    2    0  502  0.71305154586E+02  0.18120720306E+02  0.57049388535E+02  0.93192761024E+02  0.41800000000E+01 0. -1.
        -11    1    3    3    0    0 -0.15725022127E+02  0.42779218593E+02  0.35261597883E+02  0.57625672661E+02  0.00000000000E+00 0. -1.
         11    1    3    3    0    0 -0.12313020330E+02 -0.32078280274E+02 -0.18033321837E+02  0.38804989775E+02  0.00000000000E+00 0.  1.
</event>
<event>
 7    1  0.6684706E-006  0.5634831E+02  0.7561462E-02  0.1413828E+00
          1   -1    0    0  501    0  0.00000000000E+00  0.00000000000E+00  0.31814603531E+03  0.31814603531E+03  0.00000000000E+00 0. -1.
         -1   -1    0    0    0  501 -0.00000000000E+00 -0.00000000000E+00 -0.50668392014E+02  0.50668392014E+02  0.00000000000E+00 0.  1.
         23    2    1    2    0    0 -0.90728215707E+01 -0.12225715880E+02  0.24654273028E+02  0.95240341365E+02  0.90725438686E+02 0.  0.
          5    1    1    2  502    0  0.25785707956E+02 -0.41545819761E+01  0.24786586010E+03  0.24927318406E+03  0.41800000000E+01 0.  1.
         -5    1    1    2    0  502 -0.16712886386E+02  0.16380297856E+02 -0.50424898386E+01  0.24300901896E+02  0.41800000000E+01 0.  1.
        -11    1    3    3    0    0  0.12672488672E+02 -0.31161435564E+02  0.47671646596E+02  0.58345633296E+02  0.00000000000E+00 0. -1.
         11    1    3    3    0    0 -0.21745310243E+02  0.18935719684E+02 -0.23017373568E+02  0.36894708069E+02  0.00000000000E+00 0.  1.
</event>
<event>
 7    1  0.6684706E-006  0.1265119E+03  0.7561462E-02  0.1232725E+00
          3   -1    0    0  501    0  0.00000000000E+00  0.00000000000E+00  0.13144187048E+03  0.13144187048E+03  0.00000000000E+00 0. -1.
         -3   -1    0    0    0  501 -0.00000000000E+00 -0.00000000000E+00 -0.15085246068E+03  0.15085246068E+03  0.00000000000E+00 0.  1.
         23    2    1    2    0    0 -0.30987591411E+02 -0.82416342540E+02 -0.20234135251E+02  0.12932321180E+03  0.92533175357E+02 0.  0.
          5    1    1    2  502    0  0.11789475911E+01  0.10952778598E+03  0.13693549813E+02  0.11046588399E+03  0.41800000000E+01 0. -1.
         -5    1    1    2    0  502  0.29808643820E+02 -0.27111443436E+02 -0.12870004769E+02  0.42505235375E+02  0.41800000000E+01 0. -1.
        -11    1    3    3    0    0 -0.42311312036E+02 -0.81133907083E+02 -0.45067236451E+02  0.10200006768E+03  0.00000000000E+00 0.  1.
         11    1    3    3    0    0  0.11323720625E+02 -0.12824354563E+01  0.24833101200E+02  0.27323144122E+02  0.00000000000E+00 0. -1.
</event>
<event>
 7    1  0.6684706E-006  0.1142899E+03  0.7561462E-02  0.1252826E+00
          2   -1    0    0  501    0  0.00000000000E+00  0.00000000000E+00  0.25221773151E+03  0.25221773151E+03  0.00000000000E+00 0. -1.
         -2   -1    0    0    0  501 -0.00000000000E+00 -0.00000000000E+00 -0.61717474141E+02  0.61717474141E+02  0.00000000000E+00 0.  1.
         23    2    1    2    0    0  0.24800632377E+02  0.37183504595E+02  0.33089149017E+02  0.10796705248E+03  0.92543547907E+02 0.  0.
          5    1    1    2  502    0 -0.54081309249E+02 -0.66386591702E+02  0.76027037642E+02  0.11458425032E+03  0.41800000000E+01 0. -1.
         -5    1    1    2    0  502  0.29280676873E+02  0.29203087108E+02  0.81384070713E+02  0.91383902852E+02  0.41800000000E+01 0. -1.
        -11    1    3    3    0    0 -0.34318196573E+02  0.19998865238E+02  0.41420452096E+01  0.39935570177E+02  0.00000000000E+00 0.  1.
         11    1    3    3    0    0  0.59118828949E+02  0.17184639356E+02  0.28947103808E+02  0.68031482308E+02  0.00000000000E+00 0. -1.
</event>
<event>
 7    1  0.6684706E-006  0.9583814E+02  0.7561462E-02  0.1289299E+00
          2   -1    0    0  501    0  0.00000000000E+00  0.00000000000E+00  0.13545089407E+04  0.13545089407E+04  0.00000000000E+00 0. -1.
         -2   -1    0    0    0  501 -0.00000000000E+00 -0.00000000000E+00 -0.12516535744E+02  0.12516535744E+02  0.00000000000E+00 0.  1.
         23    2    1    2    0    0  0.67371280566E+02  0.21758355813E+02  0.43760909222E+03  0.45147974422E+03  0.85556568195E+02 0.  0.
          5    1    1    2  502    0  0.39666244122E+01  0.40428908836E+01  0.65050191701E+03  0.65054000301E+03  0.41800000000E+01 0. -1.
         -5    1    1    2    0  502 -0.71337904978E+02 -0.25801246697E+02  0.25388139568E+03  0.26500572917E+03  0.41800000000E+01 0.  1.
        -11    1    3    3    0    0  0.77401487001E+02 -0.74689640356E+01  0.26692486058E+03  0.27802096469E+03  0.00000000000E+00 0. -1.
         11    1    3    3    0    0 -0.10030206435E+02  0.29227319849E+02  0.17068423164E+03  0.17345877953E+03  0.00000000000E+00 0.  1.
</event>
<event>
 7    1  0.6684706E-006  0.1275626E+03  0.7561462E-02  0.1231118E+00
          2   -1    0    0  501    0  0.00000000000E+00  0.00000000000E+00  0.10240395353E+04  0.10240395353E+04  0.00000000000E+00 0. -1.
         -2   -1    0    0    0  501 -0.00000000000E+00 -0.00000000000E+00 -0.46546681612E+02  0.46546681612E+02  0.00000000000E+00 0.  1.
         23    2    1    2    0    0 -0.24183038262E+02  0.88293270072E+02  0.63383574190E+02  0.14342718358E+03  0.90406629366E+02 0.  0.
          5    1    1    2  502    0  0.21051723696E+02  0.14400955721E+02  0.49300927123E+03  0.49368631388E+03  0.41800000000E+01 0. -1.
         -5    1    1    2    0  502  0.31313145654E+01 -0.10269422579E+03  0.42110000829E+03  0.43347271947E+03  0.41800000000E+01 0. -1.
        -11    1    3    3    0    0 -0.45588347663E+02  0.11899420566E+02  0.11078399529E+02  0.48400667233E+02  0.00000000000E+00 0. -1.
         11    1    3    3    0    0  0.21405309402E+02  0.76393849506E+02  0.52305174661E+02  0.95026516348E+02  0.00000000000E+00 0.  1.
</event>
<event>
 7    1  0.6684706E-006  0.1524361E+03  0.7561462E-02  0.1197511E+00
          2   -1    0    0  501    0  0.00000000000E+00  0.00000000000E+00  0.19546229189E+04  0.19546229189E+04  0.00000000000E+00 0.  1.
         -2   -1    0    0    0  501 -0.00000000000E+00 -0.00000000000E+00 -0.20232755324E+02  0.20232755324E+02  0.00000000000E+00 0. -1.
         23    2    1    2    0    0  0.12228506883E+03  0.84363944651E+02  0.55605055110E+03  0.58290039272E+03  0.92248247908E+02 0.  0.
          5    1    1    2  502    0 -0.83397211775E+02 -0.71518503788E+02  0.12879319816E+04  0.12926160501E+04  0.41800000000E+01 0.  1.
         -5    1    1    2    0  502 -0.38887857059E+02 -0.12845440863E+02  0.90407630908E+02  0.99339231445E+02  0.41800000000E+01 0.  1.
        -11    1    3    3    0    0  0.11599181933E+03  0.64061654434E+02  0.54065305548E+03  0.55665404348E+03  0.00000000000E+00 0.  1.
         11    1    3    3    0    0  0.62932495022E+01  0.20302290217E+02  0.15397495620E+02  0.26246349246E+02  0.00000000000E+00 0. -1.
</event>
<event>
 7    1  0.6684706E-006  0.1710194E+03  0.7561462E-02  0.1176789E+00
          1   -1    0    0  501    0  0.00000000000E+00  0.00000000000E+00  0.47184409770E+03  0.47184409770E+03  0.00000000000E+00 0. -1.
         -1   -1    0    0    0  501 -0.00000000000E+00 -0.00000000000E+00 -0.83458797941E+02  0.83458797941E+02  0.00000000000E+00 0.  1.
         23    2    1    2    0    0 -0.35166552018E+02 -0.15373259559E+03  0.25506245219E+03  0.31386424228E+03  0.92647238149E+02 0.  0.
          5    1    1    2  502    0  0.15453319786E+02  0.22365671565E+02 -0.23285547727E+02  0.36037723152E+02  0.41800000000E+01 0. -1.
         -5    1    1    2    0  502  0.19713232232E+02  0.13136692403E+03  0.15660839531E+03  0.20540093022E+03  0.41800000000E+01 0. -1.
        -11    1    3    3    0    0 -0.58771769992E+02 -0.56326381378E+02  0.13288767432E+03  0.15583939223E+03  0.00000000000E+00 0.  1.
         11    1    3    3    0    0  0.23605217974E+02 -0.97406214216E+02  0.12217477787E+03  0.15802485004E+03  0.00000000000E+00 0. -1.
</event>
<event>
 7    1  0.6684706E-006  0.2883745E+03  0.7561462E-02  0.1091201E+00
         -1   -1    0    0    0  501 -0.00000000000E+00  0.00000000000E+00  0.25489738912E+03  0.25489738912E+03  0.00000000000E+00 0. -1.
          1   -1    0    0  501    0  0.00000000000E+00 -0.00000000000E+00 -0.41972537323E+03  0.41972537323E+03  0.00000000000E+00 0.  1.
         23    2    1    2    0    0  0.11865152509E+03  0.24719915773E+03  0.64314013721E+02  0.29602088057E+03  0.91139790342E+02 0.  0.
          5    1    1    2  502    0 -0.14469021635E+03 -0.20103966484E+03 -0.18013340678E+03  0.30629678775E+03  0.41800000000E+01 0.  1.
         -5    1    1    2    0  502  0.26038691262E+02 -0.46159492889E+02 -0.49008591043E+02  0.72305094028E+02  0.41800000000E+01 0.  1.
        -11    1    3    3    0    0  0.44871614969E+02  0.62257741249E+02 -0.20746982121E+02  0.79497958731E+02  0.00000000000E+00 0.  1.
         11    1    3    3    0    0  0.73779910119E+02  0.18494141648E+03  0.85060995843E+02  0.21652292184E+03  0.00000000000E+00 0. -1.
</event>
<event>
 7    1  0.6684706E-006  0.2055719E+03  0.7561462E-02  0.1145121E+00
          1   -1    0    0  501    0  0.00000000000E+00  0.00000000000E+00  0.11263230287E+04  0.11263230287E+04  0.00000000000E+00 0. -1.
         -1   -1    0    0    0  501 -0.00000000000E+00 -0.00000000000E+00 -0.54838254895E+02  0.54838254895E+02  0.00000000000E+00 0.  1.
         23    2    1    2    0    0 -0.17381343271E+03  0.64115532771E+02  0.22415355013E+03  0.30483994248E+03  0.91436675146E+02 0.  0.
          5    1    1    2  502    0  0.15812931397E+03 -0.86944079839E+02  0.80872426295E+03  0.82862329127E+03  0.41800000000E+01 0.  1.
         -5    1    1    2    0  502  0.15684118738E+02  0.22828547068E+02  0.38606960674E+02  0.47698049796E+02  0.41800000000E+01 0.  1.
        -11    1    3    3    0    0 -0.13562917538E+03  0.94630943198E+01  0.12093403396E+03  0.18196116053E+03  0.00000000000E+00 0.  1.
         11    1    3    3    0    0 -0.38184257322E+02  0.54652438451E+02  0.10321951617E+03  0.12287878195E+03  0.00000000000E+00 0. -1.
</event>
<event>
 7    1  0.6684706E-006  0.9192751E+02  0.7561462E-02  0.1298250E+00
          2   -1    0    0  501    0  0.00000000000E+00  0.00000000000E+00  0.27795265667E+02  0.27795265667E+02  0.00000000000E+00 0. -1.
         -2   -1    0    0    0  501 -0.00000000000E+00 -0.00000000000E+00 -0.55643337965E+03  0.55643337965E+03  0.00000000000E+00 0.  1.
         23    2    1    2    0    0 -0.57121255139E+02 -0.58002169670E+01 -0.26879705520E+03  0.29018548655E+03  0.93055249252E+02 0.  0.
          5    1    1    2  502    0  0.32737255933E+02  0.26481397248E+02 -0.11818638513E+02  0.43933414874E+02  0.41800000000E+01 0.  1.
         -5    1    1    2    0  502  0.24383999206E+02 -0.20681180281E+02 -0.24802242027E+03  0.25010974390E+03  0.41800000000E+01 0.  1.
        -11    1    3    3    0    0 -0.81980879664E+02 -0.13897874888E+02 -0.20805166004E+03  0.22405246886E+03  0.00000000000E+00 0.  1.
         11    1    3    3    0    0  0.24859624525E+02  0.80976579207E+01 -0.60745395158E+02  0.66133017686E+02  0.00000000000E+00 0. -1.
</event>
<event>
 7    1  0.6684706E-006  0.8425585E+02  0.7561462E-02  0.1317390E+00
          1   -1    0    0  501    0  0.00000000000E+00  0.00000000000E+00  0.67985714875E+02  0.67985714875E+02  0.00000000000E+00 0. -1.
         -1   -1    0    0    0  501 -0.00000000000E+00 -0.00000000000E+00 -0.30872766726E+03  0.30872766726E+03  0.00000000000E+00 0.  1.
         23    2    1    2    0    0 -0.29696110631E+02  0.17875748652E+02 -0.22563607547E+03  0.24603398921E+03  0.91758835642E+02 0.  0.
          5    1    1    2  502    0 -0.16878440594E+02  0.56776482502E+01 -0.59365949574E+02  0.62120091881E+02  0.41800000000E+01 0. -1.
         -5    1    1    2    0  502  0.46574551225E+02 -0.23553396902E+02  0.44260072658E+02  0.68559301041E+02  0.41800000000E+01 0. -1.
        -11    1    3    3    0    0 -0.41771116042E+02  0.49052377151E+02 -0.15630092386E+03  0.16905898568E+03  0.00000000000E+00 0. -1.
         11    1    3    3    0    0  0.12075005411E+02 -0.31176628499E+02 -0.69335151612E+02  0.76975003536E+02  0.00000000000E+00 0.  1.
</event>
<event>
 7    1  0.6684706E-006  0.1123774E+03  0.7561462E-02  0.1256230E+00
         -2   -1    0    0    0  501 -0.00000000000E+00  0.00000000000E+00  0.27533558473E+02  0.27533558473E+02  0.00000000000E+00 0.  1.
          2   -1    0    0  501    0  0.00000000000E+00 -0.00000000000E+00 -0.49552794157E+03  0.49552794157E+03  0.00000000000E+00 0. -1.
         23    2    1    2    0    0 -0.23361116419E+02  0.31374316935E+02 -0.17002103502E+03  0.19753943822E+03  0.92653050557E+02 0.  0.
          5    1    1    2  502    0 -0.45200315800E+02 -0.32775249534E+02 -0.85357125287E+02  0.10208132428E+03  0.41800000000E+01 0. -1.
         -5    1    1    2    0  502  0.68561432220E+02  0.14009325990E+01 -0.21261622279E+03  0.22344073754E+03  0.41800000000E+01 0. -1.
        -11    1    3    3    0    0  0.28639266292E+01 -0.31660779186E+02 -0.63576285747E+02  0.71081299395E+02  0.00000000000E+00 0. -1.
         11    1    3    3    0    0 -0.26225043049E+02  0.63035096121E+02 -0.10644474928E+03  0.12645813882E+03  0.00000000000E+00 0.  1.
</event>
<event>
 7    1  0.6684706E-006  0.1391436E+03  0.7561462E-02  0.1214486E+00
         -2   -1    0    0    0  501 -0.00000000000E+00  0.00000000000E+00  0.10828908889E+03  0.10828908889E+03  0.00000000000E+00 0.  1.
          2   -1    0    0  501    0  0.00000000000E+00 -0.00000000000E+00 -0.20427416231E+03  0.20427416231E+03  0.00000000000E+00 0. -1.
         23    2    1    2    0    0  0.26868384953E+02 -0.49007554850E+02 -0.41136736977E+02  0.11599296678E+03  0.92943459538E+02 0.  0.
          5    1    1    2  502    0 -0.56832535307E+02 -0.45269602206E+02 -0.64290727127E+02  0.97108413373E+02  0.41800000000E+01 0. -1.
         -5    1    1    2    0  502  0.29964150354E+02  0.94277157056E+02  0.94423906845E+01  0.99461871040E+02  0.41800000000E+01 0.  1.
        -11    1    3    3    0    0 -0.71668401274E+01  0.24480898226E+02 -0.19662388929E+02  0.32206948222E+02  0.00000000000E+00 0.  1.
         11    1    3    3    0    0  0.34035225081E+02 -0.73488453076E+02 -0.21474348048E+02  0.83786018558E+02  0.00000000000E+00 0. -1.
</event>
<event>
 7    1  0.6684706E-006  0.1804539E+03  0.7561462E-02  0.1167364E+00
          2   -1    0    0  501    0  0.00000000000E+00  0.00000000000E+00  0.12857355569E+03  0.12857355569E+03  0.00000000000E+00 0. -1.
         -2   -1    0    0    0  501 -0.00000000000E+00 -0.00000000000E+00 -0.30833133687E+03  0.30833133687E+03  0.00000000000E+00 0.  1.
         23    2    1    2    0    0 -0.11744933129E+03  0.10623766749E+03 -0.14279300320E+03  0.23173725625E+03  0.90727761772E+02 0.  0.
          5    1    1    2  502    0  0.12030138933E+03 -0.62641258857E+02 -0.67639965590E+02  0.15162120211E+03  0.41800000000E+01 0.  1.
         -5    1    1    2    0  502 -0.28520580439E+01 -0.43596408635E+02  0.30675187602E+02  0.53546434198E+02  0.41800000000E+01 0.  1.
        -11    1    3    3    0    0 -0.85400650620E+02  0.17773336351E+02 -0.55500200097E+02  0.10338972300E+03  0.00000000000E+00 0. -1.
         11    1    3    3    0    0 -0.32048680665E+02  0.88464331140E+02 -0.87292803104E+02  0.12834753325E+03  0.00000000000E+00 0.  1.
</event>
<event>
 7    1  0.6684706E-006  0.1661690E+03  0.7561462E-02  0.1181903E+00
          1   -1    0    0  501    0  0.00000000000E+00  0.00000000000E+00  0.57202648746E+03  0.57202648746E+03  0.00000000000E+00 0. -1.
         -1   -1    0    0    0  501 -0.00000000000E+00 -0.00000000000E+00 -0.60507738076E+02  0.60507738076E+02  0.00000000000E+00 0.  1.
         23    2    1    2    0    0 -0.92025242492E+02  0.11112814756E+03  0.31477618848E+03  0.35835696736E+03  0.92290610508E+02 0.  0.
          5    1    1    2  502    0 -0.27629779286E+02 -0.92238120912E+01  0.55539909094E+02  0.62854095451E+02  0.41800000000E+01 0. -1.
         -5    1    1    2    0  502  0.11965502178E+03 -0.10190433547E+03  0.14120265181E+03  0.21132316272E+03  0.41800000000E+01 0. -1.
        -11    1    3    3    0    0 -0.55342895624E+02  0.51031927218E+02  0.67019475902E+02  0.10079039558E+03  0.00000000000E+00 0.  1.
         11    1    3    3    0    0 -0.36682346868E+02  0.60096220343E+02  0.24775671258E+03  0.25756657178E+03  0.00000000000E+00 0. -1.
</event>
<event>
 7    1  0.6684706E-006  0.2087321E+03  0.7561462E-02  0.1142574E+00
         -1   -1    0    0    0  501 -0.00000000000E+00  0.00000000000E+00  0.35082569768E+02  0.35082569768E+02  0.00000000000E+00 0.  1.
          1   -1    0    0  501    0  0.00000000000E+00 -0.00000000000E+00 -0.14796424006E+04  0.14796424006E+04  0.00000000000E+00 0. -1.
         23    2    1    2    0    0 -0.19635428528E+03  0.30956738462E+02 -0.60395474537E+03  0.64192632102E+03  0.88287836954E+02 0.  0.
          5    1    1    2  502    0  0.10407165282E+03 -0.46805621403E+02 -0.65491077115E+03  0.66479114441E+03  0.41800000000E+01 0.  1.
         -5    1    1    2    0  502  0.92282632459E+02  0.15848882941E+02 -0.18569431427E+03  0.20800750491E+03  0.41800000000E+01 0.  1.
        -11    1    3    3    0    0 -0.14946384313E+03 -0.63931906660E+01 -0.34352804743E+03  0.37468898124E+03  0.00000000000E+00 0. -1.
         11    1    3    3    0    0 -0.46890442145E+02  0.37349929128E+02 -0.26042669795E+03  0.26723733978E+03  0.00000000000E+00 0.  1.
</event>
<event>
 7    1  0.6684706E-006  0.1655826E+03  0.7561462E-02  0.1182534E+00
          1   -1    0    0  501    0  0.00000000000E+00  0.00000000000E+00  0.52530097985E+03  0.52530097985E+03  0.00000000000E+00 0. -1.
         -1   -1    0    0    0  501 -0.00000000000E+00 -0.00000000000E+00 -0.56685106162E+02  0.56685106162E+02  0.00000000000E+00 0.  1.
         23    2    1    2    0    0  0.63611419828E+02 -0.10997818382E+03  0.15334684573E+03  0.21978696967E+03  0.93002383252E+02 0.  0.
          5    1    1    2  502    0 -0.36567085602E+02 -0.21936092993E+02  0.90857478029E+02  0.10045346007E+03  0.41800000000E+01 0. -1.
         -5    1    1    2    0  502 -0.27044334225E+02  0.13191427681E+03  0.22441154993E+03  0.26174565628E+03  0.41800000000E+01 0. -1.
        -11    1    3    3    0    0  0.81595801254E+02 -0.62366340519E+02  0.12410831567E+03  0.16109099674E+03  0.00000000000E+00 0. -1.
         11    1    3    3    0    0 -0.17984381426E+02 -0.47611843301E+02  0.29238530063E+02  0.58695972929E+02  0.00000000000E+00 0.  1.
</event>
<event>
 7    1  0.6684706E-006  0.1334683E+03  0.7561462E-02  0.1222398E+00
         -1   -1    0    0    0  501 -0.00000000000E+00  0.00000000000E+00  0.51650625139E+03  0.51650625139E+03  0.00000000000E+00 0.  1.
          1   -1    0    0  501    0  0.00000000000E+00 -0.00000000000E+00 -0.37456017481E+02  0.37456017481E+02  0.00000000000E+00 0. -1.
         23    2    1    2    0    0  0.79348311442E+02 -0.37206572195E+02  0.23372957201E+03  0.26498418753E+03  0.88919195149E+02 0.  0.
          5    1    1    2  502    0 -0.35281927995E+02 -0.44355038782E+02  0.12250842878E+03  0.13504803379E+03  0.41800000000E+01 0. -1.
         -5    1    1    2    0  502 -0.44066383447E+02  0.81561610977E+02  0.12281223311E+03  0.15393004755E+03  0.41800000000E+01 0. -1.
        -11    1    3    3    0    0 -0.30364875945E+00 -0.37653321994E+02  0.12263121571E+03  0.12828203275E+03  0.00000000000E+00 0. -1.
         11    1    3    3    0    0  0.79651960201E+02  0.44674979938E+00  0.11109835630E+03  0.13670215478E+03  0.00000000000E+00 0.  1.
</event>
<event>
 7    1  0.6684706E-006  0.1424968E+03  0.7561462E-02  0.1210008E+00
          2   -1    0    0  501    0  0.00000000000E+00  0.00000000000E+00  0.20562050026E+04  0.20562050026E+04  0.00000000000E+00 0. -1.
         -2   -1    0    0    0  501 -0.00000000000E+00 -0.00000000000E+00 -0.19118861854E+02  0.19118861854E+02  0.00000000000E+00 0.  1.
         23    2    1    2    0    0  0.55294072972E+02 -0.74290415600E+02  0.25158843599E+03  0.28298023090E+03  0.90579079265E+02 0.  0.
          5    1    1    2  502    0 -0.25948942702E+02  0.10826630831E+03  0.12775355214E+04  0.12823842723E+04  0.41800000000E+01 0. -1.
         -5    1    1    2    0  502 -0.29345130270E+02 -0.33975892706E+02  0.50796218342E+03  0.50995936127E+03  0.41800000000E+01 0.  1.
        -11    1    3    3    0    0 -0.24753725419E+02 -0.16061688688E+02  0.74028985505E+02  0.79693258564E+02  0.00000000000E+00 0. -1.
         11    1    3    3    0    0  0.80047798391E+02 -0.58228726912E+02  0.17755945048E+03  0.20328697233E+03  0.00000000000E+00 0.  1.
</event>
<event>
 7    1  0.6684706E-006  0.1327287E+03  0.7561462E-02  0.1223462E+00
          3   -1    0    0  501    0  0.00000000000E+00  0.00000000000E+00  0.63937287991E+03  0.63937287991E+03  0.00000000000E+00 0. -1.
         -3   -1    0    0    0  501 -0.00000000000E+00 -0.00000000000E+00 -0.39411899450E+02  0.39411899450E+02  0.00000000000E+00 0.  1.
         23    2    1    2    0    0 -0.78319158538E+01 -0.34480396090E+02  0.88055883923E+02  0.13176201834E+03  0.91417471865E+02 0.  0.
          5    1    1    2  502    0 -0.21473125464E+02  0.10976633043E+03  0.29343943719E+03  0.31406037335E+03  0.41800000000E+01 0. -1.
         -5    1    1    2    0  502  0.29305041318E+02 -0.75285934335E+02  0.21846565936E+03  0.23296238768E+03  0.41800000000E+01 0.  1.
        -11    1    3    3    0    0 -0.33765026844E+02 -0.63159813054E+01 -0.14817485328E+01  0.34382615322E+02  0.00000000000E+00 0. -1.
         11    1    3    3    0    0  0.25933110991E+02 -0.28164414785E+02  0.89537632455E+02  0.97379403015E+02  0.00000000000E+00 0.  1.
</event>
<event>
 7    1  0.6684706E-006  0.9627907E+02  0.7561462E-02  0.1288321E+00
         -4   -1    0    0    0  501 -0.00000000000E+00  0.00000000000E+00  0.24323293972E+02  0.24323293972E+02  0.00000000000E+00 0. -1.
          4   -1    0    0  501    0  0.00000000000E+00 -0.00000000000E+00 -0.67407363340E+03  0.67407363340E+03  0.00000000000E+00 0.  1.
         23    2    1    2    0    0  0.56156790435E+02 -0.14607636305E+02 -0.19691413137E+03  0.22503073781E+03  0.92177490074E+02 0.  0.
          5    1    1    2  502    0 -0.80557907613E+02 -0.13845492306E+02 -0.17752595602E+03  0.19548455591E+03  0.41800000000E+01 0. -1.
         -5    1    1    2    0  502  0.24401117178E+02  0.28453128611E+02 -0.27531025203E+03  0.27788163365E+03  0.41800000000E+01 0. -1.
        -11    1    3    3    0    0  0.33243621880E+02 -0.30496981951E+02 -0.19135190922E+03  0.19659795896E+03  0.00000000000E+00 0.  1.
         11    1    3    3    0    0  0.22913168554E+02  0.15889345646E+02 -0.55622221531E+01  0.28432778857E+02  0.00000000000E+00 0. -1.
</event>
<event>
 7    1  0.6684706E-006  0.1002462E+03  0.7561462E-02  0.1279779E+00
         -2   -1    0    0    0  501 -0.00000000000E+00  0.00000000000E+00  0.21514119823E+03  0.21514119823E+03  0.00000000000E+00 0.  1.
          2   -1    0    0  501    0  0.00000000000E+00 -0.00000000000E+00 -0.78745775731E+02  0.78745775731E+02  0.00000000000E+00 0. -1.
         23    2    1    2    0    0  0.69077247437E+02 -0.75221518102E+01  0.83966304039E+02  0.14148285800E+03  0.90215353531E+02 0.  0.
          5    1    1    2  502    0 -0.26981740263E+02  0.39704118662E+02 -0.28200209297E+02  0.55831492464E+02  0.41800000000E+01 0.  1.
         -5    1    1    2    0  502 -0.42095507173E+02 -0.32181966852E+02  0.80629327757E+02  0.96572623497E+02  0.41800000000E+01 0.  1.
        -11    1    3    3    0    0  0.78090584097E+01  0.27496623304E+02 -0.38311580166E+01  0.28839616123E+02  0.00000000000E+00 0. -1.
         11    1    3    3    0    0  0.61268189027E+02 -0.35018775114E+02  0.87797462056E+02  0.11264324188E+03  0.00000000000E+00 0.  1.
</event>
<event>
 7    1  0.6684706E-006  0.1067627E+03  0.7561462E-02  0.1266685E+00
         -2   -1    0    0    0  501 -0.00000000000E+00  0.00000000000E+00  0.10558932550E+03  0.10558932550E+03  0.00000000000E+00 0.  1.
          2   -1    0    0  501    0  0.00000000000E+00 -0.00000000000E+00 -0.17889906222E+03  0.17889906222E+03  0.00000000000E+00 0. -1.
         23    2    1    2    0    0  0.71718064340E+02 -0.13570968071E+01  0.12661942354E+02  0.11660704702E+03  0.91057982436E+02 0.  0.
          5    1    1    2  502    0 -0.85457543459E+02  0.43830834381E+02 -0.41427581707E+02  0.10467975307E+03  0.41800000000E+01 0.  1.
         -5    1    1    2    0  502  0.13739479119E+02 -0.42473737574E+02 -0.44544097359E+02  0.63201587634E+02  0.41800000000E+01 0.  1.
        -11    1    3    3    0    0  0.55316099850E+02 -0.56437096530E+01 -0.35215487876E+02  0.65816813563E+02  0.00000000000E+00 0. -1.
         11    1    3    3    0    0  0.16401964490E+02  0.42866128459E+01  0.47877430230E+02  0.50790233454E+02  0.00000000000E+00 0.  1.
</event>
<event>
 7    1  0.6684706E-006  0.1096655E+03  0.7561462E-02  0.1261191E+00
         -2   -1    0    0    0  501 -0.00000000000E+00  0.00000000000E+00  0.19398411883E+02  0.19398411883E+02  0.00000000000E+00 0. -1.
          2   -1    0    0  501    0  0.00000000000E+00 -0.00000000000E+00 -0.74192611476E+03  0.74192611476E+03  0.00000000000E+00 0.  1.
         23    2    1    2    0    0  0.19221246430E+02 -0.13666267770E+02 -0.17669000727E+03  0.20084028275E+03  0.92526954543E+02 0.  0.
          5    1    1    2  502    0 -0.20825629216E+02  0.68445925793E+02 -0.33692098271E+03  0.34445866600E+03  0.41800000000E+01 0. -1.
         -5    1    1    2    0  502  0.16043827861E+01 -0.54779658023E+02 -0.20891671290E+03  0.21602557790E+03  0.41800000000E+01 0. -1.
        -11    1    3    3    0    0  0.56592027955E+01 -0.51862365952E+02 -0.74911137495E+02  0.91287513381E+02  0.00000000000E+00 0.  1.
         11    1    3    3    0    0  0.13562043635E+02  0.38196098182E+02 -0.10177886977E+03  0.10955276937E+03  0.00000000000E+00 0. -1.
</event>
<event>
 7    1  0.6684706E-006  0.1040198E+03  0.7561462E-02  0.1272063E+00
         -2   -1    0    0    0  501 -0.00000000000E+00  0.00000000000E+00  0.34486232164E+02  0.34486232164E+02  0.00000000000E+00 0.  1.
          2   -1    0    0  501    0  0.00000000000E+00 -0.00000000000E+00 -0.86557126176E+03  0.86557126176E+03  0.00000000000E+00 0. -1.
         23    2    1    2    0    0 -0.10404982369E+02 -0.27833355456E+02 -0.53914679008E+02  0.11232471209E+03  0.93952589100E+02 0.  0.
          5    1    1    2  502    0 -0.45153771948E+02 -0.22777232138E+02 -0.23931648992E+03  0.24463752813E+03  0.41800000000E+01 0.  1.
         -5    1    1    2    0  502  0.55558754318E+02  0.50610587594E+02 -0.53785386067E+03  0.54309525371E+03  0.41800000000E+01 0.  1.
        -11    1    3    3    0    0 -0.34984325375E+02  0.10464912082E+02 -0.55904892727E+02  0.66774055124E+02  0.00000000000E+00 0. -1.
         11    1    3    3    0    0  0.24579343006E+02 -0.38298267538E+02  0.19902137193E+01  0.45550656962E+02  0.00000000000E+00 0.  1.
</event>
<event>
 7    1  0.6684706E-006  0.2567504E+03  0.7561462E-02  0.1109112E+00
         -2   -1    0    0    0  501 -0.00000000000E+00  0.00000000000E+00  0.12471369519E+03  0.12471369519E+03  0.00000000000E+00 0.  1.
          2   -1    0    0  501    0  0.00000000000E+00 -0.00000000000E+00 -0.66549275889E+03  0.66549275889E+03  0.00000000000E+00 0. -1.
         23    2    1    2    0    0  0.43756169013E+02  0.23471904979E+03 -0.10022318458E+03  0.27373362552E+03  0.88756838329E+02 0.  0.
          5    1    1    2  502    0 -0.74042577395E+02 -0.22204580564E+03 -0.36046205222E+03  0.42981043096E+03  0.41800000000E+01 0. -1.
         -5    1    1    2    0  502  0.30286408382E+02 -0.12673244156E+02 -0.80093826894E+02  0.86662397594E+02  0.41800000000E+01 0. -1.
        -11    1    3    3    0    0  0.56731353907E+02  0.14592564231E+03 -0.29138900907E+02  0.15925393291E+03  0.00000000000E+00 0.  1.
         11    1    3    3    0    0 -0.12975184894E+02  0.88793407480E+02 -0.71084283676E+02  0.11447969261E+03  0.00000000000E+00 0. -1.
</event>
<event>
 7    1  0.6684706E-006  0.1611532E+03  0.7561462E-02  0.1187401E+00
          2   -1    0    0  501    0  0.00000000000E+00  0.00000000000E+00  0.11606464907E+03  0.11606464907E+03  0.00000000000E+00 0. -1.
         -2   -1    0    0    0  501 -0.00000000000E+00 -0.00000000000E+00 -0.25540560489E+03  0.25540560489E+03  0.00000000000E+00 0.  1.
         23    2    1    2    0    0  0.88212335182E+02  0.99354219376E+02 -0.79571292171E+02  0.17944873534E+03  0.90650874739E+02 0.  0.
          5    1    1    2  502    0 -0.53620728995E+02  0.10437489657E+02  0.12293165004E+02  0.56149070110E+02  0.41800000000E+01 0. -1.
         -5    1    1    2    0  502 -0.34591606186E+02 -0.10979170903E+03 -0.72062828659E+02  0.13587244851E+03  0.41800000000E+01 0. -1.
        -11    1    3    3    0    0  0.23972974963E+02  0.82507750158E+02 -0.72942985672E+02  0.11270719375E+03  0.00000000000E+00 0.  1.
         11    1    3    3    0    0  0.64239360218E+02  0.16846469218E+02 -0.66283064994E+01  0.66741541587E+02  0.00000000000E+00 0. -1.
</event>
<event>
 7    1  0.6684706E-006  0.1157299E+03  0.7561462E-02  0.1250312E+00
         -3   -1    0    0    0  501 -0.00000000000E+00  0.00000000000E+00  0.94389544838E+03  0.94389544838E+03  0.00000000000E+00 0. -1.
          3   -1    0    0  501    0  0.00000000000E+00 -0.00000000000E+00 -0.18857468230E+02  0.18857468230E+02  0.00000000000E+00 0.  1.
         23    2    1    2    0    0  0.16107034541E+02  0.76686359516E+02  0.38650049712E+03  0.40435324305E+03  0.89323438100E+02 0.  0.
          5    1    1    2  502    0  0.22378196351E+01 -0.99485917754E+02  0.26209800955E+03  0.28038419121E+03  0.41800000000E+01 0.  1.
         -5    1    1    2    0  502 -0.18344854176E+02  0.22799558238E+02  0.27643947347E+03  0.27801548235E+03  0.41800000000E+01 0.  1.
        -11    1    3    3    0    0 -0.23542335035E+02  0.47674003159E+02  0.96120099333E+02  0.10984591759E+03  0.00000000000E+00 0.  1.
         11    1    3    3    0    0  0.39649369576E+02  0.29012356356E+02  0.29038039779E+03  0.29450732546E+03  0.00000000000E+00 0. -1.
</event>
<event>
 7    1  0.6684706E-006  0.1024540E+03  0.7561462E-02  0.1275219E+00
         -2   -1    0    0    0  501 -0.00000000000E+00  0.00000000000E+00  0.10942754727E+02  0.10942754727E+02  0.00000000000E+00 0.  1.
          2   -1    0    0  501    0  0.00000000000E+00 -0.00000000000E+00 -0.14282432825E+04  0.14282432825E+04  0.00000000000E+00 0. -1.
         23    2    1    2    0    0 -0.13323300302E+02  0.39008599968E+02 -0.36914050828E+03  0.38278349585E+03  0.92516531727E+02 0.  0.
          5    1    1    2  502    0  0.55711877194E+02 -0.43872592991E+02 -0.36196173627E+03  0.36886635601E+03  0.41800000000E+01 0.  1.
         -5    1    1    2    0  502 -0.42388576892E+02  0.48639930237E+01 -0.68619828321E+03  0.68753618535E+03  0.41800000000E+01 0.  1.
        -11    1    3    3    0    0  0.23703988865E+02 -0.13095148954E+02 -0.45981686011E+02  0.53363634271E+02  0.00000000000E+00 0.  1.
         11    1    3    3    0    0 -0.37027289167E+02  0.52103748922E+02 -0.32315882227E+03  0.32941986158E+03  0.00000000000E+00 0. -1.
</event>
<event>
 7    1  0.6684706E-006  0.4944043E+03  0.7561462E-02  0.1015250E+00
          2   -1    0    0  501    0  0.00000000000E+00  0.00000000000E+00  0.11542748324E+04  0.11542748324E+04  0.00000000000E+00 0. -1.
         -2   -1    0    0    0  501 -0.00000000000E+00 -0.00000000000E+00 -0.26952848976E+03  0.26952848976E+03  0.00000000000E+00 0.  1.
         23    2    1    2    0    0 -0.45332668570E+03  0.17473784521E+03  0.11905142051E+03  0.50839389363E+03  0.90844437596E+02 0.  0.
          5    1    1    2  502    0  0.94722388932E+02 -0.86854851703E+02  0.25033377007E+03  0.28142594952E+03  0.41800000000E+01 0.  1.
         -5    1    1    2    0  502  0.35860429677E+03 -0.87882993504E+02  0.51536115206E+03  0.63398347901E+03  0.41800000000E+01 0.  1.
        -11    1    3    3    0    0 -0.90530347142E+02  0.56091322593E+01 -0.27517945585E+00  0.90704365066E+02  0.00000000000E+00 0.  1.
         11    1    3    3    0    0 -0.36279633856E+03  0.16912871295E+03  0.11932659997E+03  0.41768952857E+03  0.00000000000E+00 0. -1.
</event>
<event>
 7    1  0.6684706E-006  0.7451326E+02  0.7561462E-02  0.1345385E+00
          3   -1    0    0  501    0  0.00000000000E+00  0.00000000000E+00  0.72691930900E+03  0.72691930900E+03  0.00000000000E+00 0. -1.
         -3   -1    0    0    0  501 -0.00000000000E+00 -0.00000000000E+00 -0.47455301867E+02  0.47455301867E+02  0.00000000000E+00 0.  1.
         23    2    1    2    0    0 -0.35371222520E+02 -0.46838935591E+02  0.31989139535E+02  0.11339795420E+03  0.91601210135E+02 0.  0.
          5    1    1    2  502    0  0.19907360547E+02  0.37348269170E+02  0.63918005554E+03  0.64059332811E+03  0.41800000000E+01 0. -1.
         -5    1    1    2    0  502  0.15463861973E+02  0.94906664211E+01  0.82948120572E+01  0.20383328562E+02  0.41800000000E+01 0.  1.
        -11    1    3    3    0    0 -0.15522071892E+02  0.15812757845E+02 -0.19806483851E+02  0.29719939923E+02  0.00000000000E+00 0. -1.
         11    1    3    3    0    0 -0.19849150628E+02 -0.62651693436E+02  0.51795623386E+02  0.83678014275E+02  0.00000000000E+00 0.  1.
</event>
<event>
 7    1  0.6684706E-006  0.1220702E+03  0.7561462E-02  0.1239720E+00
         -1   -1    0    0    0  501 -0.00000000000E+00  0.00000000000E+00  0.56695337447E+03  0.56695337447E+03  0.00000000000E+00 0.  1.
          1   -1    0    0  501    0  0.00000000000E+00 -0.00000000000E+00 -0.28703001826E+02  0.28703001826E+02  0.00000000000E+00 0. -1.
         23    2    1    2    0    0 -0.63396600743E+02 -0.24386767202E+02  0.24694089230E+03  0.27142974841E+03  0.89891382405E+02 0.  0.
          5    1    1    2  502    0  0.89123906211E+02 -0.17256017600E+02  0.21566402321E+03  0.23402838313E+03  0.41800000000E+01 0.  1.
         -5    1    1    2    0  502 -0.25727305469E+02  0.41642784802E+02  0.75645457128E+02  0.90198244755E+02  0.41800000000E+01 0.  1.
        -11    1    3    3    0    0 -0.15862360975E+02 -0.48363832433E+02  0.17289283698E+03  0.18022932020E+03  0.00000000000E+00 0.  1.
         11    1    3    3    0    0 -0.47534239768E+02  0.23977065231E+02  0.74048055323E+02  0.91200428203E+02  0.00000000000E+00 0. -1.
</event>
<event>
 7    1  0.6684706E-006  0.1361344E+03  0.7561462E-02  0.1218627E+00
         -2   -1    0    0    0  501 -0.00000000000E+00  0.00000000000E+00  0.36988517018E+02  0.36988517018E+02  0.00000000000E+00 0.  1.
          2   -1    0    0  501    0  0.00000000000E+00 -0.00000000000E+00 -0.55945935180E+03  0.55945935180E+03  0.00000000000E+00 0. -1.
         23    2    1    2    0    0  0.52813646573E+02  0.77280938223E+02 -0.24460821668E+03  0.27767706074E+03  0.92248282987E+02 0.  0.
          5    1    1    2  502    0 -0.83516405670E+02 -0.82208519495E+02 -0.25259190427E+03  0.27848406274E+03  0.41800000000E+01 0. -1.
         -5    1    1    2    0  502  0.30702759097E+02  0.49275812727E+01 -0.25270713829E+02  0.40286745348E+02  0.41800000000E+01 0. -1.
        -11    1    3    3    0    0 -0.11966377322E+02  0.53183713412E+02 -0.62719441621E+02  0.83098916454E+02  0.00000000000E+00 0.  1.
         11    1    3    3    0    0  0.64780023895E+02  0.24097224810E+02 -0.18188877506E+03  0.19457814428E+03  0.00000000000E+00 0. -1.
</event>
<event>
 7    1  0.6684706E-006  0.1771821E+03  0.7561462E-02  0.1170558E+00
         -2   -1    0    0    0  501 -0.00000000000E+00  0.00000000000E+00  0.13513519088E+03  0.13513519088E+03  0.00000000000E+00 0.  1.
          2   -1    0    0  501    0  0.00000000000E+00 -0.00000000000E+00 -0.24318081575E+03  0.24318081575E+03  0.00000000000E+00 0. -1.
         23    2    1    2    0    0 -0.13085993295E+03  0.59008213025E+02 -0.77392853034E+02  0.18545924706E+03  0.88313007897E+02 0.  0.
          5    1    1    2  502    0  0.13999533583E+03 -0.80896039814E+02 -0.40664891031E+02  0.16677520521E+03  0.41800000000E+01 0. -1.
         -5    1    1    2    0  502 -0.91354028785E+01  0.21887826789E+02  0.10012119189E+02  0.26081554362E+02  0.41800000000E+01 0. -1.
        -11    1    3    3    0    0 -0.90791299794E+02 -0.72792680109E+01 -0.41840716814E+02  0.10023319532E+03  0.00000000000E+00 0. -1.
         11    1    3    3    0    0 -0.40068633153E+02  0.66287481036E+02 -0.35552136220E+02  0.85226051737E+02  0.00000000000E+00 0.  1.
</event>
<event>
 7    1  0.6684706E-006  0.1252750E+03  0.7561462E-02  0.1234640E+00
         -1   -1    0    0    0  501 -0.00000000000E+00  0.00000000000E+00  0.23266720961E+02  0.23266720961E+02  0.00000000000E+00 0.  1.
          1   -1    0    0  501    0  0.00000000000E+00 -0.00000000000E+00 -0.77572041793E+03  0.77572041793E+03  0.00000000000E+00 0. -1.
         23    2    1    2    0    0 -0.26618007416E+02 -0.74489014543E+02 -0.34632949412E+03  0.36673690923E+03  0.91075301207E+02 0.  0.
          5    1    1    2  502    0  0.62294306172E+02  0.71888201223E+01 -0.25909847563E+03  0.26661161301E+03  0.41800000000E+01 0. -1.
         -5    1    1    2    0  502 -0.35676298756E+02  0.67300194421E+02 -0.14702572722E+03  0.16563861665E+03  0.41800000000E+01 0. -1.
        -11    1    3    3    0    0  0.18251674473E+02 -0.62303663677E+02 -0.12813314163E+03  0.14364181882E+03  0.00000000000E+00 0.  1.
         11    1    3    3    0    0 -0.44869681889E+02 -0.12185350866E+02 -0.21819635249E+03  0.22309509042E+03  0.00000000000E+00 0. -1.
</event>
<event>
 7    1  0.6684706E-006  0.7044627E+02  0.7561462E-02  0.1358582E+00
         -2   -1    0    0    0  501 -0.00000000000E+00  0.00000000000E+00  0.53721519927E+02  0.53721519927E+02  0.00000000000E+00 0.  1.
          2   -1    0    0  501    0  0.00000000000E+00 -0.00000000000E+00 -0.27172427435E+03  0.27172427435E+03  0.00000000000E+00 0. -1.
         23    2    1    2    0    0  0.20163159083E+02 -0.35362208824E+02 -0.49211910406E+02  0.11144762167E+03  0.91333024979E+02 0.  0.
          5    1    1    2  502    0 -0.78961450391E+01  0.80071577773E+01  0.19714454084E+02  0.23078036788E+02  0.41800000000E+01 0. -1.
         -5    1    1    2    0  502 -0.12267014044E+02  0.27355051047E+02 -0.18850529810E+03  0.19092013582E+03  0.41800000000E+01 0. -1.
        -11    1    3    3    0    0 -0.32374029205E+02  0.44894545831E+01 -0.78703168212E+01  0.33618073358E+02  0.00000000000E+00 0. -1.
         11    1    3    3    0    0  0.52537188288E+02 -0.39851663407E+02 -0.41341593585E+02  0.77829548307E+02  0.00000000000E+00 0.  1.
</event>
<event>
 7    1  0.6684706E-006  0.9343054E+02  0.7561462E-02  0.1294751E+00
         -1   -1    0    0    0  501 -0.00000000000E+00  0.00000000000E+00  0.12828158252E+02  0.12828158252E+02  0.00000000000E+00 0.  1.
          1   -1    0    0  501    0  0.00000000000E+00 -0.00000000000E+00 -0.13274908536E+04  0.13274908536E+04  0.00000000000E+00 0. -1.
         23    2    1    2    0    0 -0.55252436505E+01 -0.57451610483E+02 -0.36432528647E+03  0.38004825053E+03  0.91501598391E+02 0.  0.
          5    1    1    2  502    0  0.11031804361E+01 -0.10524006264E+02 -0.49238991083E+01  0.12397132626E+02  0.41800000000E+01 0.  1.
         -5    1    1    2    0  502  0.44220632144E+01  0.67975616747E+02 -0.94541350979E+03  0.94787362872E+03  0.41800000000E+01 0.  1.
        -11    1    3    3    0    0 -0.45330221875E+02 -0.12147588502E+02 -0.13493205507E+03  0.14286025482E+03  0.00000000000E+00 0.  1.
         11    1    3    3    0    0  0.39804978225E+02 -0.45304021981E+02 -0.22939323140E+03  0.23718799571E+03  0.00000000000E+00 0. -1.
</event>
<event>
 7    1  0.6684706E-006  0.1006743E+03  0.7561462E-02  0.1278884E+00
          2   -1    0    0  501    0  0.00000000000E+00  0.00000000000E+00  0.56543929904E+03  0.56543929904E+03  0.00000000000E+00 0. -1.
         -2   -1    0    0    0  501 -0.00000000000E+00 -0.00000000000E+00 -0.26738387514E+02  0.26738387514E+02  0.00000000000E+00 0.  1.
         23    2    1    2    0    0  0.17037014250E+02 -0.50836106020E+02  0.20709490665E+03  0.23373007367E+03  0.94164098494E+02 0.  0.
          5    1    1    2  502    0  0.99175817560E+01  0.77854358959E+02  0.12041116762E+03  0.14379145081E+03  0.41800000000E+01 0. -1.
         -5    1    1    2    0  502 -0.26954596006E+02 -0.27018252938E+02  0.21119483726E+03  0.21465616209E+03  0.41800000000E+01 0. -1.
        -11    1    3    3    0    0  0.15057368469E+02 -0.66697760894E+02  0.20672657802E+03  0.21774111627E+03  0.00000000000E+00 0. -1.
         11    1    3    3    0    0  0.19796457813E+01  0.15861654874E+02  0.36832863274E+00  0.15988957400E+02  0.00000000000E+00 0.  1.
</event>
<event>
 7    1  0.6684706E-006  0.1133933E+03  0.7561462E-02  0.1254412E+00
          2   -1    0    0  501    0  0.00000000000E+00  0.00000000000E+00  0.45531892191E+03  0.45531892191E+03  0.00000000000E+00 0.  1.
         -2   -1    0    0    0  501 -0.00000000000E+00 -0.00000000000E+00 -0.73229277997E+02  0.73229277997E+02  0.00000000000E+00 0. -1.
         23    2    1    2    0    0  0.67331547547E+02  0.35617220582E+02 -0.12463443550E+01  0.11818687742E+03  0.90357406574E+02 0.  0.
          5    1    1    2  502    0 -0.52813579904E+02  0.29291202239E+02  0.83065954038E+02  0.10278459939E+03  0.41800000000E+01 0.  1.
         -5    1    1    2    0  502 -0.14517967643E+02 -0.64908422821E+02  0.30027003423E+03  0.30757672310E+03  0.41800000000E+01 0.  1.
        -11    1    3    3    0    0  0.23459750109E+02  0.48505148408E+02  0.31067497840E+02  0.62195648717E+02  0.00000000000E+00 0.  1.
         11    1    3    3    0    0  0.43871797438E+02 -0.12887927826E+02 -0.32313842195E+02  0.55991228702E+02  0.00000000000E+00 0. -1.
</event>
<event>
 6    1  0.6684706E-006  0.7912084E+02  0.7561462E-02  0.1331565E+00
          2   -1    0    0  501    0  0.00000000000E+00  0.00000000000E+00  0.28072958551E+03  0.28072958551E+03  0.00000000000E+00 0. -1.
         -2   -1    0    0    0  501 -0.00000000000E+00 -0.00000000000E+00 -0.40144059630E+02  0.40144059630E+02  0.00000000000E+00 0.  1.
          5    1    1    2  502    0  0.24062063410E+02  0.61471555797E+02  0.94657790557E+02  0.11547859014E+03  0.41800000000E+01 0. -1.
         -5    1    1    2    0  502  0.68297255543E+01 -0.60667414999E+02  0.15916622930E+03  0.17052431306E+03  0.41800000000E+01 0.  1.
        -11    1    1    2    0    0 -0.13184255065E+02 -0.43056526603E+00 -0.77597536248E+00  0.13214087401E+02  0.00000000000E+00 0. -1.
         11    1    1    2    0    0 -0.17707533899E+02 -0.37357553263E+00 -0.12462518619E+02  0.21656654538E+02  0.00000000000E+00 0.  1.
</event>
<event>
 7    1  0.6684706E-006  0.1330828E+03  0.7561462E-02  0.1222952E+00
         -2   -1    0    0    0  501 -0.00000000000E+00  0.00000000000E+00  0.85611796458E+02  0.85611796458E+02  0.00000000000E+00 0.  1.
          2   -1    0    0  501    0  0.00000000000E+00 -0.00000000000E+00 -0.20822151425E+03  0.20822151425E+03  0.00000000000E+00 0. -1.
         23    2    1    2    0    0 -0.73917371631E+02  0.22925610459E+02 -0.59681070509E+02  0.13384342118E+03  0.91448727555E+02 0.  0.
          5    1    1    2  502    0  0.57581719524E+02  0.47134826965E+02 -0.25383963288E+02  0.78734772042E+02  0.41800000000E+01 0. -1.
         -5    1    1    2    0  502  0.16335652107E+02 -0.70060437424E+02 -0.37544683994E+02  0.81255117488E+02  0.41800000000E+01 0. -1.
        -11    1    3    3    0    0 -0.65635652613E+02 -0.25522405443E+02 -0.39179707884E+02  0.80588346449E+02  0.00000000000E+00 0. -1.
         11    1    3    3    0    0 -0.82817190180E+01  0.48448015902E+02 -0.20501362625E+02  0.53255074727E+02  0.00000000000E+00 0.  1.
</event>
<event>
 7    1  0.6684706E-006  0.2070333E+03  0.7561462E-02  0.1143937E+00
          2   -1    0    0  501    0  0.00000000000E+00  0.00000000000E+00  0.13766541131E+04  0.13766541131E+04  0.00000000000E+00 0. -1.
         -2   -1    0    0    0  501 -0.00000000000E+00 -0.00000000000E+00 -0.39627605442E+02  0.39627605442E+02  0.00000000000E+00 0.  1.
         23    2    1    2    0    0  0.19825352264E+03  0.50711433491E+02  0.57156999374E+03  0.61413096399E+03  0.92674022548E+02 0.  0.
          5    1    1    2  502    0 -0.29260894488E+02 -0.24226445596E+02  0.36062217727E+03  0.36264162440E+03  0.41800000000E+01 0.  1.
         -5    1    1    2    0  502 -0.16899262815E+03 -0.26484987894E+02  0.40483433662E+03  0.43950913013E+03  0.41800000000E+01 0.  1.
        -11    1    3    3    0    0  0.15581089138E+03  0.42627750028E+02  0.31558176005E+03  0.35452222247E+03  0.00000000000E+00 0.  1.
         11    1    3    3    0    0  0.42442631266E+02  0.80836834625E+01  0.25598823369E+03  0.25960874152E+03  0.00000000000E+00 0. -1.
</event>
<event>
 7    1  0.6684706E-006  0.1273876E+03  0.7561462E-02  0.1231384E+00
         -2   -1    0    0    0  501 -0.00000000000E+00  0.00000000000E+00  0.15229270768E+02  0.15229270768E+02  0.00000000000E+00 0.  1.
          2   -1    0    0  501    0  0.00000000000E+00 -0.00000000000E+00 -0.15584158151E+04  0.15584158151E+04  0.00000000000E+00 0. -1.
         23    2    1    2    0    0 -0.92870268127E+02 -0.28420809968E+02 -0.47136647448E+03  0.49018910530E+03  0.93093375420E+02 0.  0.
          5    1    1    2  502    0  0.51525170070E+02  0.63486564111E+02 -0.34402738128E+03  0.35363497910E+03  0.41800000000E+01 0. -1.
         -5    1    1    2    0  502  0.41345098057E+02 -0.35065754143E+02 -0.72779268853E+03  0.72982100143E+03  0.41800000000E+01 0. -1.
        -11    1    3    3    0    0  0.10106820684E+02  0.35381495147E+01 -0.55585534349E+01  0.12064984153E+02  0.00000000000E+00 0.  1.
         11    1    3    3    0    0 -0.10297708881E+03 -0.31958959483E+02 -0.46580792105E+03  0.47812412115E+03  0.00000000000E+00 0. -1.
</event>
<event>
 7    1  0.6684706E-006  0.8239043E+02  0.7561462E-02  0.1322401E+00
          1   -1    0    0  501    0  0.00000000000E+00  0.00000000000E+00  0.50044513125E+02  0.50044513125E+02  0.00000000000E+00 0. -1.
         -1   -1    0    0    0  501 -0.00000000000E+00 -0.00000000000E+00 -0.29641186578E+03  0.29641186578E+03  0.00000000000E+00 0.  1.
         23    2    1    2    0    0  0.54513901380E+02  0.31602362018E+01 -0.93467075236E+02  0.14150095466E+03  0.91129981232E+02 0.  0.
          5    1    1    2  502    0 -0.27555299411E+02  0.10807945010E+02  0.15580589922E+02  0.33709544395E+02  0.41800000000E+01 0. -1.
         -5    1    1    2    0  502 -0.26958601968E+02 -0.13968181212E+02 -0.16848086734E+03  0.17124587985E+03  0.41800000000E+01 0. -1.
        -11    1    3    3    0    0 -0.60636056364E+01 -0.33091914516E+02 -0.43588664931E+02  0.55061909067E+02  0.00000000000E+00 0.  1.
         11    1    3    3    0    0  0.60577507016E+02  0.36252150718E+02 -0.49878410306E+02  0.86439045591E+02  0.00000000000E+00 0. -1.
</event>
<event>
 7    1  0.6684706E-006  0.1368125E+03  0.7561462E-02  0.1217683E+00
         -1   -1    0    0    0  501 -0.00000000000E+00  0.00000000000E+00  0.87461130537E+02  0.87461130537E+02  0.00000000000E+00 0.  1.
          1   -1    0    0  501    0  0.00000000000E+00 -0.00000000000E+00 -0.32659030283E+03  0.32659030283E+03  0.00000000000E+00 0. -1.
         23    2    1    2    0    0  0.49673257022E+02 -0.75274669061E+02 -0.14653338849E+01  0.13073993896E+03  0.94641830971E+02 0.  0.
          5    1    1    2  502    0 -0.72100323009E+02  0.29037678058E+01 -0.15544548697E+03  0.17142829482E+03  0.41800000000E+01 0.  1.
         -5    1    1    2    0  502  0.22427065988E+02  0.72370901255E+02 -0.82218351435E+02  0.11188319959E+03  0.41800000000E+01 0.  1.
        -11    1    3    3    0    0  0.55716266856E+02 -0.61264388198E+01  0.17612646633E+02  0.58754071913E+02  0.00000000000E+00 0.  1.
         11    1    3    3    0    0 -0.60430098344E+01 -0.69148230241E+02 -0.19077980518E+02  0.71985867043E+02  0.00000000000E+00 0. -1.
</event>
<event>
 7    1  0.6684706E-006  0.1733114E+03  0.7561462E-02  0.1174438E+00
         -1   -1    0    0    0  501 -0.00000000000E+00  0.00000000000E+00  0.23875722039E+03  0.23875722039E+03  0.00000000000E+00 0.  1.
          1   -1    0    0  501    0  0.00000000000E+00 -0.00000000000E+00 -0.16075487653E+03  0.16075487653E+03  0.00000000000E+00 0. -1.
         23    2    1    2    0    0  0.14897701218E+03 -0.63017916467E+02  0.29318904601E+02  0.18931706150E+03  0.93893256705E+02 0.  0.
          5    1    1    2  502    0 -0.93820657208E+02  0.16990662946E+02  0.86586723732E+02  0.12886322778E+03  0.41800000000E+01 0. -1.
         -5    1    1    2    0  502 -0.55156354973E+02  0.46027253522E+02 -0.37903284467E+02  0.81331807640E+02  0.41800000000E+01 0. -1.
        -11    1    3    3    0    0  0.78064418321E+02 -0.73884080885E+02 -0.92223138600E+01  0.10787938584E+03  0.00000000000E+00 0. -1.
         11    1    3    3    0    0  0.70912593859E+02  0.10866164418E+02  0.38541218461E+02  0.81437675663E+02  0.00000000000E+00 0.  1.
</event>
<event>
 7    1  0.6684706E-006  0.9821554E+02  0.7561462E-02  0.1284094E+00
         -1   -1    0    0    0  501 -0.00000000000E+00  0.00000000000E+00  0.18746133464E+02  0.18746133464E+02  0.00000000000E+00 0.  1.
          1   -1    0    0  501    0  0.00000000000E+00 -0.00000000000E+00 -0.71911679919E+03  0.71911679919E+03  0.00000000000E+00 0. -1.
         23    2    1    2    0    0  0.39602128908E+02 -0.14927656946E+02 -0.27549981904E+03  0.29294390941E+03  0.90137784595E+02 0.  0.
          5    1    1    2  502    0  0.10280798196E+02  0.41587864923E+02 -0.50845390685E+02  0.66618101701E+02  0.41800000000E+01 0.  1.
         -5    1    1    2    0  502 -0.49882927104E+02 -0.26660207976E+02 -0.37402545601E+03  0.37830092155E+03  0.41800000000E+01 0.  1.
        -11    1    3    3    0    0  0.46614390204E+01 -0.48200045682E+02 -0.17311254805E+03  0.17975796981E+03  0.00000000000E+00 0. -1.
         11    1    3    3    0    0  0.34940689887E+02  0.33272388736E+02 -0.10238727099E+03  0.11318593960E+03  0.00000000000E+00 0.  1.
</event>
<event>
 7    1  0.6684706E-006  0.1908449E+03  0.7561462E-02  0.1157701E+00
         -2   -1    0    0    0  501 -0.00000000000E+00  0.00000000000E+00  0.15428544709E+03  0.15428544709E+03  0.00000000000E+00 0.  1.
          2   -1    0    0  501    0  0.00000000000E+00 -0.00000000000E+00 -0.23641699414E+03  0.23641699414E+03  0.00000000000E+00 0. -1.
         23    2    1    2    0    0  0.12770810239E+03 -0.90245560104E+02 -0.34056213280E+02  0.18476029428E+03  0.92319662834E+02 0.  0.
          5    1    1    2  502    0 -0.13733484011E+03  0.11122196171E+03 -0.43462010761E+02  0.18203736389E+03  0.41800000000E+01 0.  1.
         -5    1    1    2    0  502  0.96267377146E+01 -0.20976401607E+02 -0.46133230110E+01  0.23904783048E+02  0.41800000000E+01 0.  1.
        -11    1    3    3    0    0  0.66610323663E+02 -0.99427448943E+02 -0.25801784268E+02  0.12242746789E+03  0.00000000000E+00 0. -1.
         11    1    3    3    0    0  0.61097778729E+02  0.91818888396E+01 -0.82544290127E+01  0.62332826396E+02  0.00000000000E+00 0.  1.
</event>
<event>
 7    1  0.6684706E-006  0.1099270E+03  0.7561462E-02  0.1260705E+00
          3   -1    0    0  501    0  0.00000000000E+00  0.00000000000E+00  0.31805566554E+03  0.31805566554E+03  0.00000000000E+00 0. -1.
         -3   -1    0    0    0  501 -0.00000000000E+00 -0.00000000000E+00 -0.64544928582E+02  0.64544928582E+02  0.00000000000E+00 0.  1.
         23    2    1    2    0    0 -0.52180607291E+02  0.73744232223E+02  0.89593316487E+02  0.15749163123E+03  0.92820385616E+02 0.  0.
          5    1    1    2  502    0  0.98906466611E+01 -0.31477776828E+02  0.16174948842E+03  0.16513341494E+03  0.41800000000E+01 0. -1.
         -5    1    1    2    0  502  0.42289960630E+02 -0.42266455396E+02  0.21679320446E+01  0.59975547944E+02  0.41800000000E+01 0. -1.
        -11    1    3    3    0    0  0.25321556324E+02  0.21192415264E+02  0.38852993478E+02  0.50988771132E+02  0.00000000000E+00 0. -1.
         11    1    3    3    0    0 -0.77502163615E+02  0.52551816959E+02  0.50740323009E+02  0.10650286010E+03  0.00000000000E+00 0.  1.
</event>
<event>
 7    1  0.6684706E-006  0.1094523E+03  0.7561462E-02  0.1261588E+00
         -1   -1    0    0    0  501 -0.00000000000E+00  0.00000000000E+00  0.11541449981E+03  0.11541449981E+03  0.00000000000E+00 0.  1.
          1   -1    0    0  501    0  0.00000000000E+00 -0.00000000000E+00 -0.18014110674E+03  0.18014110674E+03  0.00000000000E+00 0. -1.
         23    2    1    2    0    0 -0.41742453318E+02 -0.52599220165E+02  0.38832098689E+02  0.11982583715E+03  0.91330109983E+02 0.  0.
          5    1    1    2  502    0  0.75104560071E+02  0.17509620797E+02 -0.10089151521E+03  0.12705845901E+03  0.41800000000E+01 0.  1.
         -5    1    1    2    0  502 -0.33362106753E+02  0.35089599368E+02 -0.26671904088E+01  0.48671310394E+02  0.41800000000E+01 0.  1.
        -11    1    3    3    0    0 -0.21626740780E+02  0.12471808870E+02  0.44975666770E+02  0.51439989644E+02  0.00000000000E+00 0.  1.
         11    1    3    3    0    0 -0.20115712538E+02 -0.65071029035E+02 -0.61435680805E+01  0.68385847508E+02  0.00000000000E+00 0. -1.
</event>
<event>
 7    1  0.6684706E-006  0.1036219E+03  0.7561462E-02  0.1272859E+00
         -1   -1    0    0    0  501 -0.00000000000E+00  0.00000000000E+00  0.12057953866E+03  0.12057953866E+03  0.00000000000E+00 0.  1.
          1   -1    0    0  501    0  0.00000000000E+00 -0.00000000000E+00 -0.11789942063E+03  0.11789942063E+03  0.00000000000E+00 0. -1.
         23    2    1    2    0    0 -0.49736245380E+02  0.65669413311E+01  0.76271324927E+01  0.10360787010E+03  0.90330497477E+02 0.  0.
          5    1    1    2  502    0  0.89030587276E+02 -0.22704151739E+02 -0.71489505960E+00  0.91977755202E+02  0.41800000000E+01 0.  1.
         -5    1    1    2    0  502 -0.39294341896E+02  0.16137210408E+02 -0.42321194031E+01  0.42893333975E+02  0.41800000000E+01 0.  1.
        -11    1    3    3    0    0 -0.21148119202E+02  0.29247508656E+02 -0.33065708110E+02  0.48948960777E+02  0.00000000000E+00 0.  1.
         11    1    3    3    0    0 -0.28588126178E+02 -0.22680567325E+02  0.40692840602E+02  0.54658909327E+02  0.00000000000E+00 0. -1.
</event>
<event>
 7    1  0.6684706E-006  0.8773079E+02  0.7561462E-02  0.1308442E+00
         -2   -1    0    0    0  501 -0.00000000000E+00  0.00000000000E+00  0.34352666729E+02  0.34352666729E+02  0.00000000000E+00 0.  1.
          2   -1    0    0  501    0  0.00000000000E+00 -0.00000000000E+00 -0.41398961023E+03  0.41398961023E+03  0.00000000000E+00 0. -1.
         23    2    1    2    0    0 -0.36204049562E+02  0.23472610611E+01 -0.11865385826E+03  0.15666544284E+03  0.95650823634E+02 0.  0.
          5    1    1    2  502    0 -0.25358074429E+02  0.10905166067E+02 -0.54238329028E+01  0.28440199525E+02  0.41800000000E+01 0. -1.
         -5    1    1    2    0  502  0.61562123991E+02 -0.13252427128E+02 -0.25555925234E+03  0.26323663459E+03  0.41800000000E+01 0. -1.
        -11    1    3    3    0    0 -0.29759679941E+02  0.37963627750E+02 -0.10901314920E+03  0.11920881797E+03  0.00000000000E+00 0. -1.
         11    1    3    3    0    0 -0.64443696210E+01 -0.35616366688E+02 -0.96407090574E+01  0.37456624875E+02  0.00000000000E+00 0.  1.
</event>
<event>
 7    1  0.6684706E-006  0.9533123E+02  0.7561462E-02  0.1290432E+00
         -2   -1    0    0    0  501 -0.00000000000E+00  0.00000000000E+00  0.15226948088E+02  0.15226948088E+02  0.00000000000E+00 0.  1.
          2   -1    0    0  501    0  0.00000000000E+00 -0.00000000000E+00 -0.73124832982E+03  0.73124832982E+03  0.00000000000E+00 0. -1.
         23    2    1    2    0    0 -0.36122237383E+02  0.16300043274E+02 -0.23359311973E+03  0.24652036438E+03  0.68088450006E+02 0.  0.
          5    1    1    2  502    0  0.71038832441E+02  0.18760595348E+02 -0.19820913847E+03  0.21143039191E+03  0.41800000000E+01 0.  1.
         -5    1    1    2    0  502 -0.34916595058E+02 -0.35060638621E+02 -0.28421912354E+03  0.28852452162E+03  0.41800000000E+01 0.  1.
        -11    1    3    3    0    0 -0.10815021483E+02 -0.20248979972E+02 -0.28155968742E+02  0.36328287262E+02  0.00000000000E+00 0.  1.
         11    1    3    3    0    0 -0.25307215900E+02  0.36549023246E+02 -0.20543715099E+03  0.21019207712E+03  0.00000000000E+00 0. -1.
</event>
<event>
 7    1  0.6684706E-006  0.1256890E+03  0.7561462E-02  0.1233996E+00
          2   -1    0    0  501    0  0.00000000000E+00  0.00000000000E+00  0.37104847473E+03  0.37104847473E+03  0.00000000000E+00 0. -1.
         -2   -1    0    0    0  501 -0.00000000000E+00 -0.00000000000E+00 -0.63519127930E+02  0.63519127930E+02  0.00000000000E+00 0.  1.
         23    2    1    2    0    0 -0.48682072132E+02 -0.84522051332E+02  0.81473085683E+02  0.15843902977E+03  0.94610470638E+02 0.  0.
          5    1    1    2  502    0  0.78756580813E+02  0.48946986014E+02  0.20459963315E+03  0.22467062279E+03  0.41800000000E+01 0.  1.
         -5    1    1    2    0  502 -0.30074508681E+02  0.35575065319E+02  0.21456627967E+02  0.51457950100E+02  0.41800000000E+01 0.  1.
        -11    1    3    3    0    0 -0.82441178592E+01  0.75785472959E+01  0.52616050107E+02  0.53794503318E+02  0.00000000000E+00 0. -1.
         11    1    3    3    0    0 -0.40437954273E+02 -0.92100598628E+02  0.28857035576E+02  0.10464452645E+03  0.00000000000E+00 0.  1.
</event>
<event>
 7    1  0.6684706E-006  0.1313457E+03  0.7561462E-02  0.1225473E+00
         -2   -1    0    0    0  501 -0.00000000000E+00  0.00000000000E+00  0.47656325999E+02  0.47656325999E+02  0.00000000000E+00 0.  1.
          2   -1    0    0  501    0  0.00000000000E+00 -0.00000000000E+00 -0.10197225294E+04  0.10197225294E+04  0.00000000000E+00 0. -1.
         23    2    1    2    0    0 -0.11090509910E+03 -0.21040098061E+02 -0.90545135035E+02  0.16989939723E+03  0.89021104057E+02 0.  0.
          5    1    1    2  502    0  0.77044657363E+02  0.59743282800E+02 -0.74797103448E+03  0.75430980365E+03  0.41800000000E+01 0.  1.
         -5    1    1    2    0  502  0.33860441736E+02 -0.38703184740E+02 -0.13355003390E+03  0.14316965453E+03  0.41800000000E+01 0.  1.
        -11    1    3    3    0    0 -0.61570054071E+02 -0.17708522934E+02  0.29496934624E+01  0.64133953834E+02  0.00000000000E+00 0.  1.
         11    1    3    3    0    0 -0.49335045028E+02 -0.33315751270E+01 -0.93494828497E+02  0.10576544339E+03  0.00000000000E+00 0. -1.
</event>
<event>
 7    1  0.6684706E-006  0.1555794E+03  0.7561462E-02  0.1193780E+00
          4   -1    0    0  501    0  0.00000000000E+00  0.00000000000E+00  0.16146134082E+03  0.16146134082E+03  0.00000000000E+00 0. -1.
         -4   -1    0    0    0  501 -0.00000000000E+00 -0.00000000000E+00 -0.18959686129E+03  0.18959686129E+03  0.00000000000E+00 0.  1.
         23    2    1    2    0    0 -0.63226705424E+02 -0.97349238311E+02 -0.75173662842E+02  0.18246377685E+03  0.11902713891E+03 0.  0.
          5    1    1    2  502    0  0.10236502434E+02  0.92423088394E+02  0.63560949792E+02  0.11271326448E+03  0.41800000000E+01 0. -1.
         -5    1    1    2    0  502  0.52990202990E+02  0.49261499168E+01 -0.16522807428E+02  0.55881160790E+02  0.41800000000E+01 0.  1.
        -11    1    3    3    0    0 -0.94072972311E+02 -0.45821336776E+02 -0.59600511951E+02  0.12042234032E+03  0.00000000000E+00 0.  1.
         11    1    3    3    0    0  0.30846266887E+02 -0.51527901534E+02 -0.15573150891E+02  0.62041436525E+02  0.00000000000E+00 0. -1.
</event>
<event>
 7    1  0.6684706E-006  0.6270597E+02  0.7561462E-02  0.1386815E+00
         -2   -1    0    0    0  501 -0.00000000000E+00  0.00000000000E+00  0.44482260254E+02  0.44482260254E+02  0.00000000000E+00 0.  1.
          2   -1    0    0  501    0  0.00000000000E+00 -0.00000000000E+00 -0.35182226313E+03  0.35182226313E+03  0.00000000000E+00 0. -1.
         23    2    1    2    0    0  0.54000253784E+02 -0.35706146989E+01 -0.88315201537E+02  0.13833328404E+03  0.91693761794E+02 0.  0.
          5    1    1    2  502    0  0.74406248612E+01 -0.12762111748E+01  0.14248245252E+02  0.16657626063E+02  0.41800000000E+01 0. -1.
         -5    1    1    2    0  502 -0.61440878646E+02  0.48468258737E+01 -0.23327304659E+03  0.24131361328E+03  0.41800000000E+01 0. -1.
        -11    1    3    3    0    0  0.30328113701E+02  0.29065293715E+01  0.13701376484E+02  0.33406138825E+02  0.00000000000E+00 0.  1.
         11    1    3    3    0    0  0.23672140084E+02 -0.64771440704E+01 -0.10201657802E+03  0.10492714521E+03  0.00000000000E+00 0. -1.
</event>
<event>
 7    1  0.6684706E-006  0.1504754E+03  0.7561462E-02  0.1199890E+00
          2   -1    0    0  501    0  0.00000000000E+00  0.00000000000E+00  0.18881051721E+04  0.18881051721E+04  0.00000000000E+00 0. -1.
         -2   -1    0    0    0  501 -0.00000000000E+00 -0.00000000000E+00 -0.25095974273E+02  0.25095974273E+02  0.00000000000E+00 0.  1.
         23    2    1    2    0    0  0.31807050389E+02 -0.14361965318E+03  0.37916913224E+03  0.41685008858E+03  0.91413742227E+02 0.  0.
          5    1    1    2  502    0  0.61234938547E+01  0.14160622120E+02  0.17073171560E+02  0.23387731462E+02  0.41800000000E+01 0.  1.
         -5    1    1    2    0  502 -0.37930544244E+02  0.12945903106E+03  0.14667668940E+04  0.14729633263E+04  0.41800000000E+01 0.  1.
        -11    1    3    3    0    0 -0.22155916353E+00 -0.66423405693E+02  0.27699350948E+03  0.28484648884E+03  0.00000000000E+00 0. -1.
         11    1    3    3    0    0  0.32028609553E+02 -0.77196247490E+02  0.10217562276E+03  0.13200359974E+03  0.00000000000E+00 0.  1.
</event>
<event>
 7    1  0.6684706E-006  0.8131868E+02  0.7561462E-02  0.1325350E+00
          2   -1    0    0  501    0  0.00000000000E+00  0.00000000000E+00  0.20803702548E+04  0.20803702548E+04  0.00000000000E+00 0. -1.
         -2   -1    0    0    0  501 -0.00000000000E+00 -0.00000000000E+00 -0.11165372637E+02  0.11165372637E+02  0.00000000000E+00 0.  1.
         23    2    1    2    0    0  0.22670632716E+02 -0.65486636614E+02  0.39060713788E+03  0.40685862361E+03  0.90319135712E+02 0.  0.
          5    1    1    2  502    0 -0.24528278525E+02  0.51668880355E+02  0.16603280898E+04  0.16613181958E+04  0.41800000000E+01 0.  1.
         -5    1    1    2    0  502  0.18576458084E+01  0.13817756259E+02  0.18269654478E+02  0.23358807990E+02  0.41800000000E+01 0.  1.
        -11    1    3    3    0    0  0.17163639642E+02  0.66359048162E+01  0.13361336199E+02  0.22740955642E+02  0.00000000000E+00 0.  1.
         11    1    3    3    0    0  0.55069930746E+01 -0.72122541430E+02  0.37724580168E+03  0.38411766796E+03  0.00000000000E+00 0. -1.
</event>
<event>
 7    1  0.6684706E-006  0.1245958E+03  0.7561462E-02  0.1235702E+00
         -2   -1    0    0    0  501 -0.00000000000E+00  0.00000000000E+00  0.59330643166E+02  0.59330643166E+02  0.00000000000E+00 0.  1.
          2   -1    0    0  501    0  0.00000000000E+00 -0.00000000000E+00 -0.36589647872E+03  0.36589647872E+03  0.00000000000E+00 0. -1.
         23    2    1    2    0    0  0.15716545870E+02 -0.16443811653E+02 -0.22795197649E+02  0.96026173379E+02  0.90465441922E+02 0.  0.
          5    1    1    2  502    0 -0.29533430681E+02  0.86321392038E+02 -0.19484662058E+03  0.21518895000E+03  0.41800000000E+01 0. -1.
         -5    1    1    2    0  502  0.13816884810E+02 -0.69877580385E+02 -0.88924017326E+02  0.11401199851E+03  0.41800000000E+01 0.  1.
        -11    1    3    3    0    0  0.48115363035E+02  0.38664516389E+01  0.53218419552E+01  0.48562944825E+02  0.00000000000E+00 0.  1.
         11    1    3    3    0    0 -0.32398817165E+02 -0.20310263292E+02 -0.28117039605E+02  0.47463228554E+02  0.00000000000E+00 0. -1.
</event>
<event>
 7    1  0.6684706E-006  0.2647185E+03  0.7561462E-02  0.1104341E+00
          2   -1    0    0  501    0  0.00000000000E+00  0.00000000000E+00  0.56373133407E+03  0.56373133407E+03  0.00000000000E+00 0. -1.
         -2   -1    0    0    0  501 -0.00000000000E+00 -0.00000000000E+00 -0.14895234649E+03  0.14895234649E+03  0.00000000000E+00 0.  1.
         23    2    1    2    0    0 -0.12158642140E+02 -0.26370444521E+03  0.14602120516E+03  0.31573835697E+03  0.93170009655E+02 0.  0.
          5    1    1    2  502    0  0.11700925572E+02  0.63420493362E+02  0.15177668129E+03  0.16496273525E+03  0.41800000000E+01 0.  1.
         -5    1    1    2    0  502  0.45771656806E+00  0.20028395185E+03  0.11698110113E+03  0.23198258834E+03  0.41800000000E+01 0.  1.
        -11    1    3    3    0    0 -0.15114963698E+02 -0.15433089913E+03  0.33214327647E+02  0.15858650672E+03  0.00000000000E+00 0.  1.
         11    1    3    3    0    0  0.29563215573E+01 -0.10937354608E+03  0.11280687751E+03  0.15715185024E+03  0.00000000000E+00 0. -1.
</event>
<event>
 7    1  0.6684706E-006  0.9033168E+02  0.7561462E-02  0.1302050E+00
          1   -1    0    0  501    0  0.00000000000E+00  0.00000000000E+00  0.14791179597E+03  0.14791179597E+03  0.00000000000E+00 0. -1.
         -1   -1    0    0    0  501 -0.00000000000E+00 -0.00000000000E+00 -0.10666123540E+03  0.10666123540E+03  0.00000000000E+00 0.  1.
         23    2    1    2    0    0 -0.58215722762E+02 -0.14413653652E+02  0.24352063419E+02  0.11483757565E+03  0.94856850049E+02 0.  0.
          5    1    1    2  502    0 -0.28716409575E+02 -0.21354074429E+01  0.38778745911E+02  0.48481498309E+02  0.41800000000E+01 0. -1.
         -5    1    1    2    0  502  0.86932132337E+02  0.16549061095E+02 -0.21880248759E+02  0.91253957402E+02  0.41800000000E+01 0. -1.
        -11    1    3    3    0    0 -0.30456578912E+02  0.23475380220E+01 -0.35458678944E+02  0.46802051731E+02  0.00000000000E+00 0.  1.
         11    1    3    3    0    0 -0.27759143850E+02 -0.16761191674E+02  0.59810742362E+02  0.68035523923E+02  0.00000000000E+00 0. -1.
</event>
<event>
 7    1  0.6684706E-006  0.1456979E+03  0.7561462E-02  0.1205861E+00
         -1   -1    0    0    0  501 -0.00000000000E+00  0.00000000000E+00  0.87858009603E+02  0.87858009603E+02  0.00000000000E+00 0.  1.
          1   -1    0    0  501    0  0.00000000000E+00 -0.00000000000E+00 -0.32822753722E+03  0.32822753722E+03  0.00000000000E+00 0. -1.
         23    2    1    2    0    0 -0.12998314773E+03  0.84446391516E+01 -0.93868066731E+02  0.18354092088E+03  0.88933261832E+02 0.  0.
          5    1    1    2  502    0  0.43766533870E+02  0.32058374164E+02 -0.12276973208E+03  0.13428748399E+03  0.41800000000E+01 0. -1.
         -5    1    1    2    0  502  0.86216613858E+02 -0.40503013316E+02 -0.23731728799E+02  0.98257141952E+02  0.41800000000E+01 0. -1.
        -11    1    3    3    0    0 -0.40520580634E+02  0.29015743013E+02 -0.74643434847E+02  0.89752287788E+02  0.00000000000E+00 0.  1.
         11    1    3    3    0    0 -0.89462567095E+02 -0.20571103862E+02 -0.19224631884E+02  0.93788633087E+02  0.00000000000E+00 0. -1.
</event>
<event>
 7    1  0.6684706E-006  0.1366173E+03  0.7561462E-02  0.1217954E+00
          1   -1    0    0  501    0  0.00000000000E+00  0.00000000000E+00  0.16989024098E+03  0.16989024098E+03  0.00000000000E+00 0. -1.
         -1   -1    0    0    0  501 -0.00000000000E+00 -0.00000000000E+00 -0.13087588838E+03  0.13087588838E+03  0.00000000000E+00 0.  1.
         23    2    1    2    0    0 -0.89493848131E+02  0.36139139492E+02  0.83595826613E+01  0.13983686828E+03  0.10084285226E+03 0.  0.
          5    1    1    2  502    0 -0.16792233878E+02 -0.20992391173E+02 -0.27563805753E+02  0.38728482973E+02  0.41800000000E+01 0. -1.
         -5    1    1    2    0  502  0.10628608201E+03 -0.15146748319E+02  0.58218575694E+02  0.12220077810E+03  0.41800000000E+01 0. -1.
        -11    1    3    3    0    0 -0.10636649854E+03  0.91506897066E+01 -0.63660129062E+00  0.10676128697E+03  0.00000000000E+00 0.  1.
         11    1    3    3    0    0  0.16872650409E+02  0.26988449785E+02  0.89961839520E+01  0.33075581315E+02  0.00000000000E+00 0. -1.
</event>
<event>
 7    1  0.6684706E-006  0.3225426E+03  0.7561462E-02  0.1074485E+00
         -1   -1    0    0    0  501 -0.00000000000E+00  0.00000000000E+00  0.99662966988E+02  0.99662966988E+02  0.00000000000E+00 0.  1.
          1   -1    0    0  501    0  0.00000000000E+00 -0.00000000000E+00 -0.11588726231E+04  0.11588726231E+04  0.00000000000E+00 0. -1.
         23    2    1    2    0    0 -0.28686265517E+03  0.11895105586E+03 -0.35370881813E+03  0.47762740642E+03  0.81107796907E+02 0.  0.
          5    1    1    2  502    0  0.24878573322E+03 -0.47280462597E+02 -0.54690933876E+03  0.60270812208E+03  0.41800000000E+01 0.  1.
         -5    1    1    2    0  502  0.38076921953E+02 -0.71670593265E+02 -0.15859149925E+03  0.17820006161E+03  0.41800000000E+01 0.  1.
        -11    1    3    3    0    0 -0.25824284795E+03  0.10709960021E+03 -0.27121331252E+03  0.38950783532E+03  0.00000000000E+00 0.  1.
         11    1    3    3    0    0 -0.28619807223E+02  0.11851455651E+02 -0.82495505608E+02  0.88119571107E+02  0.00000000000E+00 0. -1.
</event>
<event>
 7    1  0.6684706E-006  0.1038232E+03  0.7561462E-02  0.1272456E+00
          2   -1    0    0  501    0  0.00000000000E+00  0.00000000000E+00  0.13106438100E+03  0.13106438100E+03  0.00000000000E+00 0. -1.
         -2   -1    0    0    0  501 -0.00000000000E+00 -0.00000000000E+00 -0.10560872054E+03  0.10560872054E+03  0.00000000000E+00 0.  1.
         23    2    1    2    0    0 -0.14349494789E+02  0.49518536060E+02  0.14291587723E+02  0.10091419282E+03  0.85565363427E+02 0.  0.
          5    1    1    2  502    0  0.57643975093E+02 -0.53468328569E+02  0.34818293914E+02  0.86089929815E+02  0.41800000000E+01 0.  1.
         -5    1    1    2    0  502 -0.43294480303E+02  0.39497925083E+01 -0.23654221181E+02  0.49668978903E+02  0.41800000000E+01 0.  1.
        -11    1    3    3    0    0  0.26652302211E+02  0.29001700890E+02 -0.19507123251E+02  0.43954200313E+02  0.00000000000E+00 0.  1.
         11    1    3    3    0    0 -0.41001797000E+02  0.20516835171E+02  0.33798710974E+02  0.56959992505E+02  0.00000000000E+00 0. -1.
</event>
<event>
 7    1  0.6684706E-006  0.1443628E+03  0.7561462E-02  0.1207576E+00
          2   -1    0    0  501    0  0.00000000000E+00  0.00000000000E+00  0.97417011095E+03  0.97417011095E+03  0.00000000000E+00 0. -1.
         -2   -1    0    0    0  501 -0.00000000000E+00 -0.00000000000E+00 -0.30479725091E+02  0.30479725091E+02  0.00000000000E+00 0.  1.
         23    2    1    2    0    0  0.41309985737E+01  0.13145795699E+03  0.38214890535E+03  0.41450045916E+03  0.92057510183E+02 0.  0.
          5    1    1    2  502    0 -0.23891315718E+02 -0.12853698754E+03  0.55259718968E+03  0.56786765938E+03  0.41800000000E+01 0. -1.
         -5    1    1    2    0  502  0.19760317144E+02 -0.29209694477E+01  0.89442908376E+01  0.22281717500E+02  0.41800000000E+01 0. -1.
        -11    1    3    3    0    0 -0.16225837029E+02  0.88503697423E+02  0.13120384763E+03  0.15909315472E+03  0.00000000000E+00 0.  1.
         11    1    3    3    0    0  0.20356835602E+02  0.42954259568E+02  0.25094505772E+03  0.25540730444E+03  0.00000000000E+00 0. -1.
</event>
<event>
 7    1  0.6684706E-006  0.2286450E+03  0.7561462E-02  0.1127597E+00
          2   -1    0    0  501    0  0.00000000000E+00  0.00000000000E+00  0.28998608623E+03  0.28998608623E+03  0.00000000000E+00 0. -1.
         -2   -1    0    0    0  501 -0.00000000000E+00 -0.00000000000E+00 -0.34205182107E+03  0.34205182107E+03  0.00000000000E+00 0.  1.
         23    2    1    2    0    0 -0.75062285923E+02 -0.21169232075E+03 -0.21764490248E+03  0.32623801155E+03  0.92811374133E+02 0.  0.
          5    1    1    2  502    0  0.57312892063E+02  0.94283097400E+02  0.14956829727E+03  0.18590916600E+03  0.41800000000E+01 0. -1.
         -5    1    1    2    0  502  0.17749393861E+02  0.11740922335E+03  0.16010870371E+02  0.11989072975E+03  0.41800000000E+01 0. -1.
        -11    1    3    3    0    0 -0.61391484937E+02 -0.11460097397E+03 -0.66378672970E+02  0.14597405894E+03  0.00000000000E+00 0. -1.
         11    1    3    3    0    0 -0.13670800986E+02 -0.97091346786E+02 -0.15126622951E+03  0.18026395261E+03  0.00000000000E+00 0.  1.
</event>
<event>
 7    1  0.6684706E-006  0.1374441E+03  0.7561462E-02  0.1216810E+00
         -1   -1    0    0    0  501 -0.00000000000E+00  0.00000000000E+00  0.77690118936E+02  0.77690118936E+02  0.00000000000E+00 0.  1.
          1   -1    0    0  501    0  0.00000000000E+00 -0.00000000000E+00 -0.34272488108E+03  0.34272488108E+03  0.00000000000E+00 0. -1.
         23    2    1    2    0    0  0.69498375880E+02 -0.72072240822E+02 -0.46785102700E+02  0.14406286329E+03  0.92416614287E+02 0.  0.
          5    1    1    2  502    0 -0.59388105303E+02  0.10350787061E+03 -0.21075900056E+03  0.24223471066E+03  0.41800000000E+01 0. -1.
         -5    1    1    2    0  502 -0.10110270577E+02 -0.31435629792E+02 -0.74906588876E+01  0.34117426077E+02  0.41800000000E+01 0.  1.
        -11    1    3    3    0    0  0.58503252775E+01 -0.56324883737E+02  0.97821947114E+01  0.57466600450E+02  0.00000000000E+00 0.  1.
         11    1    3    3    0    0  0.63648050603E+02 -0.15747357085E+02 -0.56567297411E+02  0.86596262836E+02  0.00000000000E+00 0. -1.
</event>
<event>
 7    1  0.6684706E-006  0.6766582E+02  0.7561462E-02  0.1368215E+00
          1   -1    0    0  501    0  0.00000000000E+00  0.00000000000E+00  0.71698978597E+03  0.71698978597E+03  0.00000000000E+00 0. -1.
         -1   -1    0    0    0  501 -0.00000000000E+00 -0.00000000000E+00 -0.17373937327E+02  0.17373937327E+02  0.00000000000E+00 0.  1.
         23    2    1    2    0    0 -0.43569975028E+01  0.44708715347E+01  0.25547706004E+03  0.27290784123E+03  0.95766327484E+02 0.  0.
          5    1    1    2  502    0 -0.26870477897E+02  0.49148666729E+01  0.15749750188E+02  0.31807318777E+02  0.41800000000E+01 0.  1.
         -5    1    1    2    0  502  0.31227475399E+02 -0.93857382075E+01  0.42838903842E+03  0.42964856329E+03  0.41800000000E+01 0.  1.
        -11    1    3    3    0    0 -0.36467827598E+02  0.17150623326E+02  0.48438404970E+02  0.63010518219E+02  0.00000000000E+00 0.  1.
         11    1    3    3    0    0  0.32110830095E+02 -0.12679751792E+02  0.20703865507E+03  0.20989732301E+03  0.00000000000E+00 0. -1.
</event>
<event>
 7    1  0.6684706E-006  0.1030948E+03  0.7561462E-02  0.1273919E+00
         -3   -1    0    0    0  501 -0.00000000000E+00  0.00000000000E+00  0.12187474033E+03  0.12187474033E+03  0.00000000000E+00 0.  1.
          3   -1    0    0  501    0  0.00000000000E+00 -0.00000000000E+00 -0.10818872402E+03  0.10818872402E+03  0.00000000000E+00 0. -1.
         23    2    1    2    0    0  0.37877659863E+02  0.17517049037E+02  0.76421009484E+01  0.98059758018E+02  0.88406732278E+02 0.  0.
          5    1    1    2  502    0 -0.65475620251E+02 -0.36961922261E+02 -0.31245168324E+02  0.81528973304E+02  0.41800000000E+01 0. -1.
         -5    1    1    2    0  502  0.27597960388E+02  0.19444873224E+02  0.37289083690E+02  0.50474733033E+02  0.41800000000E+01 0. -1.
        -11    1    3    3    0    0  0.41629038702E+02 -0.28658461830E+02  0.10593383434E+02  0.51638203593E+02  0.00000000000E+00 0.  1.
         11    1    3    3    0    0 -0.37513788387E+01  0.46175510867E+02 -0.29512824859E+01  0.46421554426E+02  0.00000000000E+00 0. -1.
</event>
<event>
 7    1  0.6684706E-006  0.1201009E+03  0.7561462E-02  0.1242931E+00
          1   -1    0    0  501    0  0.00000000000E+00  0.00000000000E+00  0.26288324757E+02  0.26288324757E+02  0.00000000000E+00 0. -1.
         -1   -1    0    0    0  501 -0.00000000000E+00 -0.00000000000E+00 -0.72074327566E+03  0.72074327566E+03  0.00000000000E+00 0.  1.
         23    2    1    2    0    0 -0.20936358387E+02  0.53188834587E+02 -0.48466901053E+03  0.49618073197E+03  0.89576145176E+02 0.  0.
          5    1    1    2  502    0  0.72408111294E+02 -0.17816957117E+02 -0.10646729388E+03  0.13005051176E+03  0.41800000000E+01 0.  1.
         -5    1    1    2    0  502 -0.51471752907E+02 -0.35371877471E+02 -0.10331864650E+03  0.12080035669E+03  0.41800000000E+01 0.  1.
        -11    1    3    3    0    0 -0.19042219610E+02 -0.21207835278E+02 -0.85271778168E+02  0.89909146124E+02  0.00000000000E+00 0.  1.
         11    1    3    3    0    0 -0.18941387766E+01  0.74396669865E+02 -0.39939723236E+03  0.40627158584E+03  0.00000000000E+00 0. -1.
</event>
<event>
 7    1  0.6684706E-006  0.1031437E+03  0.7561462E-02  0.1273821E+00
          2   -1    0    0  501    0  0.00000000000E+00  0.00000000000E+00  0.16396911441E+03  0.16396911441E+03  0.00000000000E+00 0. -1.
         -2   -1    0    0    0  501 -0.00000000000E+00 -0.00000000000E+00 -0.13505297456E+03  0.13505297456E+03  0.00000000000E+00 0.  1.
         23    2    1    2    0    0  0.45469832101E+02  0.85310776144E+02 -0.19308054411E+02  0.13373847010E+03  0.90375567839E+02 0.  0.
          5    1    1    2  502    0 -0.40234874487E+01 -0.44408808153E+02 -0.39628929914E+02  0.59801799128E+02  0.41800000000E+01 0.  1.
         -5    1    1    2    0  502 -0.41446344653E+02 -0.40901967991E+02  0.87853124172E+02  0.10548181975E+03  0.41800000000E+01 0.  1.
        -11    1    3    3    0    0  0.48464882517E+02  0.57722508971E+02 -0.51463279988E+02  0.91264462231E+02  0.00000000000E+00 0.  1.
         11    1    3    3    0    0 -0.29950504152E+01  0.27588267173E+02  0.32155225577E+02  0.42474007870E+02  0.00000000000E+00 0. -1.
</event>
<event>
 7    1  0.6684706E-006  0.1413437E+03  0.7561462E-02  0.1211532E+00
         -1   -1    0    0    0  501 -0.00000000000E+00  0.00000000000E+00  0.79790673213E+02  0.79790673213E+02  0.00000000000E+00 0.  1.
          1   -1    0    0  501    0  0.00000000000E+00 -0.00000000000E+00 -0.37264178825E+03  0.37264178825E+03  0.00000000000E+00 0. -1.
         23    2    1    2    0    0 -0.81451026076E+02  0.93713773178E+02 -0.69778289007E+02  0.16813260122E+03  0.89347753432E+02 0.  0.
          5    1    1    2  502    0  0.45451068196E+02 -0.14521536467E+02 -0.34291040839E+01  0.48019847734E+02  0.41800000000E+01 0.  1.
         -5    1    1    2    0  502  0.35999957879E+02 -0.79192236711E+02 -0.21964372195E+03  0.23628001251E+03  0.41800000000E+01 0.  1.
        -11    1    3    3    0    0  0.43402233520E+01  0.52219914559E+02 -0.44432055553E+01  0.52588012806E+02  0.00000000000E+00 0.  1.
         11    1    3    3    0    0 -0.85791249428E+02  0.41493858619E+02 -0.65335083451E+02  0.11554458841E+03  0.00000000000E+00 0. -1.
</event>
<event>
 7    1  0.6684706E-006  0.1089582E+03  0.7561462E-02  0.1262511E+00
         -2   -1    0    0    0  501 -0.00000000000E+00  0.00000000000E+00  0.36662276105E+02  0.36662276105E+02  0.00000000000E+00 0.  1.
          2   -1    0    0  501    0  0.00000000000E+00 -0.00000000000E+00 -0.59124092836E+03  0.59124092836E+03  0.00000000000E+00 0. -1.
         23    2    1    2    0    0 -0.42946184515E+02 -0.80189019398E+02 -0.17115615378E+03  0.21446055221E+03  0.91783690732E+02 0.  0.
          5    1    1    2  502    0 -0.68908170190E+01  0.38233093793E+01 -0.25885292403E+03  0.25900658241E+03  0.41800000000E+01 0.  1.
         -5    1    1    2    0  502  0.49837001534E+02  0.76365710018E+02 -0.12456957445E+03  0.15443606983E+03  0.41800000000E+01 0.  1.
        -11    1    3    3    0    0 -0.37474457606E+02 -0.94891663714E+02 -0.10473846793E+03  0.14621528470E+03  0.00000000000E+00 0.  1.
         11    1    3    3    0    0 -0.54717269092E+01  0.14702644316E+02 -0.66417685842E+02  0.68245267513E+02  0.00000000000E+00 0. -1.
</event>
<event>
 7    1  0.6684706E-006  0.1239941E+03  0.7561462E-02  0.1236650E+00
          1   -1    0    0  501    0  0.00000000000E+00  0.00000000000E+00  0.26563328934E+03  0.26563328934E+03  0.00000000000E+00 0. -1.
         -1   -1    0    0    0  501 -0.00000000000E+00 -0.00000000000E+00 -0.60496949542E+02  0.60496949542E+02  0.00000000000E+00 0.  1.
         23    2    1    2    0    0  0.41267888652E+02  0.49953836930E+02  0.83138886867E+02  0.13976714624E+03  0.91784291693E+02 0.  0.
          5    1    1    2  502    0  0.20008716071E+02  0.29097573976E+02  0.56413787908E+02  0.66685871039E+02  0.41800000000E+01 0. -1.
         -5    1    1    2    0  502 -0.61276604722E+02 -0.79051410906E+02  0.65583665027E+02  0.11967722160E+03  0.41800000000E+01 0. -1.
        -11    1    3    3    0    0  0.33268790536E+02 -0.22025482542E+02  0.28001923955E+02  0.48744661760E+02  0.00000000000E+00 0. -1.
         11    1    3    3    0    0  0.79990981157E+01  0.71979319472E+02  0.55136962912E+02  0.91022484483E+02  0.00000000000E+00 0.  1.
</event>
<event>
 7    1  0.6684706E-006  0.1253700E+03  0.7561462E-02  0.1234492E+00
         -2   -1    0    0    0  501 -0.00000000000E+00  0.00000000000E+00  0.32972038306E+03  0.32972038306E+03  0.00000000000E+00 0. -1.
          2   -1    0    0  501    0  0.00000000000E+00 -0.00000000000E+00 -0.56429378329E+02  0.56429378329E+02  0.00000000000E+00 0.  1.
         23    2    1    2    0    0 -0.78492416164E+02 -0.11942130517E+02  0.99188172956E+02  0.15753748748E+03  0.93145544333E+02 0.  0.
          5    1    1    2  502    0  0.54472207864E+02  0.64414023778E+02  0.70807236495E+02  0.11021581116E+03  0.41800000000E+01 0. -1.
         -5    1    1    2    0  502  0.24020208300E+02 -0.52471893261E+02  0.10329559528E+03  0.11839646276E+03  0.41800000000E+01 0. -1.
        -11    1    3    3    0    0 -0.80743209476E+02 -0.33010062856E+02  0.10407170961E+03  0.13579414887E+03  0.00000000000E+00 0. -1.
         11    1    3    3    0    0  0.22507933118E+01  0.21067932339E+02 -0.48835366507E+01  0.21743338607E+02  0.00000000000E+00 0.  1.
</event>
<event>
 7    1  0.6684706E-006  0.2661515E+03  0.7561462E-02  0.1103503E+00
          2   -1    0    0  501    0  0.00000000000E+00  0.00000000000E+00  0.53196900510E+03  0.53196900510E+03  0.00000000000E+00 0. -1.
         -2   -1    0    0    0  501 -0.00000000000E+00 -0.00000000000E+00 -0.20907851785E+03  0.20907851785E+03  0.00000000000E+00 0.  1.
         23    2    1    2    0    0 -0.24725498760E+03 -0.57489930045E+02 -0.44955065504E+02  0.27693743930E+03  0.10115960865E+03 0.  0.
          5    1    1    2  502    0  0.91459809247E+02  0.65996185942E+02  0.22859655132E+03  0.25493969668E+03  0.41800000000E+01 0. -1.
         -5    1    1    2    0  502  0.15579517835E+03 -0.85062558966E+01  0.13924900143E+03  0.20917038697E+03  0.41800000000E+01 0. -1.
        -11    1    3    3    0    0 -0.10850624660E+03  0.10187163479E+02 -0.55311947686E+02  0.12221618309E+03  0.00000000000E+00 0.  1.
         11    1    3    3    0    0 -0.13874874100E+03 -0.67677093524E+02  0.10356882182E+02  0.15472125622E+03  0.00000000000E+00 0. -1.
</event>
<event>
 7    1  0.6684706E-006  0.1434046E+03  0.7561462E-02  0.1208820E+00
          4   -1    0    0  501    0  0.00000000000E+00  0.00000000000E+00  0.27598132453E+03  0.27598132453E+03  0.00000000000E+00 0. -1.
         -4   -1    0    0    0  501 -0.00000000000E+00 -0.00000000000E+00 -0.84584992099E+02  0.84584992099E+02  0.00000000000E+00 0.  1.
         23    2    1    2    0    0  0.69889741300E+02  0.69541836816E+02  0.73284026029E+02  0.16227832046E+03  0.10603330521E+03 0.  0.
          5    1    1    2  502    0 -0.17765607100E+02  0.27142364294E+02  0.72013951528E+02  0.79093655559E+02  0.41800000000E+01 0. -1.
         -5    1    1    2    0  502 -0.52124134201E+02 -0.96684201111E+02  0.46098354869E+02  0.11919434060E+03  0.41800000000E+01 0. -1.
        -11    1    3    3    0    0  0.46197943173E+02  0.97286631402E+02  0.61046944741E+02  0.12379688229E+03  0.00000000000E+00 0.  1.
         11    1    3    3    0    0  0.23691798128E+02 -0.27744794585E+02  0.12237081288E+02  0.38481438169E+02  0.00000000000E+00 0. -1.
</event>
<event>
 7    1  0.6684706E-006  0.2002468E+03  0.7561462E-02  0.1149531E+00
         -2   -1    0    0    0  501 -0.00000000000E+00  0.00000000000E+00  0.75082062763E+03  0.75082062763E+03  0.00000000000E+00 0.  1.
          2   -1    0    0  501    0  0.00000000000E+00 -0.00000000000E+00 -0.59515604397E+02  0.59515604397E+02  0.00000000000E+00 0. -1.
         23    2    1    2    0    0  0.15487526549E+03 -0.74578656464E+02  0.20790377784E+03  0.28225690525E+03  0.83046106826E+02 0.  0.
          5    1    1    2  502    0 -0.81499475578E+01 -0.30335043600E+02  0.85509789324E+02  0.91192285780E+02  0.41800000000E+01 0.  1.
         -5    1    1    2    0  502 -0.14672531793E+03  0.10491370006E+03  0.39789145606E+03  0.43688704100E+03  0.41800000000E+01 0.  1.
        -11    1    3    3    0    0  0.94327209310E+02 -0.84963136207E+02  0.11767509721E+03  0.17310050674E+03  0.00000000000E+00 0.  1.
         11    1    3    3    0    0  0.60548056178E+02  0.10384479744E+02  0.90228680628E+02  0.10915639850E+03  0.00000000000E+00 0. -1.
</event>
<event>
 7    1  0.6684706E-006  0.1627790E+03  0.7561462E-02  0.1185594E+00
          2   -1    0    0  501    0  0.00000000000E+00  0.00000000000E+00  0.56881550282E+03  0.56881550282E+03  0.00000000000E+00 0. -1.
         -2   -1    0    0    0  501 -0.00000000000E+00 -0.00000000000E+00 -0.55111379328E+02  0.55111379328E+02  0.00000000000E+00 0.  1.
         23    2    1    2    0    0  0.12455775947E+03  0.65917295859E+02  0.25244782055E+03  0.30180546119E+03  0.86584692469E+02 0.  0.
          5    1    1    2  502    0 -0.11219208160E+03 -0.89506312419E+02  0.25760262843E+03  0.29491529243E+03  0.41800000000E+01 0. -1.
         -5    1    1    2    0  502 -0.12365677875E+02  0.23589016561E+02  0.36536745121E+01  0.27206128520E+02  0.41800000000E+01 0. -1.
        -11    1    3    3    0    0  0.11601662060E+03  0.32440507655E+02  0.23264183894E+03  0.26198180856E+03  0.00000000000E+00 0. -1.
         11    1    3    3    0    0  0.85411388753E+01  0.33476788204E+02  0.19805981609E+02  0.39823652635E+02  0.00000000000E+00 0.  1.
</event>
<event>
 7    1  0.6684706E-006  0.1201766E+03  0.7561462E-02  0.1242806E+00
          2   -1    0    0  501    0  0.00000000000E+00  0.00000000000E+00  0.19086158796E+03  0.19086158796E+03  0.00000000000E+00 0. -1.
         -2   -1    0    0    0  501 -0.00000000000E+00 -0.00000000000E+00 -0.17987892714E+03  0.17987892714E+03  0.00000000000E+00 0.  1.
         23    2    1    2    0    0  0.52289211784E+02 -0.76349022185E+02 -0.11407270401E+03  0.17111716271E+03  0.87779079034E+02 0.  0.
          5    1    1    2  502    0 -0.55838696546E+02  0.97722243443E+02  0.13466555010E+03  0.17555591610E+03  0.41800000000E+01 0. -1.
         -5    1    1    2    0  502  0.35494847621E+01 -0.21373221258E+02 -0.96101852640E+01  0.24067436295E+02  0.41800000000E+01 0. -1.
        -11    1    3    3    0    0  0.49832261980E+02 -0.27826720295E+02 -0.10800095130E+03  0.12215476322E+03  0.00000000000E+00 0.  1.
         11    1    3    3    0    0  0.24569498049E+01 -0.48522301890E+02 -0.60717527176E+01  0.48962399493E+02  0.00000000000E+00 0. -1.
</event>
<event>
 7    1  0.6684706E-006  0.5914233E+02  0.7561462E-02  0.1401467E+00
         -2   -1    0    0    0  501 -0.00000000000E+00  0.00000000000E+00  0.19842342574E+02  0.19842342574E+02  0.00000000000E+00 0.  1.
          2   -1    0    0  501    0  0.00000000000E+00 -0.00000000000E+00 -0.71633870084E+03  0.71633870084E+03  0.00000000000E+00 0. -1.
         23    2    1    2    0    0 -0.24065288397E+02  0.44653705264E+00 -0.17755232442E+03  0.20183153106E+03  0.92907489071E+02 0.  0.
          5    1    1    2  502    0  0.64273539798E+01 -0.58812542691E+01 -0.51490997875E+03  0.51500063946E+03  0.41800000000E+01 0. -1.
         -5    1    1    2    0  502  0.17637934417E+02  0.54347172165E+01 -0.40340551088E+01  0.19348872896E+02  0.41800000000E+01 0. -1.
        -11    1    3    3    0    0  0.19567283015E+02 -0.30477491589E+02 -0.10916351319E+03  0.11501490629E+03  0.00000000000E+00 0. -1.
         11    1    3    3    0    0 -0.43632571412E+02  0.30924028641E+02 -0.68388811227E+02  0.86816624770E+02  0.00000000000E+00 0.  1.
</event>
<event>
 7    1  0.6684706E-006  0.1569850E+03  0.7561462E-02  0.1192143E+00
          1   -1    0    0  501    0  0.00000000000E+00  0.00000000000E+00  0.30188048633E+03  0.30188048633E+03  0.00000000000E+00 0. -1.
         -1   -1    0    0    0  501 -0.00000000000E+00 -0.00000000000E+00 -0.12822575672E+03  0.12822575672E+03  0.00000000000E+00 0.  1.
         23    2    1    2    0    0 -0.30914584634E+01 -0.42540083245E+02 -0.44609350309E+02  0.11040467695E+03  0.91542245761E+02 0.  0.
          5    1    1    2  502    0  0.90199791411E+02 -0.50842958946E+02  0.76173409963E+02  0.12861131222E+03  0.41800000000E+01 0. -1.
         -5    1    1    2    0  502 -0.87108332948E+02  0.93383042191E+02  0.14209066996E+03  0.19109025388E+03  0.41800000000E+01 0.  1.
        -11    1    3    3    0    0 -0.36212043094E+02 -0.13910944698E+02  0.10341222540E+02  0.40146822179E+02  0.00000000000E+00 0.  1.
         11    1    3    3    0    0  0.33120584631E+02 -0.28629138547E+02 -0.54950572850E+02  0.70257854769E+02  0.00000000000E+00 0. -1.
</event>
<event>
 7    1  0.6684706E-006  0.1533503E+03  0.7561462E-02  0.1196416E+00
          1   -1    0    0  501    0  0.00000000000E+00  0.00000000000E+00  0.27656659334E+03  0.27656659334E+03  0.00000000000E+00 0. -1.
         -1   -1    0    0    0  501 -0.00000000000E+00 -0.00000000000E+00 -0.97560021937E+02  0.97560021937E+02  0.00000000000E+00 0.  1.
         23    2    1    2    0    0 -0.10799486965E+03 -0.56874557229E+02  0.36856606731E+02  0.15614882714E+03  0.90146767149E+02 0.  0.
          5    1    1    2  502    0  0.12331017028E+03  0.71594339018E+02  0.11485980965E+03  0.18314310182E+03  0.41800000000E+01 0. -1.
         -5    1    1    2    0  502 -0.15315300630E+02 -0.14719781789E+02  0.27290155023E+02  0.34834686313E+02  0.41800000000E+01 0.  1.
        -11    1    3    3    0    0  0.70251805848E+01  0.77587396837E+01  0.20741060452E+02  0.23232365191E+02  0.00000000000E+00 0. -1.
         11    1    3    3    0    0 -0.11502005023E+03 -0.64633296912E+02  0.16115546279E+02  0.13291646195E+03  0.00000000000E+00 0.  1.
</event>
<event>
 7    1  0.6684706E-006  0.1281060E+03  0.7561462E-02  0.1230293E+00
         -1   -1    0    0    0  501 -0.00000000000E+00  0.00000000000E+00  0.38525796762E+02  0.38525796762E+02  0.00000000000E+00 0.  1.
          1   -1    0    0  501    0  0.00000000000E+00 -0.00000000000E+00 -0.55571357491E+03  0.55571357491E+03  0.00000000000E+00 0. -1.
         23    2    1    2    0    0  0.11548776659E+02 -0.96365849456E+02 -0.25290691555E+03  0.28616249794E+03  0.92235113227E+02 0.  0.
          5    1    1    2  502    0 -0.41094747920E+02 -0.10323985609E+02 -0.11153473952E+03  0.11938523152E+03  0.41800000000E+01 0.  1.
         -5    1    1    2    0  502  0.29545971261E+02  0.10668983506E+03 -0.15274612308E+03  0.18869164221E+03  0.41800000000E+01 0.  1.
        -11    1    3    3    0    0  0.23408820458E+02 -0.53996772899E+02 -0.22827398140E+03  0.23573848846E+03  0.00000000000E+00 0. -1.
         11    1    3    3    0    0 -0.11860043799E+02 -0.42369076556E+02 -0.24632934150E+02  0.50424009480E+02  0.00000000000E+00 0.  1.
</event>
<event>
 7    1  0.6684706E-006  0.6873129E+02  0.7561462E-02  0.1364461E+00
          3   -1    0    0  501    0  0.00000000000E+00  0.00000000000E+00  0.65416713766E+03  0.65416713766E+03  0.00000000000E+00 0. -1.
         -3   -1    0    0    0  501 -0.00000000000E+00 -0.00000000000E+00 -0.26121092511E+02  0.26121092511E+02  0.00000000000E+00 0.  1.
         23    2    1    2    0    0  0.13199407802E+02 -0.40092103424E+01  0.98767562926E+02  0.13624986947E+03  0.92836939359E+02 0.  0.
          5    1    1    2  502    0 -0.21483346009E+02 -0.32820918122E+02  0.48097934267E+03  0.48259439211E+03  0.41800000000E+01 0. -1.
         -5    1    1    2    0  502  0.82839382075E+01  0.36830128464E+02  0.48299139556E+02  0.61443968596E+02  0.41800000000E+01 0. -1.
        -11    1    3    3    0    0 -0.54385867346E+01  0.24982060500E+02 -0.57418656288E+01  0.26204018649E+02  0.00000000000E+00 0.  1.
         11    1    3    3    0    0  0.18637994536E+02 -0.28991270842E+02  0.10450942856E+03  0.11004585082E+03  0.00000000000E+00 0. -1.
</event>
<event>
 7    1  0.6684706E-006  0.1599201E+03  0.7561462E-02  0.1188787E+00
         -1   -1    0    0    0  501 -0.00000000000E+00  0.00000000000E+00  0.50221365797E+02  0.50221365797E+02  0.00000000000E+00 0.  1.
          1   -1    0    0  501    0  0.00000000000E+00 -0.00000000000E+00 -0.74160462006E+03  0.74160462006E+03  0.00000000000E+00 0. -1.
         23    2    1    2    0    0  0.11811777397E+03  0.18297335953E+02 -0.11440539813E+03  0.18946081759E+03  0.92304957885E+02 0.  0.
          5    1    1    2  502    0  0.33090096927E+01 -0.47601610079E+02 -0.14882567234E+03  0.15634390290E+03  0.41800000000E+01 0.  1.
         -5    1    1    2    0  502 -0.12142678366E+03  0.29304274126E+02 -0.42815218379E+03  0.44602126537E+03  0.41800000000E+01 0.  1.
        -11    1    3    3    0    0  0.35195714315E+02 -0.33988602513E+02 -0.18469063757E+02  0.52297894059E+02  0.00000000000E+00 0.  1.
         11    1    3    3    0    0  0.82922059651E+02  0.52285938466E+02 -0.95936334372E+02  0.13716292353E+03  0.00000000000E+00 0. -1.
</event>
<event>
 7    1  0.6684706E-006  0.1281763E+03  0.7561462E-02  0.1230187E+00
          1   -1    0    0  501    0  0.00000000000E+00  0.00000000000E+00  0.58059896809E+02  0.58059896809E+02  0.00000000000E+00 0. -1.
         -1   -1    0    0    0  501 -0.00000000000E+00 -0.00000000000E+00 -0.39883896487E+03  0.39883896487E+03  0.00000000000E+00 0.  1.
         23    2    1    2    0    0  0.69921575638E+02 -0.19096018102E+01 -0.27356719570E+03  0.29860456794E+03  0.97123653702E+02 0.  0.
          5    1    1    2  502    0 -0.77932807921E+02  0.47842984247E+02 -0.24118584464E+02  0.94666003447E+02  0.41800000000E+01 0.  1.
         -5    1    1    2    0  502  0.80112322835E+01 -0.45933382436E+02 -0.43093287897E+02  0.63628290300E+02  0.41800000000E+01 0.  1.
        -11    1    3    3    0    0  0.79292506365E+02  0.29970819557E+02 -0.21743479526E+03  0.23337403836E+03  0.00000000000E+00 0.  1.
         11    1    3    3    0    0 -0.93709307274E+01 -0.31880421367E+02 -0.56132400444E+02  0.65230529577E+02  0.00000000000E+00 0. -1.
</event>
<event>
 7    1  0.6684706E-006  0.1793830E+03  0.7561462E-02  0.1168402E+00
         -1   -1    0    0    0  501 -0.00000000000E+00  0.00000000000E+00  0.10554226744E+03  0.10554226744E+03  0.00000000000E+00 0.  1.
          1   -1    0    0  501    0  0.00000000000E+00 -0.00000000000E+00 -0.33107339967E+03  0.33107339967E+03  0.00000000000E+00 0. -1.
         23    2    1    2    0    0  0.14160260982E+03 -0.54290370906E+02 -0.12548786985E+03  0.21603781636E+03  0.89030270916E+02 0.  0.
          5    1    1    2  502    0 -0.15060614212E+03  0.24157409817E+02 -0.10910592183E+03  0.18758295517E+03  0.41800000000E+01 0.  1.
         -5    1    1    2    0  502  0.90035323003E+01  0.30132961089E+02  0.90626594513E+01  0.32994895578E+02  0.41800000000E+01 0.  1.
        -11    1    3    3    0    0  0.73370873276E+01 -0.38578356055E+02 -0.17379196867E+02  0.42943671129E+02  0.00000000000E+00 0.  1.
         11    1    3    3    0    0  0.13426552249E+03 -0.15712014851E+02 -0.10810867299E+03  0.17309414523E+03  0.00000000000E+00 0. -1.
</event>
<event>
 7    1  0.6684706E-006  0.1061759E+03  0.7561462E-02  0.1267820E+00
          1   -1    0    0  501    0  0.00000000000E+00  0.00000000000E+00  0.16306602450E+03  0.16306602450E+03  0.00000000000E+00 0. -1.
         -1   -1    0    0    0  501 -0.00000000000E+00 -0.00000000000E+00 -0.10982050205E+03  0.10982050205E+03  0.00000000000E+00 0.  1.
         23    2    1    2    0    0 -0.73626918777E+02 -0.40739398149E+01  0.51574148554E+01  0.11992499123E+03  0.94434551086E+02 0.  0.
          5    1    1    2  502    0  0.79025956232E+02 -0.83292499231E+01 -0.21113029363E+02  0.82326852069E+02  0.41800000000E+01 0. -1.
         -5    1    1    2    0  502 -0.53990374551E+01  0.12403189738E+02  0.69201136963E+02  0.70634683252E+02  0.41800000000E+01 0. -1.
        -11    1    3    3    0    0  0.62811133077E+01  0.30799483285E+02  0.88660026474E+01  0.32659861573E+02  0.00000000000E+00 0. -1.
         11    1    3    3    0    0 -0.79908032084E+02 -0.34873423100E+02 -0.37085877920E+01  0.87265129655E+02  0.00000000000E+00 0.  1.
</event>
<event>
 7    1  0.6684706E-006  0.1100481E+03  0.7561462E-02  0.1260481E+00
         -1   -1    0    0    0  501 -0.00000000000E+00  0.00000000000E+00  0.24048231945E+02  0.24048231945E+02  0.00000000000E+00 0.  1.
          1   -1    0    0  501    0  0.00000000000E+00 -0.00000000000E+00 -0.76660093294E+03  0.76660093294E+03  0.00000000000E+00 0. -1.
         23    2    1    2    0    0  0.12633136521E+02 -0.79428441405E+02 -0.32259159082E+03  0.34513476637E+03  0.92650952792E+02 0.  0.
          5    1    1    2  502    0  0.32035035589E+02  0.28191141554E+02 -0.37271043293E+02  0.56811856469E+02  0.41800000000E+01 0.  1.
         -5    1    1    2    0  502 -0.44668172110E+02  0.51237299852E+02 -0.38269006689E+03  0.38870254204E+03  0.41800000000E+01 0.  1.
        -11    1    3    3    0    0 -0.30339839900E+02 -0.22416219132E+02 -0.19779258011E+03  0.20135763585E+03  0.00000000000E+00 0. -1.
         11    1    3    3    0    0  0.42972976421E+02 -0.57012222274E+02 -0.12479901070E+03  0.14377713053E+03  0.00000000000E+00 0.  1.
</event>
<event>
 7    1  0.6684706E-006  0.1204513E+03  0.7561462E-02  0.1242354E+00
          2   -1    0    0  501    0  0.00000000000E+00  0.00000000000E+00  0.18926132738E+04  0.18926132738E+04  0.00000000000E+00 0.  1.
         -2   -1    0    0    0  501 -0.00000000000E+00 -0.00000000000E+00 -0.16922771221E+02  0.16922771221E+02  0.00000000000E+00 0. -1.
         23    2    1    2    0    0  0.57308129027E+02  0.26864040472E+02  0.21217992028E+03  0.24012872719E+03  0.92927868413E+02 0.  0.
          5    1    1    2  502    0  0.34477410316E+02 -0.78773504354E+01  0.22119287289E+03  0.22404129952E+03  0.41800000000E+01 0. -1.
         -5    1    1    2    0  502 -0.91785539343E+02 -0.18986690036E+02  0.14423177094E+04  0.14453660183E+04  0.41800000000E+01 0. -1.
        -11    1    3    3    0    0 -0.15281159748E+02  0.35227561360E+02  0.88594206675E+02  0.96557901691E+02  0.00000000000E+00 0. -1.
         11    1    3    3    0    0  0.72589288775E+02 -0.83635208883E+01  0.12358571361E+03  0.14357082550E+03  0.00000000000E+00 0.  1.
</event>
<event>
 7    1  0.8587545E-006  0.1497176E+03  0.7561462E-02  0.1200820E+00
         -2   -1    0    0    0  501 -0.00000000000E+00  0.00000000000E+00  0.38906376406E+02  0.38906376406E+02  0.00000000000E+00 0.  1.
          2   -1    0    0  501    0  0.00000000000E+00 -0.00000000000E+00 -0.90946378702E+03  0.90946378702E+03  0.00000000000E+00 0. -1.
         23    2    1    2    0    0  0.40557489647E+02  0.13665449516E+03 -0.26902238071E+03  0.31764690531E+03  0.90593344760E+02 0.  0.
          5    1    1    2  502    0 -0.28816797340E+02 -0.11023523258E+03 -0.21744436171E+03  0.24552339430E+03  0.41800000000E+01 0. -1.
         -5    1    1    2    0  502 -0.11740692307E+02 -0.26419262582E+02 -0.38409066819E+03  0.38519986381E+03  0.41800000000E+01 0. -1.
        -11    1    3    3    0    0 -0.17435662853E+02  0.37122198615E+02 -0.25609081582E+02  0.48351680722E+02  0.00000000000E+00 0.  1.
         11    1    3    3    0    0  0.57993152500E+02  0.99532296544E+02 -0.24341329913E+03  0.26929522459E+03  0.00000000000E+00 0. -1.
</event>
<event>
 7    1  0.6684706E-006  0.8956987E+02  0.7561462E-02  0.1303897E+00
         -2   -1    0    0    0  501 -0.00000000000E+00  0.00000000000E+00  0.22788517361E+02  0.22788517361E+02  0.00000000000E+00 0.  1.
          2   -1    0    0  501    0  0.00000000000E+00 -0.00000000000E+00 -0.95619541712E+03  0.95619541712E+03  0.00000000000E+00 0. -1.
         23    2    1    2    0    0  0.43960390021E+02  0.51913790133E+02 -0.40593500964E+03  0.42170107232E+03  0.91766033163E+02 0.  0.
          5    1    1    2  502    0  0.28305744692E+01 -0.11867910565E+02 -0.47800357927E+03  0.47817753361E+03  0.41800000000E+01 0. -1.
         -5    1    1    2    0  502 -0.46790964490E+02 -0.40045879567E+02 -0.49468310852E+02  0.79105328562E+02  0.41800000000E+01 0.  1.
        -11    1    3    3    0    0 -0.23143235066E+02  0.18045248809E+02 -0.50525887607E+02  0.58430348727E+02  0.00000000000E+00 0. -1.
         11    1    3    3    0    0  0.67103625087E+02  0.33868541324E+02 -0.35540912203E+03  0.36327072359E+03  0.00000000000E+00 0.  1.
</event>
<event>
 7    1  0.6684706E-006  0.1087157E+03  0.7561462E-02  0.1262967E+00
          3   -1    0    0  501    0  0.00000000000E+00  0.00000000000E+00  0.74426786541E+02  0.74426786541E+02  0.00000000000E+00 0. -1.
         -3   -1    0    0    0  501 -0.00000000000E+00 -0.00000000000E+00 -0.22611662814E+03  0.22611662814E+03  0.00000000000E+00 0.  1.
         23    2    1    2    0    0  0.61455381184E+02 -0.23533743172E+02 -0.11085680904E+03  0.15340697627E+03  0.83149668153E+02 0.  0.
          5    1    1    2  502    0 -0.35192624413E+02 -0.49271858072E+02 -0.33383707823E+02  0.69268904705E+02  0.41800000000E+01 0.  1.
         -5    1    1    2    0  502 -0.26262756770E+02  0.72805601244E+02 -0.74493247300E+01  0.77867533701E+02  0.41800000000E+01 0.  1.
        -11    1    3    3    0    0  0.58881217556E+02 -0.34530742025E+01 -0.23098868822E+02  0.63344133455E+02  0.00000000000E+00 0. -1.
         11    1    3    3    0    0  0.25741636279E+01 -0.20080668969E+02 -0.87757940222E+02  0.90062842819E+02  0.00000000000E+00 0.  1.
</event>
<event>
 7    1  0.6684706E-006  0.1129893E+03  0.7561462E-02  0.1255132E+00
          1   -1    0    0  501    0  0.00000000000E+00  0.00000000000E+00  0.22290588348E+03  0.22290588348E+03  0.00000000000E+00 0. -1.
         -1   -1    0    0    0  501 -0.00000000000E+00 -0.00000000000E+00 -0.62895259146E+02  0.62895259146E+02  0.00000000000E+00 0.  1.
         23    2    1    2    0    0  0.33492893096E+02  0.32170948316E+02  0.54987475415E+02  0.11599174022E+03  0.90959977701E+02 0.  0.
          5    1    1    2  502    0 -0.40945988905E+02  0.37917880360E+02  0.20322092233E+02  0.59538218743E+02  0.41800000000E+01 0. -1.
         -5    1    1    2    0  502  0.74530958087E+01 -0.70088828676E+02  0.84701056691E+02  0.11027118367E+03  0.41800000000E+01 0. -1.
        -11    1    3    3    0    0 -0.18372755534E+02  0.42699768648E+02  0.12534056537E+02  0.48144895490E+02  0.00000000000E+00 0.  1.
         11    1    3    3    0    0  0.51865648631E+02 -0.10528820332E+02  0.42453418878E+02  0.67846844731E+02  0.00000000000E+00 0. -1.
</event>
<event>
 7    1  0.6684706E-006  0.1073827E+03  0.7561462E-02  0.1265495E+00
          3   -1    0    0  501    0  0.00000000000E+00  0.00000000000E+00  0.24362541137E+03  0.24362541137E+03  0.00000000000E+00 0. -1.
         -3   -1    0    0    0  501 -0.00000000000E+00 -0.00000000000E+00 -0.68438911709E+02  0.68438911709E+02  0.00000000000E+00 0.  1.
         23    2    1    2    0    0  0.63828754354E+02  0.12214441896E+02  0.59390502177E+02  0.12963773201E+03  0.95159904048E+02 0.  0.
          5    1    1    2  502    0 -0.97135440149E+02 -0.31404234013E+02  0.80511779077E+02  0.13008127697E+03  0.41800000000E+01 0. -1.
         -5    1    1    2    0  502  0.33306685794E+02  0.19189792117E+02  0.35284218412E+02  0.52345314108E+02  0.41800000000E+01 0. -1.
        -11    1    3    3    0    0  0.12533084866E+02  0.18397809068E+02 -0.23241367868E+02  0.32182584967E+02  0.00000000000E+00 0.  1.
         11    1    3    3    0    0  0.51295669489E+02 -0.61833671721E+01  0.82631870045E+02  0.97455147042E+02  0.00000000000E+00 0. -1.
</event>
<event>
 7    1  0.6684706E-006  0.1859368E+03  0.7561462E-02  0.1162178E+00
          1   -1    0    0  501    0  0.00000000000E+00  0.00000000000E+00  0.10232326526E+04  0.10232326526E+04  0.00000000000E+00 0. -1.
         -1   -1    0    0    0  501 -0.00000000000E+00 -0.00000000000E+00 -0.63240360837E+02  0.63240360837E+02  0.00000000000E+00 0.  1.
         23    2    1    2    0    0 -0.43203987016E+02 -0.53075658945E+02  0.72711212486E+02  0.13499385840E+03  0.90844985108E+02 0.  0.
          5    1    1    2  502    0  0.13922517528E+03  0.10998190333E+03  0.76728827003E+03  0.78754582738E+03  0.41800000000E+01 0. -1.
         -5    1    1    2    0  502 -0.96021188260E+02 -0.56906244387E+02  0.11999280925E+03  0.16393332765E+03  0.41800000000E+01 0.  1.
        -11    1    3    3    0    0 -0.33319760721E+02 -0.61349473183E+02  0.94709237697E+01  0.70453266151E+02  0.00000000000E+00 0.  1.
         11    1    3    3    0    0 -0.98842262954E+01  0.82738142384E+01  0.63240288716E+02  0.64540592253E+02  0.00000000000E+00 0. -1.
</event>
<event>
 7    1  0.6684706E-006  0.1602594E+03  0.7561462E-02  0.1188404E+00
         -2   -1    0    0    0  501 -0.00000000000E+00  0.00000000000E+00  0.66947126857E+02  0.66947126857E+02  0.00000000000E+00 0. -1.
          2   -1    0    0  501    0  0.00000000000E+00 -0.00000000000E+00 -0.40935216925E+03  0.40935216925E+03  0.00000000000E+00 0.  1.
         23    2    1    2    0    0 -0.37615716387E+02 -0.11807623496E+03 -0.13095452714E+03  0.20112661982E+03  0.89139719768E+02 0.  0.
          5    1    1    2  502    0 -0.21779235369E+02 -0.13718582427E+02 -0.11741170762E+02  0.28598288200E+02  0.41800000000E+01 0. -1.
         -5    1    1    2    0  502  0.59394951757E+02  0.13179481738E+03 -0.19970934449E+03  0.24657438809E+03  0.41800000000E+01 0. -1.
        -11    1    3    3    0    0  0.90454121879E+01 -0.98998172453E+02 -0.10436369045E+03  0.14413270799E+03  0.00000000000E+00 0. -1.
         11    1    3    3    0    0 -0.46661128575E+02 -0.19078062505E+02 -0.26590836693E+02  0.56993911823E+02  0.00000000000E+00 0.  1.
</event>
<event>
 7    1  0.6684706E-006  0.9054593E+02  0.7561462E-02  0.1301535E+00
         -3   -1    0    0    0  501 -0.00000000000E+00  0.00000000000E+00  0.99527004325E+02  0.99527004325E+02  0.00000000000E+00 0.  1.
          3   -1    0    0  501    0  0.00000000000E+00 -0.00000000000E+00 -0.20786235040E+03  0.20786235040E+03  0.00000000000E+00 0. -1.
         23    2    1    2    0    0  0.10996944781E+00  0.68549943349E+02  0.24797736543E+02  0.11630177841E+03  0.90620467326E+02 0.  0.
          5    1    1    2  502    0 -0.31178713422E+01 -0.13234650547E+02 -0.13476055730E+03  0.13550925171E+03  0.41800000000E+01 0. -1.
         -5    1    1    2    0  502  0.30079018943E+01 -0.55315292803E+02  0.16274746753E+01  0.55578324601E+02  0.41800000000E+01 0.  1.
        -11    1    3    3    0    0 -0.21537813905E+02 -0.14186900552E+02  0.15948285667E+02  0.30323149421E+02  0.00000000000E+00 0. -1.
         11    1    3    3    0    0  0.21647783353E+02  0.82736843901E+02  0.88494508759E+01  0.85978628994E+02  0.00000000000E+00 0.  1.
</event>
<event>
 7    1  0.6684706E-006  0.1095157E+03  0.7561462E-02  0.1261469E+00
         -1   -1    0    0    0  501 -0.00000000000E+00  0.00000000000E+00  0.79855926992E+02  0.79855926992E+02  0.00000000000E+00 0. -1.
          1   -1    0    0  501    0  0.00000000000E+00 -0.00000000000E+00 -0.39931338011E+03  0.39931338011E+03  0.00000000000E+00 0.  1.
         23    2    1    2    0    0  0.46516305692E+02  0.42019078355E+02  0.20484482318E+02  0.11155904530E+03  0.89980202995E+02 0.  0.
          5    1    1    2  502    0  0.20910974789E+02 -0.64837648597E+02 -0.17937888713E+03  0.19192562906E+03  0.41800000000E+01 0. -1.
         -5    1    1    2    0  502 -0.67427280481E+02  0.22818570242E+02 -0.16056304830E+03  0.17568463274E+03  0.41800000000E+01 0. -1.
        -11    1    3    3    0    0  0.15718022510E+01  0.33731832694E+02  0.47642815612E+02  0.58396446627E+02  0.00000000000E+00 0. -1.
         11    1    3    3    0    0  0.44944503441E+02  0.82872456610E+01 -0.27158333294E+02  0.53162598672E+02  0.00000000000E+00 0.  1.
</event>
<event>
 7    1  0.6684706E-006  0.1424242E+03  0.7561462E-02  0.1210104E+00
          2   -1    0    0  501    0  0.00000000000E+00  0.00000000000E+00  0.89940024771E+03  0.89940024771E+03  0.00000000000E+00 0. -1.
         -2   -1    0    0    0  501 -0.00000000000E+00 -0.00000000000E+00 -0.33766905430E+02  0.33766905430E+02  0.00000000000E+00 0.  1.
         23    2    1    2    0    0  0.10145783383E+03  0.71233228821E+02  0.25639134908E+03  0.29898220327E+03  0.91027298423E+02 0.  0.
          5    1    1    2  502    0 -0.81491286949E+02 -0.74384402785E+02  0.60240568266E+03  0.61244097522E+03  0.41800000000E+01 0. -1.
         -5    1    1    2    0  502 -0.19966546878E+02  0.31511739638E+01  0.68363105388E+01  0.21743974645E+02  0.41800000000E+01 0. -1.
        -11    1    3    3    0    0 -0.65633340078E+01 -0.14479038964E+02  0.27270665291E+02  0.31565948552E+02  0.00000000000E+00 0. -1.
         11    1    3    3    0    0  0.10802116784E+03  0.85712267784E+02  0.22912068379E+03  0.26741625472E+03  0.00000000000E+00 0.  1.
</event>
<event>
 7    1  0.6684706E-006  0.1094093E+03  0.7561462E-02  0.1261668E+00
         -1   -1    0    0    0  501 -0.00000000000E+00  0.00000000000E+00  0.39035431119E+02  0.39035431119E+02  0.00000000000E+00 0.  1.
          1   -1    0    0  501    0  0.00000000000E+00 -0.00000000000E+00 -0.45369355141E+03  0.45369355141E+03  0.00000000000E+00 0. -1.
         23    2    1    2    0    0  0.38348137236E+02  0.61654145615E+00 -0.79526028136E+02  0.13296143733E+03  0.99415264996E+02 0.  0.
          5    1    1    2  502    0  0.35518670836E+02  0.13829074851E+02 -0.21164365010E+03  0.21508911250E+03  0.41800000000E+01 0.  1.
         -5    1    1    2    0  502 -0.73866808072E+02 -0.14445616308E+02 -0.12348844205E+03  0.14467843269E+03  0.41800000000E+01 0.  1.
        -11    1    3    3    0    0  0.61239392829E+01  0.47670214479E+02 -0.47408055709E+02  0.67509078848E+02  0.00000000000E+00 0. -1.
         11    1    3    3    0    0  0.32224197953E+02 -0.47053673023E+02 -0.32117972427E+02  0.65452358487E+02  0.00000000000E+00 0.  1.
</event>
<event>
 7    1  0.6684706E-006  0.1881545E+03  0.7561462E-02  0.1160136E+00
          3   -1    0    0  501    0  0.00000000000E+00  0.00000000000E+00  0.58934330911E+02  0.58934330911E+02  0.00000000000E+00 0. -1.
         -3   -1    0    0    0  501 -0.00000000000E+00 -0.00000000000E+00 -0.78604257592E+03  0.78604257592E+03  0.00000000000E+00 0.  1.
         23    2    1    2    0    0 -0.13564633264E+03  0.11652781682E+03 -0.44549493573E+03  0.48870142387E+03  0.91567921690E+02 0.  0.
          5    1    1    2  502    0  0.11718179348E+02  0.41530087230E+01 -0.11607148483E+03  0.11681021017E+03  0.41800000000E+01 0. -1.
         -5    1    1    2    0  502  0.12392815329E+03 -0.12068082554E+03 -0.16554182445E+03  0.23946527279E+03  0.41800000000E+01 0. -1.
        -11    1    3    3    0    0 -0.11799140007E+03  0.62914223475E+02 -0.37660969225E+03  0.39964362913E+03  0.00000000000E+00 0. -1.
         11    1    3    3    0    0 -0.17654932567E+02  0.53613593345E+02 -0.68885243479E+02  0.89057794743E+02  0.00000000000E+00 0.  1.
</event>
<event>
 7    1  0.6684706E-006  0.9871190E+02  0.7561462E-02  0.1283028E+00
         -2   -1    0    0    0  501 -0.00000000000E+00  0.00000000000E+00  0.39275681029E+02  0.39275681029E+02  0.00000000000E+00 0.  1.
          2   -1    0    0  501    0  0.00000000000E+00 -0.00000000000E+00 -0.53753981642E+03  0.53753981642E+03  0.00000000000E+00 0. -1.
         23    2    1    2    0    0  0.34699966057E+01 -0.28840475268E+02 -0.43307051084E+02  0.10376049343E+03  0.89704656697E+02 0.  0.
          5    1    1    2  502    0 -0.56317222228E+02 -0.13109676713E+02 -0.26939020587E+03  0.27555770460E+03  0.41800000000E+01 0.  1.
         -5    1    1    2    0  502  0.52847225622E+02  0.41950151981E+02 -0.18556687844E+03  0.19749729943E+03  0.41800000000E+01 0.  1.
        -11    1    3    3    0    0 -0.28209397745E+02 -0.28593985451E+02  0.10322954436E+02  0.41472274033E+02  0.00000000000E+00 0.  1.
         11    1    3    3    0    0  0.31679394351E+02 -0.24648981622E+00 -0.53630005519E+02  0.62288219397E+02  0.00000000000E+00 0. -1.
</event>
<event>
 7    1  0.6684706E-006  0.2817216E+03  0.7561462E-02  0.1094752E+00
         -1   -1    0    0    0  501 -0.00000000000E+00  0.00000000000E+00  0.16567141235E+03  0.16567141235E+03  0.00000000000E+00 0.  1.
          1   -1    0    0  501    0  0.00000000000E+00 -0.00000000000E+00 -0.63030326334E+03  0.63030326334E+03  0.00000000000E+00 0. -1.
         23    2    1    2    0    0 -0.20789227237E+03  0.16481867295E+03 -0.44964735172E+02  0.28397761610E+03  0.90758289823E+02 0.  0.
          5    1    1    2  502    0  0.25714668730E+02 -0.90788654731E+02 -0.10822062865E+03  0.14364191895E+03  0.41800000000E+01 0.  1.
         -5    1    1    2    0  502  0.18217760364E+03 -0.74030018219E+02 -0.31144648717E+03  0.36835514064E+03  0.41800000000E+01 0.  1.
        -11    1    3    3    0    0 -0.50023367418E+02  0.76510456244E+02  0.16583048777E+02  0.92904169493E+02  0.00000000000E+00 0.  1.
         11    1    3    3    0    0 -0.15786890495E+03  0.88308216706E+02 -0.61547783949E+02  0.19107344661E+03  0.00000000000E+00 0. -1.
</event>
<event>
 7    1  0.6684706E-006  0.8207423E+02  0.7561462E-02  0.1323266E+00
          1   -1    0    0  501    0  0.00000000000E+00  0.00000000000E+00  0.57804283648E+03  0.57804283648E+03  0.00000000000E+00 0. -1.
         -1   -1    0    0    0  501 -0.00000000000E+00 -0.00000000000E+00 -0.24331632888E+02  0.24331632888E+02  0.00000000000E+00 0.  1.
         23    2    1    2    0    0  0.23551504699E+02 -0.19291972587E+02  0.10527846518E+03  0.13590140654E+03  0.80366557035E+02 0.  0.
          5    1    1    2  502    0 -0.70323046753E+02 -0.10140077259E+02  0.21185272719E+03  0.22348870775E+03  0.41800000000E+01 0.  1.
         -5    1    1    2    0  502  0.46771542054E+02  0.29432049845E+02  0.23658001122E+03  0.24298435508E+03  0.41800000000E+01 0.  1.
        -11    1    3    3    0    0  0.10170510178E+02  0.38082269357E+01 -0.11671881016E+02  0.15942856586E+02  0.00000000000E+00 0.  1.
         11    1    3    3    0    0  0.13380994521E+02 -0.23100199522E+02  0.11695034619E+03  0.11995854995E+03  0.00000000000E+00 0. -1.
</event>
<event>
 7    1  0.6684706E-006  0.1413886E+03  0.7561462E-02  0.1211473E+00
         -2   -1    0    0    0  501 -0.00000000000E+00  0.00000000000E+00  0.18186387301E+02  0.18186387301E+02  0.00000000000E+00 0. -1.
          2   -1    0    0  501    0  0.00000000000E+00 -0.00000000000E+00 -0.13097205804E+04  0.13097205804E+04  0.00000000000E+00 0.  1.
         23    2    1    2    0    0  0.94222481306E+02  0.20615936584E+01 -0.35623403454E+03  0.37958412538E+03  0.91100465011E+02 0.  0.
          5    1    1    2  502    0  0.38990772982E+01  0.46427958489E+02 -0.30809886132E+03  0.31162981064E+03  0.41800000000E+01 0.  1.
         -5    1    1    2    0  502 -0.98121558604E+02 -0.48489552148E+02 -0.62720129726E+03  0.63669303170E+03  0.41800000000E+01 0.  1.
        -11    1    3    3    0    0  0.10990104387E+03 -0.31549982192E+01 -0.26561448762E+03  0.28747043238E+03  0.00000000000E+00 0. -1.
         11    1    3    3    0    0 -0.15678562565E+02  0.52165918776E+01 -0.90619546919E+02  0.92113693003E+02  0.00000000000E+00 0.  1.
</event>
<event>
 7    1  0.6684706E-006  0.8112080E+02  0.7561462E-02  0.1325901E+00
         -2   -1    0    0    0  501 -0.00000000000E+00  0.00000000000E+00  0.51347825050E+02  0.51347825050E+02  0.00000000000E+00 0. -1.
          2   -1    0    0  501    0  0.00000000000E+00 -0.00000000000E+00 -0.26073335378E+03  0.26073335378E+03  0.00000000000E+00 0.  1.
         23    2    1    2    0    0 -0.25282783121E+02 -0.58779037612E+01 -0.46912415614E+02  0.10539765482E+03  0.90742063170E+02 0.  0.
          5    1    1    2  502    0 -0.39712959288E+02  0.37998419522E+02 -0.71376526708E+02  0.90183590450E+02  0.41800000000E+01 0. -1.
         -5    1    1    2    0  502  0.64995742409E+02 -0.32120515761E+02 -0.91096586412E+02  0.11649993356E+03  0.41800000000E+01 0. -1.
        -11    1    3    3    0    0 -0.19173272663E+02  0.68669143343E+01 -0.72967343156E+02  0.75756201491E+02  0.00000000000E+00 0.  1.
         11    1    3    3    0    0 -0.61095104576E+01 -0.12744818095E+02  0.26054927543E+02  0.29641453331E+02  0.00000000000E+00 0. -1.
</event>
<event>
 7    1  0.6684706E-006  0.8940102E+02  0.7561462E-02  0.1304309E+00
         -2   -1    0    0    0  501 -0.00000000000E+00  0.00000000000E+00  0.49381462900E+02  0.49381462900E+02  0.00000000000E+00 0.  1.
          2   -1    0    0  501    0  0.00000000000E+00 -0.00000000000E+00 -0.32570136983E+03  0.32570136983E+03  0.00000000000E+00 0. -1.
         23    2    1    2    0    0  0.30622455569E+02 -0.48092737432E+02 -0.77151677793E+02  0.13307890969E+03  0.92233229575E+02 0.  0.
          5    1    1    2  502    0 -0.13157811408E+01  0.55346733319E+02 -0.18111079844E+02  0.58399278952E+02  0.41800000000E+01 0.  1.
         -5    1    1    2    0  502 -0.29306674429E+02 -0.72539958872E+01 -0.18105714929E+03  0.18360464409E+03  0.41800000000E+01 0.  1.
        -11    1    3    3    0    0  0.47690663534E+02 -0.68655220965E+01 -0.74056476456E+02  0.88350984641E+02  0.00000000000E+00 0. -1.
         11    1    3    3    0    0 -0.17068207965E+02 -0.41227215335E+02 -0.30952013375E+01  0.44727925044E+02  0.00000000000E+00 0.  1.
</event>
<event>
 7    1  0.6684706E-006  0.5408212E+02  0.7561462E-02  0.1424490E+00
         -2   -1    0    0    0  501 -0.00000000000E+00  0.00000000000E+00  0.88303755093E+02  0.88303755093E+02  0.00000000000E+00 0.  1.
          2   -1    0    0  501    0  0.00000000000E+00 -0.00000000000E+00 -0.15509792710E+03  0.15509792710E+03  0.00000000000E+00 0. -1.
         23    2    1    2    0    0  0.29137733809E+02 -0.34573280779E+01  0.33208640002E+01  0.97027150749E+02  0.92424451288E+02 0.  0.
          5    1    1    2  502    0  0.21829509681E+02  0.86904010935E+01  0.27280383997E+02  0.36245583388E+02  0.41800000000E+01 0.  1.
         -5    1    1    2    0  502 -0.50967243490E+02 -0.52330730156E+01 -0.97395420009E+02  0.11012894806E+03  0.41800000000E+01 0.  1.
        -11    1    3    3    0    0  0.18325538449E+02 -0.93579874603E+01  0.47179659699E+02  0.51471522010E+02  0.00000000000E+00 0.  1.
         11    1    3    3    0    0  0.10812195361E+02  0.59006593824E+01 -0.43858795699E+02  0.45555628739E+02  0.00000000000E+00 0. -1.
</event>
<event>
 7    1  0.6684706E-006  0.1011999E+03  0.7561462E-02  0.1277793E+00
          1   -1    0    0  501    0  0.00000000000E+00  0.00000000000E+00  0.38248180871E+03  0.38248180871E+03  0.00000000000E+00 0. -1.
         -1   -1    0    0    0  501 -0.00000000000E+00 -0.00000000000E+00 -0.47931451626E+02  0.47931451626E+02  0.00000000000E+00 0.  1.
         23    2    1    2    0    0  0.26493033041E+02  0.54487083392E+02  0.65269298223E+02  0.12737916202E+03  0.91074950296E+02 0.  0.
          5    1    1    2  502    0 -0.43206503015E+02  0.25857607101E+01  0.22125911483E+02  0.48790536174E+02  0.41800000000E+01 0. -1.
         -5    1    1    2    0  502  0.16713469975E+02 -0.57072844102E+02  0.24715514738E+03  0.25424356214E+03  0.41800000000E+01 0. -1.
        -11    1    3    3    0    0 -0.28247410047E+02  0.17376956354E+02 -0.17671702228E+01  0.33211408840E+02  0.00000000000E+00 0.  1.
         11    1    3    3    0    0  0.54740443088E+02  0.37110127038E+02  0.67036468446E+02  0.94167753185E+02  0.00000000000E+00 0. -1.
</event>
<event>
 7    1  0.6684706E-006  0.2247466E+03  0.7561462E-02  0.1130393E+00
          2   -1    0    0  501    0  0.00000000000E+00  0.00000000000E+00  0.18961729944E+04  0.18961729944E+04  0.00000000000E+00 0. -1.
         -2   -1    0    0    0  501 -0.00000000000E+00 -0.00000000000E+00 -0.30044226516E+02  0.30044226516E+02  0.00000000000E+00 0.  1.
         23    2    1    2    0    0 -0.20564158760E+03  0.27432605077E+02  0.70685889877E+03  0.74190509059E+03  0.87935489353E+02 0.  0.
          5    1    1    2  502    0  0.22204705594E+03 -0.29487498484E+02  0.10423010784E+04  0.10661066636E+04  0.41800000000E+01 0. -1.
         -5    1    1    2    0  502 -0.16405468331E+02  0.20548934062E+01  0.11696879067E+03  0.11820546675E+03  0.41800000000E+01 0. -1.
        -11    1    3    3    0    0 -0.77007647234E+02  0.19963183373E+02  0.14427587757E+03  0.16475507662E+03  0.00000000000E+00 0.  1.
         11    1    3    3    0    0 -0.12863394037E+03  0.74694217042E+01  0.56258302121E+03  0.57715001397E+03  0.00000000000E+00 0. -1.
</event>
<event>
 7    1  0.6684706E-006  0.9836821E+02  0.7561462E-02  0.1283765E+00
          1   -1    0    0  501    0  0.00000000000E+00  0.00000000000E+00  0.78020993045E+02  0.78020993045E+02  0.00000000000E+00 0. -1.
         -1   -1    0    0    0  501 -0.00000000000E+00 -0.00000000000E+00 -0.23697772901E+03  0.23697772901E+03  0.00000000000E+00 0.  1.
         23    2    1    2    0    0 -0.74288783817E+02 -0.11999608489E+02 -0.10703394841E+03  0.16005943484E+03  0.92195133079E+02 0.  0.
          5    1    1    2  502    0  0.71898788191E+02 -0.15249471753E+02  0.21321376585E+02  0.76642387956E+02  0.41800000000E+01 0.  1.
         -5    1    1    2    0  502  0.23899956258E+01  0.27249080243E+02 -0.73244164139E+02  0.78296899260E+02  0.41800000000E+01 0.  1.
        -11    1    3    3    0    0 -0.38796421820E+02 -0.35738753878E+02 -0.95123358745E+01  0.53599490749E+02  0.00000000000E+00 0. -1.
         11    1    3    3    0    0 -0.35492361998E+02  0.23739145389E+02 -0.97521612532E+02  0.10645994409E+03  0.00000000000E+00 0.  1.
</event>
<event>
 7    1  0.6684706E-006  0.6727000E+02  0.7561462E-02  0.1369631E+00
         -2   -1    0    0    0  501 -0.00000000000E+00  0.00000000000E+00  0.27163297367E+02  0.27163297367E+02  0.00000000000E+00 0.  1.
          2   -1    0    0  501    0  0.00000000000E+00 -0.00000000000E+00 -0.86446776385E+03  0.86446776385E+03  0.00000000000E+00 0. -1.
         23    2    1    2    0    0  0.25588841928E+02 -0.58022270493E+02 -0.13009227888E+03  0.17064744587E+03  0.90416685694E+02 0.  0.
          5    1    1    2  502    0 -0.22385942276E+02  0.15310815671E+02 -0.64358311161E+03  0.64416787054E+03  0.41800000000E+01 0.  1.
         -5    1    1    2    0  502 -0.32028996519E+01  0.42711454822E+02 -0.63629075991E+02  0.76815744810E+02  0.41800000000E+01 0.  1.
        -11    1    3    3    0    0  0.21516911279E+02 -0.38343133641E+02 -0.14105988991E+03  0.14775339559E+03  0.00000000000E+00 0. -1.
         11    1    3    3    0    0  0.40719306488E+01 -0.19679136851E+02  0.10967611024E+02  0.22894050275E+02  0.00000000000E+00 0.  1.
</event>
<event>
 7    1  0.6684706E-006  0.1015860E+03  0.7561462E-02  0.1276996E+00
         -2   -1    0    0    0  501 -0.00000000000E+00  0.00000000000E+00  0.15224044569E+03  0.15224044569E+03  0.00000000000E+00 0.  1.
          2   -1    0    0  501    0  0.00000000000E+00 -0.00000000000E+00 -0.11181198804E+03  0.11181198804E+03  0.00000000000E+00 0. -1.
         23    2    1    2    0    0  0.34842513106E+02 -0.51701333709E+02  0.56145919180E+02  0.12340402346E+03  0.90493978471E+02 0.  0.
          5    1    1    2  502    0  0.48507346879E+01 -0.15525370987E+02  0.40837126584E+02  0.44155521500E+02  0.41800000000E+01 0.  1.
         -5    1    1    2    0  502 -0.39693247794E+02  0.67226704696E+02 -0.56554588113E+02  0.96492888761E+02  0.41800000000E+01 0.  1.
        -11    1    3    3    0    0 -0.25297746098E+02 -0.39381118489E+02  0.35108048627E+02  0.58510029307E+02  0.00000000000E+00 0.  1.
         11    1    3    3    0    0  0.60140259204E+02 -0.12320215220E+02  0.21037870552E+02  0.64893994156E+02  0.00000000000E+00 0. -1.
</event>
<event>
 7    1  0.6684706E-006  0.8517002E+02  0.7561462E-02  0.1314989E+00
         -2   -1    0    0    0  501 -0.00000000000E+00  0.00000000000E+00  0.34311005599E+02  0.34311005599E+02  0.00000000000E+00 0.  1.
          2   -1    0    0  501    0  0.00000000000E+00 -0.00000000000E+00 -0.36959998474E+03  0.36959998474E+03  0.00000000000E+00 0. -1.
         23    2    1    2    0    0 -0.17298340957E+02  0.23200601263E+02 -0.12688130286E+03  0.15912800385E+03  0.91571589994E+02 0.  0.
          5    1    1    2  502    0 -0.27208987662E+02  0.26797137994E+02 -0.17084263016E+02  0.42044738756E+02  0.41800000000E+01 0.  1.
         -5    1    1    2    0  502  0.44507328619E+02 -0.49997739257E+02 -0.19132341326E+03  0.20273824773E+03  0.41800000000E+01 0.  1.
        -11    1    3    3    0    0 -0.20637573268E+02  0.41449280588E+02 -0.19643431940E+02  0.50297283326E+02  0.00000000000E+00 0.  1.
         11    1    3    3    0    0  0.33392323115E+01 -0.18248679324E+02 -0.10723787092E+03  0.10883072052E+03  0.00000000000E+00 0. -1.
</event>
<event>
 7    1  0.6684706E-006  0.9401526E+02  0.7561462E-02  0.1293409E+00
         -2   -1    0    0    0  501 -0.00000000000E+00  0.00000000000E+00  0.29995378433E+03  0.29995378433E+03  0.00000000000E+00 0.  1.
          2   -1    0    0  501    0  0.00000000000E+00 -0.00000000000E+00 -0.58959577239E+02  0.58959577239E+02  0.00000000000E+00 0. -1.
         23    2    1    2    0    0  0.37057772856E+02 -0.66264962289E+02  0.12080114125E+03  0.16954780442E+03  0.91592677105E+02 0.  0.
          5    1    1    2  502    0 -0.22377865030E+02  0.23558763643E+02 -0.22431375946E+02  0.39704196434E+02  0.41800000000E+01 0.  1.
         -5    1    1    2    0  502 -0.14679907826E+02  0.42706198646E+02  0.14262444179E+03  0.14966136072E+03  0.41800000000E+01 0.  1.
        -11    1    3    3    0    0  0.60648258200E+02 -0.60432736674E+02  0.61369954764E+02  0.10534039222E+03  0.00000000000E+00 0. -1.
         11    1    3    3    0    0 -0.23590485344E+02 -0.58322256146E+01  0.59431186487E+02  0.64207412202E+02  0.00000000000E+00 0.  1.
</event>
<event>
 7    1  0.6684706E-006  0.1514851E+03  0.7561462E-02  0.1198660E+00
         -1   -1    0    0    0  501 -0.00000000000E+00  0.00000000000E+00  0.16332466159E+02  0.16332466159E+02  0.00000000000E+00 0.  1.
          1   -1    0    0  501    0  0.00000000000E+00 -0.00000000000E+00 -0.14956237716E+04  0.14956237716E+04  0.00000000000E+00 0. -1.
         23    2    1    2    0    0  0.85440873583E+02  0.71914233532E+02 -0.62090579496E+03  0.63734550014E+03  0.90628254287E+02 0.  0.
          5    1    1    2  502    0 -0.11087074928E+03 -0.74733936470E+02 -0.79420147103E+03  0.80538868460E+03  0.41800000000E+01 0. -1.
         -5    1    1    2    0  502  0.25429875695E+02  0.28197029380E+01 -0.64184039437E+02  0.69222052996E+02  0.41800000000E+01 0. -1.
        -11    1    3    3    0    0  0.72716593669E+02  0.25601918102E+01 -0.34314296742E+03  0.35077250985E+03  0.00000000000E+00 0. -1.
         11    1    3    3    0    0  0.12724279915E+02  0.69354041722E+02 -0.27776282753E+03  0.28657299028E+03  0.00000000000E+00 0.  1.
</event>
<event>
 7    1  0.7790054E-006  0.1462313E+03  0.7561462E-02  0.1205182E+00
         -1   -1    0    0    0  501 -0.00000000000E+00  0.00000000000E+00  0.10144027233E+03  0.10144027233E+03  0.00000000000E+00 0.  1.
          1   -1    0    0  501    0  0.00000000000E+00 -0.00000000000E+00 -0.29720916910E+03  0.29720916910E+03  0.00000000000E+00 0. -1.
         23    2    1    2    0    0 -0.13911250036E+03  0.14054109952E+02 -0.54480854390E+02  0.16378761408E+03  0.65638504461E+02 0.  0.
          5    1    1    2  502    0  0.51429823791E+02  0.23649079263E+02 -0.12588708717E+03  0.13809176964E+03  0.41800000000E+01 0.  1.
         -5    1    1    2    0  502  0.87682676573E+02 -0.37703189215E+02 -0.15400955204E+02  0.96770057710E+02  0.41800000000E+01 0.  1.
        -11    1    3    3    0    0 -0.60033940386E+02  0.10959262145E+02 -0.58513418321E+02  0.84545842882E+02  0.00000000000E+00 0.  1.
         11    1    3    3    0    0 -0.79078559978E+02  0.30948478075E+01  0.40325639314E+01  0.79241771201E+02  0.00000000000E+00 0. -1.
</event>
<event>
 7    1  0.9668618E-006  0.3830150E+03  0.7561462E-02  0.1049825E+00
         -2   -1    0    0    0  501 -0.00000000000E+00  0.00000000000E+00  0.49600999119E+03  0.49600999119E+03  0.00000000000E+00 0. -1.
          2   -1    0    0  501    0  0.00000000000E+00 -0.00000000000E+00 -0.33308141253E+03  0.33308141253E+03  0.00000000000E+00 0.  1.
         23    2    1    2    0    0  0.29093194377E+03  0.23372002759E+03  0.20116836814E+03  0.43364739843E+03  0.91186109829E+02 0.  0.
          5    1    1    2  502    0 -0.33289257168E+02 -0.88823881912E+02 -0.30477096183E+02  0.99720521621E+02  0.41800000000E+01 0.  1.
         -5    1    1    2    0  502 -0.25764268660E+03 -0.14489614568E+03 -0.77626932938E+01  0.29572348368E+03  0.41800000000E+01 0.  1.
        -11    1    3    3    0    0  0.18430860554E+03  0.12201983915E+03  0.16282931341E+03  0.27453941161E+03  0.00000000000E+00 0. -1.
         11    1    3    3    0    0  0.10662333823E+03  0.11170018844E+03  0.38339054728E+02  0.15910798682E+03  0.00000000000E+00 0.  1.
</event>
<event>
 7    1  0.6684706E-006  0.1906350E+03  0.7561462E-02  0.1157890E+00
         -2   -1    0    0    0  501 -0.00000000000E+00  0.00000000000E+00  0.61158459331E+02  0.61158459331E+02  0.00000000000E+00 0.  1.
          2   -1    0    0  501    0  0.00000000000E+00 -0.00000000000E+00 -0.79822957048E+03  0.79822957048E+03  0.00000000000E+00 0. -1.
         23    2    1    2    0    0 -0.17435870112E+02  0.18026154815E+03 -0.22962081914E+03  0.30625901099E+03  0.90942981715E+02 0.  0.
          5    1    1    2  502    0  0.20776427721E+02 -0.17857902491E+03 -0.33189075882E+03  0.37747990182E+03  0.41800000000E+01 0. -1.
         -5    1    1    2    0  502 -0.33405576095E+01 -0.16825232417E+01 -0.17555953319E+03  0.17564911700E+03  0.41800000000E+01 0. -1.
        -11    1    3    3    0    0  0.29484987154E+02  0.74726674084E+02 -0.56750435673E+02  0.98356759992E+02  0.00000000000E+00 0.  1.
         11    1    3    3    0    0 -0.46920857265E+02  0.10553487407E+03 -0.17287038347E+03  0.20790225100E+03  0.00000000000E+00 0. -1.
</event>
<event>
 7    1  0.6684706E-006  0.9311241E+02  0.7561462E-02  0.1295485E+00
          2   -1    0    0  501    0  0.00000000000E+00  0.00000000000E+00  0.47522380147E+03  0.47522380147E+03  0.00000000000E+00 0. -1.
         -2   -1    0    0    0  501 -0.00000000000E+00 -0.00000000000E+00 -0.27912892951E+02  0.27912892951E+02  0.00000000000E+00 0.  1.
         23    2    1    2    0    0 -0.28885971327E+02 -0.10576793150E+02  0.12278845275E+03  0.15398099499E+03  0.87674824202E+02 0.  0.
          5    1    1    2  502    0  0.67713527031E+02 -0.17295453709E+01  0.99511248478E+02  0.12044946676E+03  0.41800000000E+01 0. -1.
         -5    1    1    2    0  502 -0.38827555705E+02  0.12306338520E+02  0.22501120730E+03  0.22870623266E+03  0.41800000000E+01 0. -1.
        -11    1    3    3    0    0  0.19526557335E+02  0.13109428388E+02  0.84905896834E+02  0.88103092291E+02  0.00000000000E+00 0. -1.
         11    1    3    3    0    0 -0.48412528662E+02 -0.23686221538E+02  0.37882555911E+02  0.65877902703E+02  0.00000000000E+00 0.  1.
</event>
<event>
 7    1  0.6684706E-006  0.1218054E+03  0.7561462E-02  0.1240148E+00
          3   -1    0    0  501    0  0.00000000000E+00  0.00000000000E+00  0.18454956158E+02  0.18454956158E+02  0.00000000000E+00 0. -1.
         -3   -1    0    0    0  501 -0.00000000000E+00 -0.00000000000E+00 -0.88634243314E+03  0.88634243314E+03  0.00000000000E+00 0.  1.
         23    2    1    2    0    0 -0.39816133930E+02 -0.47305453379E+02 -0.50555366789E+03  0.51652407468E+03  0.85962073967E+02 0.  0.
          5    1    1    2  502    0  0.77445621146E+02  0.60691732212E+02 -0.27636253559E+03  0.29338547011E+03  0.41800000000E+01 0. -1.
         -5    1    1    2    0  502 -0.37629487216E+02 -0.13386278833E+02 -0.85971273503E+02  0.94887844516E+02  0.41800000000E+01 0. -1.
        -11    1    3    3    0    0  0.26103606339E+02 -0.22749794757E+02 -0.20020987439E+03  0.20318204947E+03  0.00000000000E+00 0.  1.
         11    1    3    3    0    0 -0.65919740269E+02 -0.24555658622E+02 -0.30534379351E+03  0.31334202521E+03  0.00000000000E+00 0. -1.
</event>
<event>
 7    1  0.6684706E-006  0.8721460E+02  0.7561462E-02  0.1309741E+00
          2   -1    0    0  501    0  0.00000000000E+00  0.00000000000E+00  0.50743002291E+03  0.50743002291E+03  0.00000000000E+00 0. -1.
         -2   -1    0    0    0  501 -0.00000000000E+00 -0.00000000000E+00 -0.36452010283E+02  0.36452010283E+02  0.00000000000E+00 0.  1.
         23    2    1    2    0    0  0.30235440664E+02  0.32256607948E+02  0.74278666999E+02  0.12558702455E+03  0.91104938042E+02 0.  0.
          5    1    1    2  502    0 -0.55463879836E+01 -0.57432034371E+02  0.36833081654E+03  0.37284616641E+03  0.41800000000E+01 0. -1.
         -5    1    1    2    0  502 -0.24689052680E+02  0.25175426423E+02  0.28368529085E+02  0.45448842233E+02  0.41800000000E+01 0. -1.
        -11    1    3    3    0    0  0.36648486898E+02 -0.10272362810E+02 -0.18968726517E+01  0.38108150775E+02  0.00000000000E+00 0.  1.
         11    1    3    3    0    0 -0.64130462342E+01  0.42528970758E+02  0.76175539651E+02  0.87478873775E+02  0.00000000000E+00 0. -1.
</event>
<event>
 7    1  0.6684706E-006  0.2897313E+03  0.7561462E-02  0.1090490E+00
          1   -1    0    0  501    0  0.00000000000E+00  0.00000000000E+00  0.17249543799E+04  0.17249543799E+04  0.00000000000E+00 0. -1.
         -1   -1    0    0    0  501 -0.00000000000E+00 -0.00000000000E+00 -0.65172755045E+02  0.65172755045E+02  0.00000000000E+00 0.  1.
         23    2    1    2    0    0  0.37876309611E+01  0.27054455288E+03  0.37584578278E+03  0.47204092337E+03  0.91399560503E+02 0.  0.
          5    1    1    2  502    0  0.51672786807E+02 -0.19088478935E+03  0.76662610421E+03  0.79173236372E+03  0.41800000000E+01 0. -1.
         -5    1    1    2    0  502 -0.55460417768E+02 -0.79659763530E+02  0.51730973790E+03  0.52635384789E+03  0.41800000000E+01 0. -1.
        -11    1    3    3    0    0 -0.42124380502E+02  0.13055402342E+03  0.16075149223E+03  0.21132879292E+03  0.00000000000E+00 0.  1.
         11    1    3    3    0    0  0.45912011464E+02  0.13999052947E+03  0.21509429055E+03  0.26071213045E+03  0.00000000000E+00 0. -1.
</event>
<event>
 7    1  0.6684706E-006  0.1068351E+03  0.7561462E-02  0.1266546E+00
         -2   -1    0    0    0  501 -0.00000000000E+00  0.00000000000E+00  0.37986344045E+02  0.37986344045E+02  0.00000000000E+00 0.  1.
          2   -1    0    0  501    0  0.00000000000E+00 -0.00000000000E+00 -0.45719906641E+03  0.45719906641E+03  0.00000000000E+00 0. -1.
         23    2    1    2    0    0 -0.10442235548E+02 -0.69305449346E+02 -0.13486049297E+03  0.17672699160E+03  0.90181990472E+02 0.  0.
          5    1    1    2  502    0  0.38619608005E+02 -0.22224626454E+02 -0.63367227705E+02  0.77577613333E+02  0.41800000000E+01 0.  1.
         -5    1    1    2    0  502 -0.28177372456E+02  0.91530075800E+02 -0.22098500169E+03  0.24088080552E+03  0.41800000000E+01 0.  1.
        -11    1    3    3    0    0  0.59623114266E+00 -0.54923302243E+02 -0.14562706273E+03  0.15564114501E+03  0.00000000000E+00 0. -1.
         11    1    3    3    0    0 -0.11038466691E+02 -0.14382147103E+02  0.10766569761E+02  0.21085846594E+02  0.00000000000E+00 0.  1.
</event>
<event>
 7    1  0.6684706E-006  0.1597855E+03  0.7561462E-02  0.1188939E+00
          2   -1    0    0  501    0  0.00000000000E+00  0.00000000000E+00  0.86012909554E+03  0.86012909554E+03  0.00000000000E+00 0. -1.
         -2   -1    0    0    0  501 -0.00000000000E+00 -0.00000000000E+00 -0.33884742377E+02  0.33884742377E+02  0.00000000000E+00 0.  1.
         23    2    1    2    0    0 -0.33094402759E+01 -0.12889096134E+03  0.30873204497E+03  0.34620910489E+03  0.89002451682E+02 0.  0.
          5    1    1    2  502    0  0.42649709699E+02  0.13103888130E+03  0.43397399202E+03  0.45534721290E+03  0.41800000000E+01 0. -1.
         -5    1    1    2    0  502 -0.39340269423E+02 -0.21479199591E+01  0.83538316172E+02  0.92457520123E+02  0.41800000000E+01 0. -1.
        -11    1    3    3    0    0  0.26957513699E+02 -0.40482560641E+02  0.18421783576E+03  0.19053019780E+03  0.00000000000E+00 0. -1.
         11    1    3    3    0    0 -0.30266953975E+02 -0.88408400702E+02  0.12451420921E+03  0.15567890709E+03  0.00000000000E+00 0.  1.
</event>
<event>
 7    1  0.6684706E-006  0.1179649E+03  0.7561462E-02  0.1246493E+00
          2   -1    0    0  501    0  0.00000000000E+00  0.00000000000E+00  0.11635737768E+03  0.11635737768E+03  0.00000000000E+00 0. -1.
         -2   -1    0    0    0  501 -0.00000000000E+00 -0.00000000000E+00 -0.14777293807E+03  0.14777293807E+03  0.00000000000E+00 0.  1.
         23    2    1    2    0    0 -0.49663460788E+02  0.39402083515E+02 -0.51848299638E+02  0.12239630556E+03  0.90959474035E+02 0.  0.
          5    1    1    2  502    0 -0.18508620823E+02 -0.60129037351E+02  0.29812057187E+02  0.69744543380E+02  0.41800000000E+01 0. -1.
         -5    1    1    2    0  502  0.68172081611E+02  0.20726953837E+02 -0.93793179426E+01  0.71989466810E+02  0.41800000000E+01 0. -1.
        -11    1    3    3    0    0 -0.53626224503E+02 -0.77503803202E+01 -0.51969077278E+02  0.75077462282E+02  0.00000000000E+00 0.  1.
         11    1    3    3    0    0  0.39627637155E+01  0.47152463835E+02  0.12077764025E+00  0.47318843278E+02  0.00000000000E+00 0. -1.
</event>
<event>
 7    1  0.6684706E-006  0.1894465E+03  0.7561462E-02  0.1158962E+00
         -2   -1    0    0    0  501 -0.00000000000E+00  0.00000000000E+00  0.38967415776E+02  0.38967415776E+02  0.00000000000E+00 0. -1.
          2   -1    0    0  501    0  0.00000000000E+00 -0.00000000000E+00 -0.99847777910E+03  0.99847777910E+03  0.00000000000E+00 0.  1.
         23    2    1    2    0    0  0.18442911089E+01 -0.16361745482E+03 -0.49344129127E+03  0.52789444673E+03  0.91728763391E+02 0.  0.
          5    1    1    2  502    0 -0.31276918223E+00  0.18451999237E+03 -0.42012912897E+03  0.45888308186E+03  0.41800000000E+01 0. -1.
         -5    1    1    2    0  502 -0.15315219267E+01 -0.20902537555E+02 -0.45939943082E+02  0.50667666278E+02  0.41800000000E+01 0. -1.
        -11    1    3    3    0    0 -0.23767061703E+02 -0.12035279793E+03 -0.24023958319E+03  0.26974937724E+03  0.00000000000E+00 0. -1.
         11    1    3    3    0    0  0.25611352812E+02 -0.43264656886E+02 -0.25320170808E+03  0.25814506949E+03  0.00000000000E+00 0.  1.
</event>
<event>
 7    1  0.6684706E-006  0.9397784E+02  0.7561462E-02  0.1293495E+00
         -2   -1    0    0    0  501 -0.00000000000E+00  0.00000000000E+00  0.27579124070E+02  0.27579124070E+02  0.00000000000E+00 0.  1.
          2   -1    0    0  501    0  0.00000000000E+00 -0.00000000000E+00 -0.65082545116E+03  0.65082545116E+03  0.00000000000E+00 0. -1.
         23    2    1    2    0    0  0.23496401717E+02  0.44073998137E+02 -0.19637895267E+03  0.23079197409E+03  0.11047915663E+03 0.  0.
          5    1    1    2  502    0 -0.52204925373E+02 -0.17398229986E+02 -0.38920917642E+03  0.39310215981E+03  0.41800000000E+01 0. -1.
         -5    1    1    2    0  502  0.28708523656E+02 -0.26675768152E+02 -0.37658198008E+02  0.54510441332E+02  0.41800000000E+01 0. -1.
        -11    1    3    3    0    0 -0.15905198807E+02 -0.15319769324E+02 -0.21890112022E+00  0.22084351902E+02  0.00000000000E+00 0.  1.
         11    1    3    3    0    0  0.39401600524E+02  0.59393767461E+02 -0.19616005155E+03  0.20870762219E+03  0.00000000000E+00 0. -1.
</event>
<event>
 7    1  0.6684706E-006  0.8843262E+02  0.7561462E-02  0.1306692E+00
         -1   -1    0    0    0  501 -0.00000000000E+00  0.00000000000E+00  0.49094067053E+02  0.49094067053E+02  0.00000000000E+00 0.  1.
          1   -1    0    0  501    0  0.00000000000E+00 -0.00000000000E+00 -0.26462043086E+03  0.26462043086E+03  0.00000000000E+00 0. -1.
         23    2    1    2    0    0 -0.20095904245E+02 -0.25558862580E+02 -0.83728891732E+02  0.12912728348E+03  0.92769753717E+02 0.  0.
          5    1    1    2  502    0 -0.11759461146E+02 -0.44892319501E+02 -0.75999776555E+02  0.89146192925E+02  0.41800000000E+01 0.  1.
         -5    1    1    2    0  502  0.31855365391E+02  0.70451182080E+02 -0.55797695516E+02  0.95441021504E+02  0.41800000000E+01 0.  1.
        -11    1    3    3    0    0 -0.15575822714E+02  0.89978844021E+01  0.15632213237E+02  0.23831371501E+02  0.00000000000E+00 0.  1.
         11    1    3    3    0    0 -0.45200815311E+01 -0.34556746982E+02 -0.99361104969E+02  0.10529591198E+03  0.00000000000E+00 0. -1.
</event>
<event>
 7    1  0.1367368E-005  0.3028536E+03  0.7561462E-02  0.1083823E+00
         -3   -1    0    0    0  501 -0.00000000000E+00  0.00000000000E+00  0.10417410554E+03  0.10417410554E+03  0.00000000000E+00 0.  1.
          3   -1    0    0  501    0  0.00000000000E+00 -0.00000000000E+00 -0.96453896234E+03  0.96453896234E+03  0.00000000000E+00 0. -1.
         23    2    1    2    0    0  0.63429287774E+02  0.28155729763E+03 -0.31683495563E+03  0.44072417322E+03  0.10274055362E+03 0.  0.
          5    1    1    2  502    0 -0.72849669531E+02 -0.28156772095E+03 -0.54481910974E+03  0.61760245350E+03  0.41800000000E+01 0.  1.
         -5    1    1    2    0  502  0.94203817565E+01  0.10423313771E-01  0.12892085690E+01  0.10386441153E+02  0.41800000000E+01 0.  1.
        -11    1    3    3    0    0 -0.26303533383E+02  0.62924389288E+02 -0.92061522743E+02  0.11457171817E+03  0.00000000000E+00 0. -1.
         11    1    3    3    0    0  0.89732821157E+02  0.21863290835E+03 -0.22477343288E+03  0.32615245505E+03  0.00000000000E+00 0.  1.
</event>
<event>
 7    1  0.6684706E-006  0.1766710E+03  0.7561462E-02  0.1171064E+00
          2   -1    0    0  501    0  0.00000000000E+00  0.00000000000E+00  0.81702050909E+02  0.81702050909E+02  0.00000000000E+00 0. -1.
         -2   -1    0    0    0  501 -0.00000000000E+00 -0.00000000000E+00 -0.44114293425E+03  0.44114293425E+03  0.00000000000E+00 0.  1.
         23    2    1    2    0    0  0.14718458487E+03  0.17418366067E+02 -0.23111891061E+03  0.29029277299E+03  0.94272168233E+02 0.  0.
          5    1    1    2  502    0 -0.68235762236E+02  0.54211709941E+02 -0.56518462684E+02  0.10395594147E+03  0.41800000000E+01 0.  1.
         -5    1    1    2    0  502 -0.78948822637E+02 -0.71630076008E+02 -0.71803510045E+02  0.12859627071E+03  0.41800000000E+01 0.  1.
        -11    1    3    3    0    0  0.83712706177E+02  0.39023038243E+02 -0.70347760633E+02  0.11610091350E+03  0.00000000000E+00 0. -1.
         11    1    3    3    0    0  0.63471878696E+02 -0.21604672176E+02 -0.16077114998E+03  0.17419185949E+03  0.00000000000E+00 0.  1.
</event>
<event>
 7    1  0.6684706E-006  0.1123068E+03  0.7561462E-02  0.1256357E+00
         -1   -1    0    0    0  501 -0.00000000000E+00  0.00000000000E+00  0.23223024193E+02  0.23223024193E+02  0.00000000000E+00 0.  1.
          1   -1    0    0  501    0  0.00000000000E+00 -0.00000000000E+00 -0.87044727730E+03  0.87044727730E+03  0.00000000000E+00 0. -1.
         23    2    1    2    0    0 -0.58728283725E+01  0.85923369923E+02 -0.30268081337E+03  0.32834504677E+03  0.93688202824E+02 0.  0.
          5    1    1    2  502    0  0.10741759078E+01 -0.90007416948E+02 -0.54913461006E+03  0.55647891364E+03  0.41800000000E+01 0. -1.
         -5    1    1    2    0  502  0.47986524647E+01  0.40840470248E+01  0.45911703203E+01  0.88463410791E+01  0.41800000000E+01 0. -1.
        -11    1    3    3    0    0 -0.39882725613E+02  0.63246872714E+01 -0.10736369419E+03  0.11470656608E+03  0.00000000000E+00 0. -1.
         11    1    3    3    0    0  0.34009897241E+02  0.79598682651E+02 -0.19531711918E+03  0.21363848070E+03  0.00000000000E+00 0.  1.
</event>
<event>
 7    1  0.6684706E-006  0.8090328E+02  0.7561462E-02  0.1326507E+00
          4   -1    0    0  501    0  0.00000000000E+00  0.00000000000E+00  0.14143294290E+03  0.14143294290E+03  0.00000000000E+00 0. -1.
         -4   -1    0    0    0  501 -0.00000000000E+00 -0.00000000000E+00 -0.17248696304E+03  0.17248696304E+03  0.00000000000E+00 0.  1.
         23    2    1    2    0    0  0.41358411335E+02 -0.32531800247E+02 -0.10536610875E+03  0.15920137700E+03  0.10711781061E+03 0.  0.
          5    1    1    2  502    0 -0.59898131207E+01  0.21840419536E+02  0.10438484137E+03  0.10689503869E+03  0.41800000000E+01 0. -1.
         -5    1    1    2    0  502 -0.35368598214E+02  0.10691380711E+02 -0.30072752760E+02  0.47823490250E+02  0.41800000000E+01 0. -1.
        -11    1    3    3    0    0  0.32348617041E+02 -0.62458641515E+02 -0.10683746010E+03  0.12791308692E+03  0.00000000000E+00 0.  1.
         11    1    3    3    0    0  0.90097942945E+01  0.29926841268E+02  0.14713513484E+01  0.31288290083E+02  0.00000000000E+00 0. -1.
</event>
<event>
 7    1  0.6684706E-006  0.8753801E+02  0.7561462E-02  0.1308926E+00
          2   -1    0    0  501    0  0.00000000000E+00  0.00000000000E+00  0.77534195422E+03  0.77534195422E+03  0.00000000000E+00 0. -1.
         -2   -1    0    0    0  501 -0.00000000000E+00 -0.00000000000E+00 -0.14091987364E+02  0.14091987364E+02  0.00000000000E+00 0.  1.
         23    2    1    2    0    0 -0.29579973823E+01 -0.12678732280E+02  0.34064150367E+03  0.35295447559E+03  0.91491681698E+02 0.  0.
          5    1    1    2  502    0 -0.38506209995E+02 -0.72600866759E+01  0.34928506469E+03  0.35150101832E+03  0.41800000000E+01 0. -1.
         -5    1    1    2    0  502  0.41464207378E+02  0.19938818956E+02  0.71323398505E+02  0.84978447674E+02  0.41800000000E+01 0.  1.
        -11    1    3    3    0    0 -0.43990569236E+02  0.59792200673E+01  0.21328693197E+03  0.21785829478E+03  0.00000000000E+00 0.  1.
         11    1    3    3    0    0  0.41032571854E+02 -0.18657952347E+02  0.12735457169E+03  0.13509618081E+03  0.00000000000E+00 0. -1.
</event>
<event>
 7    1  0.6684706E-006  0.1447055E+03  0.7561462E-02  0.1207134E+00
          1   -1    0    0  501    0  0.00000000000E+00  0.00000000000E+00  0.48378396555E+03  0.48378396555E+03  0.00000000000E+00 0. -1.
         -1   -1    0    0    0  501 -0.00000000000E+00 -0.00000000000E+00 -0.65646516615E+02  0.65646516615E+02  0.00000000000E+00 0.  1.
         23    2    1    2    0    0  0.52671315272E+02  0.71176394037E+02  0.46346229126E+02  0.13670136635E+03  0.93268130066E+02 0.  0.
          5    1    1    2  502    0 -0.54813333463E+02 -0.11819255884E+03  0.24687203560E+03  0.27917245003E+03  0.41800000000E+01 0. -1.
         -5    1    1    2    0  502  0.21420181912E+01  0.47016164806E+02  0.12491918420E+03  0.13355666579E+03  0.41800000000E+01 0.  1.
        -11    1    3    3    0    0  0.27834133843E+02  0.80579950925E+02  0.23177594781E+01  0.85283289728E+02  0.00000000000E+00 0.  1.
         11    1    3    3    0    0  0.24837181429E+02 -0.94035568885E+01  0.44028469648E+02  0.51418076618E+02  0.00000000000E+00 0. -1.
</event>
<event>
 7    1  0.6684706E-006  0.1562752E+03  0.7561462E-02  0.1192967E+00
          2   -1    0    0  501    0  0.00000000000E+00  0.00000000000E+00  0.13025703551E+03  0.13025703551E+03  0.00000000000E+00 0.  1.
         -2   -1    0    0    0  501 -0.00000000000E+00 -0.00000000000E+00 -0.28625923757E+03  0.28625923757E+03  0.00000000000E+00 0. -1.
         23    2    1    2    0    0  0.86280320580E+02 -0.11653034362E+03 -0.14701082876E+03  0.22480639581E+03  0.88893853100E+02 0.  0.
          5    1    1    2  502    0 -0.77549961650E+02  0.34620513379E+02  0.41900493569E+02  0.94792933596E+02  0.41800000000E+01 0. -1.
         -5    1    1    2    0  502 -0.87303589303E+01  0.81909830244E+02 -0.50891866872E+02  0.96916943676E+02  0.41800000000E+01 0. -1.
        -11    1    3    3    0    0  0.59953417170E+02 -0.83750594643E+02 -0.15077297868E+03  0.18259535983E+03  0.00000000000E+00 0. -1.
         11    1    3    3    0    0  0.26326903411E+02 -0.32779748981E+02  0.37621499118E+01  0.42211035979E+02  0.00000000000E+00 0.  1.
</event>
<event>
 7    1  0.6684706E-006  0.1410996E+03  0.7561462E-02  0.1211857E+00
         -1   -1    0    0    0  501 -0.00000000000E+00  0.00000000000E+00  0.30098907125E+02  0.30098907125E+02  0.00000000000E+00 0.  1.
          1   -1    0    0  501    0  0.00000000000E+00 -0.00000000000E+00 -0.81777478760E+03  0.81777478760E+03  0.00000000000E+00 0. -1.
         23    2    1    2    0    0 -0.14245316415E+02  0.10792434167E+03 -0.25175902333E+03  0.28688805825E+03  0.84092565515E+02 0.  0.
          5    1    1    2  502    0  0.57123178899E+02 -0.94339571871E+01 -0.20365379400E+03  0.21176495774E+03  0.41800000000E+01 0.  1.
         -5    1    1    2    0  502 -0.42877862484E+02 -0.98490384480E+02 -0.33226306315E+03  0.34922067874E+03  0.41800000000E+01 0.  1.
        -11    1    3    3    0    0 -0.28976865139E+02  0.79871726942E+02 -0.23731330486E+03  0.25206498396E+03  0.00000000000E+00 0. -1.
         11    1    3    3    0    0  0.14731548724E+02  0.28052614725E+02 -0.14445718474E+02  0.34823074289E+02  0.00000000000E+00 0.  1.
</event>
<event>
 7    1  0.6684706E-006  0.7000607E+02  0.7561462E-02  0.1360072E+00
         -3   -1    0    0    0  501 -0.00000000000E+00  0.00000000000E+00  0.15456223444E+03  0.15456223444E+03  0.00000000000E+00 0.  1.
          3   -1    0    0  501    0  0.00000000000E+00 -0.00000000000E+00 -0.95581555345E+02  0.95581555345E+02  0.00000000000E+00 0. -1.
         23    2    1    2    0    0 -0.11835082259E+02 -0.66211305382E+01  0.78522527003E+02  0.12280455470E+03  0.93441226803E+02 0.  0.
          5    1    1    2  502    0 -0.16394323363E+01 -0.18258891806E+02  0.49315227160E+02  0.52778204764E+02  0.41800000000E+01 0.  1.
         -5    1    1    2    0  502  0.13474514596E+02  0.24880022344E+02 -0.68857075068E+02  0.74561030320E+02  0.41800000000E+01 0.  1.
        -11    1    3    3    0    0 -0.22076085262E+02 -0.46478939326E+02  0.55364758043E+02  0.75583740147E+02  0.00000000000E+00 0. -1.
         11    1    3    3    0    0  0.10241003003E+02  0.39857808788E+02  0.23157768959E+02  0.47220814553E+02  0.00000000000E+00 0.  1.
</event>
<event>
 7    1  0.6684706E-006  0.1606800E+03  0.7561462E-02  0.1187931E+00
         -1   -1    0    0    0  501 -0.00000000000E+00  0.00000000000E+00  0.96978093865E+02  0.96978093865E+02  0.00000000000E+00 0.  1.
          1   -1    0    0  501    0  0.00000000000E+00 -0.00000000000E+00 -0.43647210543E+03  0.43647210543E+03  0.00000000000E+00 0. -1.
         23    2    1    2    0    0 -0.14139786145E+03  0.32239205414E+02 -0.39079223373E+02  0.17717834915E+03  0.93980104930E+02 0.  0.
          5    1    1    2  502    0 -0.82273700752E+01 -0.17446275977E+01  0.78455881788E+01  0.12237605880E+02  0.41800000000E+01 0.  1.
         -5    1    1    2    0  502  0.14962523152E+03 -0.30494577816E+02 -0.30826037637E+03  0.34403424426E+03  0.41800000000E+01 0.  1.
        -11    1    3    3    0    0 -0.12746428362E+03  0.49752504572E+02 -0.56465614023E+01  0.13694648212E+03  0.00000000000E+00 0. -1.
         11    1    3    3    0    0 -0.13933577823E+02 -0.17513299158E+02 -0.33432661970E+02  0.40231867031E+02  0.00000000000E+00 0.  1.
</event>
<event>
 7    1  0.6684706E-006  0.9468694E+02  0.7561462E-02  0.1291883E+00
         -2   -1    0    0    0  501 -0.00000000000E+00  0.00000000000E+00  0.45543867481E+02  0.45543867481E+02  0.00000000000E+00 0.  1.
          2   -1    0    0  501    0  0.00000000000E+00 -0.00000000000E+00 -0.26958198554E+03  0.26958198554E+03  0.00000000000E+00 0. -1.
         23    2    1    2    0    0  0.12158122835E+02 -0.70517245375E+01 -0.70627457663E+02  0.11668167433E+03  0.91808651986E+02 0.  0.
          5    1    1    2  502    0  0.17831300080E+02  0.55696313412E+02 -0.11611245746E+03  0.13007540031E+03  0.41800000000E+01 0. -1.
         -5    1    1    2    0  502 -0.29989422915E+02 -0.48644588875E+02 -0.37298202937E+02  0.68368778371E+02  0.41800000000E+01 0. -1.
        -11    1    3    3    0    0  0.67586914607E+01 -0.39741594637E+02 -0.73076955709E+02  0.83458466978E+02  0.00000000000E+00 0. -1.
         11    1    3    3    0    0  0.53994313745E+01  0.32689870100E+02  0.24494980458E+01  0.33223207356E+02  0.00000000000E+00 0.  1.
</event>
<event>
 7    1  0.6684706E-006  0.1755369E+03  0.7561462E-02  0.1172194E+00
          1   -1    0    0  501    0  0.00000000000E+00  0.00000000000E+00  0.31054110219E+04  0.31054110219E+04  0.00000000000E+00 0. -1.
         -1   -1    0    0    0  501 -0.00000000000E+00 -0.00000000000E+00 -0.21624976561E+02  0.21624976561E+02  0.00000000000E+00 0.  1.
         23    2    1    2    0    0 -0.11437715793E+03 -0.10046471397E+03  0.41525262322E+03  0.45186250849E+03  0.92572633534E+02 0.  0.
          5    1    1    2  502    0 -0.14563128145E+02  0.25863414404E+02  0.85577794469E+03  0.85630272914E+03  0.41800000000E+01 0. -1.
         -5    1    1    2    0  502  0.12894028608E+03  0.74601299568E+02  0.18127554774E+04  0.18188707608E+04  0.41800000000E+01 0.  1.
        -11    1    3    3    0    0 -0.45236225547E+02 -0.91867584116E+02  0.18685921687E+03  0.21307823925E+03  0.00000000000E+00 0.  1.
         11    1    3    3    0    0 -0.69140932385E+02 -0.85971298568E+01  0.22839340635E+03  0.23878426924E+03  0.00000000000E+00 0. -1.
</event>
<event>
 7    1  0.6684706E-006  0.1050856E+03  0.7561462E-02  0.1269951E+00
         -2   -1    0    0    0  501 -0.00000000000E+00  0.00000000000E+00  0.56606367627E+02  0.56606367627E+02  0.00000000000E+00 0.  1.
          2   -1    0    0  501    0  0.00000000000E+00 -0.00000000000E+00 -0.26896895899E+03  0.26896895899E+03  0.00000000000E+00 0. -1.
         23    2    1    2    0    0 -0.43956446172E+01 -0.43235904201E+02 -0.42305744976E+02  0.11003596285E+03  0.91812155832E+02 0.  0.
          5    1    1    2  502    0 -0.35184283047E+02  0.72077904054E+02 -0.82557000623E+02  0.11517937653E+03  0.41800000000E+01 0.  1.
         -5    1    1    2    0  502  0.39579927665E+02 -0.28841999853E+02 -0.87499845762E+02  0.10035998724E+03  0.41800000000E+01 0.  1.
        -11    1    3    3    0    0  0.25405248728E+02  0.31186347572E+01  0.15699364111E+02  0.30027030808E+02  0.00000000000E+00 0.  1.
         11    1    3    3    0    0 -0.29800893345E+02 -0.46354538958E+02 -0.58005109087E+02  0.80008932041E+02  0.00000000000E+00 0. -1.
</event>
<event>
 7    1  0.6684706E-006  0.1698151E+03  0.7561462E-02  0.1178041E+00
         -2   -1    0    0    0  501 -0.00000000000E+00  0.00000000000E+00  0.68190760883E+02  0.68190760883E+02  0.00000000000E+00 0.  1.
          2   -1    0    0  501    0  0.00000000000E+00 -0.00000000000E+00 -0.56549949440E+03  0.56549949440E+03  0.00000000000E+00 0. -1.
         23    2    1    2    0    0 -0.14155197441E+03  0.61325748594E+02 -0.15042541481E+03  0.23397370865E+03  0.91203519768E+02 0.  0.
          5    1    1    2  502    0 -0.15441366050E+02 -0.64566530545E+01 -0.27313524846E+01  0.17465876461E+02  0.41800000000E+01 0. -1.
         -5    1    1    2    0  502  0.15699334046E+03 -0.54869095539E+02 -0.34415196623E+03  0.38225067018E+03  0.41800000000E+01 0. -1.
        -11    1    3    3    0    0 -0.93077279614E+02  0.28006084811E+02 -0.14545480406E+03  0.17494233562E+03  0.00000000000E+00 0. -1.
         11    1    3    3    0    0 -0.48474694795E+02  0.33319663783E+02 -0.49706107414E+01  0.59031373025E+02  0.00000000000E+00 0.  1.
</event>
<event>
 7    1  0.6684706E-006  0.9800733E+02  0.7561462E-02  0.1284543E+00
         -2   -1    0    0    0  501 -0.00000000000E+00  0.00000000000E+00  0.22745503525E+02  0.22745503525E+02  0.00000000000E+00 0.  1.
          2   -1    0    0  501    0  0.00000000000E+00 -0.00000000000E+00 -0.66061869679E+03  0.66061869679E+03  0.00000000000E+00 0. -1.
         23    2    1    2    0    0  0.24866531932E+02  0.27090961888E+02 -0.15776407951E+03  0.18586539298E+03  0.91127245653E+02 0.  0.
          5    1    1    2  502    0 -0.14438018970E+02  0.47117206133E+02 -0.26743974296E+03  0.27197421940E+03  0.41800000000E+01 0.  1.
         -5    1    1    2    0  502 -0.10428512962E+02 -0.74208168021E+02 -0.21266937080E+03  0.22552458793E+03  0.41800000000E+01 0.  1.
        -11    1    3    3    0    0  0.41215878387E+02  0.16327038311E+01 -0.14864958725E+03  0.15426637398E+03  0.00000000000E+00 0. -1.
         11    1    3    3    0    0 -0.16349346454E+02  0.25458258057E+02 -0.91144922607E+01  0.31599019003E+02  0.00000000000E+00 0.  1.
</event>
<event>
 7    1  0.6684706E-006  0.1018662E+03  0.7561462E-02  0.1276420E+00
         -2   -1    0    0    0  501 -0.00000000000E+00  0.00000000000E+00  0.46809414767E+02  0.46809414767E+02  0.00000000000E+00 0.  1.
          2   -1    0    0  501    0  0.00000000000E+00 -0.00000000000E+00 -0.38570275180E+03  0.38570275180E+03  0.00000000000E+00 0. -1.
         23    2    1    2    0    0  0.44773123484E+02  0.26808021950E+02 -0.51883256322E+02  0.11510561264E+03  0.88510604711E+02 0.  0.
          5    1    1    2  502    0  0.75169888513E+01 -0.58630346301E+02 -0.69126711932E+02  0.91049422465E+02  0.41800000000E+01 0. -1.
         -5    1    1    2    0  502 -0.52290112335E+02  0.31822324351E+02 -0.21788336877E+03  0.22635713146E+03  0.41800000000E+01 0. -1.
        -11    1    3    3    0    0 -0.15638540320E+02  0.14789624855E+02 -0.48911858574E+02  0.53438439871E+02  0.00000000000E+00 0. -1.
         11    1    3    3    0    0  0.60411663804E+02  0.12018397095E+02 -0.29713977481E+01  0.61667172765E+02  0.00000000000E+00 0.  1.
</event>
<event>
 7    1  0.6684706E-006  0.1170636E+03  0.7561462E-02  0.1248021E+00
         -2   -1    0    0    0  501 -0.00000000000E+00  0.00000000000E+00  0.14652044601E+02  0.14652044601E+02  0.00000000000E+00 0.  1.
          2   -1    0    0  501    0  0.00000000000E+00 -0.00000000000E+00 -0.14853973667E+04  0.14853973667E+04  0.00000000000E+00 0. -1.
         23    2    1    2    0    0 -0.10111360126E+02  0.45088047927E+02 -0.23712874022E+03  0.25905649848E+03  0.93515016440E+02 0.  0.
          5    1    1    2  502    0 -0.11177114819E+02 -0.85001822895E+02 -0.93622134787E+03  0.94014792580E+03  0.41800000000E+01 0. -1.
         -5    1    1    2    0  502  0.21288474945E+02  0.39913774968E+02 -0.29739523404E+03  0.30084498704E+03  0.41800000000E+01 0.  1.
        -11    1    3    3    0    0  0.25370294933E+02  0.59409610473E+02 -0.16887833606E+03  0.18081218452E+03  0.00000000000E+00 0.  1.
         11    1    3    3    0    0 -0.35481655058E+02 -0.14321562546E+02 -0.68250404156E+02  0.78244313959E+02  0.00000000000E+00 0. -1.
</event>
<event>
 7    1  0.6684706E-006  0.1145315E+03  0.7561462E-02  0.1252401E+00
         -2   -1    0    0    0  501 -0.00000000000E+00  0.00000000000E+00  0.18793310352E+02  0.18793310352E+02  0.00000000000E+00 0.  1.
          2   -1    0    0  501    0  0.00000000000E+00 -0.00000000000E+00 -0.10721294899E+04  0.10721294899E+04  0.00000000000E+00 0. -1.
         23    2    1    2    0    0 -0.33064785467E+02  0.15249992313E+02 -0.15953345616E+03  0.18767470877E+03  0.91896846387E+02 0.  0.
          5    1    1    2  502    0  0.33005261656E+02 -0.68868633605E+02 -0.53232088072E+03  0.53778734500E+03  0.41800000000E+01 0.  1.
         -5    1    1    2    0  502  0.59523810181E-01  0.53618641292E+02 -0.36148184270E+03  0.36546074651E+03  0.41800000000E+01 0.  1.
        -11    1    3    3    0    0  0.50695451495E+01 -0.35196605835E+02 -0.60294766653E+02  0.69999715972E+02  0.00000000000E+00 0.  1.
         11    1    3    3    0    0 -0.38134330616E+02  0.50446598148E+02 -0.99238689507E+02  0.11767499280E+03  0.00000000000E+00 0. -1.
</event>
<event>
 7    1  0.6684706E-006  0.1336306E+03  0.7561462E-02  0.1222166E+00
          2   -1    0    0  501    0  0.00000000000E+00  0.00000000000E+00  0.31843427524E+03  0.31843427524E+03  0.00000000000E+00 0. -1.
         -2   -1    0    0    0  501 -0.00000000000E+00 -0.00000000000E+00 -0.63111053330E+02  0.63111053330E+02  0.00000000000E+00 0.  1.
         23    2    1    2    0    0 -0.78363802977E+02 -0.23094383077E+02  0.65822226671E+02  0.14023172209E+03  0.93049095702E+02 0.  0.
          5    1    1    2  502    0  0.50712671154E+02  0.71741648374E+02  0.82998012221E+02  0.12093296308E+03  0.41800000000E+01 0.  1.
         -5    1    1    2    0  502  0.27651131823E+02 -0.48647265297E+02  0.10650298302E+03  0.12038064339E+03  0.41800000000E+01 0.  1.
        -11    1    3    3    0    0 -0.58531418270E+02  0.30532860065E+02  0.42297072722E+02  0.78404239868E+02  0.00000000000E+00 0.  1.
         11    1    3    3    0    0 -0.19832384707E+02 -0.53627243142E+02  0.23525153949E+02  0.61827482227E+02  0.00000000000E+00 0. -1.
</event>
<event>
 7    1  0.6684706E-006  0.1021507E+03  0.7561462E-02  0.1275837E+00
          2   -1    0    0  501    0  0.00000000000E+00  0.00000000000E+00  0.18857960418E+03  0.18857960418E+03  0.00000000000E+00 0. -1.
         -2   -1    0    0    0  501 -0.00000000000E+00 -0.00000000000E+00 -0.81032581578E+02  0.81032581578E+02  0.00000000000E+00 0.  1.
         23    2    1    2    0    0 -0.50658222952E+02  0.12327022949E+02  0.16826299729E+02  0.10652817273E+03  0.91361458910E+02 0.  0.
          5    1    1    2  502    0  0.69514275647E+02  0.94035733383E+01  0.26314849986E+01  0.70321112218E+02  0.41800000000E+01 0.  1.
         -5    1    1    2    0  502 -0.18856052694E+02 -0.21730596288E+02  0.88089237879E+02  0.92762900819E+02  0.41800000000E+01 0.  1.
        -11    1    3    3    0    0  0.26318258628E+02  0.93250812294E+01  0.13507526264E+01  0.27954112574E+02  0.00000000000E+00 0.  1.
         11    1    3    3    0    0 -0.76976481580E+02  0.30019417199E+01  0.15475547103E+02  0.78574060152E+02  0.00000000000E+00 0. -1.
</event>
<event>
 7    1  0.6684706E-006  0.1108594E+03  0.7561462E-02  0.1258987E+00
         -1   -1    0    0    0  501 -0.00000000000E+00  0.00000000000E+00  0.11783523611E+03  0.11783523611E+03  0.00000000000E+00 0.  1.
          1   -1    0    0  501    0  0.00000000000E+00 -0.00000000000E+00 -0.21791109288E+03  0.21791109288E+03  0.00000000000E+00 0. -1.
         23    2    1    2    0    0  0.41664744688E+02  0.15914260646E+02  0.66315908137E+02  0.12285461818E+03  0.93307249962E+02 0.  0.
          5    1    1    2  502    0 -0.77414549633E+02  0.37028229164E+01 -0.57660104300E+02  0.96689624161E+02  0.41800000000E+01 0. -1.
         -5    1    1    2    0  502  0.35749804944E+02 -0.19617083562E+02 -0.10873166061E+03  0.11620208665E+03  0.41800000000E+01 0. -1.
        -11    1    3    3    0    0  0.40201927240E+02  0.52707150158E+02  0.47117200728E+02  0.81328157707E+02  0.00000000000E+00 0. -1.
         11    1    3    3    0    0  0.14628174478E+01 -0.36792889513E+02  0.19198707409E+02  0.41526460477E+02  0.00000000000E+00 0.  1.
</event>
<event>
 7    1  0.6684706E-006  0.2014319E+03  0.7561462E-02  0.1148537E+00
         -1   -1    0    0    0  501 -0.00000000000E+00  0.00000000000E+00  0.49926072320E+03  0.49926072320E+03  0.00000000000E+00 0.  1.
          1   -1    0    0  501    0  0.00000000000E+00 -0.00000000000E+00 -0.10275714041E+03  0.10275714041E+03  0.00000000000E+00 0. -1.
         23    2    1    2    0    0 -0.73999216064E+02 -0.18208465641E+03  0.22723208570E+03  0.31404038183E+03  0.91412442065E+02 0.  0.
          5    1    1    2  502    0  0.59966060589E+02  0.11612854737E+03  0.17690275502E+03  0.21998596563E+03  0.41800000000E+01 0. -1.
         -5    1    1    2    0  502  0.14033155476E+02  0.65956109039E+02 -0.76312579364E+01  0.67991516160E+02  0.41800000000E+01 0. -1.
        -11    1    3    3    0    0  0.32885571914E+01 -0.59708207396E+02  0.11943885087E+03  0.13357216677E+03  0.00000000000E+00 0.  1.
         11    1    3    3    0    0 -0.77287773256E+02 -0.12237644902E+03  0.10779323484E+03  0.18046821505E+03  0.00000000000E+00 0. -1.
</event>
<event>
 7    1  0.6684706E-006  0.8258554E+02  0.7561462E-02  0.1321870E+00
         -1   -1    0    0    0  501 -0.00000000000E+00  0.00000000000E+00  0.42838923839E+02  0.42838923839E+02  0.00000000000E+00 0.  1.
          1   -1    0    0  501    0  0.00000000000E+00 -0.00000000000E+00 -0.29862305162E+03  0.29862305162E+03  0.00000000000E+00 0. -1.
         23    2    1    2    0    0 -0.24555243166E+02 -0.20646178135E+02 -0.91200834515E+02  0.13226388496E+03  0.90260281460E+02 0.  0.
          5    1    1    2  502    0 -0.14468663535E+02  0.26766400956E+02 -0.16661761198E+03  0.16942456571E+03  0.41800000000E+01 0. -1.
         -5    1    1    2    0  502  0.39023906700E+02 -0.61202228211E+01  0.20343187146E+01  0.39773524789E+02  0.41800000000E+01 0. -1.
        -11    1    3    3    0    0 -0.57692414777E+02 -0.44778162689E+01 -0.45934544453E+02  0.73881309785E+02  0.00000000000E+00 0.  1.
         11    1    3    3    0    0  0.33137171611E+02 -0.16168361866E+02 -0.45266290061E+02  0.58382575172E+02  0.00000000000E+00 0. -1.
</event>
<event>
 7    1  0.6684706E-006  0.1434963E+03  0.7561462E-02  0.1208700E+00
         -2   -1    0    0    0  501 -0.00000000000E+00  0.00000000000E+00  0.51878335986E+02  0.51878335986E+02  0.00000000000E+00 0.  1.
          2   -1    0    0  501    0  0.00000000000E+00 -0.00000000000E+00 -0.47633751056E+03  0.47633751056E+03  0.00000000000E+00 0. -1.
         23    2    1    2    0    0  0.65340505203E+02  0.91139461657E+02 -0.16661113012E+03  0.22046712148E+03  0.90943388330E+02 0.  0.
          5    1    1    2  502    0 -0.30486170569E+02  0.13571637092E+02 -0.79839574398E+01  0.34566051347E+02  0.41800000000E+01 0.  1.
         -5    1    1    2    0  502 -0.34854334634E+02 -0.10471109875E+03 -0.24986408701E+03  0.27318267372E+03  0.41800000000E+01 0.  1.
        -11    1    3    3    0    0  0.66123524488E+02  0.16331528062E+02 -0.63855037105E+02  0.93362225034E+02  0.00000000000E+00 0.  1.
         11    1    3    3    0    0 -0.78301928565E+00  0.74807933594E+02 -0.10275609302E+03  0.12710489644E+03  0.00000000000E+00 0. -1.
</event>
<event>
 7    1  0.6684706E-006  0.1082773E+03  0.7561462E-02  0.1263794E+00
          2   -1    0    0  501    0  0.00000000000E+00  0.00000000000E+00  0.87492493405E+03  0.87492493405E+03  0.00000000000E+00 0. -1.
         -2   -1    0    0    0  501 -0.00000000000E+00 -0.00000000000E+00 -0.14453298362E+02  0.14453298362E+02  0.00000000000E+00 0.  1.
         23    2    1    2    0    0 -0.90620271455E+00 -0.24894708563E+02  0.27558034360E+03  0.29074204937E+03  0.89251586973E+02 0.  0.
          5    1    1    2  502    0 -0.59344583491E+02  0.56813136782E+00  0.21604268664E+03  0.22408484378E+03  0.41800000000E+01 0.  1.
         -5    1    1    2    0  502  0.60250786205E+02  0.24326577195E+02  0.36884860546E+03  0.37455133926E+03  0.41800000000E+01 0.  1.
        -11    1    3    3    0    0  0.35450009481E+02 -0.39225246875E+02  0.17594560626E+03  0.18371766254E+03  0.00000000000E+00 0.  1.
         11    1    3    3    0    0 -0.36356212196E+02  0.14330538312E+02  0.99634737333E+02  0.10702438683E+03  0.00000000000E+00 0. -1.
</event>
<event>
 7    1  0.6684706E-006  0.1126241E+03  0.7561462E-02  0.1255786E+00
          2   -1    0    0  501    0  0.00000000000E+00  0.00000000000E+00  0.91571781555E+03  0.91571781555E+03  0.00000000000E+00 0. -1.
         -2   -1    0    0    0  501 -0.00000000000E+00 -0.00000000000E+00 -0.24785371069E+02  0.24785371069E+02  0.00000000000E+00 0.  1.
         23    2    1    2    0    0 -0.91014154013E+02 -0.18475448770E+02  0.26051619339E+03  0.29112147446E+03  0.90874129633E+02 0.  0.
          5    1    1    2  502    0  0.41232508633E+02  0.55599482366E+02  0.15370126153E+03  0.16862079470E+03  0.41800000000E+01 0.  1.
         -5    1    1    2    0  502  0.49781645380E+02 -0.37124033596E+02  0.47671498956E+03  0.48076091746E+03  0.41800000000E+01 0.  1.
        -11    1    3    3    0    0 -0.17332164256E+02 -0.85102917598E+01 -0.90725741798E+00  0.19330082764E+02  0.00000000000E+00 0.  1.
         11    1    3    3    0    0 -0.73681989757E+02 -0.99651570105E+01  0.26142345081E+03  0.27179139170E+03  0.00000000000E+00 0. -1.
</event>
<event>
 7    1  0.6684706E-006  0.1031873E+03  0.7561462E-02  0.1273733E+00
          4   -1    0    0  501    0  0.00000000000E+00  0.00000000000E+00  0.33189611294E+03  0.33189611294E+03  0.00000000000E+00 0.  1.
         -4   -1    0    0    0  501 -0.00000000000E+00 -0.00000000000E+00 -0.42686339330E+02  0.42686339330E+02  0.00000000000E+00 0. -1.
         23    2    1    2    0    0 -0.37907996382E+02 -0.27113651043E+02  0.10492298871E+03  0.14702601642E+03  0.91845792947E+02 0.  0.
          5    1    1    2  502    0  0.33097047644E+02  0.76349434918E+02  0.12506580161E+03  0.15027833479E+03  0.41800000000E+01 0. -1.
         -5    1    1    2    0  502  0.48109487383E+01 -0.49235783875E+02  0.59220983292E+02  0.77278101061E+02  0.41800000000E+01 0. -1.
        -11    1    3    3    0    0 -0.48920124212E+02 -0.34751473384E+02  0.11536397901E+03  0.13003726815E+03  0.00000000000E+00 0.  1.
         11    1    3    3    0    0  0.11012127830E+02  0.76378223413E+01 -0.10440990297E+02  0.16988748272E+02  0.00000000000E+00 0. -1.
</event>
<event>
 7    1  0.6684706E-006  0.6896071E+02  0.7561462E-02  0.1363663E+00
          3   -1    0    0  501    0  0.00000000000E+00  0.00000000000E+00  0.25078840661E+03  0.25078840661E+03  0.00000000000E+00 0. -1.
         -3   -1    0    0    0  501 -0.00000000000E+00 -0.00000000000E+00 -0.53703493387E+02  0.53703493387E+02  0.00000000000E+00 0.  1.
         23    2    1    2    0    0 -0.13753116230E+02 -0.25971265016E+02  0.43391883518E+02  0.10417194567E+03  0.90029350198E+02 0.  0.
          5    1    1    2  502    0  0.19801946869E+02 -0.44112197159E+01 -0.16994922710E+02  0.26793203562E+02  0.41800000000E+01 0. -1.
         -5    1    1    2    0  502 -0.60488306394E+01  0.30382484732E+02  0.17068795241E+03  0.17352675076E+03  0.41800000000E+01 0. -1.
        -11    1    3    3    0    0 -0.33796075247E+02 -0.46351416643E+02  0.48518942669E+02  0.75131327186E+02  0.00000000000E+00 0. -1.
         11    1    3    3    0    0  0.20042959017E+02  0.20380151627E+02 -0.51270591508E+01  0.29040618486E+02  0.00000000000E+00 0.  1.
</event>
<event>
 7    1  0.6684706E-006  0.1240073E+03  0.7561462E-02  0.1236629E+00
          1   -1    0    0  501    0  0.00000000000E+00  0.00000000000E+00  0.87524122126E+03  0.87524122126E+03  0.00000000000E+00 0. -1.
         -1   -1    0    0    0  501 -0.00000000000E+00 -0.00000000000E+00 -0.26081468185E+02  0.26081468185E+02  0.00000000000E+00 0.  1.
         23    2    1    2    0    0  0.87439924111E+02 -0.57287392717E+02  0.34865009017E+03  0.37493437595E+03  0.89951738203E+02 0.  0.
          5    1    1    2  502    0 -0.15974335691E+02  0.33154606982E+02  0.39438667708E+03  0.39612211604E+03  0.41800000000E+01 0.  1.
         -5    1    1    2    0  502 -0.71465588420E+02  0.24132785735E+02  0.10612298584E+03  0.13026619745E+03  0.41800000000E+01 0.  1.
        -11    1    3    3    0    0  0.10485698449E+03 -0.53011150643E+02  0.32240022627E+03  0.34314293696E+03  0.00000000000E+00 0. -1.
         11    1    3    3    0    0 -0.17417060378E+02 -0.42762420745E+01  0.26249863897E+02  0.31791438991E+02  0.00000000000E+00 0.  1.
</event>
<event>
 7    1  0.6684706E-006  0.1349142E+03  0.7561462E-02  0.1220341E+00
         -2   -1    0    0    0  501 -0.00000000000E+00  0.00000000000E+00  0.21371919436E+02  0.21371919436E+02  0.00000000000E+00 0.  1.
          2   -1    0    0  501    0  0.00000000000E+00 -0.00000000000E+00 -0.95274566974E+03  0.95274566974E+03  0.00000000000E+00 0. -1.
         23    2    1    2    0    0  0.81300570259E+02  0.39148059983E+02 -0.46159002672E+03  0.47966259127E+03  0.94172689103E+02 0.  0.
          5    1    1    2  502    0 -0.11230895716E+03 -0.33107289120E+02 -0.41348107107E+03  0.42975977357E+03  0.41800000000E+01 0.  1.
         -5    1    1    2    0  502  0.31008386901E+02 -0.60407708623E+01 -0.56302652518E+02  0.64695224332E+02  0.41800000000E+01 0.  1.
        -11    1    3    3    0    0 -0.73508424225E+01 -0.15151795571E+02 -0.20717205788E+02  0.26698584401E+02  0.00000000000E+00 0.  1.
         11    1    3    3    0    0  0.88651412681E+02  0.54299855554E+02 -0.44087282093E+03  0.45296400687E+03  0.00000000000E+00 0. -1.
</event>
<event>
 7    1  0.6684706E-006  0.2389371E+03  0.7561462E-02  0.1120503E+00
          3   -1    0    0  501    0  0.00000000000E+00  0.00000000000E+00  0.56092575589E+03  0.56092575589E+03  0.00000000000E+00 0. -1.
         -3   -1    0    0    0  501 -0.00000000000E+00 -0.00000000000E+00 -0.10960257848E+03  0.10960257848E+03  0.00000000000E+00 0.  1.
         23    2    1    2    0    0 -0.20812829714E+03  0.56403984082E+02  0.14137115577E+03  0.27276862718E+03  0.88983834487E+02 0.  0.
          5    1    1    2  502    0  0.21212524534E+03 -0.25207171978E+02  0.24236371846E+03  0.32309466980E+03  0.41800000000E+01 0.  1.
         -5    1    1    2    0  502 -0.39969481984E+01 -0.31196812104E+02  0.67588303183E+02  0.74665037384E+02  0.41800000000E+01 0.  1.
        -11    1    3    3    0    0 -0.84489499118E+02  0.67792530269E+02  0.77071700648E+02  0.13294491213E+03  0.00000000000E+00 0. -1.
         11    1    3    3    0    0 -0.12363879803E+03 -0.11388546187E+02  0.64299455119E+02  0.13982371505E+03  0.00000000000E+00 0.  1.
</event>
<event>
 7    1  0.6684706E-006  0.1184960E+03  0.7561462E-02  0.1245599E+00
         -1   -1    0    0    0  501 -0.00000000000E+00  0.00000000000E+00  0.18330902095E+02  0.18330902095E+02  0.00000000000E+00 0.  1.
          1   -1    0    0  501    0  0.00000000000E+00 -0.00000000000E+00 -0.10123472170E+04  0.10123472170E+04  0.00000000000E+00 0. -1.
         23    2    1    2    0    0  0.65152433877E+02  0.31600111943E+02 -0.33512341008E+03  0.35611821307E+03  0.96276035349E+02 0.  0.
          5    1    1    2  502    0 -0.90286255710E+02 -0.38926480886E+01 -0.29079047299E+03  0.30453789954E+03  0.41800000000E+01 0. -1.
         -5    1    1    2    0  502  0.25133821833E+02 -0.27707463854E+02 -0.36810243180E+03  0.37002200644E+03  0.41800000000E+01 0. -1.
        -11    1    3    3    0    0  0.56738923125E+02 -0.17258812958E+02 -0.10385433121E+03  0.11959470780E+03  0.00000000000E+00 0.  1.
         11    1    3    3    0    0  0.84135107517E+01  0.48858924901E+02 -0.23126907887E+03  0.23652350527E+03  0.00000000000E+00 0. -1.
</event>
<event>
 7    1  0.6684706E-006  0.1019598E+03  0.7561462E-02  0.1276228E+00
         -2   -1    0    0    0  501 -0.00000000000E+00  0.00000000000E+00  0.11177994560E+03  0.11177994560E+03  0.00000000000E+00 0.  1.
          2   -1    0    0  501    0  0.00000000000E+00 -0.00000000000E+00 -0.16548581914E+03  0.16548581914E+03  0.00000000000E+00 0. -1.
         23    2    1    2    0    0 -0.34021145446E+02  0.40345550908E+02  0.36139670825E+02  0.11446409568E+03  0.94924978677E+02 0.  0.
          5    1    1    2  502    0  0.72868024183E+02 -0.54141171242E+02 -0.43874946073E+02  0.10091332253E+03  0.41800000000E+01 0. -1.
         -5    1    1    2    0  502 -0.38846878737E+02  0.13795620334E+02 -0.45970598290E+02  0.61888346521E+02  0.41800000000E+01 0. -1.
        -11    1    3    3    0    0 -0.46215018642E+02  0.36280670095E+02  0.62103731861E+02  0.85492622382E+02  0.00000000000E+00 0.  1.
         11    1    3    3    0    0  0.12193873196E+02  0.40648808135E+01 -0.25964061036E+02  0.28971473298E+02  0.00000000000E+00 0. -1.
</event>
<event>
 7    1  0.6684706E-006  0.1850379E+03  0.7561462E-02  0.1163015E+00
          1   -1    0    0  501    0  0.00000000000E+00  0.00000000000E+00  0.16030564806E+04  0.16030564806E+04  0.00000000000E+00 0. -1.
         -1   -1    0    0    0  501 -0.00000000000E+00 -0.00000000000E+00 -0.27591920919E+02  0.27591920919E+02  0.00000000000E+00 0.  1.
         23    2    1    2    0    0 -0.40539056367E+02 -0.15451605310E+03  0.44059728483E+03  0.47778696862E+03  0.92928974126E+02 0.  0.
          5    1    1    2  502    0  0.73282269206E+02  0.13937109356E+03  0.10278460618E+04  0.10398459462E+04  0.41800000000E+01 0.  1.
         -5    1    1    2    0  502 -0.32743212839E+02  0.15144959541E+02  0.10702121304E+03  0.11301548666E+03  0.41800000000E+01 0.  1.
        -11    1    3    3    0    0 -0.24980832930E+02 -0.44557535770E+01  0.24862918782E+02  0.35525490626E+02  0.00000000000E+00 0.  1.
         11    1    3    3    0    0 -0.15558223436E+02 -0.15006029952E+03  0.41573436605E+03  0.44226147800E+03  0.00000000000E+00 0. -1.
</event>
<event>
 7    1  0.8105026E-006  0.1986644E+03  0.7561462E-02  0.1150871E+00
         -2   -1    0    0    0  501 -0.00000000000E+00  0.00000000000E+00  0.57679452525E+02  0.57679452525E+02  0.00000000000E+00 0. -1.
          2   -1    0    0  501    0  0.00000000000E+00 -0.00000000000E+00 -0.90776620600E+03  0.90776620600E+03  0.00000000000E+00 0.  1.
         23    2    1    2    0    0  0.17399912757E+03  0.86189740138E+02 -0.29295854555E+03  0.36233375445E+03  0.88071973403E+02 0.  0.
          5    1    1    2  502    0 -0.79367894611E+02 -0.37536403908E+02 -0.97333323391E+02  0.13114683586E+03  0.41800000000E+01 0.  1.
         -5    1    1    2    0  502 -0.94631232960E+02 -0.48653336230E+02 -0.45979488453E+03  0.47196506821E+03  0.41800000000E+01 0.  1.
        -11    1    3    3    0    0  0.16366750470E+02 -0.91224431460E+01 -0.73311314511E+02  0.75667947806E+02  0.00000000000E+00 0.  1.
         11    1    3    3    0    0  0.15763237710E+03  0.95312183284E+02 -0.21964723104E+03  0.28666580664E+03  0.00000000000E+00 0. -1.
</event>
<event>
 7    1  0.6684706E-006  0.7369867E+02  0.7561462E-02  0.1347949E+00
          2   -1    0    0  501    0  0.00000000000E+00  0.00000000000E+00  0.32589455037E+03  0.32589455037E+03  0.00000000000E+00 0. -1.
         -2   -1    0    0    0  501 -0.00000000000E+00 -0.00000000000E+00 -0.42737326028E+02  0.42737326028E+02  0.00000000000E+00 0.  1.
         23    2    1    2    0    0  0.41932036631E+02  0.18868947517E+02  0.13697791489E+03  0.17081899399E+03  0.91114470112E+02 0.  0.
          5    1    1    2  502    0 -0.62289800297E+02 -0.35790568568E+01  0.15763347583E+03  0.16958364889E+03  0.41800000000E+01 0. -1.
         -5    1    1    2    0  502  0.20357763666E+02 -0.15289890660E+02 -0.11454166373E+02  0.28229233521E+02  0.41800000000E+01 0. -1.
        -11    1    3    3    0    0  0.12432773740E+02  0.25907804501E+02 -0.17741292278E+01  0.28791244006E+02  0.00000000000E+00 0.  1.
         11    1    3    3    0    0  0.29499262892E+02 -0.70388569835E+01  0.13875204412E+03  0.14202774998E+03  0.00000000000E+00 0. -1.
</event>
<event>
 7    1  0.6684706E-006  0.1807303E+03  0.7561462E-02  0.1167098E+00
         -1   -1    0    0    0  501 -0.00000000000E+00  0.00000000000E+00  0.20111543401E+03  0.20111543401E+03  0.00000000000E+00 0.  1.
          1   -1    0    0  501    0  0.00000000000E+00 -0.00000000000E+00 -0.40684556194E+03  0.40684556194E+03  0.00000000000E+00 0. -1.
         23    2    1    2    0    0  0.17914962592E+03 -0.13960329770E+02  0.10508986920E+03  0.22776765286E+03  0.92437783421E+02 0.  0.
          5    1    1    2  502    0 -0.11598273905E+03  0.20260704134E+02 -0.29038477213E+03  0.31337402601E+03  0.41800000000E+01 0. -1.
         -5    1    1    2    0  502 -0.63166886874E+02 -0.63003743637E+01 -0.20435225003E+02  0.66819317082E+02  0.41800000000E+01 0. -1.
        -11    1    3    3    0    0  0.95549747337E+02 -0.12952242517E+02  0.10713482571E+03  0.14413669097E+03  0.00000000000E+00 0.  1.
         11    1    3    3    0    0  0.83599878585E+02 -0.10080872528E+01 -0.20449565122E+01  0.83630961889E+02  0.00000000000E+00 0. -1.
</event>
<event>
 7    1  0.6684706E-006  0.9412242E+02  0.7561462E-02  0.1293165E+00
         -1   -1    0    0    0  501 -0.00000000000E+00  0.00000000000E+00  0.53223964639E+02  0.53223964639E+02  0.00000000000E+00 0.  1.
          1   -1    0    0  501    0  0.00000000000E+00 -0.00000000000E+00 -0.33342916203E+03  0.33342916203E+03  0.00000000000E+00 0. -1.
         23    2    1    2    0    0 -0.62129902080E+02 -0.37148207095E+02 -0.88435885453E+02  0.14652281081E+03  0.91694679399E+02 0.  0.
          5    1    1    2  502    0  0.24000087498E+02  0.33302422485E+02  0.32006750916E+01  0.41385652880E+02  0.41800000000E+01 0. -1.
         -5    1    1    2    0  502  0.38129814582E+02  0.38457846097E+01 -0.19496998703E+03  0.19874466298E+03  0.41800000000E+01 0. -1.
        -11    1    3    3    0    0 -0.21222067375E+02  0.25770776987E+02 -0.41081701038E+01  0.33636084073E+02  0.00000000000E+00 0.  1.
         11    1    3    3    0    0 -0.40907834705E+02 -0.62918984082E+02 -0.84327715350E+02  0.11288672674E+03  0.00000000000E+00 0. -1.
</event>
<event>
 7    1  0.6684706E-006  0.1256247E+03  0.7561462E-02  0.1234096E+00
          1   -1    0    0  501    0  0.00000000000E+00  0.00000000000E+00  0.32500988280E+03  0.32500988280E+03  0.00000000000E+00 0.  1.
         -1   -1    0    0    0  501 -0.00000000000E+00 -0.00000000000E+00 -0.58597099608E+02  0.58597099608E+02  0.00000000000E+00 0. -1.
         23    2    1    2    0    0 -0.33953477582E+02  0.78169550117E+02  0.11239103721E+03  0.16765919934E+03  0.90634125317E+02 0.  0.
          5    1    1    2  502    0  0.75268685946E+02 -0.28660003575E+02  0.54677042693E+02  0.97436247293E+02  0.41800000000E+01 0. -1.
         -5    1    1    2    0  502 -0.41315208364E+02 -0.49509546542E+02  0.99344703290E+02  0.11851153578E+03  0.41800000000E+01 0. -1.
        -11    1    3    3    0    0 -0.42099437331E+02  0.18887080466E+02  0.94563634866E+02  0.10522055631E+03  0.00000000000E+00 0.  1.
         11    1    3    3    0    0  0.81459597487E+01  0.59282469651E+02  0.17827402344E+02  0.62438643023E+02  0.00000000000E+00 0. -1.
</event>
<event>
 7    1  0.6684706E-006  0.1193121E+03  0.7561462E-02  0.1244236E+00
         -2   -1    0    0    0  501 -0.00000000000E+00  0.00000000000E+00  0.15649445889E+02  0.15649445889E+02  0.00000000000E+00 0. -1.
          2   -1    0    0  501    0  0.00000000000E+00 -0.00000000000E+00 -0.12315314023E+04  0.12315314023E+04  0.00000000000E+00 0.  1.
         23    2    1    2    0    0 -0.81808691756E+02  0.19367343658E+02 -0.45753013037E+03  0.47397607680E+03  0.90839116800E+02 0.  0.
          5    1    1    2  502    0 -0.12598066032E+02 -0.15833133769E+02 -0.19777420358E+02  0.28601016568E+02  0.41800000000E+01 0. -1.
         -5    1    1    2    0  502  0.94406757787E+02 -0.35342098890E+01 -0.73857440569E+03  0.74460375482E+03  0.41800000000E+01 0. -1.
        -11    1    3    3    0    0 -0.53947289187E+02 -0.33596189019E+02 -0.25399949400E+03  0.26182963331E+03  0.00000000000E+00 0.  1.
         11    1    3    3    0    0 -0.27861402569E+02  0.52963532677E+02 -0.20353063637E+03  0.21214644349E+03  0.00000000000E+00 0. -1.
</event>
<event>
 7    1  0.6684706E-006  0.1545711E+03  0.7561462E-02  0.1194966E+00
          1   -1    0    0  501    0  0.00000000000E+00  0.00000000000E+00  0.11041836650E+03  0.11041836650E+03  0.00000000000E+00 0. -1.
         -1   -1    0    0    0  501 -0.00000000000E+00 -0.00000000000E+00 -0.25823675664E+03  0.25823675664E+03  0.00000000000E+00 0.  1.
         23    2    1    2    0    0 -0.12006243489E+03  0.42558015594E+02 -0.92487346918E+02  0.18174285280E+03  0.90831614760E+02 0.  0.
          5    1    1    2  502    0  0.39984428506E+02  0.44334745100E+02 -0.24894979608E+02  0.64819414960E+02  0.41800000000E+01 0.  1.
         -5    1    1    2    0  502  0.80078006384E+02 -0.86892760694E+02 -0.30436063614E+02  0.12209285538E+03  0.41800000000E+01 0.  1.
        -11    1    3    3    0    0 -0.59153771092E+02  0.37274600025E+02  0.11337091503E+01  0.69927460542E+02  0.00000000000E+00 0.  1.
         11    1    3    3    0    0 -0.60908663797E+02  0.52834155686E+01 -0.93621056069E+02  0.11181539225E+03  0.00000000000E+00 0. -1.
</event>
<event>
 7    1  0.6684706E-006  0.1200639E+03  0.7561462E-02  0.1242992E+00
         -1   -1    0    0    0  501 -0.00000000000E+00  0.00000000000E+00  0.11020361702E+03  0.11020361702E+03  0.00000000000E+00 0.  1.
          1   -1    0    0  501    0  0.00000000000E+00 -0.00000000000E+00 -0.15502359585E+03  0.15502359585E+03  0.00000000000E+00 0. -1.
         23    2    1    2    0    0  0.68875954036E+01  0.55659373511E+02  0.27526734062E+02  0.11021376819E+03  0.90796193645E+02 0.  0.
          5    1    1    2  502    0 -0.74806427545E+01  0.39980930576E+02 -0.27647213458E+02  0.49358642989E+02  0.41800000000E+01 0. -1.
         -5    1    1    2    0  502  0.59304735093E+00 -0.95640304087E+02 -0.44699499434E+02  0.10565480169E+03  0.41800000000E+01 0. -1.
        -11    1    3    3    0    0 -0.37695487546E+02  0.42950589913E+02  0.17560864422E+01  0.57173304914E+02  0.00000000000E+00 0.  1.
         11    1    3    3    0    0  0.44583082949E+02  0.12708783599E+02  0.25770647620E+02  0.53040463276E+02  0.00000000000E+00 0. -1.
</event>
<event>
 7    1  0.6684706E-006  0.1130157E+03  0.7561462E-02  0.1255085E+00
          1   -1    0    0  501    0  0.00000000000E+00  0.00000000000E+00  0.35143094062E+03  0.35143094062E+03  0.00000000000E+00 0. -1.
         -1   -1    0    0    0  501 -0.00000000000E+00 -0.00000000000E+00 -0.51033485849E+02  0.51033485849E+02  0.00000000000E+00 0.  1.
         23    2    1    2    0    0 -0.28257352351E+02  0.70310933659E+02  0.11972529000E+03  0.17001495390E+03  0.93961875943E+02 0.  0.
          5    1    1    2  502    0 -0.25846949011E+02  0.24639704075E+02  0.33921142274E+02  0.49429708509E+02  0.41800000000E+01 0. -1.
         -5    1    1    2    0  502  0.54104301362E+02 -0.94950637735E+02  0.14675102250E+03  0.18301976406E+03  0.41800000000E+01 0. -1.
        -11    1    3    3    0    0 -0.28304436881E+02  0.33301577565E+02 -0.10282934127E+01  0.43717200309E+02  0.00000000000E+00 0.  1.
         11    1    3    3    0    0  0.47084530791E-01  0.37009356094E+02  0.12075358342E+03  0.12629775359E+03  0.00000000000E+00 0. -1.
</event>
<event>
 7    1  0.6684706E-006  0.1612817E+03  0.7561462E-02  0.1187257E+00
         -1   -1    0    0    0  501 -0.00000000000E+00  0.00000000000E+00  0.16272002066E+03  0.16272002066E+03  0.00000000000E+00 0.  1.
          1   -1    0    0  501    0  0.00000000000E+00 -0.00000000000E+00 -0.34243815866E+03  0.34243815866E+03  0.00000000000E+00 0. -1.
         23    2    1    2    0    0  0.74620907061E+02  0.94486808498E+02  0.91244971816E+02  0.17629459073E+03  0.90874094698E+02 0.  0.
          5    1    1    2  502    0  0.27404891422E+02 -0.78110488457E+02 -0.12471863247E+03  0.14974807566E+03  0.41800000000E+01 0. -1.
         -5    1    1    2    0  502 -0.10202579848E+03 -0.16376320041E+02 -0.14624447735E+03  0.17911551293E+03  0.41800000000E+01 0.  1.
        -11    1    3    3    0    0  0.16941928598E+02  0.72633275565E+02  0.86818870516E+02  0.11445583402E+03  0.00000000000E+00 0.  1.
         11    1    3    3    0    0  0.57678978463E+02  0.21853532933E+02  0.44261013001E+01  0.61838756706E+02  0.00000000000E+00 0. -1.
</event>
<event>
 7    1  0.6684706E-006  0.1212612E+03  0.7561462E-02  0.1241031E+00
         -4   -1    0    0    0  501 -0.00000000000E+00  0.00000000000E+00  0.15055679246E+03  0.15055679246E+03  0.00000000000E+00 0.  1.
          4   -1    0    0  501    0  0.00000000000E+00 -0.00000000000E+00 -0.11677443676E+03  0.11677443676E+03  0.00000000000E+00 0. -1.
         23    2    1    2    0    0  0.23339072399E+02 -0.61659188495E+02  0.52610407904E+02  0.12468216625E+03  0.91821673552E+02 0.  0.
          5    1    1    2  502    0  0.24153656125E+02  0.78697505530E+02  0.12115518969E+02  0.83312392120E+02  0.41800000000E+01 0.  1.
         -5    1    1    2    0  502 -0.47492728524E+02 -0.17038317035E+02 -0.30943571176E+02  0.59336670846E+02  0.41800000000E+01 0.  1.
        -11    1    3    3    0    0  0.56537063071E+02 -0.32091964369E+02  0.15646968471E+02  0.66866742856E+02  0.00000000000E+00 0. -1.
         11    1    3    3    0    0 -0.33197990672E+02 -0.29567224126E+02  0.36963439433E+02  0.57815423391E+02  0.00000000000E+00 0.  1.
</event>
<event>
 7    1  0.6684706E-006  0.1301921E+03  0.7561462E-02  0.1227171E+00
         -1   -1    0    0    0  501 -0.00000000000E+00  0.00000000000E+00  0.34976843080E+02  0.34976843080E+02  0.00000000000E+00 0. -1.
          1   -1    0    0  501    0  0.00000000000E+00 -0.00000000000E+00 -0.11113535125E+04  0.11113535125E+04  0.00000000000E+00 0.  1.
         23    2    1    2    0    0 -0.72403352465E+02 -0.93401064789E+02 -0.18100977693E+03  0.23457664284E+03  0.91080501043E+02 0.  0.
          5    1    1    2  502    0  0.53380366798E+02  0.99876178064E+02 -0.87674992999E+03  0.88404333980E+03  0.41800000000E+01 0.  1.
         -5    1    1    2    0  502  0.19022985666E+02 -0.64751132750E+01 -0.18616962485E+02  0.27710372927E+02  0.41800000000E+01 0.  1.
        -11    1    3    3    0    0 -0.72550751721E+02 -0.62860602430E+02 -0.68328228584E+02  0.11782959617E+03  0.00000000000E+00 0. -1.
         11    1    3    3    0    0  0.14739925641E+00 -0.30540462359E+02 -0.11268154835E+03  0.11674704667E+03  0.00000000000E+00 0.  1.
</event>
<event>
 7    1  0.6684706E-006  0.3795812E+03  0.7561462E-02  0.1051089E+00
          2   -1    0    0  501    0  0.00000000000E+00  0.00000000000E+00  0.21794899454E+04  0.21794899454E+04  0.00000000000E+00 0. -1.
         -2   -1    0    0    0  501 -0.00000000000E+00 -0.00000000000E+00 -0.75204683660E+02  0.75204683660E+02  0.00000000000E+00 0.  1.
         23    2    1    2    0    0 -0.37190946497E+03 -0.16361158374E+02  0.72068504801E+03  0.81643970166E+03  0.92749719069E+02 0.  0.
          5    1    1    2  502    0  0.17427321856E+03  0.57892604461E+02  0.52474192380E+03  0.55596246937E+03  0.41800000000E+01 0.  1.
         -5    1    1    2    0  502  0.19763624641E+03 -0.41531446087E+02  0.85885828997E+03  0.88229245807E+03  0.41800000000E+01 0.  1.
        -11    1    3    3    0    0 -0.15436906167E+03  0.80294542709E+01  0.39356543442E+03  0.42283333656E+03  0.00000000000E+00 0. -1.
         11    1    3    3    0    0 -0.21754040330E+03 -0.24390612645E+02  0.32711961359E+03  0.39360636510E+03  0.00000000000E+00 0.  1.
</event>
<event>
 7    1  0.6684706E-006  0.1078689E+03  0.7561462E-02  0.1264568E+00
         -1   -1    0    0    0  501 -0.00000000000E+00  0.00000000000E+00  0.65427795570E+02  0.65427795570E+02  0.00000000000E+00 0.  1.
          1   -1    0    0  501    0  0.00000000000E+00 -0.00000000000E+00 -0.26587534395E+03  0.26587534395E+03  0.00000000000E+00 0. -1.
         23    2    1    2    0    0 -0.50818791516E+02  0.37951940988E+02 -0.40746868294E+02  0.11875965202E+03  0.91764090339E+02 0.  0.
          5    1    1    2  502    0  0.23406634528E+02 -0.76517179979E+02 -0.53896474953E+02  0.96566307707E+02  0.41800000000E+01 0. -1.
         -5    1    1    2    0  502  0.27412156988E+02  0.38565238990E+02 -0.10580420514E+03  0.11597717980E+03  0.41800000000E+01 0. -1.
        -11    1    3    3    0    0 -0.43477030507E+02 -0.56983917753E+01  0.16101001643E+02  0.46711520040E+02  0.00000000000E+00 0.  1.
         11    1    3    3    0    0 -0.73417610090E+01  0.43650332764E+02 -0.56847869937E+02  0.72048131977E+02  0.00000000000E+00 0. -1.
</event>
<event>
 7    1  0.6684706E-006  0.9623059E+02  0.7561462E-02  0.1288428E+00
         -2   -1    0    0    0  501 -0.00000000000E+00  0.00000000000E+00  0.52619804596E+02  0.52619804596E+02  0.00000000000E+00 0.  1.
          2   -1    0    0  501    0  0.00000000000E+00 -0.00000000000E+00 -0.38934939476E+03  0.38934939476E+03  0.00000000000E+00 0. -1.
         23    2    1    2    0    0 -0.63012843377E+01 -0.48115634514E+02 -0.30151190997E+02  0.10731419430E+03  0.90842839623E+02 0.  0.
          5    1    1    2  502    0 -0.49045907878E+02  0.24096617607E+02 -0.62182612544E+02  0.82887259349E+02  0.41800000000E+01 0. -1.
         -5    1    1    2    0  502  0.55347192216E+02  0.24019016907E+02 -0.24439578662E+03  0.25176774571E+03  0.41800000000E+01 0. -1.
        -11    1    3    3    0    0 -0.32928451142E+02 -0.32713430852E+02  0.18324500081E+02  0.49902292091E+02  0.00000000000E+00 0.  1.
         11    1    3    3    0    0  0.26627166804E+02 -0.15402203661E+02 -0.48475691078E+02  0.57411902208E+02  0.00000000000E+00 0. -1.
</event>
<event>
 7    1  0.6684706E-006  0.1286708E+03  0.7561462E-02  0.1229441E+00
          4   -1    0    0  501    0  0.00000000000E+00  0.00000000000E+00  0.79431474540E+02  0.79431474540E+02  0.00000000000E+00 0. -1.
         -4   -1    0    0    0  501 -0.00000000000E+00 -0.00000000000E+00 -0.28067520971E+03  0.28067520971E+03  0.00000000000E+00 0.  1.
         23    2    1    2    0    0 -0.33263245192E+02  0.93925483969E+02 -0.69274632057E+02  0.15276298569E+03  0.92785317433E+02 0.  0.
          5    1    1    2  502    0 -0.15930493284E+02  0.91082228822E+01 -0.79360637470E+02  0.81561777322E+02  0.41800000000E+01 0. -1.
         -5    1    1    2    0  502  0.49193738476E+02 -0.10303370685E+03 -0.52608465643E+02  0.12578192124E+03  0.41800000000E+01 0. -1.
        -11    1    3    3    0    0 -0.19435901092E+02  0.10485689789E+03 -0.78920924271E+02  0.13266964827E+03  0.00000000000E+00 0.  1.
         11    1    3    3    0    0 -0.13827344100E+02 -0.10931413917E+02  0.96462922136E+01  0.20093337417E+02  0.00000000000E+00 0. -1.
</event>
<event>
 7    1  0.6684706E-006  0.3183514E+03  0.7561462E-02  0.1076411E+00
         -1   -1    0    0    0  501 -0.00000000000E+00  0.00000000000E+00  0.10292013215E+03  0.10292013215E+03  0.00000000000E+00 0.  1.
          1   -1    0    0  501    0  0.00000000000E+00 -0.00000000000E+00 -0.11257681582E+04  0.11257681582E+04  0.00000000000E+00 0. -1.
         23    2    1    2    0    0  0.19205258497E+03  0.25327911371E+03 -0.40651270192E+03  0.52402393414E+03  0.91181148792E+02 0.  0.
          5    1    1    2  502    0 -0.72460931697E+02 -0.85919695122E+02 -0.35301300085E+03  0.37049754629E+03  0.41800000000E+01 0.  1.
         -5    1    1    2    0  502 -0.11959165328E+03 -0.16735941859E+03 -0.26332232331E+03  0.33416680996E+03  0.41800000000E+01 0.  1.
        -11    1    3    3    0    0  0.11046122167E+03  0.16180616567E+03 -0.17794841803E+03  0.26466687783E+03  0.00000000000E+00 0.  1.
         11    1    3    3    0    0  0.81591363306E+02  0.91472948043E+02 -0.22856428389E+03  0.25935705631E+03  0.00000000000E+00 0. -1.
</event>
<event>
 7    1  0.6684706E-006  0.1006655E+03  0.7561462E-02  0.1278903E+00
         -1   -1    0    0    0  501 -0.00000000000E+00  0.00000000000E+00  0.38912351335E+02  0.38912351335E+02  0.00000000000E+00 0.  1.
          1   -1    0    0  501    0  0.00000000000E+00 -0.00000000000E+00 -0.44446873422E+03  0.44446873422E+03  0.00000000000E+00 0. -1.
         23    2    1    2    0    0  0.34223160781E+02 -0.79054304161E+01 -0.61092948429E+02  0.11522492567E+03  0.91163120743E+02 0.  0.
          5    1    1    2  502    0 -0.75118091543E+02 -0.62387645226E+01 -0.13933837352E+03  0.15847493365E+03  0.41800000000E+01 0. -1.
         -5    1    1    2    0  502  0.40894930762E+02  0.14144194939E+02 -0.20512506093E+03  0.20968122623E+03  0.41800000000E+01 0. -1.
        -11    1    3    3    0    0  0.14967148323E+02  0.33505320507E+02 -0.59033647549E+02  0.69509665329E+02  0.00000000000E+00 0. -1.
         11    1    3    3    0    0  0.19256012458E+02 -0.41410750923E+02 -0.20593008799E+01  0.45715260339E+02  0.00000000000E+00 0.  1.
</event>
<event>
 7    1  0.6684706E-006  0.1066455E+03  0.7561462E-02  0.1266911E+00
         -1   -1    0    0    0  501 -0.00000000000E+00  0.00000000000E+00  0.39083361948E+03  0.39083361948E+03  0.00000000000E+00 0.  1.
          1   -1    0    0  501    0  0.00000000000E+00 -0.00000000000E+00 -0.58989616684E+02  0.58989616684E+02  0.00000000000E+00 0. -1.
         23    2    1    2    0    0  0.99087887468E+02  0.22822370430E+02  0.20062216840E+03  0.24196452872E+03  0.89209353037E+02 0.  0.
          5    1    1    2  502    0 -0.79195927997E+01  0.95855181310E+01 -0.22574859317E+02  0.26109361944E+02  0.41800000000E+01 0.  1.
         -5    1    1    2    0  502 -0.91168294668E+02 -0.32407888561E+02  0.15379669371E+03  0.18174934550E+03  0.41800000000E+01 0.  1.
        -11    1    3    3    0    0  0.77829872176E+02  0.99215592572E+01  0.58979057231E+02  0.98155262379E+02  0.00000000000E+00 0. -1.
         11    1    3    3    0    0  0.21258015292E+02  0.12900811172E+02  0.14164311117E+03  0.14380926634E+03  0.00000000000E+00 0.  1.
</event>
<event>
 7    1  0.6684706E-006  0.6592934E+02  0.7561462E-02  0.1374509E+00
          2   -1    0    0  501    0  0.00000000000E+00  0.00000000000E+00  0.16990138125E+03  0.16990138125E+03  0.00000000000E+00 0. -1.
         -2   -1    0    0    0  501 -0.00000000000E+00 -0.00000000000E+00 -0.89389294974E+02  0.89389294974E+02  0.00000000000E+00 0.  1.
         23    2    1    2    0    0 -0.27762655008E+02  0.14180887460E+02 -0.14661308900E+02  0.99052965290E+02  0.92869119581E+02 0.  0.
          5    1    1    2  502    0  0.12379736941E+02 -0.48395244456E+02  0.10905196435E+03  0.12002150183E+03  0.41800000000E+01 0.  1.
         -5    1    1    2    0  502  0.15382918067E+02  0.34214356996E+02 -0.13878569169E+02  0.40216209109E+02  0.41800000000E+01 0.  1.
        -11    1    3    3    0    0 -0.39317779448E+01  0.19227669415E+02 -0.51373370153E+02  0.54994411624E+02  0.00000000000E+00 0.  1.
         11    1    3    3    0    0 -0.23830877063E+02 -0.50467819552E+01  0.36712061253E+02  0.44058553666E+02  0.00000000000E+00 0. -1.
</event>
<event>
 7    1  0.6684706E-006  0.1838297E+03  0.7561462E-02  0.1164147E+00
          2   -1    0    0  501    0  0.00000000000E+00  0.00000000000E+00  0.94687230856E+02  0.94687230856E+02  0.00000000000E+00 0.  1.
         -2   -1    0    0    0  501 -0.00000000000E+00 -0.00000000000E+00 -0.54541526924E+03  0.54541526924E+03  0.00000000000E+00 0. -1.
         23    2    1    2    0    0  0.83881205769E+02 -0.13448931415E+03 -0.38769137157E+03  0.42857189126E+03  0.90806575117E+02 0.  0.
          5    1    1    2  502    0  0.52626774015E+00  0.11485790135E+03 -0.30984984552E+02  0.11903846491E+03  0.41800000000E+01 0. -1.
         -5    1    1    2    0  502 -0.84407473509E+02  0.19631412799E+02 -0.32051682260E+02  0.92492143928E+02  0.41800000000E+01 0. -1.
        -11    1    3    3    0    0  0.52205170764E+02 -0.12052532258E+03 -0.21115028816E+03  0.24866881073E+03  0.00000000000E+00 0.  1.
         11    1    3    3    0    0  0.31676035005E+02 -0.13963991574E+02 -0.17654108341E+03  0.17990308053E+03  0.00000000000E+00 0. -1.
</event>
<event>
 7    1  0.6684706E-006  0.1417780E+03  0.7561462E-02  0.1210956E+00
         -2   -1    0    0    0  501 -0.00000000000E+00  0.00000000000E+00  0.33163070352E+02  0.33163070352E+02  0.00000000000E+00 0.  1.
          2   -1    0    0  501    0  0.00000000000E+00 -0.00000000000E+00 -0.72397449899E+03  0.72397449899E+03  0.00000000000E+00 0. -1.
         23    2    1    2    0    0  0.96842415126E+02 -0.49125838310E+02 -0.27174301214E+03  0.30651733597E+03  0.91196552821E+02 0.  0.
          5    1    1    2  502    0 -0.62163363632E+01  0.50477437191E+02 -0.27971676530E+03  0.28433352896E+03  0.41800000000E+01 0.  1.
         -5    1    1    2    0  502 -0.90626078763E+02 -0.13515988807E+01 -0.13935165120E+03  0.16628670441E+03  0.41800000000E+01 0.  1.
        -11    1    3    3    0    0  0.39734265084E+02 -0.70409838846E+02 -0.15299563448E+03  0.17304340900E+03  0.00000000000E+00 0.  1.
         11    1    3    3    0    0  0.57108150042E+02  0.21284000536E+02 -0.11874737766E+03  0.13347392697E+03  0.00000000000E+00 0. -1.
</event>
<event>
 7    1  0.6684706E-006  0.2145306E+03  0.7561462E-02  0.1138028E+00
          1   -1    0    0  501    0  0.00000000000E+00  0.00000000000E+00  0.38352246544E+03  0.38352246544E+03  0.00000000000E+00 0. -1.
         -1   -1    0    0    0  501 -0.00000000000E+00 -0.00000000000E+00 -0.15229877209E+03  0.15229877209E+03  0.00000000000E+00 0.  1.
         23    2    1    2    0    0  0.16396273635E+03 -0.88791189598E+02 -0.78494910243E+01  0.20784098419E+03  0.91480084934E+02 0.  0.
          5    1    1    2  502    0 -0.80132738114E+02  0.11030013013E+03  0.12747433905E+03  0.18669374371E+03  0.41800000000E+01 0.  1.
         -5    1    1    2    0  502 -0.83829998233E+02 -0.21508940527E+02  0.11159884532E+03  0.14128650963E+03  0.41800000000E+01 0.  1.
        -11    1    3    3    0    0  0.10725026810E+03 -0.83262528368E+01 -0.17263677055E+02  0.10894944259E+03  0.00000000000E+00 0.  1.
         11    1    3    3    0    0  0.56712468245E+02 -0.80464936761E+02  0.94141860310E+01  0.98891541605E+02  0.00000000000E+00 0. -1.
</event>
<event>
 7    1  0.6684706E-006  0.1103494E+03  0.7561462E-02  0.1259924E+00
          1   -1    0    0  501    0  0.00000000000E+00  0.00000000000E+00  0.21733899105E+03  0.21733899105E+03  0.00000000000E+00 0. -1.
         -1   -1    0    0    0  501 -0.00000000000E+00 -0.00000000000E+00 -0.91112582940E+02  0.91112582940E+02  0.00000000000E+00 0.  1.
         23    2    1    2    0    0 -0.37933849475E+02  0.59079397846E+02 -0.53285681581E+01  0.11381438187E+03  0.89420174994E+02 0.  0.
          5    1    1    2  502    0  0.49165539282E+02  0.20398420907E+02  0.19727211695E+02  0.56920831948E+02  0.41800000000E+01 0. -1.
         -5    1    1    2    0  502 -0.11231689807E+02 -0.79477818753E+02  0.11182776457E+03  0.13771636017E+03  0.41800000000E+01 0. -1.
        -11    1    3    3    0    0  0.11208502463E+01  0.45600343894E+02 -0.39390652469E+02  0.60268326428E+02  0.00000000000E+00 0.  1.
         11    1    3    3    0    0 -0.39054699721E+02  0.13479053952E+02  0.34062084311E+02  0.53546055441E+02  0.00000000000E+00 0. -1.
</event>
<event>
 7    1  0.6684706E-006  0.8735673E+02  0.7561462E-02  0.1309382E+00
         -1   -1    0    0    0  501 -0.00000000000E+00  0.00000000000E+00  0.25365735377E+02  0.25365735377E+02  0.00000000000E+00 0.  1.
          1   -1    0    0  501    0  0.00000000000E+00 -0.00000000000E+00 -0.71499467935E+03  0.71499467935E+03  0.00000000000E+00 0. -1.
         23    2    1    2    0    0 -0.60420445897E+01 -0.46473930346E+02 -0.13242173736E+03  0.16736992815E+03  0.90999141861E+02 0.  0.
          5    1    1    2  502    0  0.17395211617E+01 -0.18072396690E+02 -0.85189093642E+01  0.20486133670E+02  0.41800000000E+01 0.  1.
         -5    1    1    2    0  502  0.43025234279E+01  0.64546327036E+02 -0.54868829725E+03  0.55250435290E+03  0.41800000000E+01 0.  1.
        -11    1    3    3    0    0  0.26105636388E+02 -0.52424082864E+02 -0.11780173310E+03  0.13155621246E+03  0.00000000000E+00 0. -1.
         11    1    3    3    0    0 -0.32147680978E+02  0.59501525184E+01 -0.14620004265E+02  0.35813715696E+02  0.00000000000E+00 0.  1.
</event>
<event>
 7    1  0.6684706E-006  0.2023831E+03  0.7561462E-02  0.1147744E+00
          1   -1    0    0  501    0  0.00000000000E+00  0.00000000000E+00  0.18210452512E+04  0.18210452512E+04  0.00000000000E+00 0. -1.
         -1   -1    0    0    0  501 -0.00000000000E+00 -0.00000000000E+00 -0.23840116218E+02  0.23840116218E+02  0.00000000000E+00 0.  1.
         23    2    1    2    0    0 -0.15980136224E+03 -0.61669708666E+02  0.65131877102E+03  0.67953440712E+03  0.90615896185E+02 0.  0.
          5    1    1    2  502    0  0.93511365518E+01  0.60373854819E+02  0.36260516528E+03  0.36773961493E+03  0.41800000000E+01 0. -1.
         -5    1    1    2    0  502  0.15045022568E+03  0.12958538469E+01  0.78328119865E+03  0.79761134533E+03  0.41800000000E+01 0. -1.
        -11    1    3    3    0    0 -0.76129006986E+02  0.17181364910E+02  0.23424090403E+03  0.24690003266E+03  0.00000000000E+00 0.  1.
         11    1    3    3    0    0 -0.83672355251E+02 -0.78851073577E+02  0.41707786698E+03  0.43263437446E+03  0.00000000000E+00 0. -1.
</event>
<event>
 7    1  0.6684706E-006  0.1139760E+03  0.7561462E-02  0.1253379E+00
          1   -1    0    0  501    0  0.00000000000E+00  0.00000000000E+00  0.16392934886E+04  0.16392934886E+04  0.00000000000E+00 0. -1.
         -1   -1    0    0    0  501 -0.00000000000E+00 -0.00000000000E+00 -0.12905502356E+02  0.12905502356E+02  0.00000000000E+00 0.  1.
         23    2    1    2    0    0  0.27101295554E+01 -0.62613894037E+02  0.33174826532E+03  0.35002098760E+03  0.92357650952E+02 0.  0.
          5    1    1    2  502    0 -0.21595375169E+02 -0.26001690398E+02  0.14415951087E+03  0.14812793493E+03  0.41800000000E+01 0.  1.
         -5    1    1    2    0  502  0.18885245614E+02  0.88615584435E+02  0.11504802100E+04  0.11540500684E+04  0.41800000000E+01 0.  1.
        -11    1    3    3    0    0  0.41889374064E+02 -0.40182834638E+02  0.24984450075E+03  0.25649883901E+03  0.00000000000E+00 0. -1.
         11    1    3    3    0    0 -0.39179244509E+02 -0.22431059399E+02  0.81903764570E+02  0.93522148590E+02  0.00000000000E+00 0.  1.
</event>
<event>
 7    1  0.6684706E-006  0.7744933E+02  0.7561462E-02  0.1336450E+00
         -1   -1    0    0    0  501 -0.00000000000E+00  0.00000000000E+00  0.10691556250E+03  0.10691556250E+03  0.00000000000E+00 0. -1.
          1   -1    0    0  501    0  0.00000000000E+00 -0.00000000000E+00 -0.14186184032E+03  0.14186184032E+03  0.00000000000E+00 0.  1.
         23    2    1    2    0    0 -0.13146600202E+02 -0.57512520807E+02 -0.14069073832E+02  0.10890661873E+03  0.90455456538E+02 0.  0.
          5    1    1    2  502    0  0.68828234086E+01  0.17151549843E+02 -0.71914459036E+02  0.74368748399E+02  0.41800000000E+01 0.  1.
         -5    1    1    2    0  502  0.62637767938E+01  0.40360970965E+02  0.51037255054E+02  0.65502035697E+02  0.41800000000E+01 0.  1.
        -11    1    3    3    0    0 -0.18047736565E+02 -0.74788650262E+02 -0.32186886744E+02  0.83396994439E+02  0.00000000000E+00 0.  1.
         11    1    3    3    0    0  0.49011363630E+01  0.17276129455E+02  0.18117812912E+02  0.25509624288E+02  0.00000000000E+00 0. -1.
</event>
<event>
 7    1  0.6684706E-006  0.1436017E+03  0.7561462E-02  0.1208563E+00
          1   -1    0    0  501    0  0.00000000000E+00  0.00000000000E+00  0.14513958775E+03  0.14513958775E+03  0.00000000000E+00 0. -1.
         -1   -1    0    0    0  501 -0.00000000000E+00 -0.00000000000E+00 -0.15808142346E+03  0.15808142346E+03  0.00000000000E+00 0.  1.
         23    2    1    2    0    0 -0.16804086005E+02  0.10114971120E+03 -0.28651964122E+02  0.14071871983E+03  0.92017290113E+02 0.  0.
          5    1    1    2  502    0 -0.42147090970E+02 -0.48711908250E+01 -0.15395920544E+02  0.45327834128E+02  0.41800000000E+01 0. -1.
         -5    1    1    2    0  502  0.58951176976E+02 -0.96278520375E+02  0.31106048953E+02  0.11717445726E+03  0.41800000000E+01 0. -1.
        -11    1    3    3    0    0 -0.14428024592E+02  0.11583189981E+03 -0.38463343763E+02  0.12290087763E+03  0.00000000000E+00 0.  1.
         11    1    3    3    0    0 -0.23760614134E+01 -0.14682188612E+02  0.98113796410E+01  0.17817842202E+02  0.00000000000E+00 0. -1.
</event>
<event>
 7    1  0.6684706E-006  0.1001888E+03  0.7561462E-02  0.1279899E+00
          1   -1    0    0  501    0  0.00000000000E+00  0.00000000000E+00  0.22484150279E+03  0.22484150279E+03  0.00000000000E+00 0. -1.
         -1   -1    0    0    0  501 -0.00000000000E+00 -0.00000000000E+00 -0.94560805976E+02  0.94560805976E+02  0.00000000000E+00 0.  1.
         23    2    1    2    0    0  0.12697393757E+02 -0.21205788914E+01 -0.46642756087E+02  0.10234326712E+03  0.90182464846E+02 0.  0.
          5    1    1    2  502    0  0.49583770628E+02  0.16400875951E+02  0.40048359820E+02  0.65946058001E+02  0.41800000000E+01 0.  1.
         -5    1    1    2    0  502 -0.62281164384E+02 -0.14280297059E+02  0.13687509308E+03  0.15111298365E+03  0.41800000000E+01 0.  1.
        -11    1    3    3    0    0 -0.20005855875E+02 -0.33247423070E+02 -0.20055439618E+01  0.38854184030E+02  0.00000000000E+00 0. -1.
         11    1    3    3    0    0  0.32703249631E+02  0.31126844178E+02 -0.44637212125E+02  0.63489083087E+02  0.00000000000E+00 0.  1.
</event>
<event>
 7    1  0.6684706E-006  0.1595773E+03  0.7561462E-02  0.1189175E+00
          2   -1    0    0  501    0  0.00000000000E+00  0.00000000000E+00  0.47979258747E+03  0.47979258747E+03  0.00000000000E+00 0. -1.
         -2   -1    0    0    0  501 -0.00000000000E+00 -0.00000000000E+00 -0.12286576469E+03  0.12286576469E+03  0.00000000000E+00 0.  1.
         23    2    1    2    0    0 -0.53462384445E+02 -0.11912853389E+03 -0.49614401330E+02  0.15909753908E+03  0.76161696312E+02 0.  0.
          5    1    1    2  502    0  0.12163609639E+02  0.13008635970E+03  0.34113688325E+03  0.36532486898E+03  0.41800000000E+01 0. -1.
         -5    1    1    2    0  502  0.41298774806E+02 -0.10957825809E+02  0.65404340849E+02  0.78235944097E+02  0.41800000000E+01 0.  1.
        -11    1    3    3    0    0 -0.22071449421E+02  0.24245694273E+00 -0.24796984606E+02  0.33197863041E+02  0.00000000000E+00 0. -1.
         11    1    3    3    0    0 -0.31390935024E+02 -0.11937099084E+03 -0.24817416723E+02  0.12589967604E+03  0.00000000000E+00 0.  1.
</event>
<event>
 7    1  0.6684706E-006  0.1388271E+03  0.7561462E-02  0.1214916E+00
          1   -1    0    0  501    0  0.00000000000E+00  0.00000000000E+00  0.44550185528E+03  0.44550185528E+03  0.00000000000E+00 0. -1.
         -1   -1    0    0    0  501 -0.00000000000E+00 -0.00000000000E+00 -0.57587921114E+02  0.57587921114E+02  0.00000000000E+00 0.  1.
         23    2    1    2    0    0  0.96232172888E+02 -0.39387222649E+02  0.17070006869E+03  0.21899454301E+03  0.89488055121E+02 0.  0.
          5    1    1    2  502    0  0.14355160324E+02  0.25759941948E+02  0.15206689640E+03  0.15495631196E+03  0.41800000000E+01 0. -1.
         -5    1    1    2    0  502 -0.11058733321E+03  0.13627280701E+02  0.65146969073E+02  0.12913892142E+03  0.41800000000E+01 0.  1.
        -11    1    3    3    0    0  0.16277865033E+01 -0.41702940677E+02  0.41613549596E+02  0.58936172764E+02  0.00000000000E+00 0.  1.
         11    1    3    3    0    0  0.94604386385E+02  0.23157180280E+01  0.12908651910E+03  0.16005837025E+03  0.00000000000E+00 0. -1.
</event>
<event>
 7    1  0.6684706E-006  0.8617354E+02  0.7561462E-02  0.1312392E+00
         -4   -1    0    0    0  501 -0.00000000000E+00  0.00000000000E+00  0.43234893757E+03  0.43234893757E+03  0.00000000000E+00 0.  1.
          4   -1    0    0  501    0  0.00000000000E+00 -0.00000000000E+00 -0.42473283678E+02  0.42473283678E+02  0.00000000000E+00 0. -1.
         23    2    1    2    0    0  0.74478931213E+02  0.22276151790E+02  0.24503127874E+03  0.27264442854E+03  0.90836769652E+02 0.  0.
          5    1    1    2  502    0 -0.78398628491E+02 -0.25087694627E+02  0.16315226007E+03  0.18278914009E+03  0.41800000000E+01 0. -1.
         -5    1    1    2    0  502  0.39196972783E+01  0.28115428365E+01 -0.18307884918E+02  0.19388652610E+02  0.41800000000E+01 0.  1.
        -11    1    3    3    0    0  0.61569177577E+02  0.47176910312E+01  0.24303803753E+03  0.25075986106E+03  0.00000000000E+00 0.  1.
         11    1    3    3    0    0  0.12909753635E+02  0.17558460759E+02  0.19932412139E+01  0.21884567478E+02  0.00000000000E+00 0. -1.
</event>
<event>
 7    1  0.6684706E-006  0.1080793E+03  0.7561462E-02  0.1264169E+00
          2   -1    0    0  501    0  0.00000000000E+00  0.00000000000E+00  0.12392542280E+03  0.12392542280E+03  0.00000000000E+00 0.  1.
         -2   -1    0    0    0  501 -0.00000000000E+00 -0.00000000000E+00 -0.11495696739E+03  0.11495696739E+03  0.00000000000E+00 0. -1.
         23    2    1    2    0    0  0.68689715173E+01 -0.33883299437E+02 -0.11624781562E+02  0.10748458997E+03  0.10110658131E+03 0.  0.
          5    1    1    2  502    0 -0.33558919422E+02 -0.39158954189E+02  0.50781930558E+01  0.51989279766E+02  0.41800000000E+01 0.  1.
         -5    1    1    2    0  502  0.26689947905E+02  0.73042253625E+02  0.15515043915E+02  0.79408520459E+02  0.41800000000E+01 0.  1.
        -11    1    3    3    0    0  0.43249467890E+02 -0.18208998159E+02  0.25315970424E+02  0.53319625329E+02  0.00000000000E+00 0.  1.
         11    1    3    3    0    0 -0.36380496373E+02 -0.15674301277E+02 -0.36940751986E+02  0.54164964637E+02  0.00000000000E+00 0. -1.
</event>
<event>
 7    1  0.6684706E-006  0.1030121E+03  0.7561462E-02  0.1274086E+00
          1   -1    0    0  501    0  0.00000000000E+00  0.00000000000E+00  0.22004258046E+03  0.22004258046E+03  0.00000000000E+00 0. -1.
         -1   -1    0    0    0  501 -0.00000000000E+00 -0.00000000000E+00 -0.87713061272E+02  0.87713061272E+02  0.00000000000E+00 0.  1.
         23    2    1    2    0    0 -0.58778716745E+01 -0.80067985000E+02  0.23309467638E+02  0.12342812963E+03  0.90806058748E+02 0.  0.
          5    1    1    2  502    0 -0.13117518653E+02  0.27413393852E+02 -0.24648049195E+02  0.39351774893E+02  0.41800000000E+01 0. -1.
         -5    1    1    2    0  502  0.18995390327E+02  0.52654591147E+02  0.13366810075E+03  0.14497573721E+03  0.41800000000E+01 0. -1.
        -11    1    3    3    0    0 -0.44149337131E+02 -0.21137425529E+02 -0.13282491051E+01  0.48966508684E+02  0.00000000000E+00 0.  1.
         11    1    3    3    0    0  0.38271465456E+02 -0.58930559470E+02  0.24637716744E+02  0.74461620947E+02  0.00000000000E+00 0. -1.
</event>
<event>
 7    1  0.6684706E-006  0.1274219E+03  0.7561462E-02  0.1231332E+00
         -3   -1    0    0    0  501 -0.00000000000E+00  0.00000000000E+00  0.52639418078E+02  0.52639418078E+02  0.00000000000E+00 0.  1.
          3   -1    0    0  501    0  0.00000000000E+00 -0.00000000000E+00 -0.38573873730E+03  0.38573873730E+03  0.00000000000E+00 0. -1.
         23    2    1    2    0    0  0.15561838343E+02 -0.75214835993E+02 -0.91890680015E+02  0.15088623235E+03  0.91778623185E+02 0.  0.
          5    1    1    2  502    0 -0.95439784309E+01 -0.38583145712E+02 -0.42155706241E+02  0.58088919993E+02  0.41800000000E+01 0. -1.
         -5    1    1    2    0  502 -0.60178599119E+01  0.11379798171E+03 -0.19905293297E+03  0.22940300304E+03  0.41800000000E+01 0.  1.
        -11    1    3    3    0    0  0.38276230608E+02 -0.24960485821E+02 -0.23894059142E+01  0.45758113408E+02  0.00000000000E+00 0.  1.
         11    1    3    3    0    0 -0.22714392265E+02 -0.50254350171E+02 -0.89501274100E+02  0.10512811894E+03  0.00000000000E+00 0. -1.
</event>
<event>
 7    1  0.6684706E-006  0.1274153E+03  0.7561462E-02  0.1231342E+00
          2   -1    0    0  501    0  0.00000000000E+00  0.00000000000E+00  0.27057974690E+03  0.27057974690E+03  0.00000000000E+00 0. -1.
         -2   -1    0    0    0  501 -0.00000000000E+00 -0.00000000000E+00 -0.72263383865E+02  0.72263383865E+02  0.00000000000E+00 0.  1.
         23    2    1    2    0    0 -0.88464998827E+01 -0.80342361381E+02  0.12295254542E+03  0.17592853038E+03  0.96438393733E+02 0.  0.
          5    1    1    2  502    0  0.99709522933E+01 -0.30529862361E+02 -0.68957385649E+00  0.32395065944E+02  0.41800000000E+01 0.  1.
         -5    1    1    2    0  502 -0.11244524106E+01  0.11087222374E+03  0.76053391479E+02  0.13451953444E+03  0.41800000000E+01 0.  1.
        -11    1    3    3    0    0 -0.31433784289E+02 -0.82990687684E+02  0.12477296078E+03  0.15311377724E+03  0.00000000000E+00 0. -1.
         11    1    3    3    0    0  0.22587284406E+02  0.26483263026E+01 -0.18204153664E+01  0.22814753147E+02  0.00000000000E+00 0.  1.
</event>
<event>
 7    1  0.6684706E-006  0.1204659E+03  0.7561462E-02  0.1242331E+00
         -1   -1    0    0    0  501 -0.00000000000E+00  0.00000000000E+00  0.18496025711E+02  0.18496025711E+02  0.00000000000E+00 0.  1.
          1   -1    0    0  501    0  0.00000000000E+00 -0.00000000000E+00 -0.83969006230E+03  0.83969006230E+03  0.00000000000E+00 0. -1.
         23    2    1    2    0    0 -0.45399667923E+02 -0.41619857959E+02 -0.32135255896E+03  0.33926197305E+03  0.89654206698E+02 0.  0.
          5    1    1    2  502    0 -0.38343242055E+02  0.39957820275E+02 -0.20441652878E+03  0.21182639414E+03  0.41800000000E+01 0. -1.
         -5    1    1    2    0  502  0.83742909978E+02  0.16620376839E+01 -0.29542494884E+03  0.30709772083E+03  0.41800000000E+01 0. -1.
        -11    1    3    3    0    0  0.23123055325E+02 -0.17079805937E+02 -0.15559660839E+03  0.15822989604E+03  0.00000000000E+00 0.  1.
         11    1    3    3    0    0 -0.68522723248E+02 -0.24540052022E+02 -0.16575595057E+03  0.18103207701E+03  0.00000000000E+00 0. -1.
</event>
<event>
 7    1  0.6684706E-006  0.8641771E+02  0.7561462E-02  0.1311766E+00
         -3   -1    0    0    0  501 -0.00000000000E+00  0.00000000000E+00  0.21191598042E+03  0.21191598042E+03  0.00000000000E+00 0.  1.
          3   -1    0    0  501    0  0.00000000000E+00 -0.00000000000E+00 -0.61847801397E+02  0.61847801397E+02  0.00000000000E+00 0. -1.
         23    2    1    2    0    0  0.14464009808E+01  0.32043213712E+02  0.88121182180E+02  0.13053699133E+03  0.90805857383E+02 0.  0.
          5    1    1    2  502    0 -0.35662756879E+02 -0.10364423896E+01  0.84389246678E+02  0.91716540470E+02  0.41800000000E+01 0.  1.
         -5    1    1    2    0  502  0.34216355898E+02 -0.31006771323E+02 -0.22442249840E+02  0.51510250015E+02  0.41800000000E+01 0.  1.
        -11    1    3    3    0    0  0.31069500095E+02 -0.15353986538E+02  0.56603049809E+02  0.66369902715E+02  0.00000000000E+00 0. -1.
         11    1    3    3    0    0 -0.29623099115E+02  0.47397200251E+02  0.31518132372E+02  0.64167088612E+02  0.00000000000E+00 0.  1.
</event>
<event>
 7    1  0.6684706E-006  0.1287761E+03  0.7561462E-02  0.1229283E+00
         -2   -1    0    0    0  501 -0.00000000000E+00  0.00000000000E+00  0.41830984038E+02  0.41830984038E+02  0.00000000000E+00 0.  1.
          2   -1    0    0  501    0  0.00000000000E+00 -0.00000000000E+00 -0.52809825152E+03  0.52809825152E+03  0.00000000000E+00 0. -1.
         23    2    1    2    0    0  0.54658818954E+02  0.86063237589E+02 -0.22901861022E+03  0.26625188478E+03  0.89699916202E+02 0.  0.
          5    1    1    2  502    0 -0.17847308410E+02  0.23935342865E+02 -0.12187304212E+02  0.32518146311E+02  0.41800000000E+01 0. -1.
         -5    1    1    2    0  502 -0.36811510544E+02 -0.10999858045E+03 -0.24506135305E+03  0.27115920447E+03  0.41800000000E+01 0. -1.
        -11    1    3    3    0    0  0.59730161259E+02  0.59562832627E+02 -0.85087398606E+02  0.11981355765E+03  0.00000000000E+00 0.  1.
         11    1    3    3    0    0 -0.50713423052E+01  0.26500404962E+02 -0.14393121161E+03  0.14643832713E+03  0.00000000000E+00 0. -1.
</event>
<event>
 7    1  0.6684706E-006  0.1887426E+03  0.7561462E-02  0.1159600E+00
          1   -1    0    0  501    0  0.00000000000E+00  0.00000000000E+00  0.47669342622E+03  0.47669342622E+03  0.00000000000E+00 0. -1.
         -1   -1    0    0    0  501 -0.00000000000E+00 -0.00000000000E+00 -0.79746724086E+02  0.79746724086E+02  0.00000000000E+00 0.  1.
         23    2    1    2    0    0  0.13504500465E+03  0.76395908408E+02  0.12414225693E+03  0.21858975122E+03  0.91086175016E+02 0.  0.
          5    1    1    2  502    0 -0.53533342490E+01  0.30029782740E+02  0.32734666129E+02  0.44938589270E+02  0.41800000000E+01 0.  1.
         -5    1    1    2    0  502 -0.12969167040E+03 -0.10642569115E+03  0.24006977907E+03  0.29291180982E+03  0.41800000000E+01 0.  1.
        -11    1    3    3    0    0  0.13825444855E+03  0.42230669127E+02  0.90607151729E+02  0.17060884474E+03  0.00000000000E+00 0.  1.
         11    1    3    3    0    0 -0.32094439035E+01  0.34165239282E+02  0.33535105205E+02  0.47980906478E+02  0.00000000000E+00 0. -1.
</event>
<event>
 7    1  0.6684706E-006  0.9978998E+02  0.7561462E-02  0.1280738E+00
         -2   -1    0    0    0  501 -0.00000000000E+00  0.00000000000E+00  0.16765139201E+02  0.16765139201E+02  0.00000000000E+00 0. -1.
          2   -1    0    0  501    0  0.00000000000E+00 -0.00000000000E+00 -0.85095004294E+03  0.85095004294E+03  0.00000000000E+00 0.  1.
         23    2    1    2    0    0 -0.24691512263E+02  0.26789773123E+02 -0.23495439057E+03  0.25448433203E+03  0.90726770453E+02 0.  0.
          5    1    1    2  502    0 -0.11334941553E+02  0.31217005507E+02 -0.42089169434E+03  0.42222064504E+03  0.41800000000E+01 0.  1.
         -5    1    1    2    0  502  0.36026453816E+02 -0.58006778630E+02 -0.17833881883E+03  0.19101020507E+03  0.41800000000E+01 0.  1.
        -11    1    3    3    0    0  0.32681841789E+02  0.23450243558E+02 -0.91911138872E+02  0.10032783340E+03  0.00000000000E+00 0.  1.
         11    1    3    3    0    0 -0.57373354051E+02  0.33395295647E+01 -0.14304325170E+03  0.15415649863E+03  0.00000000000E+00 0. -1.
</event>
<event>
 7    1  0.1105537E-005  0.3517703E+03  0.7561462E-02  0.1061891E+00
          1   -1    0    0  501    0  0.00000000000E+00  0.00000000000E+00  0.27660932365E+03  0.27660932365E+03  0.00000000000E+00 0. -1.
         -1   -1    0    0    0  501 -0.00000000000E+00 -0.00000000000E+00 -0.56240742616E+03  0.56240742616E+03  0.00000000000E+00 0.  1.
         23    2    1    2    0    0  0.33795228793E+03 -0.30167352454E+02 -0.32161150720E+03  0.47562725927E+03  0.87552899065E+02 0.  0.
          5    1    1    2  502    0 -0.79690447616E+02  0.58915528321E+02  0.29254483528E+02  0.10341616955E+03  0.41800000000E+01 0.  1.
         -5    1    1    2    0  502 -0.25826184031E+03 -0.28748175867E+02  0.65589211634E+01  0.25997332098E+03  0.41800000000E+01 0.  1.
        -11    1    3    3    0    0  0.16124323188E+03  0.15374581809E+02 -0.19512633114E+03  0.25359424816E+03  0.00000000000E+00 0.  1.
         11    1    3    3    0    0  0.17670905604E+03 -0.45541934263E+02 -0.12648517606E+03  0.22203301112E+03  0.00000000000E+00 0. -1.
</event>
<event>
 7    1  0.6684706E-006  0.1084001E+03  0.7561462E-02  0.1263562E+00
         -1   -1    0    0    0  501 -0.00000000000E+00  0.00000000000E+00  0.37726016380E+02  0.37726016380E+02  0.00000000000E+00 0.  1.
          1   -1    0    0  501    0  0.00000000000E+00 -0.00000000000E+00 -0.50582272646E+03  0.50582272646E+03  0.00000000000E+00 0. -1.
         23    2    1    2    0    0 -0.63888473237E+02 -0.48835734614E+02 -0.15857090008E+03  0.20015510765E+03  0.91927530033E+02 0.  0.
          5    1    1    2  502    0 -0.12237731848E+01 -0.76246748050E+01  0.94817731048E+01  0.12923223588E+02  0.41800000000E+01 0. -1.
         -5    1    1    2    0  502  0.65112246421E+02  0.56460409419E+02 -0.31900758311E+03  0.33047041161E+03  0.41800000000E+01 0. -1.
        -11    1    3    3    0    0 -0.14632717469E+02 -0.67495785308E+02 -0.97920505188E+02  0.11982580186E+03  0.00000000000E+00 0. -1.
         11    1    3    3    0    0 -0.49255755768E+02  0.18660050694E+02 -0.60650394888E+02  0.80329305787E+02  0.00000000000E+00 0.  1.
</event>
<event>
 7    1  0.6684706E-006  0.8995133E+02  0.7561462E-02  0.1302970E+00
          1   -1    0    0  501    0  0.00000000000E+00  0.00000000000E+00  0.73463398604E+03  0.73463398604E+03  0.00000000000E+00 0. -1.
         -1   -1    0    0    0  501 -0.00000000000E+00 -0.00000000000E+00 -0.28009473779E+02  0.28009473779E+02  0.00000000000E+00 0.  1.
         23    2    1    2    0    0 -0.27931956244E+01 -0.45478697658E+02  0.95676189525E+02  0.13735140427E+03  0.87380553507E+02 0.  0.
          5    1    1    2  502    0 -0.32513289496E+02  0.26174707217E+02  0.55317057366E+03  0.55475885324E+03  0.41800000000E+01 0. -1.
         -5    1    1    2    0  502  0.35306485121E+02  0.19303990441E+02  0.57777749080E+02  0.70533202304E+02  0.41800000000E+01 0. -1.
        -11    1    3    3    0    0  0.39227551132E+02 -0.57073963067E+01  0.48908897822E+02  0.62955980070E+02  0.00000000000E+00 0. -1.
         11    1    3    3    0    0 -0.42020746756E+02 -0.39771301351E+02  0.46767291703E+02  0.74395424203E+02  0.00000000000E+00 0.  1.
</event>
<event>
 7    1  0.6684706E-006  0.5665588E+02  0.7561462E-02  0.1412427E+00
         -1   -1    0    0    0  501 -0.00000000000E+00  0.00000000000E+00  0.13966532370E+02  0.13966532370E+02  0.00000000000E+00 0.  1.
          1   -1    0    0  501    0  0.00000000000E+00 -0.00000000000E+00 -0.87949150358E+03  0.87949150358E+03  0.00000000000E+00 0. -1.
         23    2    1    2    0    0 -0.57659949874E+01  0.21836749519E+02 -0.21349046781E+03  0.22914858105E+03  0.80129907170E+02 0.  0.
          5    1    1    2  502    0  0.15446401583E+02 -0.31761260261E+02 -0.46206897016E+02  0.58308821863E+02  0.41800000000E+01 0. -1.
         -5    1    1    2    0  502 -0.96804065952E+01  0.99245107421E+01 -0.60582760639E+03  0.60600063304E+03  0.41800000000E+01 0. -1.
        -11    1    3    3    0    0 -0.14285280901E+02  0.40395044220E+02 -0.20031635495E+03  0.20484743325E+03  0.00000000000E+00 0. -1.
         11    1    3    3    0    0  0.85192859135E+01 -0.18558294701E+02 -0.13174112856E+02  0.24301147796E+02  0.00000000000E+00 0.  1.
</event>
<event>
 7    1  0.6684706E-006  0.1412463E+03  0.7561462E-02  0.1211662E+00
         -1   -1    0    0    0  501 -0.00000000000E+00  0.00000000000E+00  0.42905932141E+02  0.42905932141E+02  0.00000000000E+00 0.  1.
          1   -1    0    0  501    0  0.00000000000E+00 -0.00000000000E+00 -0.67360915189E+03  0.67360915189E+03  0.00000000000E+00 0. -1.
         23    2    1    2    0    0  0.12648468832E+03  0.20028027701E+02 -0.24914196476E+03  0.29504581764E+03  0.92632702797E+02 0.  0.
          5    1    1    2  502    0 -0.95595750877E+02  0.59545398624E+01 -0.36543685809E+03  0.37780361801E+03  0.41800000000E+01 0.  1.
         -5    1    1    2    0  502 -0.30888937445E+02 -0.25982567564E+02 -0.16124396904E+02  0.43665648388E+02  0.41800000000E+01 0.  1.
        -11    1    3    3    0    0  0.13233353052E+03  0.78916104158E+01 -0.17422135247E+03  0.21892354937E+03  0.00000000000E+00 0.  1.
         11    1    3    3    0    0 -0.58488421955E+01  0.12136417285E+02 -0.74920612294E+02  0.76122268266E+02  0.00000000000E+00 0. -1.
</event>
<event>
 7    1  0.6684706E-006  0.1238395E+03  0.7561462E-02  0.1236894E+00
          2   -1    0    0  501    0  0.00000000000E+00  0.00000000000E+00  0.30830822955E+03  0.30830822955E+03  0.00000000000E+00 0. -1.
         -2   -1    0    0    0  501 -0.00000000000E+00 -0.00000000000E+00 -0.73182572600E+02  0.73182572600E+02  0.00000000000E+00 0.  1.
         23    2    1    2    0    0  0.22019313986E+02 -0.88730909019E+02  0.41776303606E+02  0.13372204739E+03  0.88194682441E+02 0.  0.
          5    1    1    2  502    0 -0.50695085660E+02  0.94358083299E+02  0.89007586510E+02  0.13933148406E+03  0.41800000000E+01 0. -1.
         -5    1    1    2    0  502  0.28675771673E+02 -0.56271742800E+01  0.10434176684E+03  0.10843727071E+03  0.41800000000E+01 0. -1.
        -11    1    3    3    0    0  0.34527719896E+02 -0.91804436755E+02  0.89869986504E+01  0.98493574378E+02  0.00000000000E+00 0.  1.
         11    1    3    3    0    0 -0.12508405909E+02  0.30735277360E+01  0.32789304955E+02  0.35228473010E+02  0.00000000000E+00 0. -1.
</event>
<event>
 7    1  0.6684706E-006  0.1616470E+03  0.7561462E-02  0.1186850E+00
         -2   -1    0    0    0  501 -0.00000000000E+00  0.00000000000E+00  0.42706117624E+03  0.42706117624E+03  0.00000000000E+00 0.  1.
          2   -1    0    0  501    0  0.00000000000E+00 -0.00000000000E+00 -0.81588865853E+02  0.81588865853E+02  0.00000000000E+00 0. -1.
         23    2    1    2    0    0 -0.12145775861E+03 -0.88516312200E+02  0.14355188555E+03  0.22756700043E+03  0.92695583427E+02 0.  0.
          5    1    1    2  502    0  0.87807465114E+02  0.99081395766E+02  0.81471280391E+02  0.15550664245E+03  0.41800000000E+01 0. -1.
         -5    1    1    2    0  502  0.33650293494E+02 -0.10565083566E+02  0.12044914445E+03  0.12557639922E+03  0.41800000000E+01 0. -1.
        -11    1    3    3    0    0 -0.30498581113E+02 -0.32945379548E+01 -0.76466188934E+01  0.31614683467E+02  0.00000000000E+00 0. -1.
         11    1    3    3    0    0 -0.90959177495E+02 -0.85221774245E+02  0.15119850444E+03  0.19595231696E+03  0.00000000000E+00 0.  1.
</event>
<event>
 7    1  0.6684706E-006  0.1880109E+03  0.7561462E-02  0.1160268E+00
          2   -1    0    0  501    0  0.00000000000E+00  0.00000000000E+00  0.43528591317E+03  0.43528591317E+03  0.00000000000E+00 0. -1.
         -2   -1    0    0    0  501 -0.00000000000E+00 -0.00000000000E+00 -0.88695295933E+02  0.88695295933E+02  0.00000000000E+00 0.  1.
         23    2    1    2    0    0 -0.49322929454E+02 -0.15434850816E+03  0.14746855706E+03  0.23840373342E+03  0.93984846899E+02 0.  0.
          5    1    1    2  502    0  0.73600501224E+02  0.14541119954E+03  0.20158122198E+03  0.25925646026E+03  0.41800000000E+01 0. -1.
         -5    1    1    2    0  502 -0.24277571770E+02  0.89373086141E+01 -0.24591617977E+01  0.26321015426E+02  0.41800000000E+01 0. -1.
        -11    1    3    3    0    0  0.12033078525E+02 -0.11102634128E+03  0.96924527645E+02  0.14787159124E+03  0.00000000000E+00 0. -1.
         11    1    3    3    0    0 -0.61356007979E+02 -0.43322166879E+02  0.50544029413E+02  0.90532142179E+02  0.00000000000E+00 0.  1.
</event>
<event>
 7    1  0.6684706E-006  0.9360469E+02  0.7561462E-02  0.1294350E+00
          2   -1    0    0  501    0  0.00000000000E+00  0.00000000000E+00  0.21591132199E+03  0.21591132199E+03  0.00000000000E+00 0. -1.
         -2   -1    0    0    0  501 -0.00000000000E+00 -0.00000000000E+00 -0.14233718220E+03  0.14233718220E+03  0.00000000000E+00 0.  1.
         23    2    1    2    0    0 -0.77287139877E+02  0.48602048323E+02 -0.78656892307E+02  0.14109184940E+03  0.73379439683E+02 0.  0.
          5    1    1    2  502    0  0.56156758685E+02 -0.38135238014E+02  0.52223795437E+01  0.68210142739E+02  0.41800000000E+01 0.  1.
         -5    1    1    2    0  502  0.21130381192E+02 -0.10466810309E+02  0.14700865255E+03  0.14894651205E+03  0.41800000000E+01 0.  1.
        -11    1    3    3    0    0 -0.45830663418E+02  0.12782384692E+02 -0.80360826821E+02  0.93390050622E+02  0.00000000000E+00 0.  1.
         11    1    3    3    0    0 -0.31456476459E+02  0.35819663631E+02  0.17039345144E+01  0.47701798779E+02  0.00000000000E+00 0. -1.
</event>
<event>
 7    1  0.6684706E-006  0.2101308E+03  0.7561462E-02  0.1141462E+00
          1   -1    0    0  501    0  0.00000000000E+00  0.00000000000E+00  0.13150065455E+04  0.13150065455E+04  0.00000000000E+00 0. -1.
         -1   -1    0    0    0  501 -0.00000000000E+00 -0.00000000000E+00 -0.44230150872E+02  0.44230150872E+02  0.00000000000E+00 0.  1.
         23    2    1    2    0    0 -0.10999212576E+03  0.15438000781E+03  0.30378380690E+03  0.36752946852E+03  0.82836310577E+02 0.  0.
          5    1    1    2  502    0  0.13248367045E+03 -0.13767120876E+03  0.86449731108E+03  0.88536905182E+03  0.41800000000E+01 0. -1.
         -5    1    1    2    0  502 -0.22491544683E+02 -0.16708799051E+02  0.10249527662E+03  0.10633817601E+03  0.41800000000E+01 0.  1.
        -11    1    3    3    0    0 -0.85462099516E+02  0.62905976810E+02  0.11600469555E+03  0.15721966086E+03  0.00000000000E+00 0.  1.
         11    1    3    3    0    0 -0.24530026249E+02  0.91474031000E+02  0.18777911135E+03  0.21030980765E+03  0.00000000000E+00 0. -1.
</event>
<event>
 7    1  0.6684706E-006  0.1218534E+03  0.7561462E-02  0.1240070E+00
         -2   -1    0    0    0  501 -0.00000000000E+00  0.00000000000E+00  0.23702329127E+02  0.23702329127E+02  0.00000000000E+00 0.  1.
          2   -1    0    0  501    0  0.00000000000E+00 -0.00000000000E+00 -0.80432997984E+03  0.80432997984E+03  0.00000000000E+00 0. -1.
         23    2    1    2    0    0  0.85139102145E+02  0.39263971008E+01 -0.28762756933E+03  0.31231834947E+03  0.86885266120E+02 0.  0.
          5    1    1    2  502    0 -0.80200513169E+02  0.37164963293E+02 -0.43747504102E+03  0.44633534559E+03  0.41800000000E+01 0. -1.
         -5    1    1    2    0  502 -0.49385889765E+01 -0.41091360393E+02 -0.55525040362E+02  0.69378613904E+02  0.41800000000E+01 0. -1.
        -11    1    3    3    0    0 -0.75382844430E+00  0.25133663116E+02 -0.26146615910E+02  0.36275540003E+02  0.00000000000E+00 0.  1.
         11    1    3    3    0    0  0.85892930590E+02 -0.21207266015E+02 -0.26148095343E+03  0.27604280947E+03  0.00000000000E+00 0. -1.
</event>
<event>
 7    1  0.6684706E-006  0.1097877E+03  0.7561462E-02  0.1260964E+00
          2   -1    0    0  501    0  0.00000000000E+00  0.00000000000E+00  0.10035381601E+04  0.10035381601E+04  0.00000000000E+00 0. -1.
         -2   -1    0    0    0  501 -0.00000000000E+00 -0.00000000000E+00 -0.21428232721E+02  0.21428232721E+02  0.00000000000E+00 0.  1.
         23    2    1    2    0    0  0.73535779195E+01  0.85394810189E+02  0.27390713045E+03  0.30071034896E+03  0.89751039782E+02 0.  0.
          5    1    1    2  502    0 -0.22944996825E+02 -0.99743682787E+02  0.68476688601E+03  0.69238604529E+03  0.41800000000E+01 0.  1.
         -5    1    1    2    0  502  0.15591418905E+02  0.14348872598E+02  0.23435910893E+02  0.31869998552E+02  0.41800000000E+01 0.  1.
        -11    1    3    3    0    0  0.20493322620E+02  0.77611850894E+02  0.27391896034E+03  0.28543856170E+03  0.00000000000E+00 0. -1.
         11    1    3    3    0    0 -0.13139744700E+02  0.77829592952E+01 -0.11829885603E-01  0.15271787260E+02  0.00000000000E+00 0.  1.
</event>
<event>
 7    1  0.6684706E-006  0.1489919E+03  0.7561462E-02  0.1201717E+00
          2   -1    0    0  501    0  0.00000000000E+00  0.00000000000E+00  0.73258704597E+03  0.73258704597E+03  0.00000000000E+00 0. -1.
         -2   -1    0    0    0  501 -0.00000000000E+00 -0.00000000000E+00 -0.37560027994E+02  0.37560027994E+02  0.00000000000E+00 0.  1.
         23    2    1    2    0    0 -0.37022407675E+02  0.98737133997E+02  0.17006967300E+03  0.22028612726E+03  0.92101052605E+02 0.  0.
          5    1    1    2  502    0  0.12771497888E+02  0.26852755804E+02  0.53589632289E+02  0.61428842911E+02  0.41800000000E+01 0. -1.
         -5    1    1    2    0  502  0.24250909787E+02 -0.12558988980E+03  0.47136771269E+03  0.48843210379E+03  0.41800000000E+01 0. -1.
        -11    1    3    3    0    0 -0.67456785556E+02  0.78138670687E+02  0.12741260903E+03  0.16398183654E+03  0.00000000000E+00 0.  1.
         11    1    3    3    0    0  0.30434377881E+02  0.20598463311E+02  0.42657063966E+02  0.56304290724E+02  0.00000000000E+00 0. -1.
</event>
<event>
 7    1  0.6684706E-006  0.8100965E+02  0.7561462E-02  0.1326210E+00
         -1   -1    0    0    0  501 -0.00000000000E+00  0.00000000000E+00  0.43364096776E+02  0.43364096776E+02  0.00000000000E+00 0.  1.
          1   -1    0    0  501    0  0.00000000000E+00 -0.00000000000E+00 -0.30937166387E+03  0.30937166387E+03  0.00000000000E+00 0. -1.
         23    2    1    2    0    0 -0.61561043747E+01  0.29042692331E+02 -0.95145429797E+02  0.13889149502E+03  0.96730651708E+02 0.  0.
          5    1    1    2  502    0  0.46735678021E+02 -0.12591969037E+02 -0.16179701273E+03  0.16893349879E+03  0.41800000000E+01 0.  1.
         -5    1    1    2    0  502 -0.40579573646E+02 -0.16450723294E+02 -0.90651245668E+01  0.44910766834E+02  0.41800000000E+01 0.  1.
        -11    1    3    3    0    0  0.12332198622E+02 -0.16325464423E+02  0.10089172813E+02  0.22812174809E+02  0.00000000000E+00 0.  1.
         11    1    3    3    0    0 -0.18488302997E+02  0.45368156754E+02 -0.10523460261E+03  0.11607932021E+03  0.00000000000E+00 0. -1.
</event>
<event>
 7    1  0.6684706E-006  0.1113295E+03  0.7561462E-02  0.1258128E+00
          2   -1    0    0  501    0  0.00000000000E+00  0.00000000000E+00  0.21903528101E+02  0.21903528101E+02  0.00000000000E+00 0. -1.
         -2   -1    0    0    0  501 -0.00000000000E+00 -0.00000000000E+00 -0.65458184586E+03  0.65458184586E+03  0.00000000000E+00 0.  1.
         23    2    1    2    0    0  0.19650591849E+02  0.39616785279E+02 -0.35710041008E+03  0.37063138375E+03  0.88832901040E+02 0.  0.
          5    1    1    2  502    0  0.36072036992E+02  0.26409752929E+02 -0.11511426719E+03  0.12356145764E+03  0.41800000000E+01 0. -1.
         -5    1    1    2    0  502 -0.55722628840E+02 -0.66026538208E+02 -0.16046364048E+03  0.18229253257E+03  0.41800000000E+01 0. -1.
        -11    1    3    3    0    0  0.20065465247E+02 -0.21922105247E+02 -0.56958615451E+02  0.64245509323E+02  0.00000000000E+00 0. -1.
         11    1    3    3    0    0 -0.41487339827E+00  0.61538890526E+02 -0.30014179463E+03  0.30638587443E+03  0.00000000000E+00 0.  1.
</event>
<event>
 7    1  0.6684706E-006  0.1808644E+03  0.7561462E-02  0.1166969E+00
         -2   -1    0    0    0  501 -0.00000000000E+00  0.00000000000E+00  0.21089747742E+04  0.21089747742E+04  0.00000000000E+00 0.  1.
          2   -1    0    0  501    0  0.00000000000E+00 -0.00000000000E+00 -0.18405761507E+02  0.18405761507E+02  0.00000000000E+00 0. -1.
         23    2    1    2    0    0  0.12145547845E+03  0.10546163991E+03  0.81535001097E+03  0.83598411238E+03  0.90554983393E+02 0.  0.
          5    1    1    2  502    0 -0.39365203438E+02 -0.11163037313E+03  0.64189258129E+03  0.65272851766E+03  0.41800000000E+01 0.  1.
         -5    1    1    2    0  502 -0.82090275015E+02  0.61687332120E+01  0.63332642042E+03  0.63866790566E+03  0.41800000000E+01 0.  1.
        -11    1    3    3    0    0  0.22333380798E+02  0.18644227551E+02  0.39684144045E+02  0.49205877773E+02  0.00000000000E+00 0. -1.
         11    1    3    3    0    0  0.99122097655E+02  0.86817412363E+02  0.77566586692E+03  0.78677823460E+03  0.00000000000E+00 0.  1.
</event>
<event>
 7    1  0.6684706E-006  0.1037364E+03  0.7561462E-02  0.1272629E+00
          1   -1    0    0  501    0  0.00000000000E+00  0.00000000000E+00  0.11297141386E+03  0.11297141386E+03  0.00000000000E+00 0. -1.
         -1   -1    0    0    0  501 -0.00000000000E+00 -0.00000000000E+00 -0.17790723495E+03  0.17790723495E+03  0.00000000000E+00 0.  1.
         23    2    1    2    0    0  0.57164942847E+02  0.70000701455E+02 -0.35440097285E+02  0.13376355045E+03  0.92025855275E+02 0.  0.
          5    1    1    2  502    0 -0.22174489137E+02 -0.37915504286E+02 -0.77684652844E+02  0.89340198798E+02  0.41800000000E+01 0.  1.
         -5    1    1    2    0  502 -0.34990453710E+02 -0.32085197169E+02  0.48188929038E+02  0.67774899557E+02  0.41800000000E+01 0.  1.
        -11    1    3    3    0    0  0.46953315091E+02  0.20701107679E+01 -0.44194692399E+02  0.64514106930E+02  0.00000000000E+00 0. -1.
         11    1    3    3    0    0  0.10211627756E+02  0.67930590687E+02  0.87545951149E+01  0.69249443522E+02  0.00000000000E+00 0.  1.
</event>
<event>
 7    1  0.6684706E-006  0.1241245E+03  0.7561462E-02  0.1236444E+00
          1   -1    0    0  501    0  0.00000000000E+00  0.00000000000E+00  0.42722162613E+03  0.42722162613E+03  0.00000000000E+00 0. -1.
         -1   -1    0    0    0  501 -0.00000000000E+00 -0.00000000000E+00 -0.52311865622E+02  0.52311865622E+02  0.00000000000E+00 0.  1.
         23    2    1    2    0    0 -0.61256007814E+02 -0.79330624050E+02  0.14247258538E+03  0.19718540360E+03  0.92401295447E+02 0.  0.
          5    1    1    2  502    0 -0.31386383010E+02  0.24494617304E+02  0.21380097055E+02  0.45383612300E+02  0.41800000000E+01 0. -1.
         -5    1    1    2    0  502  0.92642390825E+02  0.54836006746E+02  0.21105707807E+03  0.23696447585E+03  0.41800000000E+01 0. -1.
        -11    1    3    3    0    0 -0.26036081659E+02 -0.39537172576E+02  0.24333455639E+01  0.47402391650E+02  0.00000000000E+00 0.  1.
         11    1    3    3    0    0 -0.35219926155E+02 -0.39793451474E+02  0.14003923982E+03  0.14978301195E+03  0.00000000000E+00 0. -1.
</event>
<event>
 7    1  0.6684706E-006  0.1052441E+03  0.7561462E-02  0.1269639E+00
         -2   -1    0    0    0  501 -0.00000000000E+00  0.00000000000E+00  0.37919231380E+02  0.37919231380E+02  0.00000000000E+00 0.  1.
          2   -1    0    0  501    0  0.00000000000E+00 -0.00000000000E+00 -0.84391502574E+03  0.84391502574E+03  0.00000000000E+00 0. -1.
         23    2    1    2    0    0 -0.33999207256E+02 -0.18822685853E+02 -0.44475632292E+02  0.10913082212E+03  0.91767177533E+02 0.  0.
          5    1    1    2  502    0  0.24882946305E+02  0.71637775296E+02 -0.49768052717E+03  0.50344265949E+03  0.41800000000E+01 0.  1.
         -5    1    1    2    0  502  0.91162609509E+01 -0.52815089443E+02 -0.26383963490E+03  0.26926077551E+03  0.41800000000E+01 0.  1.
        -11    1    3    3    0    0 -0.55321317267E+02 -0.54033051102E+01 -0.58168800858E+02  0.80456530148E+02  0.00000000000E+00 0. -1.
         11    1    3    3    0    0  0.21322110010E+02 -0.13419380743E+02  0.13693168566E+02  0.28674291973E+02  0.00000000000E+00 0.  1.
</event>
<event>
 7    1  0.6684706E-006  0.1204008E+03  0.7561462E-02  0.1242437E+00
          2   -1    0    0  501    0  0.00000000000E+00  0.00000000000E+00  0.16091078661E+04  0.16091078661E+04  0.00000000000E+00 0. -1.
         -2   -1    0    0    0  501 -0.00000000000E+00 -0.00000000000E+00 -0.15636246240E+02  0.15636246240E+02  0.00000000000E+00 0.  1.
         23    2    1    2    0    0  0.89119628600E+02  0.26581717141E+02  0.38878059311E+03  0.41001008323E+03  0.91153841835E+02 0.  0.
          5    1    1    2  502    0 -0.35552348194E+02  0.32279344292E+02  0.16244764459E+03  0.16944803086E+03  0.41800000000E+01 0. -1.
         -5    1    1    2    0  502 -0.53567280405E+02 -0.58861061433E+02  0.10422433821E+04  0.10452859982E+04  0.41800000000E+01 0. -1.
        -11    1    3    3    0    0  0.27473464571E+02  0.41225929828E+02  0.74926063253E+02  0.89823624400E+02  0.00000000000E+00 0.  1.
         11    1    3    3    0    0  0.61646164028E+02 -0.14644212687E+02  0.31385452986E+03  0.32018645883E+03  0.00000000000E+00 0. -1.
</event>
<event>
 7    1  0.6684706E-006  0.9351440E+02  0.7561462E-02  0.1294558E+00
         -1   -1    0    0    0  501 -0.00000000000E+00  0.00000000000E+00  0.44430589470E+02  0.44430589470E+02  0.00000000000E+00 0.  1.
          1   -1    0    0  501    0  0.00000000000E+00 -0.00000000000E+00 -0.30026879817E+03  0.30026879817E+03  0.00000000000E+00 0. -1.
         23    2    1    2    0    0 -0.32744642179E+02 -0.28715518267E+02 -0.77338192493E+02  0.12242505199E+03  0.84320251162E+02 0.  0.
          5    1    1    2  502    0  0.25523567506E+02 -0.26115056474E+02 -0.14967425164E+01  0.36785340980E+02  0.41800000000E+01 0. -1.
         -5    1    1    2    0  502  0.72210746724E+01  0.54830574741E+02 -0.17700327369E+03  0.18548899467E+03  0.41800000000E+01 0. -1.
        -11    1    3    3    0    0 -0.39518645848E+02 -0.54968238880E+02 -0.57619367132E+02  0.88900068189E+02  0.00000000000E+00 0. -1.
         11    1    3    3    0    0  0.67740036698E+01  0.26252720613E+02 -0.19718825361E+02  0.33524983802E+02  0.00000000000E+00 0.  1.
</event>
<event>
 7    1  0.6684706E-006  0.1126655E+03  0.7561462E-02  0.1255712E+00
         -2   -1    0    0    0  501 -0.00000000000E+00  0.00000000000E+00  0.47060277005E+02  0.47060277005E+02  0.00000000000E+00 0.  1.
          2   -1    0    0  501    0  0.00000000000E+00 -0.00000000000E+00 -0.30243059819E+03  0.30243059819E+03  0.00000000000E+00 0. -1.
         23    2    1    2    0    0 -0.22542330000E+02 -0.46619165856E+02 -0.14356302487E+03  0.17390713983E+03  0.83377742277E+02 0.  0.
          5    1    1    2  502    0 -0.12221690621E+02 -0.35830569423E+02 -0.62880311699E+02  0.73516021561E+02  0.41800000000E+01 0.  1.
         -5    1    1    2    0  502  0.34764020621E+02  0.82449735279E+02 -0.48926984615E+02  0.10206771380E+03  0.41800000000E+01 0.  1.
        -11    1    3    3    0    0 -0.50637340672E+02 -0.47679248911E+02 -0.94128015270E+02  0.11703646571E+03  0.00000000000E+00 0. -1.
         11    1    3    3    0    0  0.28095010673E+02  0.10600830543E+01 -0.49435009604E+02  0.56870674124E+02  0.00000000000E+00 0.  1.
</event>
<event>
 7    1  0.6684706E-006  0.1695416E+03  0.7561462E-02  0.1178327E+00
          1   -1    0    0  501    0  0.00000000000E+00  0.00000000000E+00  0.45532523121E+02  0.45532523121E+02  0.00000000000E+00 0. -1.
         -1   -1    0    0    0  501 -0.00000000000E+00 -0.00000000000E+00 -0.83519901796E+03  0.83519901796E+03  0.00000000000E+00 0.  1.
         23    2    1    2    0    0  0.15088197870E+03 -0.43375158054E+02 -0.46303018110E+03  0.49734525691E+03  0.91151413177E+02 0.  0.
          5    1    1    2  502    0  0.51448111719E+01 -0.11413032161E+02 -0.11013345027E+03  0.11092148418E+03  0.41800000000E+01 0. -1.
         -5    1    1    2    0  502 -0.15602678987E+03  0.54788190215E+02 -0.21650286347E+03  0.27246479999E+03  0.41800000000E+01 0. -1.
        -11    1    3    3    0    0  0.66366290763E+02 -0.36322640149E+02 -0.33733226549E+03  0.34571212891E+03  0.00000000000E+00 0.  1.
         11    1    3    3    0    0  0.84515687937E+02 -0.70525179043E+01 -0.12569791562E+03  0.15163312800E+03  0.00000000000E+00 0. -1.
</event>
<event>
 7    1  0.6684706E-006  0.1242386E+03  0.7561462E-02  0.1236264E+00
         -1   -1    0    0    0  501 -0.00000000000E+00  0.00000000000E+00  0.15249110010E+03  0.15249110010E+03  0.00000000000E+00 0.  1.
          1   -1    0    0  501    0  0.00000000000E+00 -0.00000000000E+00 -0.13175719997E+03  0.13175719997E+03  0.00000000000E+00 0. -1.
         23    2    1    2    0    0 -0.36634215288E+02 -0.80896641822E+02  0.34795016195E+02  0.13019762367E+03  0.88625028460E+02 0.  0.
          5    1    1    2  502    0  0.52011108562E+02  0.90648852142E+02  0.27786940043E+02  0.10822179192E+03  0.41800000000E+01 0. -1.
         -5    1    1    2    0  502 -0.15376893274E+02 -0.97522103200E+01 -0.41848056107E+02  0.45828884481E+02  0.41800000000E+01 0. -1.
        -11    1    3    3    0    0  0.29333103156E+02 -0.29214435453E+02  0.15478589568E+02  0.44198426608E+02  0.00000000000E+00 0. -1.
         11    1    3    3    0    0 -0.65967318444E+02 -0.51682206369E+02  0.19316426627E+02  0.85999197063E+02  0.00000000000E+00 0.  1.
</event>
<event>
 7    1  0.6684706E-006  0.1099397E+03  0.7561462E-02  0.1260682E+00
          2   -1    0    0  501    0  0.00000000000E+00  0.00000000000E+00  0.82086782183E+03  0.82086782183E+03  0.00000000000E+00 0. -1.
         -2   -1    0    0    0  501 -0.00000000000E+00 -0.00000000000E+00 -0.17201152243E+02  0.17201152243E+02  0.00000000000E+00 0.  1.
         23    2    1    2    0    0  0.10690759842E+02 -0.46067497161E+02  0.29343266971E+03  0.31060096647E+03  0.90187150308E+02 0.  0.
          5    1    1    2  502    0 -0.30508720003E+01  0.86042112457E+02  0.41434219070E+03  0.42321327523E+03  0.41800000000E+01 0.  1.
         -5    1    1    2    0  502 -0.76398878414E+01 -0.39974615296E+02  0.95891809174E+02  0.10425473237E+03  0.41800000000E+01 0.  1.
        -11    1    3    3    0    0 -0.34742974300E+02 -0.24249632356E+02  0.20002649267E+03  0.20446446318E+03  0.00000000000E+00 0. -1.
         11    1    3    3    0    0  0.45433734142E+02 -0.21817864805E+02  0.93406177037E+02  0.10613650329E+03  0.00000000000E+00 0.  1.
</event>
<event>
 7    1  0.6684706E-006  0.9047350E+02  0.7561462E-02  0.1301709E+00
          2   -1    0    0  501    0  0.00000000000E+00  0.00000000000E+00  0.22727603514E+02  0.22727603514E+02  0.00000000000E+00 0. -1.
         -2   -1    0    0    0  501 -0.00000000000E+00 -0.00000000000E+00 -0.67149787108E+03  0.67149787108E+03  0.00000000000E+00 0.  1.
         23    2    1    2    0    0 -0.29486609105E+02  0.47402784744E+02 -0.33629054254E+03  0.35304214557E+03  0.91820168937E+02 0.  0.
          5    1    1    2  502    0  0.36436010779E+02 -0.14088161985E+02 -0.15506376162E+02  0.42237179016E+02  0.41800000000E+01 0. -1.
         -5    1    1    2    0  502 -0.69494016736E+01 -0.33314622758E+02 -0.29697334886E+03  0.29894615002E+03  0.41800000000E+01 0. -1.
        -11    1    3    3    0    0 -0.32733747362E+02  0.73821915994E+02 -0.25892813197E+03  0.27122859551E+03  0.00000000000E+00 0.  1.
         11    1    3    3    0    0  0.32471382566E+01 -0.26419131250E+02 -0.77362410575E+02  0.81813550057E+02  0.00000000000E+00 0. -1.
</event>
<event>
 7    1  0.6684706E-006  0.9504730E+02  0.7561462E-02  0.1291070E+00
         -1   -1    0    0    0  501 -0.00000000000E+00  0.00000000000E+00  0.11364127662E+03  0.11364127662E+03  0.00000000000E+00 0.  1.
          1   -1    0    0  501    0  0.00000000000E+00 -0.00000000000E+00 -0.15589209434E+03  0.15589209434E+03  0.00000000000E+00 0. -1.
         23    2    1    2    0    0 -0.29206765958E+02  0.89967556610E+01  0.54269548690E+02  0.10860562956E+03  0.88972029693E+02 0.  0.
          5    1    1    2  502    0  0.12690686830E+01  0.41460549042E+02  0.70746280969E+01  0.42286054733E+02  0.41800000000E+01 0.  1.
         -5    1    1    2    0  502  0.27937697275E+02 -0.50457304703E+02 -0.10359499451E+03  0.11864168667E+03  0.41800000000E+01 0.  1.
        -11    1    3    3    0    0 -0.48865677635E+02 -0.22225009452E+02  0.46228706285E+02  0.70844186640E+02  0.00000000000E+00 0.  1.
         11    1    3    3    0    0  0.19658911677E+02  0.31221765113E+02  0.80408424057E+01  0.37761442924E+02  0.00000000000E+00 0. -1.
</event>
<event>
 7    1  0.6684706E-006  0.1007512E+03  0.7561462E-02  0.1278724E+00
         -1   -1    0    0    0  501 -0.00000000000E+00  0.00000000000E+00  0.16989827278E+03  0.16989827278E+03  0.00000000000E+00 0.  1.
          1   -1    0    0  501    0  0.00000000000E+00 -0.00000000000E+00 -0.92361977498E+02  0.92361977498E+02  0.00000000000E+00 0. -1.
         23    2    1    2    0    0  0.48972701975E+02  0.31372423565E+01  0.77208550141E+02  0.12788470733E+03  0.89359780252E+02 0.  0.
          5    1    1    2  502    0  0.55294438250E+01 -0.56053834920E+02  0.11027119777E+02  0.57547171337E+02  0.41800000000E+01 0.  1.
         -5    1    1    2    0  502 -0.54502145800E+02  0.52916592564E+02 -0.10699374642E+02  0.76828371603E+02  0.41800000000E+01 0.  1.
        -11    1    3    3    0    0  0.30890156190E+02 -0.22037907593E+02 -0.66113211714E+01  0.38517277787E+02  0.00000000000E+00 0. -1.
         11    1    3    3    0    0  0.18082545786E+02  0.25175149949E+02  0.83819871312E+02  0.89367429547E+02  0.00000000000E+00 0.  1.
</event>
<event>
 6    1  0.6684706E-006  0.7008710E+02  0.7561462E-02  0.1359797E+00
         -3   -1    0    0    0  501 -0.00000000000E+00  0.00000000000E+00  0.14653358582E+03  0.14653358582E+03  0.00000000000E+00 0.  1.
          3   -1    0    0  501    0  0.00000000000E+00 -0.00000000000E+00 -0.11882224070E+03  0.11882224070E+03  0.00000000000E+00 0. -1.
          5    1    1    2  502    0 -0.12649888998E+02 -0.12612709861E+02  0.64581746811E+02  0.67136983570E+02  0.41800000000E+01 0.  1.
         -5    1    1    2    0  502 -0.21168503031E+01  0.17671783345E+02 -0.56299872194E+02  0.59193926976E+02  0.41800000000E+01 0.  1.
        -11    1    1    2    0    0  0.26317402658E+02  0.45022230057E+02  0.55559595801E+02  0.76200233383E+02  0.00000000000E+00 0.  1.
         11    1    1    2    0    0 -0.11550663357E+02 -0.50081303541E+02 -0.36130125293E+02  0.62824682586E+02  0.00000000000E+00 0. -1.
</event>
<event>
 7    1  0.6684706E-006  0.1547949E+03  0.7561462E-02  0.1194702E+00
         -3   -1    0    0    0  501 -0.00000000000E+00  0.00000000000E+00  0.51823091944E+02  0.51823091944E+02  0.00000000000E+00 0.  1.
          3   -1    0    0  501    0  0.00000000000E+00 -0.00000000000E+00 -0.71218572273E+03  0.71218572273E+03  0.00000000000E+00 0. -1.
         23    2    1    2    0    0 -0.38370801597E+02 -0.11718222458E+03 -0.14633701026E+03  0.21272289728E+03  0.92911346381E+02 0.  0.
          5    1    1    2  502    0  0.68300772966E+02  0.10489075677E+03 -0.50056432468E+03  0.51599339335E+03  0.41800000000E+01 0. -1.
         -5    1    1    2    0  502 -0.29929971369E+02  0.12291467808E+02 -0.13461295854E+02  0.35292524039E+02  0.41800000000E+01 0.  1.
        -11    1    3    3    0    0  0.22315525896E+02 -0.73878006965E+02 -0.94058071271E+02  0.12166701846E+03  0.00000000000E+00 0. -1.
         11    1    3    3    0    0 -0.60686327493E+02 -0.43304217611E+02 -0.52278938986E+02  0.91055878827E+02  0.00000000000E+00 0.  1.
</event>
<event>
 7    1  0.6684706E-006  0.1232044E+03  0.7561462E-02  0.1237902E+00
         -1   -1    0    0    0  501 -0.00000000000E+00  0.00000000000E+00  0.43968312959E+02  0.43968312959E+02  0.00000000000E+00 0.  1.
          1   -1    0    0  501    0  0.00000000000E+00 -0.00000000000E+00 -0.37564250507E+03  0.37564250507E+03  0.00000000000E+00 0. -1.
         23    2    1    2    0    0  0.40868307533E+02  0.41516475982E+02 -0.87733924410E+02  0.13778230346E+03  0.88841911929E+02 0.  0.
          5    1    1    2  502    0 -0.40095879641E+02 -0.86276294475E+02 -0.14987846529E+03  0.17757338007E+03  0.41800000000E+01 0. -1.
         -5    1    1    2    0  502 -0.77242789161E+00  0.44759818492E+02 -0.94061802415E+02  0.10425513450E+03  0.41800000000E+01 0.  1.
        -11    1    3    3    0    0  0.36963584755E+01  0.63117162181E+02 -0.50865009324E+02  0.81146092951E+02  0.00000000000E+00 0. -1.
         11    1    3    3    0    0  0.37171949057E+02 -0.21600686198E+02 -0.36868915086E+02  0.56636210507E+02  0.00000000000E+00 0.  1.
</event>
<event>
 7    1  0.6684706E-006  0.1323986E+03  0.7561462E-02  0.1223939E+00
          1   -1    0    0  501    0  0.00000000000E+00  0.00000000000E+00  0.27083945665E+02  0.27083945665E+02  0.00000000000E+00 0. -1.
         -1   -1    0    0    0  501 -0.00000000000E+00 -0.00000000000E+00 -0.68618417633E+03  0.68618417633E+03  0.00000000000E+00 0.  1.
         23    2    1    2    0    0  0.80344329656E+02 -0.11199324976E+02 -0.34558349480E+03  0.36610669092E+03  0.89585272639E+02 0.  0.
          5    1    1    2  502    0 -0.18308843014E+02 -0.52601307446E+02 -0.83133659506E+02  0.10015382679E+03  0.41800000000E+01 0. -1.
         -5    1    1    2    0  502 -0.62035486642E+02  0.63800632421E+02 -0.23038307636E+03  0.24700760428E+03  0.41800000000E+01 0. -1.
        -11    1    3    3    0    0 -0.63252653625E+01 -0.30429763197E+02 -0.11161285064E+03  0.11585943163E+03  0.00000000000E+00 0.  1.
         11    1    3    3    0    0  0.86669595018E+02  0.19230438221E+02 -0.23397064416E+03  0.25024725929E+03  0.00000000000E+00 0. -1.
</event>
<event>
 7    1  0.6684706E-006  0.1043504E+03  0.7561462E-02  0.1271405E+00
         -2   -1    0    0    0  501 -0.00000000000E+00  0.00000000000E+00  0.76028227785E+02  0.76028227785E+02  0.00000000000E+00 0.  1.
          2   -1    0    0  501    0  0.00000000000E+00 -0.00000000000E+00 -0.16139566892E+03  0.16139566892E+03  0.00000000000E+00 0. -1.
         23    2    1    2    0    0  0.81169421194E+01  0.11974327597E+02 -0.12816982775E+02  0.92094507366E+02  0.90043622588E+02 0.  0.
          5    1    1    2  502    0  0.58309137675E+02 -0.11302903702E+01 -0.34986469296E+02  0.68137790737E+02  0.41800000000E+01 0.  1.
         -5    1    1    2    0  502 -0.66426079794E+02 -0.10844037227E+02 -0.37563989060E+02  0.77191598599E+02  0.41800000000E+01 0.  1.
        -11    1    3    3    0    0  0.33574115265E+01 -0.35211286030E+02 -0.24775650486E+02  0.43184947991E+02  0.00000000000E+00 0. -1.
         11    1    3    3    0    0  0.47595305929E+01  0.47185613627E+02  0.11958667711E+02  0.48909559375E+02  0.00000000000E+00 0.  1.
</event>
<event>
 7    1  0.6684706E-006  0.9996053E+02  0.7561462E-02  0.1280379E+00
         -2   -1    0    0    0  501 -0.00000000000E+00  0.00000000000E+00  0.85843704030E+02  0.85843704030E+02  0.00000000000E+00 0.  1.
          2   -1    0    0  501    0  0.00000000000E+00 -0.00000000000E+00 -0.20848151702E+03  0.20848151702E+03  0.00000000000E+00 0. -1.
         23    2    1    2    0    0  0.29168636302E+02 -0.67801719554E+02 -0.19856661324E+02  0.11638625632E+03  0.87770103930E+02 0.  0.
          5    1    1    2  502    0 -0.74183523126E+01 -0.15081460767E+02 -0.89458107295E+02  0.91119195402E+02  0.41800000000E+01 0. -1.
         -5    1    1    2    0  502 -0.21750283989E+02  0.82883180321E+02 -0.13323044368E+02  0.86819769321E+02  0.41800000000E+01 0. -1.
        -11    1    3    3    0    0 -0.19949956942E+02 -0.20977866655E+02 -0.36428932537E+02  0.46531051967E+02  0.00000000000E+00 0. -1.
         11    1    3    3    0    0  0.49118593244E+02 -0.46823852899E+02  0.16572271213E+02  0.69855204357E+02  0.00000000000E+00 0.  1.
</event>
<event>
 7    1  0.6684706E-006  0.1137238E+03  0.7561462E-02  0.1253825E+00
          1   -1    0    0  501    0  0.00000000000E+00  0.00000000000E+00  0.38667488847E+03  0.38667488847E+03  0.00000000000E+00 0. -1.
         -1   -1    0    0    0  501 -0.00000000000E+00 -0.00000000000E+00 -0.54954432654E+02  0.54954432654E+02  0.00000000000E+00 0.  1.
         23    2    1    2    0    0 -0.11549947007E+02  0.91850381603E+02  0.38524785585E+02  0.11452602515E+03  0.55336764059E+02 0.  0.
          5    1    1    2  502    0 -0.17527208627E+02 -0.89876965355E+02  0.28039602661E+03  0.29499911200E+03  0.41800000000E+01 0. -1.
         -5    1    1    2    0  502  0.29077155634E+02 -0.19734162481E+01  0.12799643621E+02  0.32104183968E+02  0.41800000000E+01 0.  1.
        -11    1    3    3    0    0 -0.25314052471E+02  0.17615852834E+02  0.20095168840E+02  0.36809446264E+02  0.00000000000E+00 0. -1.
         11    1    3    3    0    0  0.13764105465E+02  0.74234528770E+02  0.18429616745E+02  0.77716578889E+02  0.00000000000E+00 0.  1.
</event>
<event>
 7    1  0.6684706E-006  0.7674335E+02  0.7561462E-02  0.1338556E+00
          1   -1    0    0  501    0  0.00000000000E+00  0.00000000000E+00  0.64472214795E+02  0.64472214795E+02  0.00000000000E+00 0. -1.
         -1   -1    0    0    0  501 -0.00000000000E+00 -0.00000000000E+00 -0.19697973208E+03  0.19697973208E+03  0.00000000000E+00 0.  1.
         23    2    1    2    0    0 -0.21317414657E+01 -0.24170245728E+02 -0.80567601513E+02  0.12384995456E+03  0.90878642871E+02 0.  0.
          5    1    1    2  502    0  0.27971169718E+02  0.31778401939E+02 -0.84821134346E+02  0.94891255640E+02  0.41800000000E+01 0.  1.
         -5    1    1    2    0  502 -0.25839428252E+02 -0.76081562115E+01  0.32881218570E+02  0.42710736682E+02  0.41800000000E+01 0.  1.
        -11    1    3    3    0    0 -0.36242854688E+02  0.76467921309E+01 -0.64747256350E+02  0.74593733991E+02  0.00000000000E+00 0.  1.
         11    1    3    3    0    0  0.34111113223E+02 -0.31817037859E+02 -0.15820345163E+02  0.49256220566E+02  0.00000000000E+00 0. -1.
</event>
<event>
 7    1  0.6684706E-006  0.1460810E+03  0.7561462E-02  0.1205373E+00
         -2   -1    0    0    0  501 -0.00000000000E+00  0.00000000000E+00  0.21335222089E+02  0.21335222089E+02  0.00000000000E+00 0.  1.
          2   -1    0    0  501    0  0.00000000000E+00 -0.00000000000E+00 -0.13793677452E+04  0.13793677452E+04  0.00000000000E+00 0. -1.
         23    2    1    2    0    0 -0.93545490600E+02 -0.69614805256E+02 -0.38259415068E+03  0.41038759057E+03  0.91884222998E+02 0.  0.
          5    1    1    2  502    0  0.10719007473E+03  0.96583628949E+01 -0.55128864485E+03  0.56171134797E+03  0.41800000000E+01 0.  1.
         -5    1    1    2    0  502 -0.13644584132E+02  0.59956442361E+02 -0.42414972758E+03  0.42860402876E+03  0.41800000000E+01 0.  1.
        -11    1    3    3    0    0 -0.32637352175E+02 -0.48304258243E+02 -0.69497732296E+02  0.90710710039E+02  0.00000000000E+00 0.  1.
         11    1    3    3    0    0 -0.60908138425E+02 -0.21310547013E+02 -0.31309641839E+03  0.31967688053E+03  0.00000000000E+00 0. -1.
</event>
<event>
 7    1  0.6684706E-006  0.1232762E+03  0.7561462E-02  0.1237788E+00
         -1   -1    0    0    0  501 -0.00000000000E+00  0.00000000000E+00  0.13099698795E+03  0.13099698795E+03  0.00000000000E+00 0.  1.
          1   -1    0    0  501    0  0.00000000000E+00 -0.00000000000E+00 -0.16590957860E+03  0.16590957860E+03  0.00000000000E+00 0. -1.
         23    2    1    2    0    0  0.73587046891E+02 -0.26809707778E+02  0.43079743800E+02  0.12998175492E+03  0.94369372067E+02 0.  0.
          5    1    1    2  502    0 -0.74380880388E+01 -0.43741453290E+02 -0.48191703151E+02  0.65639565372E+02  0.41800000000E+01 0. -1.
         -5    1    1    2    0  502 -0.66148958852E+02  0.70551161069E+02 -0.29800631294E+02  0.10128524626E+03  0.41800000000E+01 0. -1.
        -11    1    3    3    0    0  0.81460856134E+02 -0.45662443530E+01  0.83399464415E+00  0.81592997350E+02  0.00000000000E+00 0. -1.
         11    1    3    3    0    0 -0.78738092430E+01 -0.22243463425E+02  0.42245749156E+02  0.48388757567E+02  0.00000000000E+00 0.  1.
</event>
<event>
 7    1  0.6684706E-006  0.9034699E+02  0.7561462E-02  0.1302014E+00
         -2   -1    0    0    0  501 -0.00000000000E+00  0.00000000000E+00  0.18958329865E+02  0.18958329865E+02  0.00000000000E+00 0.  1.
          2   -1    0    0  501    0  0.00000000000E+00 -0.00000000000E+00 -0.62306735719E+03  0.62306735719E+03  0.00000000000E+00 0. -1.
         23    2    1    2    0    0  0.10720071170E+02 -0.13052003819E+01 -0.24733714673E+03  0.26380569580E+03  0.91110688227E+02 0.  0.
          5    1    1    2  502    0  0.23238750190E+02  0.41215672970E+02 -0.28676830794E+03  0.29067560277E+03  0.41800000000E+01 0. -1.
         -5    1    1    2    0  502 -0.33958821361E+02 -0.39910472588E+02 -0.70003572656E+02  0.87544388483E+02  0.41800000000E+01 0. -1.
        -11    1    3    3    0    0  0.26864134141E+02 -0.34492194300E+02 -0.19451844552E+03  0.19937105812E+03  0.00000000000E+00 0. -1.
         11    1    3    3    0    0 -0.16144062971E+02  0.33186993918E+02 -0.52818701210E+02  0.64434637673E+02  0.00000000000E+00 0.  1.
</event>
<event>
 7    1  0.6684706E-006  0.1305217E+03  0.7561462E-02  0.1226684E+00
         -4   -1    0    0    0  501 -0.00000000000E+00  0.00000000000E+00  0.59863832420E+02  0.59863832420E+02  0.00000000000E+00 0.  1.
          4   -1    0    0  501    0  0.00000000000E+00 -0.00000000000E+00 -0.34953709060E+03  0.34953709060E+03  0.00000000000E+00 0. -1.
         23    2    1    2    0    0 -0.69034780645E+02  0.62314573817E+02 -0.90946980562E+02  0.15682863606E+03  0.87606853429E+02 0.  0.
          5    1    1    2  502    0 -0.13272323497E+02 -0.69326478846E+02 -0.11414362487E+03  0.13427045370E+03  0.41800000000E+01 0.  1.
         -5    1    1    2    0  502  0.82307104142E+02  0.70119050293E+01 -0.84582652751E+02  0.11830183325E+03  0.41800000000E+01 0.  1.
        -11    1    3    3    0    0 -0.36040123293E+02  0.65205007157E+02 -0.97861330702E+02  0.12299359126E+03  0.00000000000E+00 0. -1.
         11    1    3    3    0    0 -0.32994657352E+02 -0.28904333405E+01  0.69143501407E+01  0.33835044799E+02  0.00000000000E+00 0.  1.
</event>
<event>
 7    1  0.6684706E-006  0.1367233E+03  0.7561462E-02  0.1217807E+00
         -1   -1    0    0    0  501 -0.00000000000E+00  0.00000000000E+00  0.22986587154E+02  0.22986587154E+02  0.00000000000E+00 0.  1.
          1   -1    0    0  501    0  0.00000000000E+00 -0.00000000000E+00 -0.10892666120E+04  0.10892666120E+04  0.00000000000E+00 0. -1.
         23    2    1    2    0    0  0.82829596204E+02  0.31917555672E+02 -0.28525179792E+03  0.31630646015E+03  0.10393130496E+03 0.  0.
          5    1    1    2  502    0 -0.56986317747E+02  0.43463612788E+02 -0.30977335635E+03  0.31798353849E+03  0.41800000000E+01 0. -1.
         -5    1    1    2    0  502 -0.25843278458E+02 -0.75381168459E+02 -0.47125487054E+03  0.47796320048E+03  0.41800000000E+01 0. -1.
        -11    1    3    3    0    0  0.95431636052E+02  0.43374237062E+02 -0.27920301053E+03  0.29823286655E+03  0.00000000000E+00 0. -1.
         11    1    3    3    0    0 -0.12602039847E+02 -0.11456681390E+02 -0.60487873841E+01  0.18073593600E+02  0.00000000000E+00 0.  1.
</event>
<event>
 7    1  0.6684706E-006  0.1114216E+03  0.7561462E-02  0.1257960E+00
          1   -1    0    0  501    0  0.00000000000E+00  0.00000000000E+00  0.22200073491E+03  0.22200073491E+03  0.00000000000E+00 0. -1.
         -1   -1    0    0    0  501 -0.00000000000E+00 -0.00000000000E+00 -0.10013042794E+03  0.10013042794E+03  0.00000000000E+00 0.  1.
         23    2    1    2    0    0  0.52117977257E+02  0.27365337731E+02 -0.33472979957E+02  0.11417959741E+03  0.91931468028E+02 0.  0.
          5    1    1    2  502    0 -0.78990833421E+02  0.64535559900E+00  0.45229787559E+02  0.91121755531E+02  0.41800000000E+01 0. -1.
         -5    1    1    2    0  502  0.26872856164E+02 -0.28010693330E+02  0.11011349937E+03  0.11682980991E+03  0.41800000000E+01 0. -1.
        -11    1    3    3    0    0  0.34304767829E+02  0.59083292954E+02 -0.36886770288E+02  0.77642040315E+02  0.00000000000E+00 0.  1.
         11    1    3    3    0    0  0.17813209428E+02 -0.31717955223E+02  0.34137903305E+01  0.36537557090E+02  0.00000000000E+00 0. -1.
</event>
<event>
 7    1  0.6684706E-006  0.8885846E+02  0.7561462E-02  0.1305640E+00
          1   -1    0    0  501    0  0.00000000000E+00  0.00000000000E+00  0.54925668430E+02  0.54925668430E+02  0.00000000000E+00 0. -1.
         -1   -1    0    0    0  501 -0.00000000000E+00 -0.00000000000E+00 -0.30375431892E+03  0.30375431892E+03  0.00000000000E+00 0.  1.
         23    2    1    2    0    0 -0.48775315647E+02  0.54214221412E+02 -0.13189109472E+03  0.17255877159E+03  0.84041986932E+02 0.  0.
          5    1    1    2  502    0  0.52668736235E+02 -0.33164399406E+02 -0.14067441409E+03  0.15388514010E+03  0.41800000000E+01 0.  1.
         -5    1    1    2    0  502 -0.38934205886E+01 -0.21049822006E+02  0.23736858324E+02  0.32236075652E+02  0.41800000000E+01 0.  1.
        -11    1    3    3    0    0 -0.62154963660E+02  0.39534434137E+02 -0.13366340671E+03  0.15261755234E+03  0.00000000000E+00 0.  1.
         11    1    3    3    0    0  0.13379648014E+02  0.14679787275E+02  0.17723119885E+01  0.19941219250E+02  0.00000000000E+00 0. -1.
</event>
<event>
 7    1  0.6684706E-006  0.8322432E+02  0.7561462E-02  0.1320143E+00
          1   -1    0    0  501    0  0.00000000000E+00  0.00000000000E+00  0.39751285832E+03  0.39751285832E+03  0.00000000000E+00 0. -1.
         -1   -1    0    0    0  501 -0.00000000000E+00 -0.00000000000E+00 -0.35128235618E+02  0.35128235618E+02  0.00000000000E+00 0.  1.
         23    2    1    2    0    0 -0.44714645603E+02  0.21333280980E+02  0.15437448596E+03  0.18491104798E+03  0.88916282771E+02 0.  0.
          5    1    1    2  502    0  0.16741031418E+02 -0.32154240758E+02  0.21380530338E+03  0.21689706657E+03  0.41800000000E+01 0. -1.
         -5    1    1    2    0  502  0.27973614186E+02  0.10820959778E+02 -0.57951666452E+01  0.30832979382E+02  0.41800000000E+01 0. -1.
        -11    1    3    3    0    0 -0.58645895516E+02  0.43828541364E+02  0.95257391209E+02  0.12014263473E+03  0.00000000000E+00 0.  1.
         11    1    3    3    0    0  0.13931249913E+02 -0.22495260385E+02  0.59117094753E+02  0.64768413258E+02  0.00000000000E+00 0. -1.
</event>
<event>
 7    1  0.6684706E-006  0.2471625E+03  0.7561462E-02  0.1115111E+00
          2   -1    0    0  501    0  0.00000000000E+00  0.00000000000E+00  0.24807449040E+04  0.24807449040E+04  0.00000000000E+00 0. -1.
         -2   -1    0    0    0  501 -0.00000000000E+00 -0.00000000000E+00 -0.35582720535E+02  0.35582720535E+02  0.00000000000E+00 0.  1.
         23    2    1    2    0    0 -0.17418503814E+03  0.16618779059E+03  0.59212302963E+03  0.64429602031E+03  0.80925090816E+02 0.  0.
          5    1    1    2  502    0  0.40900913395E+02 -0.50435067011E+02  0.92871767626E+03  0.93099440133E+03  0.41800000000E+01 0. -1.
         -5    1    1    2    0  502  0.13328412475E+03 -0.11575272358E+03  0.92432147756E+03  0.94103720288E+03  0.41800000000E+01 0.  1.
        -11    1    3    3    0    0 -0.28880648500E+02  0.76863235989E+02  0.22410556931E+03  0.23867416094E+03  0.00000000000E+00 0. -1.
         11    1    3    3    0    0 -0.14530438964E+03  0.89324554598E+02  0.36801746032E+03  0.40562185937E+03  0.00000000000E+00 0.  1.
</event>
<event>
 7    1  0.6684706E-006  0.1123697E+03  0.7561462E-02  0.1256243E+00
          1   -1    0    0  501    0  0.00000000000E+00  0.00000000000E+00  0.83107623856E+03  0.83107623856E+03  0.00000000000E+00 0. -1.
         -1   -1    0    0    0  501 -0.00000000000E+00 -0.00000000000E+00 -0.67290546270E+02  0.67290546270E+02  0.00000000000E+00 0.  1.
         23    2    1    2    0    0  0.86565381572E+02  0.65781604068E+02  0.27623339957E+02  0.14377920343E+03  0.89936787296E+02 0.  0.
          5    1    1    2  502    0 -0.60914466947E+02 -0.61610593755E+02  0.20274071452E+03  0.22051690926E+03  0.41800000000E+01 0.  1.
         -5    1    1    2    0  502 -0.25650914625E+02 -0.41710103131E+01  0.53342163782E+03  0.53407067214E+03  0.41800000000E+01 0.  1.
        -11    1    3    3    0    0  0.61034955710E+02  0.30788995389E+02 -0.27489729586E+02  0.73681159656E+02  0.00000000000E+00 0.  1.
         11    1    3    3    0    0  0.25530425862E+02  0.34992608679E+02  0.55113069544E+02  0.70098043777E+02  0.00000000000E+00 0. -1.
</event>
<event>
 7    1  0.6684706E-006  0.1065699E+03  0.7561462E-02  0.1267057E+00
          2   -1    0    0  501    0  0.00000000000E+00  0.00000000000E+00  0.12876272439E+03  0.12876272439E+03  0.00000000000E+00 0. -1.
         -2   -1    0    0    0  501 -0.00000000000E+00 -0.00000000000E+00 -0.96685124624E+02  0.96685124624E+02  0.00000000000E+00 0.  1.
         23    2    1    2    0    0  0.23138540153E+02 -0.22156550615E+02  0.17940611093E+02  0.95548345305E+02  0.88211767858E+02 0.  0.
          5    1    1    2  502    0  0.27448270186E+02  0.58246187926E+02  0.19447637947E+02  0.67392202559E+02  0.41800000000E+01 0. -1.
         -5    1    1    2    0  502 -0.50586810339E+02 -0.36089637311E+02 -0.53106492724E+01  0.62507301151E+02  0.41800000000E+01 0. -1.
        -11    1    3    3    0    0  0.64818389541E+01  0.30460651804E+02  0.24963056763E+02  0.39912651472E+02  0.00000000000E+00 0. -1.
         11    1    3    3    0    0  0.16656701199E+02 -0.52617202418E+02 -0.70224456702E+01  0.55635693834E+02  0.00000000000E+00 0.  1.
</event>
<event>
 7    1  0.6684706E-006  0.9488660E+02  0.7561462E-02  0.1291432E+00
          1   -1    0    0  501    0  0.00000000000E+00  0.00000000000E+00  0.89463149238E+03  0.89463149238E+03  0.00000000000E+00 0. -1.
         -1   -1    0    0    0  501 -0.00000000000E+00 -0.00000000000E+00 -0.21916807436E+02  0.21916807436E+02  0.00000000000E+00 0.  1.
         23    2    1    2    0    0 -0.39637957221E+02 -0.70642248165E+02  0.27230971554E+03  0.29792436530E+03  0.89693095528E+02 0.  0.
          5    1    1    2  502    0  0.18088904257E+02  0.26618306222E+02  0.53885281589E+03  0.53982920658E+03  0.41800000000E+01 0. -1.
         -5    1    1    2    0  502  0.21549052964E+02  0.44023941943E+02  0.61552153513E+02  0.78794727933E+02  0.41800000000E+01 0. -1.
        -11    1    3    3    0    0  0.20880543328E+02 -0.13299507977E+02  0.18881208084E+02  0.31134771893E+02  0.00000000000E+00 0.  1.
         11    1    3    3    0    0 -0.60518500549E+02 -0.57342740188E+02  0.25342850745E+03  0.26678959341E+03  0.00000000000E+00 0. -1.
</event>
<event>
 7    1  0.6684706E-006  0.7985419E+02  0.7561462E-02  0.1329466E+00
         -1   -1    0    0    0  501 -0.00000000000E+00  0.00000000000E+00  0.29012130482E+03  0.29012130482E+03  0.00000000000E+00 0. -1.
          1   -1    0    0  501    0  0.00000000000E+00 -0.00000000000E+00 -0.44134715519E+02  0.44134715519E+02  0.00000000000E+00 0.  1.
         23    2    1    2    0    0  0.37321743291E+02  0.59217223970E+01  0.10991388072E+03  0.14890807935E+03  0.93083702133E+02 0.  0.
          5    1    1    2  502    0 -0.56424194936E+02  0.34358226095E+02  0.35170882878E+02  0.74957593858E+02  0.41800000000E+01 0. -1.
         -5    1    1    2    0  502  0.19102451644E+02 -0.40279948492E+02  0.10090182570E+03  0.11039034713E+03  0.41800000000E+01 0.  1.
        -11    1    3    3    0    0  0.22698484869E+02 -0.11945864104E+02  0.12072053800E+03  0.12341544952E+03  0.00000000000E+00 0. -1.
         11    1    3    3    0    0  0.14623258422E+02  0.17867586501E+02 -0.10806657281E+02  0.25492629834E+02  0.00000000000E+00 0.  1.
</event>
<event>
 7    1  0.6684706E-006  0.2056191E+03  0.7561462E-02  0.1145083E+00
          1   -1    0    0  501    0  0.00000000000E+00  0.00000000000E+00  0.15758766864E+04  0.15758766864E+04  0.00000000000E+00 0. -1.
         -1   -1    0    0    0  501 -0.00000000000E+00 -0.00000000000E+00 -0.37014762902E+02  0.37014762902E+02  0.00000000000E+00 0.  1.
         23    2    1    2    0    0 -0.11915754647E+03 -0.15971091924E+03  0.47119985875E+03  0.51961381714E+03  0.90901669247E+02 0.  0.
          5    1    1    2  502    0  0.61877892487E+01 -0.36497452595E+01  0.30665314194E+03  0.30676575956E+03  0.41800000000E+01 0. -1.
         -5    1    1    2    0  502  0.11296975722E+03  0.16336066450E+03  0.76100892281E+03  0.78651187261E+03  0.41800000000E+01 0. -1.
        -11    1    3    3    0    0 -0.87487142755E+02 -0.14499120771E+03  0.44446440341E+03  0.47563121886E+03  0.00000000000E+00 0.  1.
         11    1    3    3    0    0 -0.31670403713E+02 -0.14719711528E+02  0.26735455345E+02  0.43982598278E+02  0.00000000000E+00 0. -1.
</event>
<event>
 7    1  0.6684706E-006  0.1578188E+03  0.7561462E-02  0.1191182E+00
          1   -1    0    0  501    0  0.00000000000E+00  0.00000000000E+00  0.18938410386E+03  0.18938410386E+03  0.00000000000E+00 0. -1.
         -1   -1    0    0    0  501 -0.00000000000E+00 -0.00000000000E+00 -0.20393549160E+03  0.20393549160E+03  0.00000000000E+00 0.  1.
         23    2    1    2    0    0  0.31610666213E+02  0.15071154874E+03 -0.62318070646E+02  0.18924587447E+03  0.90649070234E+02 0.  0.
          5    1    1    2  502    0  0.10220157377E+02 -0.43007985302E+02 -0.39333939394E+02  0.59319217837E+02  0.41800000000E+01 0.  1.
         -5    1    1    2    0  502 -0.41830823590E+02 -0.10770356343E+03  0.87100622304E+02  0.14475450316E+03  0.41800000000E+01 0.  1.
        -11    1    3    3    0    0 -0.52358851833E+00  0.47862040532E+02 -0.65882437375E+02  0.81434296358E+02  0.00000000000E+00 0.  1.
         11    1    3    3    0    0  0.32134254731E+02  0.10284950820E+03  0.35643667294E+01  0.10781157811E+03  0.00000000000E+00 0. -1.
</event>
<event>
 7    1  0.6684706E-006  0.1192535E+03  0.7561462E-02  0.1244334E+00
         -2   -1    0    0    0  501 -0.00000000000E+00  0.00000000000E+00  0.55464779518E+02  0.55464779518E+02  0.00000000000E+00 0.  1.
          2   -1    0    0  501    0  0.00000000000E+00 -0.00000000000E+00 -0.61768795567E+03  0.61768795567E+03  0.00000000000E+00 0. -1.
         23    2    1    2    0    0  0.10369405525E+02  0.10136274650E+03 -0.70603743158E+02  0.15220460147E+03  0.88314331847E+02 0.  0.
          5    1    1    2  502    0 -0.63709978819E+01 -0.51718485304E+01 -0.34724930428E+03  0.34737139973E+03  0.41800000000E+01 0. -1.
         -5    1    1    2    0  502 -0.39984076433E+01 -0.96190897974E+02 -0.14437012872E+03  0.17357673399E+03  0.41800000000E+01 0.  1.
        -11    1    3    3    0    0  0.22546709982E+02  0.11351328318E+03 -0.52030672204E+02  0.12688896894E+03  0.00000000000E+00 0.  1.
         11    1    3    3    0    0 -0.12177304457E+02 -0.12150536676E+02 -0.18573070954E+02  0.25315632522E+02  0.00000000000E+00 0. -1.
</event>
<event>
 7    1  0.6684706E-006  0.1727057E+03  0.7561462E-02  0.1175055E+00
          1   -1    0    0  501    0  0.00000000000E+00  0.00000000000E+00  0.27251163325E+04  0.27251163325E+04  0.00000000000E+00 0. -1.
         -1   -1    0    0    0  501 -0.00000000000E+00 -0.00000000000E+00 -0.20024029072E+02  0.20024029072E+02  0.00000000000E+00 0.  1.
         23    2    1    2    0    0  0.77785233110E+02  0.38089042657E+02  0.24004283927E+03  0.27014847737E+03  0.88647151565E+02 0.  0.
          5    1    1    2  502    0  0.29452843553E+02 -0.95323205830E+02  0.10682888980E+04  0.10729457701E+04  0.41800000000E+01 0. -1.
         -5    1    1    2    0  502 -0.10723807666E+03  0.57234163173E+02  0.13967605662E+04  0.14020461141E+04  0.41800000000E+01 0.  1.
        -11    1    3    3    0    0  0.61839027870E+02 -0.18968505918E+02  0.12674379765E+03  0.14229497471E+03  0.00000000000E+00 0. -1.
         11    1    3    3    0    0  0.15946205239E+02  0.57057548575E+02  0.11329904161E+03  0.12785350266E+03  0.00000000000E+00 0.  1.
</event>
<event>
 7    1  0.6684706E-006  0.1143536E+03  0.7561462E-02  0.1252714E+00
         -1   -1    0    0    0  501 -0.00000000000E+00  0.00000000000E+00  0.11465073075E+02  0.11465073075E+02  0.00000000000E+00 0.  1.
          1   -1    0    0  501    0  0.00000000000E+00 -0.00000000000E+00 -0.16258919322E+04  0.16258919322E+04  0.00000000000E+00 0. -1.
         23    2    1    2    0    0  0.82664145159E+01 -0.21399600175E+02 -0.33108529380E+03  0.34441553690E+03  0.92077759477E+02 0.  0.
          5    1    1    2  502    0  0.42926005871E+01 -0.55790836995E+02 -0.23208879215E+03  0.23877546724E+03  0.41800000000E+01 0. -1.
         -5    1    1    2    0  502 -0.12559015103E+02  0.77190437171E+02 -0.10512527732E+04  0.10541660012E+04  0.41800000000E+01 0.  1.
        -11    1    3    3    0    0 -0.34847049212E+01 -0.56836854553E+02 -0.18039101312E+03  0.18916524210E+03  0.00000000000E+00 0. -1.
         11    1    3    3    0    0  0.11751119437E+02  0.35437254378E+02 -0.15069428068E+03  0.15525029480E+03  0.00000000000E+00 0.  1.
</event>
<event>
 7    1  0.6684706E-006  0.1208517E+03  0.7561462E-02  0.1241699E+00
          1   -1    0    0  501    0  0.00000000000E+00  0.00000000000E+00  0.23472237051E+03  0.23472237051E+03  0.00000000000E+00 0. -1.
         -1   -1    0    0    0  501 -0.00000000000E+00 -0.00000000000E+00 -0.82387592873E+02  0.82387592873E+02  0.00000000000E+00 0.  1.
         23    2    1    2    0    0  0.62761961630E+02  0.57781907309E+02  0.47659804233E+02  0.13303842716E+03  0.90277093014E+02 0.  0.
          5    1    1    2  502    0  0.83361251187E+01 -0.76166190614E+02  0.64606145122E+02  0.10031054761E+03  0.41800000000E+01 0. -1.
         -5    1    1    2    0  502 -0.71098086748E+02  0.18384283305E+02  0.40068828278E+02  0.83760988602E+02  0.41800000000E+01 0. -1.
        -11    1    3    3    0    0  0.33751429961E+02  0.94608251794E+01 -0.23545979773E+02  0.42226524851E+02  0.00000000000E+00 0.  1.
         11    1    3    3    0    0  0.29010531669E+02  0.48321082129E+02  0.71205784006E+02  0.90811902314E+02  0.00000000000E+00 0. -1.
</event>
<event>
 7    1  0.6684706E-006  0.1752200E+03  0.7561462E-02  0.1172511E+00
         -1   -1    0    0    0  501 -0.00000000000E+00  0.00000000000E+00  0.21200618210E+03  0.21200618210E+03  0.00000000000E+00 0.  1.
          1   -1    0    0  501    0  0.00000000000E+00 -0.00000000000E+00 -0.17629348455E+03  0.17629348455E+03  0.00000000000E+00 0. -1.
         23    2    1    2    0    0 -0.96927119484E+02 -0.11325523659E+03 -0.40382471030E+02  0.17935489316E+03  0.91191110468E+02 0.  0.
          5    1    1    2  502    0  0.35932216300E+02  0.11516918279E+03  0.84287289055E+02  0.14723071802E+03  0.41800000000E+01 0. -1.
         -5    1    1    2    0  502  0.60994903184E+02 -0.19139461941E+01 -0.81921204794E+01  0.61714055469E+02  0.41800000000E+01 0. -1.
        -11    1    3    3    0    0 -0.10572749239E+03 -0.75830663054E+02 -0.10259220698E+02  0.13051376830E+03  0.00000000000E+00 0.  1.
         11    1    3    3    0    0  0.88003729030E+01 -0.37424573538E+02 -0.30123250333E+02  0.48841124868E+02  0.00000000000E+00 0. -1.
</event>
<event>
 6    1  0.6684706E-006  0.1612001E+03  0.7561462E-02  0.1187348E+00
          2   -1    0    0  501    0  0.00000000000E+00  0.00000000000E+00  0.20803350438E+03  0.20803350438E+03  0.00000000000E+00 0. -1.
         -2   -1    0    0    0  501 -0.00000000000E+00 -0.00000000000E+00 -0.16162568020E+03  0.16162568020E+03  0.00000000000E+00 0.  1.
          5    1    1    2  502    0  0.93698316698E+01  0.70242326697E+02  0.61344645706E+02  0.93821192500E+02  0.41800000000E+01 0.  1.
         -5    1    1    2    0  502 -0.70176944113E+02  0.39963585461E+02 -0.30248680115E+02  0.86338558574E+02  0.41800000000E+01 0.  1.
        -11    1    1    2    0    0  0.93638645362E+02 -0.62300864967E+02  0.48642754452E+02  0.12253861123E+03  0.00000000000E+00 0.  1.
         11    1    1    2    0    0 -0.32831532919E+02 -0.47905047191E+02 -0.33330895865E+02  0.66960822272E+02  0.00000000000E+00 0. -1.
</event>
<event>
 7    1  0.6684706E-006  0.1547005E+03  0.7561462E-02  0.1194813E+00
         -1   -1    0    0    0  501 -0.00000000000E+00  0.00000000000E+00  0.30679958805E+02  0.30679958805E+02  0.00000000000E+00 0.  1.
          1   -1    0    0  501    0  0.00000000000E+00 -0.00000000000E+00 -0.13321614804E+04  0.13321614804E+04  0.00000000000E+00 0. -1.
         23    2    1    2    0    0  0.11361250183E+03 -0.42859405273E+02 -0.23311115179E+03  0.28034066112E+03  0.97495374251E+02 0.  0.
          5    1    1    2  502    0 -0.11449140318E+03  0.65353425900E+02 -0.63642038124E+03  0.64994440204E+03  0.41800000000E+01 0.  1.
         -5    1    1    2    0  502  0.87890135220E+00 -0.22494020626E+02 -0.43194998860E+03  0.43255637607E+03  0.41800000000E+01 0.  1.
        -11    1    3    3    0    0  0.63834810902E+02 -0.72560102101E+02 -0.12906834703E+03  0.16124047167E+03  0.00000000000E+00 0.  1.
         11    1    3    3    0    0  0.49777690929E+02  0.29700696828E+02 -0.10404280476E+03  0.11910018945E+03  0.00000000000E+00 0. -1.
</event>
<event>
 7    1  0.6684706E-006  0.1332371E+03  0.7561462E-02  0.1222730E+00
          1   -1    0    0  501    0  0.00000000000E+00  0.00000000000E+00  0.32145706646E+02  0.32145706646E+02  0.00000000000E+00 0. -1.
         -1   -1    0    0    0  501 -0.00000000000E+00 -0.00000000000E+00 -0.70113770801E+03  0.70113770801E+03  0.00000000000E+00 0.  1.
         23    2    1    2    0    0  0.50553657445E+02 -0.87334335084E+02 -0.25083732068E+03  0.28531229920E+03  0.91108661868E+02 0.  0.
          5    1    1    2  502    0 -0.88216536101E+02  0.62760701622E+02 -0.34851992804E+03  0.36497215723E+03  0.41800000000E+01 0. -1.
         -5    1    1    2    0  502  0.37662878656E+02  0.24573633462E+02 -0.69634752647E+02  0.82998958225E+02  0.41800000000E+01 0. -1.
        -11    1    3    3    0    0  0.35033141457E+01 -0.56727882197E+02 -0.20533595153E+03  0.21305675023E+03  0.00000000000E+00 0.  1.
         11    1    3    3    0    0  0.47050343300E+02 -0.30606452886E+02 -0.45501369142E+02  0.72255548968E+02  0.00000000000E+00 0. -1.
</event>
<event>
 7    1  0.6684706E-006  0.9830328E+02  0.7561462E-02  0.1283905E+00
          1   -1    0    0  501    0  0.00000000000E+00  0.00000000000E+00  0.29359466032E+03  0.29359466032E+03  0.00000000000E+00 0. -1.
         -1   -1    0    0    0  501 -0.00000000000E+00 -0.00000000000E+00 -0.79919451161E+02  0.79919451161E+02  0.00000000000E+00 0.  1.
         23    2    1    2    0    0 -0.62861374136E+01 -0.33890303757E+02 -0.25415988228E+02  0.10206331796E+03  0.92643835217E+02 0.  0.
          5    1    1    2  502    0 -0.41751266529E+02  0.59877100765E+02  0.14993147940E+03  0.16680934137E+03  0.41800000000E+01 0. -1.
         -5    1    1    2    0  502  0.48037403943E+02 -0.25986797009E+02  0.89159717994E+02  0.10464145215E+03  0.41800000000E+01 0.  1.
        -11    1    3    3    0    0  0.11659843555E+02 -0.45744725965E+02 -0.50427660614E+02  0.69075906511E+02  0.00000000000E+00 0.  1.
         11    1    3    3    0    0 -0.17945980969E+02  0.11854422208E+02  0.25011672386E+02  0.32987411453E+02  0.00000000000E+00 0. -1.
</event>
<event>
 7    1  0.6684706E-006  0.1036768E+03  0.7561462E-02  0.1272749E+00
         -2   -1    0    0    0  501 -0.00000000000E+00  0.00000000000E+00  0.42550280550E+02  0.42550280550E+02  0.00000000000E+00 0.  1.
          2   -1    0    0  501    0  0.00000000000E+00 -0.00000000000E+00 -0.33680408421E+03  0.33680408421E+03  0.00000000000E+00 0. -1.
         23    2    1    2    0    0 -0.14653033574E+02  0.22433191855E+02 -0.68448229766E+02  0.11982870910E+03  0.94635087973E+02 0.  0.
          5    1    1    2  502    0  0.67395156142E+02 -0.25464092967E+02 -0.10291949802E+03  0.12569973180E+03  0.41800000000E+01 0. -1.
         -5    1    1    2    0  502 -0.52742122567E+02  0.30309011123E+01 -0.12288607587E+03  0.13382592387E+03  0.41800000000E+01 0. -1.
        -11    1    3    3    0    0 -0.44074789710E+02  0.28044824718E+02 -0.72755773610E+02  0.89568420077E+02  0.00000000000E+00 0. -1.
         11    1    3    3    0    0  0.29421756136E+02 -0.56116328631E+01  0.43075438447E+01  0.30260289018E+02  0.00000000000E+00 0.  1.
</event>
<event>
 7    1  0.6684706E-006  0.1018969E+03  0.7561462E-02  0.1276357E+00
          2   -1    0    0  501    0  0.00000000000E+00  0.00000000000E+00  0.81979668565E+02  0.81979668565E+02  0.00000000000E+00 0.  1.
         -2   -1    0    0    0  501 -0.00000000000E+00 -0.00000000000E+00 -0.16987620215E+03  0.16987620215E+03  0.00000000000E+00 0. -1.
         23    2    1    2    0    0  0.24651021722E+01  0.44966603567E+02 -0.50265690173E+02  0.11368345685E+03  0.91483422475E+02 0.  0.
          5    1    1    2  502    0 -0.62297370842E+02 -0.24932179623E+02 -0.60882856728E+01  0.67506411673E+02  0.41800000000E+01 0. -1.
         -5    1    1    2    0  502  0.59832268669E+02 -0.20034423944E+02 -0.31542557735E+02  0.70666002189E+02  0.41800000000E+01 0. -1.
        -11    1    3    3    0    0  0.25509406371E+02  0.43257914775E+02 -0.68014962147E+02  0.84545916992E+02  0.00000000000E+00 0. -1.
         11    1    3    3    0    0 -0.23044304199E+02  0.17086887919E+01  0.17749271974E+02  0.29137539859E+02  0.00000000000E+00 0.  1.
</event>
<event>
 7    1  0.6684706E-006  0.1089988E+03  0.7561462E-02  0.1262435E+00
          2   -1    0    0  501    0  0.00000000000E+00  0.00000000000E+00  0.30004074522E+03  0.30004074522E+03  0.00000000000E+00 0.  1.
         -2   -1    0    0    0  501 -0.00000000000E+00 -0.00000000000E+00 -0.41959962298E+02  0.41959962298E+02  0.00000000000E+00 0. -1.
         23    2    1    2    0    0 -0.14103044707E+02 -0.23828155208E+02  0.10038091248E+03  0.13881002730E+03  0.91788993015E+02 0.  0.
          5    1    1    2  502    0  0.26881435529E+02  0.69439590526E+02  0.12473595903E+03  0.14533065810E+03  0.41800000000E+01 0. -1.
         -5    1    1    2    0  502 -0.12778390822E+02 -0.45611435318E+02  0.32963911410E+02  0.57860022116E+02  0.41800000000E+01 0. -1.
        -11    1    3    3    0    0  0.38805291954E+02 -0.17544990985E+02  0.43761247965E+02  0.61063280420E+02  0.00000000000E+00 0.  1.
         11    1    3    3    0    0 -0.52908336661E+02 -0.62831642234E+01  0.56619664519E+02  0.77746746884E+02  0.00000000000E+00 0. -1.
</event>
<event>
 7    1  0.6684706E-006  0.1848984E+03  0.7561462E-02  0.1163145E+00
         -1   -1    0    0    0  501 -0.00000000000E+00  0.00000000000E+00  0.15100095929E+04  0.15100095929E+04  0.00000000000E+00 0.  1.
          1   -1    0    0  501    0  0.00000000000E+00 -0.00000000000E+00 -0.26609635378E+02  0.26609635378E+02  0.00000000000E+00 0. -1.
         23    2    1    2    0    0  0.11822443131E+03  0.11930291844E+03  0.68649979487E+03  0.71266083075E+03  0.91614894095E+02 0.  0.
          5    1    1    2  502    0 -0.13180048260E+03 -0.11371714875E+03  0.55723265252E+03  0.58380532592E+03  0.41800000000E+01 0. -1.
         -5    1    1    2    0  502  0.13576051289E+02 -0.55857696914E+01  0.23966751013E+03  0.24015307161E+03  0.41800000000E+01 0. -1.
        -11    1    3    3    0    0  0.97187644136E+02  0.12525965756E+03  0.65748969329E+03  0.67633432322E+03  0.00000000000E+00 0.  1.
         11    1    3    3    0    0  0.21036787176E+02 -0.59567391145E+01  0.29010101583E+02  0.36326507532E+02  0.00000000000E+00 0. -1.
</event>
<event>
 7    1  0.6684706E-006  0.8971122E+02  0.7561462E-02  0.1303553E+00
          2   -1    0    0  501    0  0.00000000000E+00  0.00000000000E+00  0.76143073932E+03  0.76143073932E+03  0.00000000000E+00 0. -1.
         -2   -1    0    0    0  501 -0.00000000000E+00 -0.00000000000E+00 -0.25485942058E+02  0.25485942058E+02  0.00000000000E+00 0.  1.
         23    2    1    2    0    0  0.58365420582E+02  0.34636517435E+02  0.17136476796E+03  0.20467923344E+03  0.89002776607E+02 0.  0.
          5    1    1    2  502    0 -0.74457365463E+02 -0.18782943735E+02  0.16548078176E+03  0.18247755966E+03  0.41800000000E+01 0. -1.
         -5    1    1    2    0  502  0.16091944881E+02 -0.15853573700E+02  0.39909924754E+03  0.39975988828E+03  0.41800000000E+01 0. -1.
        -11    1    3    3    0    0  0.30594695629E+02 -0.51507840084E+01  0.14727539776E+03  0.15050783622E+03  0.00000000000E+00 0. -1.
         11    1    3    3    0    0  0.27770724953E+02  0.39787301444E+02  0.24089370197E+02  0.54171397223E+02  0.00000000000E+00 0.  1.
</event>
<event>
 7    1  0.6684706E-006  0.1610154E+03  0.7561462E-02  0.1187555E+00
          2   -1    0    0  501    0  0.00000000000E+00  0.00000000000E+00  0.11498712682E+04  0.11498712682E+04  0.00000000000E+00 0.  1.
         -2   -1    0    0    0  501 -0.00000000000E+00 -0.00000000000E+00 -0.36616463707E+02  0.36616463707E+02  0.00000000000E+00 0. -1.
         23    2    1    2    0    0  0.10318640211E+02 -0.13667958551E+03  0.22485031462E+03  0.27890975097E+03  0.91897778943E+02 0.  0.
          5    1    1    2  502    0 -0.64215383065E+02  0.49737605117E+02  0.45795792458E+03  0.46512404569E+03  0.41800000000E+01 0.  1.
         -5    1    1    2    0  502  0.53896742855E+02  0.86941980391E+02  0.43044656527E+03  0.44245393523E+03  0.41800000000E+01 0.  1.
        -11    1    3    3    0    0 -0.46115755431E+01 -0.61515364777E+02  0.28146966093E+02  0.67806035372E+02  0.00000000000E+00 0. -1.
         11    1    3    3    0    0  0.14930215754E+02 -0.75164220731E+02  0.19670334852E+03  0.21110371560E+03  0.00000000000E+00 0.  1.
</event>
<event>
 7    1  0.6684706E-006  0.8301574E+02  0.7561462E-02  0.1320705E+00
         -1   -1    0    0    0  501 -0.00000000000E+00  0.00000000000E+00  0.31078452215E+03  0.31078452215E+03  0.00000000000E+00 0.  1.
          1   -1    0    0  501    0  0.00000000000E+00 -0.00000000000E+00 -0.54970844056E+02  0.54970844056E+02  0.00000000000E+00 0. -1.
         23    2    1    2    0    0 -0.35728909974E+02  0.44069442253E+02  0.17797624948E+03  0.20787796924E+03  0.91208738439E+02 0.  0.
          5    1    1    2  502    0  0.31223398679E+02 -0.45343609161E+02 -0.20829611532E+02  0.59010919612E+02  0.41800000000E+01 0. -1.
         -5    1    1    2    0  502  0.45055112948E+01  0.12741669080E+01  0.98667040149E+02  0.98866477357E+02  0.41800000000E+01 0. -1.
        -11    1    3    3    0    0  0.12754665340E+02  0.53629456619E+02  0.11742851090E+03  0.12972376528E+03  0.00000000000E+00 0.  1.
         11    1    3    3    0    0 -0.48483575314E+02 -0.95600143658E+01  0.60547738575E+02  0.78154203959E+02  0.00000000000E+00 0. -1.
</event>
<event>
 7    1  0.6684706E-006  0.8925090E+02  0.7561462E-02  0.1304676E+00
         -1   -1    0    0    0  501 -0.00000000000E+00  0.00000000000E+00  0.99328516985E+02  0.99328516985E+02  0.00000000000E+00 0.  1.
          1   -1    0    0  501    0  0.00000000000E+00 -0.00000000000E+00 -0.71722329318E+03  0.71722329318E+03  0.00000000000E+00 0. -1.
         23    2    1    2    0    0 -0.31958568920E+02  0.24509828896E+02  0.67666047284E+02  0.12036226951E+03  0.91029116918E+02 0.  0.
          5    1    1    2  502    0  0.51046011716E+02 -0.50556652270E+02 -0.60548156384E+03  0.60974344355E+03  0.41800000000E+01 0. -1.
         -5    1    1    2    0  502 -0.19087442796E+02  0.26046823374E+02 -0.80079259638E+02  0.86446097104E+02  0.41800000000E+01 0.  1.
        -11    1    3    3    0    0 -0.12813512837E+02  0.44492225912E+02  0.78095117082E+02  0.90788719508E+02  0.00000000000E+00 0.  1.
         11    1    3    3    0    0 -0.19145056083E+02 -0.19982397016E+02 -0.10429069798E+02  0.29573550003E+02  0.00000000000E+00 0. -1.
</event>
<event>
 7    1  0.6684706E-006  0.1391885E+03  0.7561462E-02  0.1214425E+00
         -2   -1    0    0    0  501 -0.00000000000E+00  0.00000000000E+00  0.16438844013E+02  0.16438844013E+02  0.00000000000E+00 0. -1.
          2   -1    0    0  501    0  0.00000000000E+00 -0.00000000000E+00 -0.14768052185E+04  0.14768052185E+04  0.00000000000E+00 0.  1.
         23    2    1    2    0    0  0.58482342389E+02 -0.88231014126E+02 -0.49976878400E+03  0.51877047023E+03  0.90272183403E+02 0.  0.
          5    1    1    2  502    0  0.17446737533E+02 -0.96974312731E+01 -0.34223049719E+02  0.39838654043E+02  0.41800000000E+01 0.  1.
         -5    1    1    2    0  502 -0.75929079923E+02  0.97928445399E+02 -0.92637454075E+03  0.93463493823E+03  0.41800000000E+01 0.  1.
        -11    1    3    3    0    0 -0.13505871026E+02 -0.51378239431E+02 -0.27020948177E+03  0.27538209107E+03  0.00000000000E+00 0.  1.
         11    1    3    3    0    0  0.71988213415E+02 -0.36852774695E+02 -0.22955930223E+03  0.24338837916E+03  0.00000000000E+00 0. -1.
</event>
<event>
 7    1  0.6684706E-006  0.7271977E+02  0.7561462E-02  0.1351081E+00
          1   -1    0    0  501    0  0.00000000000E+00  0.00000000000E+00  0.28238235572E+03  0.28238235572E+03  0.00000000000E+00 0. -1.
         -1   -1    0    0    0  501 -0.00000000000E+00 -0.00000000000E+00 -0.10060602923E+03  0.10060602923E+03  0.00000000000E+00 0.  1.
         23    2    1    2    0    0 -0.68372220373E+02  0.19950674271E+01 -0.39346251121E+02  0.11989430065E+03  0.90265026657E+02 0.  0.
          5    1    1    2  502    0  0.70797748055E+02 -0.53736980659E+01  0.23632092828E+03  0.24679191904E+03  0.41800000000E+01 0. -1.
         -5    1    1    2    0  502 -0.24255276825E+01  0.33786306388E+01 -0.15198350661E+02  0.16302165266E+02  0.41800000000E+01 0. -1.
        -11    1    3    3    0    0 -0.41512197463E+02  0.46115871753E+00 -0.68578896921E+02  0.80165705314E+02  0.00000000000E+00 0.  1.
         11    1    3    3    0    0 -0.26860022910E+02  0.15339087096E+01  0.29232645799E+02  0.39728595333E+02  0.00000000000E+00 0. -1.
</event>
<event>
 7    1  0.6684706E-006  0.1092086E+03  0.7561462E-02  0.1262043E+00
         -2   -1    0    0    0  501 -0.00000000000E+00  0.00000000000E+00  0.23223582421E+02  0.23223582421E+02  0.00000000000E+00 0.  1.
          2   -1    0    0  501    0  0.00000000000E+00 -0.00000000000E+00 -0.58496120618E+03  0.58496120618E+03  0.00000000000E+00 0. -1.
         23    2    1    2    0    0 -0.98151172927E+01 -0.22795978140E+02 -0.15836066994E+03  0.18512988070E+03  0.92622771482E+02 0.  0.
          5    1    1    2  502    0 -0.54163720914E+02  0.21802011622E+02 -0.25100401615E+03  0.25773925758E+03  0.41800000000E+01 0.  1.
         -5    1    1    2    0  502  0.63978838207E+02  0.99396651778E+00 -0.15237293767E+03  0.16531565032E+03  0.41800000000E+01 0.  1.
        -11    1    3    3    0    0 -0.51409216233E+02 -0.12330266378E+02 -0.82566642145E+02  0.98041794036E+02  0.00000000000E+00 0.  1.
         11    1    3    3    0    0  0.41594098940E+02 -0.10465711761E+02 -0.75794027797E+02  0.87088086665E+02  0.00000000000E+00 0. -1.
</event>
<event>
 7    1  0.6684706E-006  0.1481338E+03  0.7561462E-02  0.1202785E+00
         -2   -1    0    0    0  501 -0.00000000000E+00  0.00000000000E+00  0.68761592101E+02  0.68761592101E+02  0.00000000000E+00 0.  1.
          2   -1    0    0  501    0  0.00000000000E+00 -0.00000000000E+00 -0.41471650276E+03  0.41471650276E+03  0.00000000000E+00 0. -1.
         23    2    1    2    0    0 -0.10377187213E+02  0.12624278146E+03 -0.19750629947E+03  0.25168192849E+03  0.91050145056E+02 0.  0.
          5    1    1    2  502    0 -0.13803204000E+01 -0.14397804348E+03 -0.90977783957E+02  0.17037022000E+03  0.41800000000E+01 0.  1.
         -5    1    1    2    0  502  0.11757507613E+02  0.17735262023E+02 -0.57470827234E+02  0.61425946369E+02  0.41800000000E+01 0.  1.
        -11    1    3    3    0    0  0.11026362060E+02  0.30528959869E+02 -0.14846412287E+01  0.32493110201E+02  0.00000000000E+00 0.  1.
         11    1    3    3    0    0 -0.21403549273E+02  0.95713821591E+02 -0.19602165824E+03  0.21918881829E+03  0.00000000000E+00 0. -1.
</event>
<event>
 7    1  0.6684706E-006  0.1101973E+03  0.7561462E-02  0.1260205E+00
          2   -1    0    0  501    0  0.00000000000E+00  0.00000000000E+00  0.12791826395E+04  0.12791826395E+04  0.00000000000E+00 0. -1.
         -2   -1    0    0    0  501 -0.00000000000E+00 -0.00000000000E+00 -0.12167253969E+02  0.12167253969E+02  0.00000000000E+00 0.  1.
         23    2    1    2    0    0  0.25879540720E+02  0.50161144578E+02  0.47009546983E+03  0.48270407046E+03  0.93955190535E+02 0.  0.
          5    1    1    2  502    0  0.15755519314E+02 -0.65330176585E+02  0.68344843798E+03  0.68675724105E+03  0.41800000000E+01 0. -1.
         -5    1    1    2    0  502 -0.41635060034E+02  0.15169032007E+02  0.11347147775E+03  0.12188858199E+03  0.41800000000E+01 0. -1.
        -11    1    3    3    0    0  0.48591549208E+02 -0.50492173903E+01  0.17879487645E+03  0.18534897112E+03  0.00000000000E+00 0.  1.
         11    1    3    3    0    0 -0.22712008488E+02  0.55210361969E+02  0.29130059339E+03  0.29735509934E+03  0.00000000000E+00 0. -1.
</event>
<event>
 7    1  0.6684706E-006  0.1020435E+03  0.7561462E-02  0.1276056E+00
         -3   -1    0    0    0  501 -0.00000000000E+00  0.00000000000E+00  0.66382286130E+02  0.66382286130E+02  0.00000000000E+00 0.  1.
          3   -1    0    0  501    0  0.00000000000E+00 -0.00000000000E+00 -0.22904817996E+03  0.22904817996E+03  0.00000000000E+00 0. -1.
         23    2    1    2    0    0 -0.55620327700E+01  0.61859438468E+02 -0.10585054734E+03  0.15557266220E+03  0.95608516958E+02 0.  0.
          5    1    1    2  502    0 -0.31348360653E+02 -0.24410261923E+02  0.21551317862E+02  0.45392866228E+02  0.41800000000E+01 0.  1.
         -5    1    1    2    0  502  0.36910393423E+02 -0.37449176545E+02 -0.78366664352E+02  0.94464937666E+02  0.41800000000E+01 0. -1.
        -11    1    3    3    0    0 -0.47747826542E+02  0.19409011450E+02 -0.32616236614E+02  0.60994946969E+02  0.00000000000E+00 0.  1.
         11    1    3    3    0    0  0.42185793772E+02  0.42450427018E+02 -0.73234310725E+02  0.94577715227E+02  0.00000000000E+00 0. -1.
</event>
<event>
 7    1  0.6684706E-006  0.1453195E+03  0.7561462E-02  0.1206345E+00
         -3   -1    0    0    0  501 -0.00000000000E+00  0.00000000000E+00  0.47109921826E+03  0.47109921826E+03  0.00000000000E+00 0.  1.
          3   -1    0    0  501    0  0.00000000000E+00 -0.00000000000E+00 -0.80238678712E+02  0.80238678712E+02  0.00000000000E+00 0. -1.
         23    2    1    2    0    0 -0.39754721026E+02  0.10309885018E+03  0.35221512473E+03  0.38001732098E+03  0.90265493958E+02 0.  0.
          5    1    1    2  502    0  0.61555740144E+02 -0.24128496184E+02 -0.21448165380E+02  0.69633251187E+02  0.41800000000E+01 0. -1.
         -5    1    1    2    0  502 -0.21801019117E+02 -0.78970354001E+02  0.60093580195E+02  0.10168732481E+03  0.41800000000E+01 0. -1.
        -11    1    3    3    0    0  0.26358002047E+02  0.10035236224E+02  0.60104036402E+02  0.66392359724E+02  0.00000000000E+00 0. -1.
         11    1    3    3    0    0 -0.66112723073E+02  0.93063613960E+02  0.29211108833E+03  0.31362496125E+03  0.00000000000E+00 0.  1.
</event>
<event>
 7    1  0.6684706E-006  0.1820758E+03  0.7561462E-02  0.1165809E+00
          1   -1    0    0  501    0  0.00000000000E+00  0.00000000000E+00  0.37099647031E+04  0.37099647031E+04  0.00000000000E+00 0. -1.
         -1   -1    0    0    0  501 -0.00000000000E+00 -0.00000000000E+00 -0.22124321460E+02  0.22124321460E+02  0.00000000000E+00 0.  1.
         23    2    1    2    0    0 -0.14159720061E+03 -0.10964321307E+03  0.53592574499E+03  0.57261348252E+03  0.92727530011E+02 0.  0.
          5    1    1    2  502    0  0.14294987810E+02  0.27267555885E+02  0.15694514044E+04  0.15697589144E+04  0.41800000000E+01 0. -1.
         -5    1    1    2    0  502  0.12730221280E+03  0.82375657181E+02  0.15824632323E+04  0.15897166276E+04  0.41800000000E+01 0. -1.
        -11    1    3    3    0    0 -0.10330211251E+03 -0.62813275488E+02  0.22079214038E+03  0.25172604808E+03  0.00000000000E+00 0.  1.
         11    1    3    3    0    0 -0.38295088099E+02 -0.46829937578E+02  0.31513360461E+03  0.32088743444E+03  0.00000000000E+00 0. -1.
</event>
<event>
 7    1  0.6684706E-006  0.1008710E+03  0.7561462E-02  0.1278475E+00
          2   -1    0    0  501    0  0.00000000000E+00  0.00000000000E+00  0.66069632253E+03  0.66069632253E+03  0.00000000000E+00 0.  1.
         -2   -1    0    0    0  501 -0.00000000000E+00 -0.00000000000E+00 -0.18909955064E+02  0.18909955064E+02  0.00000000000E+00 0. -1.
         23    2    1    2    0    0  0.27833237769E+02 -0.14908580696E+02  0.26451763454E+03  0.28088815291E+03  0.89059646056E+02 0.  0.
          5    1    1    2  502    0  0.47291711295E+02 -0.75356929736E+01  0.18234316319E+03  0.18857304735E+03  0.41800000000E+01 0. -1.
         -5    1    1    2    0  502 -0.75124949064E+02  0.22444273669E+02  0.19492556973E+03  0.21014507733E+03  0.41800000000E+01 0. -1.
        -11    1    3    3    0    0 -0.21411385538E+02 -0.14587727895E+02  0.23786688884E+02  0.35171804103E+02  0.00000000000E+00 0. -1.
         11    1    3    3    0    0  0.49244623307E+02 -0.32085280126E+00  0.24073094566E+03  0.24571634880E+03  0.00000000000E+00 0.  1.
</event>
<event>
 7    1  0.6684706E-006  0.1423844E+03  0.7561462E-02  0.1210156E+00
         -1   -1    0    0    0  501 -0.00000000000E+00  0.00000000000E+00  0.20676599997E+02  0.20676599997E+02  0.00000000000E+00 0.  1.
          1   -1    0    0  501    0  0.00000000000E+00 -0.00000000000E+00 -0.11028778567E+04  0.11028778567E+04  0.00000000000E+00 0. -1.
         23    2    1    2    0    0  0.85193404670E+02 -0.45875521625E+02 -0.31140240318E+03  0.33669977652E+03  0.83861809650E+02 0.  0.
          5    1    1    2  502    0  0.19042691050E+02  0.50053792204E+02 -0.25547015018E+03  0.26105646176E+03  0.41800000000E+01 0. -1.
         -5    1    1    2    0  502 -0.10423609572E+03 -0.41782705785E+01 -0.51532870330E+03  0.52579821837E+03  0.41800000000E+01 0. -1.
        -11    1    3    3    0    0  0.32923483400E+01  0.20787611314E+02 -0.72616637210E+02  0.75605160812E+02  0.00000000000E+00 0.  1.
         11    1    3    3    0    0  0.81901056330E+02 -0.66663132939E+02 -0.23878576597E+03  0.26109461571E+03  0.00000000000E+00 0. -1.
</event>
<event>
 7    1  0.6684706E-006  0.1260632E+03  0.7561462E-02  0.1233417E+00
          2   -1    0    0  501    0  0.00000000000E+00  0.00000000000E+00  0.37509729461E+03  0.37509729461E+03  0.00000000000E+00 0.  1.
         -2   -1    0    0    0  501 -0.00000000000E+00 -0.00000000000E+00 -0.75456696776E+02  0.75456696776E+02  0.00000000000E+00 0. -1.
         23    2    1    2    0    0  0.80082105647E+02 -0.64789249355E+02  0.38064236393E+02  0.14285278380E+03  0.91363238062E+02 0.  0.
          5    1    1    2  502    0  0.69081878404E+01 -0.64096831677E+01  0.14619711696E+03  0.14656014637E+03  0.41800000000E+01 0.  1.
         -5    1    1    2    0  502 -0.86990293488E+02  0.71198932523E+02  0.11537924449E+03  0.16114106122E+03  0.41800000000E+01 0.  1.
        -11    1    3    3    0    0 -0.15749177966E+02 -0.12844708915E+02 -0.11231762205E+02  0.23220155812E+02  0.00000000000E+00 0. -1.
         11    1    3    3    0    0  0.95831283614E+02 -0.51944540440E+02  0.49295998598E+02  0.11963262798E+03  0.00000000000E+00 0.  1.
</event>
<event>
 7    1  0.6684706E-006  0.1688994E+03  0.7561462E-02  0.1179000E+00
          2   -1    0    0  501    0  0.00000000000E+00  0.00000000000E+00  0.13562884599E+04  0.13562884599E+04  0.00000000000E+00 0.  1.
         -2   -1    0    0    0  501 -0.00000000000E+00 -0.00000000000E+00 -0.25875242738E+02  0.25875242738E+02  0.00000000000E+00 0. -1.
         23    2    1    2    0    0 -0.12380064685E+03  0.88023903026E+02  0.60585469517E+03  0.63135906218E+03  0.92084450714E+02 0.  0.
          5    1    1    2  502    0  0.95735992807E+02 -0.10975281834E+03  0.42842520196E+03  0.45252258234E+03  0.41800000000E+01 0.  1.
         -5    1    1    2    0  502  0.28064654039E+02  0.21728915317E+02  0.29613332004E+03  0.29828205814E+03  0.41800000000E+01 0.  1.
        -11    1    3    3    0    0 -0.89614633590E+02  0.41841380501E+02  0.51080688521E+03  0.52029333809E+03  0.00000000000E+00 0. -1.
         11    1    3    3    0    0 -0.34186013256E+02  0.46182522525E+02  0.95047809961E+02  0.11106572409E+03  0.00000000000E+00 0.  1.
</event>
<event>
 7    1  0.6684706E-006  0.1995874E+03  0.7561462E-02  0.1150088E+00
          1   -1    0    0  501    0  0.00000000000E+00  0.00000000000E+00  0.13472296780E+03  0.13472296780E+03  0.00000000000E+00 0. -1.
         -1   -1    0    0    0  501 -0.00000000000E+00 -0.00000000000E+00 -0.42333783661E+03  0.42333783661E+03  0.00000000000E+00 0.  1.
         23    2    1    2    0    0  0.66516883460E+02 -0.16673271283E+03 -0.27253888346E+03  0.33867603830E+03  0.90552319736E+02 0.  0.
          5    1    1    2  502    0 -0.21306816877E+02  0.17070287380E+03 -0.21787798812E+02  0.17345210332E+03  0.41800000000E+01 0.  1.
         -5    1    1    2    0  502 -0.45210066582E+02 -0.39701609754E+01  0.57118134592E+01  0.45932662796E+02  0.41800000000E+01 0.  1.
        -11    1    3    3    0    0  0.18266121733E+02 -0.82025181274E+02 -0.55386239599E+02  0.10064500536E+03  0.00000000000E+00 0. -1.
         11    1    3    3    0    0  0.48250761727E+02 -0.84707531551E+02 -0.21715264386E+03  0.23803103294E+03  0.00000000000E+00 0.  1.
</event>
<event>
 7    1  0.6684706E-006  0.3018721E+03  0.7561462E-02  0.1084309E+00
         -2   -1    0    0    0  501 -0.00000000000E+00  0.00000000000E+00  0.26710256368E+02  0.26710256368E+02  0.00000000000E+00 0.  1.
          2   -1    0    0  501    0  0.00000000000E+00 -0.00000000000E+00 -0.37386419644E+04  0.37386419644E+04  0.00000000000E+00 0. -1.
         23    2    1    2    0    0 -0.18970571053E+03 -0.21813477203E+03 -0.13609084247E+04  0.13933221663E+04  0.75524057265E+02 0.  0.
          5    1    1    2  502    0  0.20443291016E+03  0.17590168025E+03 -0.19750574142E+04  0.19933899463E+04  0.41800000000E+01 0.  1.
         -5    1    1    2    0  502 -0.14727199636E+02  0.42233091778E+02 -0.37596586910E+03  0.37864010825E+03  0.41800000000E+01 0.  1.
        -11    1    3    3    0    0 -0.11780005942E+03 -0.13724965150E+03 -0.10112479777E+04  0.10272958645E+04  0.00000000000E+00 0. -1.
         11    1    3    3    0    0 -0.71905651107E+02 -0.80885120526E+02 -0.34966044698E+03  0.36602630174E+03  0.00000000000E+00 0.  1.
</event>
<event>
 7    1  0.6684706E-006  0.1023290E+03  0.7561462E-02  0.1275473E+00
         -1   -1    0    0    0  501 -0.00000000000E+00  0.00000000000E+00  0.33309740228E+03  0.33309740228E+03  0.00000000000E+00 0.  1.
          1   -1    0    0  501    0  0.00000000000E+00 -0.00000000000E+00 -0.34084619973E+02  0.34084619973E+02  0.00000000000E+00 0. -1.
         23    2    1    2    0    0  0.26269631007E+02 -0.34261998487E+02  0.15748836184E+03  0.18237962433E+03  0.81214316487E+02 0.  0.
          5    1    1    2  502    0 -0.43672365950E+01 -0.38785214522E+02  0.69523049960E+02  0.79839166433E+02  0.41800000000E+01 0. -1.
         -5    1    1    2    0  502 -0.21902394412E+02  0.73047213009E+02  0.72001370503E+02  0.10496323148E+03  0.41800000000E+01 0.  1.
        -11    1    3    3    0    0  0.53518902387E+02 -0.30280562710E+02  0.12816165812E+03  0.14214990680E+03  0.00000000000E+00 0. -1.
         11    1    3    3    0    0 -0.27249271380E+02 -0.39814357770E+01  0.29326703717E+02  0.40229717529E+02  0.00000000000E+00 0.  1.
</event>
<event>
 7    1  0.6684706E-006  0.1257058E+03  0.7561462E-02  0.1233970E+00
          1   -1    0    0  501    0  0.00000000000E+00  0.00000000000E+00  0.75048142422E+03  0.75048142422E+03  0.00000000000E+00 0. -1.
         -1   -1    0    0    0  501 -0.00000000000E+00 -0.00000000000E+00 -0.38245369288E+02  0.38245369288E+02  0.00000000000E+00 0.  1.
         23    2    1    2    0    0 -0.11500389452E+03  0.32296025132E+02  0.21908849500E+03  0.26612632457E+03  0.92490664347E+02 0.  0.
          5    1    1    2  502    0  0.11989069880E+03 -0.30288582823E+02  0.49873179530E+03  0.51385022521E+03  0.41800000000E+01 0. -1.
         -5    1    1    2    0  502 -0.48868042822E+01 -0.20074423091E+01 -0.55842353666E+01  0.87502437307E+01  0.41800000000E+01 0. -1.
        -11    1    3    3    0    0 -0.42759421896E+02  0.21630613448E+02  0.16342492531E+02  0.50629326098E+02  0.00000000000E+00 0.  1.
         11    1    3    3    0    0 -0.72244472623E+02  0.10665411684E+02  0.20274600247E+03  0.21549699847E+03  0.00000000000E+00 0. -1.
</event>
<event>
 7    1  0.6684706E-006  0.8195746E+02  0.7561462E-02  0.1323586E+00
          2   -1    0    0  501    0  0.00000000000E+00  0.00000000000E+00  0.11473692976E+04  0.11473692976E+04  0.00000000000E+00 0.  1.
         -2   -1    0    0    0  501 -0.00000000000E+00 -0.00000000000E+00 -0.11027942177E+02  0.11027942177E+02  0.00000000000E+00 0. -1.
         23    2    1    2    0    0 -0.11073354957E+02 -0.20179673182E+01  0.35476929710E+03  0.36679904216E+03  0.92485630161E+02 0.  0.
          5    1    1    2  502    0 -0.15836988849E+02 -0.26728545028E+02  0.50393266097E+02  0.59347948600E+02  0.41800000000E+01 0.  1.
         -5    1    1    2    0  502  0.26910343806E+02  0.28746512346E+02  0.73117879226E+03  0.73225024904E+03  0.41800000000E+01 0.  1.
        -11    1    3    3    0    0 -0.42771020030E+02  0.26513048597E+02  0.20390954597E+03  0.21002715262E+03  0.00000000000E+00 0. -1.
         11    1    3    3    0    0  0.31697665073E+02 -0.28531015915E+02  0.15085975113E+03  0.15677188955E+03  0.00000000000E+00 0.  1.
</event>
<event>
 7    1  0.6684706E-006  0.5823843E+02  0.7561462E-02  0.1405376E+00
          2   -1    0    0  501    0  0.00000000000E+00  0.00000000000E+00  0.34367170132E+03  0.34367170132E+03  0.00000000000E+00 0. -1.
         -2   -1    0    0    0  501 -0.00000000000E+00 -0.00000000000E+00 -0.27992726992E+02  0.27992726992E+02  0.00000000000E+00 0.  1.
         23    2    1    2    0    0 -0.57224633767E+01 -0.27009504728E+02  0.70297777416E+02  0.94862786101E+02  0.57401313089E+02 0.  0.
          5    1    1    2  502    0  0.25882564449E+02  0.16003138535E+02  0.25093178028E+03  0.25280474350E+03  0.41800000000E+01 0.  1.
         -5    1    1    2    0  502 -0.20160101072E+02  0.11006366193E+02 -0.55505833618E+01  0.23996898709E+02  0.41800000000E+01 0.  1.
        -11    1    3    3    0    0 -0.15840018778E+02  0.13406237066E+02  0.14900563011E+02  0.25547214431E+02  0.00000000000E+00 0.  1.
         11    1    3    3    0    0  0.10117555401E+02 -0.40415741794E+02  0.55397214405E+02  0.69315571669E+02  0.00000000000E+00 0. -1.
</event>
<event>
 7    1  0.6684706E-006  0.2914286E+03  0.7561462E-02  0.1089606E+00
         -1   -1    0    0    0  501 -0.00000000000E+00  0.00000000000E+00  0.39859502205E+03  0.39859502205E+03  0.00000000000E+00 0.  1.
          1   -1    0    0  501    0  0.00000000000E+00 -0.00000000000E+00 -0.25308052249E+03  0.25308052249E+03  0.00000000000E+00 0. -1.
         23    2    1    2    0    0  0.25337052018E+03 -0.97243576517E+02  0.19766723389E+03  0.34832587774E+03  0.92766632344E+02 0.  0.
          5    1    1    2  502    0 -0.19117781459E+03  0.13303693661E+02 -0.52689552873E+02  0.19879538838E+03  0.41800000000E+01 0.  1.
         -5    1    1    2    0  502 -0.62192705589E+02  0.83939882856E+02  0.53681854747E+00  0.10455427842E+03  0.41800000000E+01 0.  1.
        -11    1    3    3    0    0  0.10505474413E+03 -0.89651977145E+02  0.10157029752E+03  0.17143658188E+03  0.00000000000E+00 0.  1.
         11    1    3    3    0    0  0.14831577606E+03 -0.75915993723E+01  0.96096936372E+02  0.17688929586E+03  0.00000000000E+00 0. -1.
</event>
<event>
 7    1  0.6684706E-006  0.1055133E+03  0.7561462E-02  0.1269112E+00
          2   -1    0    0  501    0  0.00000000000E+00  0.00000000000E+00  0.49115415086E+03  0.49115415086E+03  0.00000000000E+00 0. -1.
         -2   -1    0    0    0  501 -0.00000000000E+00 -0.00000000000E+00 -0.34147125037E+02  0.34147125037E+02  0.00000000000E+00 0.  1.
         23    2    1    2    0    0 -0.25223203420E+02  0.66356441019E+02  0.21823810477E+03  0.24964272002E+03  0.98255941465E+02 0.  0.
          5    1    1    2  502    0  0.41499586416E+02 -0.57718255018E+02  0.24548545872E+03  0.25560554665E+03  0.41800000000E+01 0. -1.
         -5    1    1    2    0  502 -0.16276382995E+02 -0.86381860008E+01 -0.67165376627E+01  0.20053009225E+02  0.41800000000E+01 0.  1.
        -11    1    3    3    0    0 -0.63133712843E+02  0.39752721261E+02  0.14301508224E+03  0.16130548128E+03  0.00000000000E+00 0.  1.
         11    1    3    3    0    0  0.37910509423E+02  0.26603719757E+02  0.75223022533E+02  0.88337238742E+02  0.00000000000E+00 0. -1.
</event>
<event>
 7    1  0.6684706E-006  0.1069925E+03  0.7561462E-02  0.1266243E+00
         -2   -1    0    0    0  501 -0.00000000000E+00  0.00000000000E+00  0.10378096634E+02  0.10378096634E+02  0.00000000000E+00 0. -1.
          2   -1    0    0  501    0  0.00000000000E+00 -0.00000000000E+00 -0.14065982539E+04  0.14065982539E+04  0.00000000000E+00 0.  1.
         23    2    1    2    0    0  0.38026594165E+02 -0.16336778364E+02 -0.41891723773E+03  0.43083270328E+03  0.91718340356E+02 0.  0.
          5    1    1    2  502    0  0.37109879025E+02  0.64783400082E+01 -0.12901409974E+03  0.13446643575E+03  0.41800000000E+01 0. -1.
         -5    1    1    2    0  502 -0.75136473190E+02  0.98584383553E+01 -0.84828881983E+03  0.85167721154E+03  0.41800000000E+01 0. -1.
        -11    1    3    3    0    0  0.19823226462E+02 -0.54451949496E+02 -0.26182293910E+03  0.26815895762E+03  0.00000000000E+00 0. -1.
         11    1    3    3    0    0  0.18203367703E+02  0.38115171133E+02 -0.15709429863E+03  0.16267374566E+03  0.00000000000E+00 0.  1.
</event>
<event>
 7    1  0.6684706E-006  0.1120988E+03  0.7561462E-02  0.1256732E+00
         -1   -1    0    0    0  501 -0.00000000000E+00  0.00000000000E+00  0.13577393041E+02  0.13577393041E+02  0.00000000000E+00 0.  1.
          1   -1    0    0  501    0  0.00000000000E+00 -0.00000000000E+00 -0.13612213751E+04  0.13612213751E+04  0.00000000000E+00 0. -1.
         23    2    1    2    0    0  0.71616462671E+02 -0.77085428464E+01 -0.37804010678E+03  0.39451250523E+03  0.86818518104E+02 0.  0.
          5    1    1    2  502    0 -0.18646980155E+02  0.48416901770E+02 -0.16766883402E+03  0.17556257160E+03  0.41800000000E+01 0. -1.
         -5    1    1    2    0  502 -0.52969482516E+02 -0.40708358923E+02 -0.80193504122E+03  0.80472369128E+03  0.41800000000E+01 0. -1.
        -11    1    3    3    0    0 -0.10266825945E+02  0.16842852734E+02 -0.28428890644E+02  0.34601896285E+02  0.00000000000E+00 0.  1.
         11    1    3    3    0    0  0.81883288616E+02 -0.24551395581E+02 -0.34961121614E+03  0.35991060894E+03  0.00000000000E+00 0. -1.
</event>
<event>
 7    1  0.6684706E-006  0.1442877E+03  0.7561462E-02  0.1207673E+00
          1   -1    0    0  501    0  0.00000000000E+00  0.00000000000E+00  0.33866170820E+03  0.33866170820E+03  0.00000000000E+00 0. -1.
         -1   -1    0    0    0  501 -0.00000000000E+00 -0.00000000000E+00 -0.67401363535E+02  0.67401363535E+02  0.00000000000E+00 0.  1.
         23    2    1    2    0    0  0.92382391655E+02  0.51113964466E+02  0.12523401027E+03  0.18670715094E+03  0.89603901891E+02 0.  0.
          5    1    1    2  502    0 -0.18008149473E+02 -0.81069462467E+02  0.68265339072E+02  0.10758336354E+03  0.41800000000E+01 0.  1.
         -5    1    1    2    0  502 -0.74374242182E+02  0.29955498001E+02  0.77760995321E+02  0.11177255725E+03  0.41800000000E+01 0.  1.
        -11    1    3    3    0    0  0.25744913384E+02  0.52512218259E+02  0.19369015530E+02  0.61607567670E+02  0.00000000000E+00 0.  1.
         11    1    3    3    0    0  0.66637478271E+02 -0.13982537930E+01  0.10586499474E+03  0.12509958327E+03  0.00000000000E+00 0. -1.
</event>
<event>
 7    1  0.7951149E-006  0.2947314E+03  0.7561462E-02  0.1087904E+00
         -2   -1    0    0    0  501 -0.00000000000E+00  0.00000000000E+00  0.71799524297E+02  0.71799524297E+02  0.00000000000E+00 0.  1.
          2   -1    0    0  501    0  0.00000000000E+00 -0.00000000000E+00 -0.13336817388E+04  0.13336817388E+04  0.00000000000E+00 0. -1.
         23    2    1    2    0    0  0.74852122897E+02  0.26685915716E+03 -0.42680326209E+03  0.51676242644E+03  0.89809413684E+02 0.  0.
          5    1    1    2  502    0  0.77931210594E+01  0.91020988748E+01 -0.71076628437E+02  0.72200695632E+02  0.41800000000E+01 0. -1.
         -5    1    1    2    0  502 -0.82645243956E+02 -0.27596125603E+03 -0.76400232393E+03  0.81651814099E+03  0.41800000000E+01 0. -1.
        -11    1    3    3    0    0  0.52817134395E+02  0.26040886262E+03 -0.37026057858E+03  0.45573602169E+03  0.00000000000E+00 0.  1.
         11    1    3    3    0    0  0.22034988502E+02  0.64502945424E+01 -0.56542683519E+02  0.61026404757E+02  0.00000000000E+00 0. -1.
</event>
<event>
 7    1  0.6684706E-006  0.9477904E+02  0.7561462E-02  0.1291675E+00
         -1   -1    0    0    0  501 -0.00000000000E+00  0.00000000000E+00  0.13916654512E+03  0.13916654512E+03  0.00000000000E+00 0.  1.
          1   -1    0    0  501    0  0.00000000000E+00 -0.00000000000E+00 -0.11478857005E+03  0.11478857005E+03  0.00000000000E+00 0. -1.
         23    2    1    2    0    0  0.23323654838E+02 -0.23236819967E+02  0.68264720994E+02  0.11736470774E+03  0.89612832865E+02 0.  0.
          5    1    1    2  502    0  0.27780967539E+01  0.72604801197E+02 -0.31128346500E+02  0.79155677840E+02  0.41800000000E+01 0.  1.
         -5    1    1    2    0  502 -0.26101751592E+02 -0.49367981230E+02 -0.12758399428E+02  0.57434729588E+02  0.41800000000E+01 0.  1.
        -11    1    3    3    0    0  0.31278187420E+01 -0.36490206349E+02  0.81835887598E+02  0.89657297017E+02  0.00000000000E+00 0.  1.
         11    1    3    3    0    0  0.20195836096E+02  0.13253386382E+02 -0.13571166604E+02  0.27707410726E+02  0.00000000000E+00 0. -1.
</event>
<event>
 7    1  0.6684706E-006  0.1143751E+03  0.7561462E-02  0.1252676E+00
         -1   -1    0    0    0  501 -0.00000000000E+00  0.00000000000E+00  0.18220274854E+02  0.18220274854E+02  0.00000000000E+00 0.  1.
          1   -1    0    0  501    0  0.00000000000E+00 -0.00000000000E+00 -0.10023771751E+04  0.10023771751E+04  0.00000000000E+00 0. -1.
         23    2    1    2    0    0  0.64263203611E+02  0.51796990131E+02 -0.22523853788E+03  0.24701961495E+03  0.58937286159E+02 0.  0.
          5    1    1    2  502    0 -0.81344785600E+02 -0.76411395542E+02 -0.67904002679E+03  0.68816313902E+03  0.41800000000E+01 0. -1.
         -5    1    1    2    0  502  0.17081581989E+02  0.24614405411E+02 -0.79878335617E+02  0.85414696030E+02  0.41800000000E+01 0. -1.
        -11    1    3    3    0    0  0.40085657993E+02  0.15027950132E+02 -0.17533135035E+03  0.18048208132E+03  0.00000000000E+00 0. -1.
         11    1    3    3    0    0  0.24177545617E+02  0.36769039999E+02 -0.49907187523E+02  0.66537533626E+02  0.00000000000E+00 0.  1.
</event>
<event>
 7    1  0.6684706E-006  0.2457733E+03  0.7561462E-02  0.1116006E+00
         -1   -1    0    0    0  501 -0.00000000000E+00  0.00000000000E+00  0.27662599498E+03  0.27662599498E+03  0.00000000000E+00 0.  1.
          1   -1    0    0  501    0  0.00000000000E+00 -0.00000000000E+00 -0.36855945176E+03  0.36855945176E+03  0.00000000000E+00 0. -1.
         23    2    1    2    0    0 -0.22676052708E+03 -0.41701234696E+02  0.15367924599E+03  0.29019139268E+03  0.86222990665E+02 0.  0.
          5    1    1    2  502    0  0.18685728023E+03 -0.35461213781E+01 -0.14096607821E+03  0.23413057417E+03  0.41800000000E+01 0. -1.
         -5    1    1    2    0  502  0.39903246848E+02  0.45247356074E+02 -0.10464662456E+03  0.12086347990E+03  0.41800000000E+01 0.  1.
        -11    1    3    3    0    0 -0.20625009845E+03 -0.61910165982E+02  0.12248219608E+03  0.24773748226E+03  0.00000000000E+00 0.  1.
         11    1    3    3    0    0 -0.20510428633E+02  0.20208931286E+02  0.31197049907E+02  0.42453910413E+02  0.00000000000E+00 0. -1.
</event>
<event>
 7    1  0.6684706E-006  0.1354367E+03  0.7561462E-02  0.1219605E+00
         -1   -1    0    0    0  501 -0.00000000000E+00  0.00000000000E+00  0.49602070888E+03  0.49602070888E+03  0.00000000000E+00 0.  1.
          1   -1    0    0  501    0  0.00000000000E+00 -0.00000000000E+00 -0.39934249458E+02  0.39934249458E+02  0.00000000000E+00 0. -1.
         23    2    1    2    0    0 -0.61956023050E+02  0.61608314232E+02  0.24588296519E+03  0.27621890780E+03  0.90577697489E+02 0.  0.
          5    1    1    2  502    0 -0.17049327290E+02 -0.70693410925E+02  0.95895502897E+02  0.12042282917E+03  0.41800000000E+01 0. -1.
         -5    1    1    2    0  502  0.79005350340E+02  0.90850966930E+01  0.11430799134E+03  0.13931322137E+03  0.41800000000E+01 0. -1.
        -11    1    3    3    0    0 -0.11363060442E+02  0.66596595261E+02  0.18471683365E+03  0.19668384346E+03  0.00000000000E+00 0.  1.
         11    1    3    3    0    0 -0.50592962609E+02 -0.49882810283E+01  0.61166131541E+02  0.79535064348E+02  0.00000000000E+00 0. -1.
</event>
<event>
 7    1  0.6684706E-006  0.1009771E+03  0.7561462E-02  0.1278255E+00
         -2   -1    0    0    0  501 -0.00000000000E+00  0.00000000000E+00  0.25031315509E+02  0.25031315509E+02  0.00000000000E+00 0.  1.
          2   -1    0    0  501    0  0.00000000000E+00 -0.00000000000E+00 -0.42736908312E+03  0.42736908312E+03  0.00000000000E+00 0. -1.
         23    2    1    2    0    0 -0.10789939558E+00  0.67894637904E+01 -0.14092444532E+03  0.16767342875E+03  0.90601164224E+02 0.  0.
          5    1    1    2  502    0  0.18105250980E+02  0.49453429437E+02 -0.14037348580E+03  0.14998543166E+03  0.41800000000E+01 0. -1.
         -5    1    1    2    0  502 -0.17997351584E+02 -0.56242893227E+02 -0.12103983649E+03  0.13474153821E+03  0.41800000000E+01 0.  1.
        -11    1    3    3    0    0  0.39353337132E+02  0.24833872988E+02 -0.84833532966E+02  0.96758124757E+02  0.00000000000E+00 0. -1.
         11    1    3    3    0    0 -0.39461236527E+02 -0.18044409198E+02 -0.56090912357E+02  0.70915303994E+02  0.00000000000E+00 0.  1.
</event>
<event>
 7    1  0.6684706E-006  0.1131505E+03  0.7561462E-02  0.1254844E+00
         -1   -1    0    0    0  501 -0.00000000000E+00  0.00000000000E+00  0.18674468458E+02  0.18674468458E+02  0.00000000000E+00 0.  1.
          1   -1    0    0  501    0  0.00000000000E+00 -0.00000000000E+00 -0.99714670221E+03  0.99714670221E+03  0.00000000000E+00 0. -1.
         23    2    1    2    0    0  0.15707122754E+02  0.74757559910E+02 -0.32961306701E+03  0.35061398663E+03  0.91923811994E+02 0.  0.
          5    1    1    2  502    0  0.44310807009E+02 -0.73600659516E+02 -0.40511575151E+03  0.41414580671E+03  0.41800000000E+01 0.  1.
         -5    1    1    2    0  502 -0.60017929763E+02 -0.11569003940E+01 -0.24374341524E+03  0.25106137732E+03  0.41800000000E+01 0.  1.
        -11    1    3    3    0    0 -0.59430102615E+01  0.82171504523E+01  0.31141740760E+01  0.10608440635E+02  0.00000000000E+00 0.  1.
         11    1    3    3    0    0  0.21650133016E+02  0.66540409457E+02 -0.33272724108E+03  0.34000554600E+03  0.00000000000E+00 0. -1.
</event>
<event>
 7    1  0.6684706E-006  0.7446450E+02  0.7561462E-02  0.1345537E+00
         -1   -1    0    0    0  501 -0.00000000000E+00  0.00000000000E+00  0.31729975161E+02  0.31729975161E+02  0.00000000000E+00 0.  1.
          1   -1    0    0  501    0  0.00000000000E+00 -0.00000000000E+00 -0.40593771530E+03  0.40593771530E+03  0.00000000000E+00 0. -1.
         23    2    1    2    0    0  0.25856439666E+02  0.12704065457E+02 -0.14521219086E+03  0.17515077163E+03  0.93601622201E+02 0.  0.
          5    1    1    2  502    0  0.26193275838E+01  0.25295310921E+02  0.27513654262E+01  0.25918256950E+02  0.41800000000E+01 0. -1.
         -5    1    1    2    0  502 -0.28475767250E+02 -0.37999376378E+02 -0.23174691471E+03  0.23659866188E+03  0.41800000000E+01 0. -1.
        -11    1    3    3    0    0 -0.21104482876E+02  0.18635474903E+02 -0.69345451989E+01  0.28996000404E+02  0.00000000000E+00 0.  1.
         11    1    3    3    0    0  0.46960922543E+02 -0.59314094459E+01 -0.13827764566E+03  0.14615477123E+03  0.00000000000E+00 0. -1.
</event>
<event>
 7    1  0.6684706E-006  0.1680728E+03  0.7561462E-02  0.1179873E+00
          1   -1    0    0  501    0  0.00000000000E+00  0.00000000000E+00  0.15326834238E+03  0.15326834238E+03  0.00000000000E+00 0. -1.
         -1   -1    0    0    0  501 -0.00000000000E+00 -0.00000000000E+00 -0.29331689787E+03  0.29331689787E+03  0.00000000000E+00 0.  1.
         23    2    1    2    0    0 -0.94028199686E+02 -0.98871910314E+02 -0.19430690738E+03  0.25368577868E+03  0.89355151302E+02 0.  0.
          5    1    1    2  502    0 -0.73155989571E+01  0.74130914648E+02 -0.13282637072E+01  0.74620018621E+02  0.41800000000E+01 0.  1.
         -5    1    1    2    0  502  0.10134379864E+03  0.24740995667E+02  0.55586615599E+02  0.11827944295E+03  0.41800000000E+01 0.  1.
        -11    1    3    3    0    0 -0.77536795996E+02 -0.11188541151E+03 -0.18729738096E+03  0.23153964878E+03  0.00000000000E+00 0. -1.
         11    1    3    3    0    0 -0.16491403690E+02  0.13013501192E+02 -0.70095264129E+01  0.22146129898E+02  0.00000000000E+00 0.  1.
</event>
<event>
 7    1  0.6684706E-006  0.9235055E+02  0.7561462E-02  0.1297257E+00
         -2   -1    0    0    0  501 -0.00000000000E+00  0.00000000000E+00  0.11826979191E+02  0.11826979191E+02  0.00000000000E+00 0.  1.
          2   -1    0    0  501    0  0.00000000000E+00 -0.00000000000E+00 -0.14386364302E+04  0.14386364302E+04  0.00000000000E+00 0. -1.
         23    2    1    2    0    0  0.17755030073E+02  0.77805807917E+00 -0.25065663897E+03  0.26754351697E+03  0.91841909520E+02 0.  0.
          5    1    1    2  502    0  0.18062691272E+02  0.36666973942E+02 -0.15220563230E+03  0.15765390797E+03  0.41800000000E+01 0.  1.
         -5    1    1    2    0  502 -0.35817721345E+02 -0.37445032021E+02 -0.10239471797E+04  0.10252659845E+04  0.41800000000E+01 0.  1.
        -11    1    3    3    0    0  0.11922558808E+02  0.45240086738E+02 -0.15481991783E+03  0.16173441135E+03  0.00000000000E+00 0. -1.
         11    1    3    3    0    0  0.58324712651E+01 -0.44462028659E+02 -0.95836721141E+02  0.10580910562E+03  0.00000000000E+00 0.  1.
</event>
<event>
 7    1  0.6684706E-006  0.1191291E+03  0.7561462E-02  0.1244541E+00
         -2   -1    0    0    0  501 -0.00000000000E+00  0.00000000000E+00  0.14495151459E+03  0.14495151459E+03  0.00000000000E+00 0.  1.
          2   -1    0    0  501    0  0.00000000000E+00 -0.00000000000E+00 -0.12470019690E+03  0.12470019690E+03  0.00000000000E+00 0. -1.
         23    2    1    2    0    0  0.10073518634E+02 -0.67892414623E+02  0.49227756240E+02  0.12404869114E+03  0.90850701973E+02 0.  0.
          5    1    1    2  502    0  0.38015037802E+02  0.70121193404E+02 -0.48547272887E+02  0.93468898401E+02  0.41800000000E+01 0. -1.
         -5    1    1    2    0  502 -0.48088556436E+02 -0.22287787806E+01  0.19570834336E+02  0.52134121950E+02  0.41800000000E+01 0. -1.
        -11    1    3    3    0    0 -0.21586296101E+02 -0.74635680024E+02  0.19511767829E+02  0.80107190662E+02  0.00000000000E+00 0.  1.
         11    1    3    3    0    0  0.31659814735E+02  0.67432654005E+01  0.29715988412E+02  0.43941500482E+02  0.00000000000E+00 0. -1.
</event>
<event>
 7    1  0.6684706E-006  0.9822894E+02  0.7561462E-02  0.1284065E+00
         -2   -1    0    0    0  501 -0.00000000000E+00  0.00000000000E+00  0.30625142725E+02  0.30625142725E+02  0.00000000000E+00 0.  1.
          2   -1    0    0  501    0  0.00000000000E+00 -0.00000000000E+00 -0.52594865570E+03  0.52594865570E+03  0.00000000000E+00 0. -1.
         23    2    1    2    0    0  0.17446987751E+02 -0.39488136045E+02 -0.99522167719E+02  0.14306288824E+03  0.93266381155E+02 0.  0.
          5    1    1    2  502    0  0.35487281027E+02  0.42985843833E+02 -0.28700490167E+03  0.29239770155E+03  0.41800000000E+01 0. -1.
         -5    1    1    2    0  502 -0.52934268778E+02 -0.34977077887E+01 -0.10879644358E+03  0.12111320864E+03  0.41800000000E+01 0.  1.
        -11    1    3    3    0    0 -0.23258732331E+02 -0.40414457990E+02 -0.14562232094E+02  0.48850339281E+02  0.00000000000E+00 0.  1.
         11    1    3    3    0    0  0.40705720083E+02  0.92632194498E+00 -0.84959935625E+02  0.94212548958E+02  0.00000000000E+00 0. -1.
</event>
<event>
 7    1  0.6684706E-006  0.1278414E+03  0.7561462E-02  0.1230694E+00
         -3   -1    0    0    0  501 -0.00000000000E+00  0.00000000000E+00  0.17434295981E+03  0.17434295981E+03  0.00000000000E+00 0.  1.
          3   -1    0    0  501    0  0.00000000000E+00 -0.00000000000E+00 -0.10545666562E+03  0.10545666562E+03  0.00000000000E+00 0. -1.
         23    2    1    2    0    0 -0.75635718036E+02 -0.30304312214E+02  0.33135545812E+02  0.12628483377E+03  0.90613363596E+02 0.  0.
          5    1    1    2  502    0  0.76562117649E+02 -0.29266169170E+02  0.44165969465E+02  0.93200706948E+02  0.41800000000E+01 0. -1.
         -5    1    1    2    0  502 -0.92639961349E+00  0.59570481384E+02 -0.84152210909E+01  0.60314084712E+02  0.41800000000E+01 0. -1.
        -11    1    3    3    0    0  0.96553177063E+01 -0.26842040406E+02  0.29217629066E+02  0.40833688805E+02  0.00000000000E+00 0.  1.
         11    1    3    3    0    0 -0.85291035742E+02 -0.34622718083E+01  0.39179167458E+01  0.85451144964E+02  0.00000000000E+00 0. -1.
</event>
<event>
 7    1  0.6684706E-006  0.1194465E+03  0.7561462E-02  0.1244013E+00
          1   -1    0    0  501    0  0.00000000000E+00  0.00000000000E+00  0.31070775766E+03  0.31070775766E+03  0.00000000000E+00 0. -1.
         -1   -1    0    0    0  501 -0.00000000000E+00 -0.00000000000E+00 -0.70935118398E+02  0.70935118398E+02  0.00000000000E+00 0.  1.
         23    2    1    2    0    0  0.41525054260E+02 -0.81919600877E+02  0.52539820763E+02  0.13845747937E+03  0.89302237869E+02 0.  0.
          5    1    1    2  502    0 -0.56631814432E+02  0.49880468126E+02  0.19279991654E+03  0.20708574003E+03  0.41800000000E+01 0. -1.
         -5    1    1    2    0  502  0.15106760172E+02  0.32039132751E+02 -0.55670980391E+01  0.36099656659E+02  0.41800000000E+01 0. -1.
        -11    1    3    3    0    0  0.65173941330E+02 -0.32437741571E+02  0.35735939464E+02  0.81098132383E+02  0.00000000000E+00 0.  1.
         11    1    3    3    0    0 -0.23648887070E+02 -0.49481859305E+02  0.16803881299E+02  0.57359346986E+02  0.00000000000E+00 0. -1.
</event>
<event>
 7    1  0.6684706E-006  0.1111067E+03  0.7561462E-02  0.1258534E+00
         -1   -1    0    0    0  501 -0.00000000000E+00  0.00000000000E+00  0.73721277085E+02  0.73721277085E+02  0.00000000000E+00 0.  1.
          1   -1    0    0  501    0  0.00000000000E+00 -0.00000000000E+00 -0.22606781984E+03  0.22606781984E+03  0.00000000000E+00 0. -1.
         23    2    1    2    0    0 -0.55454024914E+02 -0.39065146719E+02 -0.79295527723E+02  0.13983597504E+03  0.93086436342E+02 0.  0.
          5    1    1    2  502    0  0.14372871863E+02 -0.38098595174E+02 -0.58247367625E+02  0.71192068625E+02  0.41800000000E+01 0.  1.
         -5    1    1    2    0  502  0.41081153051E+02  0.77163741893E+02 -0.14803647402E+02  0.88761053258E+02  0.41800000000E+01 0.  1.
        -11    1    3    3    0    0  0.13953287825E+02 -0.14532164042E+02 -0.60632011496E+02  0.63891461487E+02  0.00000000000E+00 0. -1.
         11    1    3    3    0    0 -0.69407312739E+02 -0.24532982677E+02 -0.18663516227E+02  0.75944513551E+02  0.00000000000E+00 0.  1.
</event>
<event>
 7    1  0.6684706E-006  0.7114436E+02  0.7561462E-02  0.1356244E+00
         -1   -1    0    0    0  501 -0.00000000000E+00  0.00000000000E+00  0.30657914527E+02  0.30657914527E+02  0.00000000000E+00 0.  1.
          1   -1    0    0  501    0  0.00000000000E+00 -0.00000000000E+00 -0.51239267531E+03  0.51239267531E+03  0.00000000000E+00 0. -1.
         23    2    1    2    0    0  0.16394943144E+02 -0.58805115436E+02 -0.20121719474E+03  0.22989753746E+03  0.92939133358E+02 0.  0.
          5    1    1    2  502    0 -0.15886286984E+02 -0.32687910648E+01  0.76012574726E+01  0.18393222239E+02  0.41800000000E+01 0.  1.
         -5    1    1    2    0  502 -0.50865616089E+00  0.62073906501E+02 -0.28811882352E+03  0.29475983014E+03  0.41800000000E+01 0.  1.
        -11    1    3    3    0    0  0.17676101367E+02 -0.32575684518E+02 -0.20021632468E+03  0.20361777046E+03  0.00000000000E+00 0. -1.
         11    1    3    3    0    0 -0.12811582222E+01 -0.26229430918E+02 -0.10008700661E+01  0.26279767000E+02  0.00000000000E+00 0.  1.
</event>
<event>
 7    1  0.6684706E-006  0.1172734E+03  0.7561462E-02  0.1247664E+00
          1   -1    0    0  501    0  0.00000000000E+00  0.00000000000E+00  0.90958481703E+02  0.90958481703E+02  0.00000000000E+00 0. -1.
         -1   -1    0    0    0  501 -0.00000000000E+00 -0.00000000000E+00 -0.21339629332E+03  0.21339629332E+03  0.00000000000E+00 0.  1.
         23    2    1    2    0    0 -0.34002820271E+02  0.77424708685E+02 -0.50100194941E+02  0.13693042208E+03  0.95336948015E+02 0.  0.
          5    1    1    2  502    0  0.43823678393E+02  0.21147783886E+02 -0.40021200171E+02  0.63142001982E+02  0.41800000000E+01 0.  1.
         -5    1    1    2    0  502 -0.98208581217E+01 -0.98572492571E+02 -0.32316416503E+02  0.10428235096E+03  0.41800000000E+01 0.  1.
        -11    1    3    3    0    0 -0.20976815328E+01  0.25704964431E+02 -0.68697764163E+02  0.73379344950E+02  0.00000000000E+00 0.  1.
         11    1    3    3    0    0 -0.31905138738E+02  0.51719744253E+02  0.18597569222E+02  0.63551077131E+02  0.00000000000E+00 0. -1.
</event>
<event>
 7    1  0.6684706E-006  0.1121173E+03  0.7561462E-02  0.1256698E+00
          1   -1    0    0  501    0  0.00000000000E+00  0.00000000000E+00  0.11240360051E+03  0.11240360051E+03  0.00000000000E+00 0. -1.
         -1   -1    0    0    0  501 -0.00000000000E+00 -0.00000000000E+00 -0.14058995030E+03  0.14058995030E+03  0.00000000000E+00 0.  1.
         23    2    1    2    0    0  0.33516479573E+02 -0.46015915465E+00 -0.25063921583E+02  0.12345140889E+03  0.11613993302E+03 0.  0.
          5    1    1    2  502    0 -0.70173519325E+02  0.14898765903E+02 -0.33821810482E+02  0.79420924851E+02  0.41800000000E+01 0. -1.
         -5    1    1    2    0  502  0.36657039752E+02 -0.14438606749E+02  0.30699382273E+02  0.50121217066E+02  0.41800000000E+01 0. -1.
        -11    1    3    3    0    0  0.56593801162E+02  0.37813016623E+02  0.70351433246E+01  0.68426426165E+02  0.00000000000E+00 0. -1.
         11    1    3    3    0    0 -0.23077321589E+02 -0.38273175777E+02 -0.32099064908E+02  0.55024982724E+02  0.00000000000E+00 0.  1.
</event>
<event>
 7    1  0.6684706E-006  0.1356468E+03  0.7561462E-02  0.1219310E+00
          4   -1    0    0  501    0  0.00000000000E+00  0.00000000000E+00  0.34068865855E+03  0.34068865855E+03  0.00000000000E+00 0. -1.
         -4   -1    0    0    0  501 -0.00000000000E+00 -0.00000000000E+00 -0.70156996950E+02  0.70156996950E+02  0.00000000000E+00 0.  1.
         23    2    1    2    0    0 -0.58043659342E+02 -0.88624008207E+02  0.91415978483E+02  0.16803252257E+03  0.93030996447E+02 0.  0.
          5    1    1    2  502    0  0.56229126511E+02  0.17442074774E+02  0.15763413148E+03  0.16832092101E+03  0.41800000000E+01 0.  1.
         -5    1    1    2    0  502  0.18145328303E+01  0.71181933432E+02  0.21481551640E+02  0.74492211925E+02  0.41800000000E+01 0.  1.
        -11    1    3    3    0    0  0.22370479211E+02 -0.43048573856E+02  0.29478471656E+02  0.56767934103E+02  0.00000000000E+00 0.  1.
         11    1    3    3    0    0 -0.80414138553E+02 -0.45575434351E+02  0.61937506827E+02  0.11126458847E+03  0.00000000000E+00 0. -1.
</event>
<event>
 7    1  0.6684706E-006  0.7874405E+02  0.7561462E-02  0.1332654E+00
         -2   -1    0    0    0  501 -0.00000000000E+00  0.00000000000E+00  0.81390081509E+02  0.81390081509E+02  0.00000000000E+00 0.  1.
          2   -1    0    0  501    0  0.00000000000E+00 -0.00000000000E+00 -0.20565318908E+03  0.20565318908E+03  0.00000000000E+00 0. -1.
         23    2    1    2    0    0  0.33922720298E+02 -0.38833359567E+02 -0.11864552871E+01  0.10416792060E+03  0.90502857623E+02 0.  0.
          5    1    1    2  502    0  0.21059953746E+01 -0.28358082072E+02 -0.98582450017E+02  0.10268684379E+03  0.41800000000E+01 0.  1.
         -5    1    1    2    0  502 -0.36028715672E+02  0.67191441640E+02 -0.24494202265E+02  0.80188506204E+02  0.41800000000E+01 0.  1.
        -11    1    3    3    0    0  0.16939522785E+02 -0.12486800801E+02 -0.45359255721E+02  0.50003296951E+02  0.00000000000E+00 0. -1.
         11    1    3    3    0    0  0.16983197513E+02 -0.26346558767E+02  0.44172800434E+02  0.54164623647E+02  0.00000000000E+00 0.  1.
</event>
<event>
 7    1  0.6684706E-006  0.1084546E+03  0.7561462E-02  0.1263459E+00
          2   -1    0    0  501    0  0.00000000000E+00  0.00000000000E+00  0.31708369581E+03  0.31708369581E+03  0.00000000000E+00 0.  1.
         -2   -1    0    0    0  501 -0.00000000000E+00 -0.00000000000E+00 -0.46174688997E+02  0.46174688997E+02  0.00000000000E+00 0. -1.
         23    2    1    2    0    0  0.39043880684E+02 -0.40954769911E+02  0.84803943022E+02  0.13199236379E+03  0.83836492941E+02 0.  0.
          5    1    1    2  502    0  0.39745691271E+02  0.33471900359E+02  0.10835024496E+03  0.12023866296E+03  0.41800000000E+01 0.  1.
         -5    1    1    2    0  502 -0.78789571955E+02  0.74828695524E+01  0.77754818835E+02  0.11102735806E+03  0.41800000000E+01 0.  1.
        -11    1    3    3    0    0 -0.52211532353E+00  0.16091584952E+02  0.53438872239E+02  0.55811511150E+02  0.00000000000E+00 0.  1.
         11    1    3    3    0    0  0.39565996008E+02 -0.57046354863E+02  0.31365070782E+02  0.76180852637E+02  0.00000000000E+00 0. -1.
</event>
<event>
 7    1  0.6684706E-006  0.1239922E+03  0.7561462E-02  0.1236653E+00
          1   -1    0    0  501    0  0.00000000000E+00  0.00000000000E+00  0.53383145445E+02  0.53383145445E+02  0.00000000000E+00 0. -1.
         -1   -1    0    0    0  501 -0.00000000000E+00 -0.00000000000E+00 -0.30949040393E+03  0.30949040393E+03  0.00000000000E+00 0.  1.
         23    2    1    2    0    0 -0.52491297292E+01  0.55969801122E+02 -0.12744964147E+03  0.16396513117E+03  0.86492665177E+02 0.  0.
          5    1    1    2  502    0 -0.57736062667E+02  0.11450133024E+02 -0.56606501417E+02  0.81769963197E+02  0.41800000000E+01 0. -1.
         -5    1    1    2    0  502  0.62985192396E+02 -0.67419934146E+02 -0.72051115596E+02  0.11713845500E+03  0.41800000000E+01 0.  1.
        -11    1    3    3    0    0  0.34441087046E+02  0.99571574523E+01 -0.77182942141E+02  0.85103114038E+02  0.00000000000E+00 0.  1.
         11    1    3    3    0    0 -0.39690216775E+02  0.46012643670E+02 -0.50266699326E+02  0.78862017133E+02  0.00000000000E+00 0. -1.
</event>
<event>
 7    1  0.6684706E-006  0.1698229E+03  0.7561462E-02  0.1178033E+00
         -2   -1    0    0    0  501 -0.00000000000E+00  0.00000000000E+00  0.21821214281E+03  0.21821214281E+03  0.00000000000E+00 0.  1.
          2   -1    0    0  501    0  0.00000000000E+00 -0.00000000000E+00 -0.16301899733E+03  0.16301899733E+03  0.00000000000E+00 0. -1.
         23    2    1    2    0    0  0.75105294016E+02  0.13165158997E+03  0.53963118126E+02  0.18471181085E+03  0.90738572946E+02 0.  0.
          5    1    1    2  502    0 -0.75532546890E+01  0.13890881057E+02  0.29317401219E+02  0.33570681363E+02  0.41800000000E+01 0. -1.
         -5    1    1    2    0  502 -0.67552039327E+02 -0.14554247102E+03 -0.28087373861E+02  0.16294864792E+03  0.41800000000E+01 0. -1.
        -11    1    3    3    0    0  0.36843981769E+02  0.11552887901E+03  0.70216804580E+02  0.14012423246E+03  0.00000000000E+00 0.  1.
         11    1    3    3    0    0  0.38261312247E+02  0.16122710961E+02 -0.16253686453E+02  0.44587578393E+02  0.00000000000E+00 0. -1.
</event>
<event>
 7    1  0.6684706E-006  0.1301800E+03  0.7561462E-02  0.1227189E+00
          2   -1    0    0  501    0  0.00000000000E+00  0.00000000000E+00  0.66060889563E+02  0.66060889563E+02  0.00000000000E+00 0. -1.
         -2   -1    0    0    0  501 -0.00000000000E+00 -0.00000000000E+00 -0.38925824930E+03  0.38925824930E+03  0.00000000000E+00 0.  1.
         23    2    1    2    0    0  0.79348871760E+02  0.87193653767E+02 -0.16479783334E+03  0.22157396144E+03  0.89653320112E+02 0.  0.
          5    1    1    2  502    0 -0.50891217639E+02 -0.19624127120E+02  0.46700530164E+01  0.54902679290E+02  0.41800000000E+01 0.  1.
         -5    1    1    2    0  502 -0.28457654121E+02 -0.67569526647E+02 -0.16306957941E+03  0.17884249814E+03  0.41800000000E+01 0.  1.
        -11    1    3    3    0    0  0.56313546982E+01  0.48760837700E+02 -0.16901196396E+02  0.51913214971E+02  0.00000000000E+00 0. -1.
         11    1    3    3    0    0  0.73717517062E+02  0.38432816067E+02 -0.14789663695E+03  0.16966074647E+03  0.00000000000E+00 0.  1.
</event>
<event>
 7    1  0.6684706E-006  0.9785266E+02  0.7561462E-02  0.1284877E+00
         -1   -1    0    0    0  501 -0.00000000000E+00  0.00000000000E+00  0.19283084383E+03  0.19283084383E+03  0.00000000000E+00 0.  1.
          1   -1    0    0  501    0  0.00000000000E+00 -0.00000000000E+00 -0.12626586923E+03  0.12626586923E+03  0.00000000000E+00 0. -1.
         23    2    1    2    0    0 -0.79512175631E+02 -0.16435666787E+02  0.11009402760E+03  0.16374284016E+03  0.89992808462E+02 0.  0.
          5    1    1    2  502    0 -0.13668425036E+02 -0.63178118120E+01  0.30398427231E+02  0.34180072662E+02  0.41800000000E+01 0. -1.
         -5    1    1    2    0  502  0.93180600667E+02  0.22753478599E+02 -0.73927480233E+02  0.12117380023E+03  0.41800000000E+01 0. -1.
        -11    1    3    3    0    0 -0.52070279096E+02 -0.21191878004E+02  0.66433265986E+01  0.56608687026E+02  0.00000000000E+00 0. -1.
         11    1    3    3    0    0 -0.27441896535E+02  0.47562112168E+01  0.10345070100E+03  0.10713415314E+03  0.00000000000E+00 0.  1.
</event>
<event>
 7    1  0.6684706E-006  0.1120944E+03  0.7561462E-02  0.1256740E+00
         -1   -1    0    0    0  501 -0.00000000000E+00  0.00000000000E+00  0.24889885718E+03  0.24889885718E+03  0.00000000000E+00 0.  1.
          1   -1    0    0  501    0  0.00000000000E+00 -0.00000000000E+00 -0.98603361275E+02  0.98603361275E+02  0.00000000000E+00 0. -1.
         23    2    1    2    0    0 -0.38967345477E+02 -0.94749499321E+02  0.12251803190E+03  0.18344570775E+03  0.90253741829E+02 0.  0.
          5    1    1    2  502    0  0.16760586534E+02  0.64498383796E+02 -0.46065217714E+02  0.81119883237E+02  0.41800000000E+01 0. -1.
         -5    1    1    2    0  502  0.22206758944E+02  0.30251115525E+02  0.73842681715E+02  0.82936627470E+02  0.41800000000E+01 0. -1.
        -11    1    3    3    0    0 -0.72898795083E+01  0.87678540429E+01  0.54309800937E+02  0.55493892326E+02  0.00000000000E+00 0.  1.
         11    1    3    3    0    0 -0.31677465969E+02 -0.10351735336E+03  0.68208230965E+02  0.12795181542E+03  0.00000000000E+00 0. -1.
</event>
<event>
 7    1  0.6684706E-006  0.8535530E+02  0.7561462E-02  0.1314506E+00
          2   -1    0    0  501    0  0.00000000000E+00  0.00000000000E+00  0.10688703420E+03  0.10688703420E+03  0.00000000000E+00 0. -1.
         -2   -1    0    0    0  501 -0.00000000000E+00 -0.00000000000E+00 -0.12719929070E+03  0.12719929070E+03  0.00000000000E+00 0.  1.
         23    2    1    2    0    0 -0.29696859292E+02 -0.27057978139E+02 -0.32741762030E+02  0.10211537508E+03  0.87985733020E+02 0.  0.
          5    1    1    2  502    0  0.68896642832E+02 -0.81316232056E+01  0.30808191226E+02  0.76022942170E+02  0.41800000000E+01 0. -1.
         -5    1    1    2    0  502 -0.39199783540E+02  0.35189601345E+02 -0.18378685692E+02  0.55948007651E+02  0.41800000000E+01 0. -1.
        -11    1    3    3    0    0 -0.32099420191E+02 -0.13880456463E+02 -0.61298641448E+02  0.70573106008E+02  0.00000000000E+00 0.  1.
         11    1    3    3    0    0  0.24025608995E+01 -0.13177521676E+02  0.28556879418E+02  0.31542269076E+02  0.00000000000E+00 0. -1.
</event>
<event>
 7    1  0.6684706E-006  0.1996331E+03  0.7561462E-02  0.1150049E+00
          2   -1    0    0  501    0  0.00000000000E+00  0.00000000000E+00  0.27380576257E+03  0.27380576257E+03  0.00000000000E+00 0. -1.
         -2   -1    0    0    0  501 -0.00000000000E+00 -0.00000000000E+00 -0.24674624505E+03  0.24674624505E+03  0.00000000000E+00 0.  1.
         23    2    1    2    0    0 -0.15922901209E+03  0.10672810623E+03 -0.12459752469E+03  0.24597937590E+03  0.90755403495E+02 0.  0.
          5    1    1    2  502    0  0.15660017863E+03 -0.71843704354E+02  0.70701739812E+02  0.18628296276E+03  0.41800000000E+01 0. -1.
         -5    1    1    2    0  502  0.26288334592E+01 -0.34884401872E+02  0.80955302398E+02  0.88289668963E+02  0.41800000000E+01 0. -1.
        -11    1    3    3    0    0 -0.11295999644E+03  0.75898395697E+02 -0.34976888241E+02  0.14051302422E+03  0.00000000000E+00 0. -1.
         11    1    3    3    0    0 -0.46269015647E+02  0.30829710528E+02 -0.89620636445E+02  0.10546635168E+03  0.00000000000E+00 0.  1.
</event>
<event>
 7    1  0.6684706E-006  0.7135889E+02  0.7561462E-02  0.1355532E+00
          1   -1    0    0  501    0  0.00000000000E+00  0.00000000000E+00  0.50241598213E+02  0.50241598213E+02  0.00000000000E+00 0. -1.
         -1   -1    0    0    0  501 -0.00000000000E+00 -0.00000000000E+00 -0.24192311638E+03  0.24192311638E+03  0.00000000000E+00 0.  1.
         23    2    1    2    0    0  0.18396195797E+02  0.10469890484E+02 -0.92144452520E+02  0.13090292201E+03  0.90536932978E+02 0.  0.
          5    1    1    2  502    0 -0.12191018437E+02 -0.47450122749E+02 -0.11135287165E+03  0.12172538562E+03  0.41800000000E+01 0.  1.
         -5    1    1    2    0  502 -0.62051773596E+01  0.36980232266E+02  0.11815806002E+02  0.39536406968E+02  0.41800000000E+01 0.  1.
        -11    1    3    3    0    0  0.27101488718E+02 -0.13528620796E+02  0.47867251538E+01  0.30666382393E+02  0.00000000000E+00 0. -1.
         11    1    3    3    0    0 -0.87052929209E+01  0.23998511280E+02 -0.96931177674E+02  0.10023653961E+03  0.00000000000E+00 0.  1.
</event>
<event>
 7    1  0.6684706E-006  0.1951789E+03  0.7561462E-02  0.1153871E+00
         -1   -1    0    0    0  501 -0.00000000000E+00  0.00000000000E+00  0.13977572399E+03  0.13977572399E+03  0.00000000000E+00 0.  1.
          1   -1    0    0  501    0  0.00000000000E+00 -0.00000000000E+00 -0.42737791312E+03  0.42737791312E+03  0.00000000000E+00 0. -1.
         23    2    1    2    0    0 -0.18264632766E+03  0.53321615957E+02 -0.16953601796E+02  0.21345559004E+03  0.95252236560E+02 0.  0.
          5    1    1    2  502    0  0.16117273279E+03 -0.23242731153E+02 -0.13056779204E+03  0.20876373024E+03  0.41800000000E+01 0. -1.
         -5    1    1    2    0  502  0.21473594873E+02 -0.30078884804E+02 -0.14008079528E+03  0.14493431683E+03  0.41800000000E+01 0. -1.
        -11    1    3    3    0    0 -0.14090641414E+03  0.41338034299E+02  0.29592830320E+02  0.14979715028E+03  0.00000000000E+00 0.  1.
         11    1    3    3    0    0 -0.41739913517E+02  0.11983581658E+02 -0.46546432116E+02  0.63658439759E+02  0.00000000000E+00 0. -1.
</event>
<event>
 7    1  0.6684706E-006  0.1105812E+03  0.7561462E-02  0.1259497E+00
         -2   -1    0    0    0  501 -0.00000000000E+00  0.00000000000E+00  0.28121969091E+02  0.28121969091E+02  0.00000000000E+00 0.  1.
          2   -1    0    0  501    0  0.00000000000E+00 -0.00000000000E+00 -0.26810522941E+04  0.26810522941E+04  0.00000000000E+00 0. -1.
         23    2    1    2    0    0 -0.30591567085E+02  0.57441194383E+02 -0.92922229779E+02  0.14469314538E+03  0.89812197081E+02 0.  0.
          5    1    1    2  502    0 -0.35960540619E+02 -0.55081058762E+02 -0.18922391120E+04  0.18933867573E+04  0.41800000000E+01 0. -1.
         -5    1    1    2    0  502  0.66552107704E+02 -0.23601356213E+01 -0.66776898329E+03  0.67109436052E+03  0.41800000000E+01 0.  1.
        -11    1    3    3    0    0 -0.48913588020E+02  0.44112713725E+02 -0.10105058773E+03  0.12062210364E+03  0.00000000000E+00 0. -1.
         11    1    3    3    0    0  0.18322020935E+02  0.13328480659E+02  0.81283579501E+01  0.24071041746E+02  0.00000000000E+00 0.  1.
</event>
<event>
 7    1  0.6684706E-006  0.2105441E+03  0.7561462E-02  0.1141136E+00
         -1   -1    0    0    0  501 -0.00000000000E+00  0.00000000000E+00  0.74300001629E+03  0.74300001629E+03  0.00000000000E+00 0.  1.
          1   -1    0    0  501    0  0.00000000000E+00 -0.00000000000E+00 -0.68815655433E+02  0.68815655433E+02  0.00000000000E+00 0. -1.
         23    2    1    2    0    0 -0.19474211924E+03  0.31234231937E+01  0.38660546492E+03  0.44265346694E+03  0.92434071135E+02 0.  0.
          5    1    1    2  502    0  0.14740974020E+03 -0.32117927734E+02  0.27247957421E+03  0.31148640989E+03  0.41800000000E+01 0. -1.
         -5    1    1    2    0  502  0.47332379040E+02  0.28994504541E+02  0.15099321723E+02  0.57675794885E+02  0.41800000000E+01 0. -1.
        -11    1    3    3    0    0 -0.16342994291E+03 -0.32962384861E+02  0.28086974315E+03  0.32662467401E+03  0.00000000000E+00 0. -1.
         11    1    3    3    0    0 -0.31312176329E+02  0.36085808055E+02  0.10573572178E+03  0.11602879293E+03  0.00000000000E+00 0.  1.
</event>
<event>
 7    1  0.6684706E-006  0.1495295E+03  0.7561462E-02  0.1201052E+00
         -1   -1    0    0    0  501 -0.00000000000E+00  0.00000000000E+00  0.36447917539E+02  0.36447917539E+02  0.00000000000E+00 0.  1.
          1   -1    0    0  501    0  0.00000000000E+00 -0.00000000000E+00 -0.63466349314E+03  0.63466349314E+03  0.00000000000E+00 0. -1.
         23    2    1    2    0    0 -0.91819991081E+01  0.10572257507E+03 -0.28878294163E+03  0.32088654292E+03  0.91164763252E+02 0.  0.
          5    1    1    2  502    0  0.59719520483E+02 -0.87739692707E+02 -0.23943914737E+03  0.26194131499E+03  0.41800000000E+01 0.  1.
         -5    1    1    2    0  502 -0.50537521375E+02 -0.17982882366E+02 -0.69993486596E+02  0.88283552776E+02  0.41800000000E+01 0.  1.
        -11    1    3    3    0    0  0.31748441831E+02  0.89578020883E+02 -0.21332676405E+03  0.23353906236E+03  0.00000000000E+00 0.  1.
         11    1    3    3    0    0 -0.40930440939E+02  0.16144554189E+02 -0.75456177579E+02  0.87347480561E+02  0.00000000000E+00 0. -1.
</event>
<event>
 7    1  0.6684706E-006  0.8834121E+02  0.7561462E-02  0.1306919E+00
          2   -1    0    0  501    0  0.00000000000E+00  0.00000000000E+00  0.51623950474E+03  0.51623950474E+03  0.00000000000E+00 0. -1.
         -2   -1    0    0    0  501 -0.00000000000E+00 -0.00000000000E+00 -0.28064180187E+02  0.28064180187E+02  0.00000000000E+00 0.  1.
         23    2    1    2    0    0 -0.50961117849E+02  0.10538915715E+02  0.15653263845E+03  0.18958187450E+03  0.93438300297E+02 0.  0.
          5    1    1    2  502    0  0.34131200425E+02  0.28988819818E+02  0.29408801395E+03  0.29750718120E+03  0.41800000000E+01 0. -1.
         -5    1    1    2    0  502  0.16829917425E+02 -0.39527735533E+02  0.37554672150E+02  0.57214629224E+02  0.41800000000E+01 0.  1.
        -11    1    3    3    0    0 -0.21830211086E+02  0.40965742357E+02  0.13399565635E+03  0.14180827227E+03  0.00000000000E+00 0. -1.
         11    1    3    3    0    0 -0.29130906764E+02 -0.30426826642E+02  0.22536982105E+02  0.47773602238E+02  0.00000000000E+00 0.  1.
</event>
<event>
 7    1  0.6684706E-006  0.1612705E+03  0.7561462E-02  0.1187270E+00
         -2   -1    0    0    0  501 -0.00000000000E+00  0.00000000000E+00  0.90217031519E+02  0.90217031519E+02  0.00000000000E+00 0.  1.
          2   -1    0    0  501    0  0.00000000000E+00 -0.00000000000E+00 -0.38495066603E+03  0.38495066603E+03  0.00000000000E+00 0. -1.
         23    2    1    2    0    0 -0.83494695598E+02  0.11859130315E+03 -0.85923850432E+02  0.19182201846E+03  0.91528778640E+02 0.  0.
          5    1    1    2  502    0  0.37507589326E+02 -0.40203922381E+01  0.30802704790E+01  0.38078120713E+02  0.41800000000E+01 0.  1.
         -5    1    1    2    0  502  0.45987106272E+02 -0.11457091091E+03 -0.21189005456E+03  0.24526755838E+03  0.41800000000E+01 0.  1.
        -11    1    3    3    0    0 -0.36848991908E+02  0.36665053044E+01  0.59032137477E+01  0.37498525282E+02  0.00000000000E+00 0.  1.
         11    1    3    3    0    0 -0.46645703690E+02  0.11492479784E+03 -0.91827064180E+02  0.15432349318E+03  0.00000000000E+00 0. -1.
</event>
<event>
 7    1  0.6684706E-006  0.1216063E+03  0.7561462E-02  0.1240470E+00
          1   -1    0    0  501    0  0.00000000000E+00  0.00000000000E+00  0.26610800026E+03  0.26610800026E+03  0.00000000000E+00 0. -1.
         -1   -1    0    0    0  501 -0.00000000000E+00 -0.00000000000E+00 -0.62357207081E+02  0.62357207081E+02  0.00000000000E+00 0.  1.
         23    2    1    2    0    0  0.52994055053E+02  0.14274406246E+02  0.42143282325E+02  0.11686140913E+03  0.94172204783E+02 0.  0.
          5    1    1    2  502    0  0.15527780763E+02  0.42577680814E+02  0.38481747426E+02  0.59601075191E+02  0.41800000000E+01 0.  1.
         -5    1    1    2    0  502 -0.68521835817E+02 -0.56852087060E+02  0.12312576343E+03  0.15200272303E+03  0.41800000000E+01 0.  1.
        -11    1    3    3    0    0  0.45183714999E+02  0.52663272161E+02  0.21893878766E+02  0.72762148562E+02  0.00000000000E+00 0.  1.
         11    1    3    3    0    0  0.78103400540E+01 -0.38388865916E+02  0.20249403559E+02  0.44099260567E+02  0.00000000000E+00 0. -1.
</event>
<event>
 7    1  0.6684706E-006  0.1230896E+03  0.7561462E-02  0.1238086E+00
         -1   -1    0    0    0  501 -0.00000000000E+00  0.00000000000E+00  0.31419911190E+02  0.31419911190E+02  0.00000000000E+00 0.  1.
          1   -1    0    0  501    0  0.00000000000E+00 -0.00000000000E+00 -0.82290139228E+03  0.82290139228E+03  0.00000000000E+00 0. -1.
         23    2    1    2    0    0  0.37894752418E+01  0.11767802411E+03 -0.38901823102E+03  0.41672968452E+03  0.92010697303E+02 0.  0.
          5    1    1    2  502    0  0.18460829262E+02 -0.74206898955E+02 -0.37218049249E+03  0.37997796970E+03  0.41800000000E+01 0. -1.
         -5    1    1    2    0  502 -0.22250304504E+02 -0.43471125151E+02 -0.30282757580E+02  0.57613649243E+02  0.41800000000E+01 0. -1.
        -11    1    3    3    0    0  0.15019560087E+02  0.71300870804E+02 -0.34222911300E+03  0.34990022456E+03  0.00000000000E+00 0. -1.
         11    1    3    3    0    0 -0.11230084846E+02  0.46377153302E+02 -0.46789118019E+02  0.66829459964E+02  0.00000000000E+00 0.  1.
</event>
<event>
 7    1  0.6684706E-006  0.1066750E+03  0.7561462E-02  0.1266854E+00
         -2   -1    0    0    0  501 -0.00000000000E+00  0.00000000000E+00  0.30403054803E+02  0.30403054803E+02  0.00000000000E+00 0.  1.
          2   -1    0    0  501    0  0.00000000000E+00 -0.00000000000E+00 -0.66951011664E+03  0.66951011664E+03  0.00000000000E+00 0. -1.
         23    2    1    2    0    0 -0.70687214283E+02  0.60617344862E+02 -0.31031030613E+03  0.33600964381E+03  0.89100223795E+02 0.  0.
          5    1    1    2  502    0  0.60427143828E+02 -0.16676503517E+02 -0.46932878553E+02  0.78420105649E+02  0.41800000000E+01 0. -1.
         -5    1    1    2    0  502  0.10260070455E+02 -0.43940841345E+02 -0.28186387715E+03  0.28548342198E+03  0.41800000000E+01 0. -1.
        -11    1    3    3    0    0 -0.44697560849E+02  0.64914791726E+01 -0.23692388160E+03  0.24119066508E+03  0.00000000000E+00 0. -1.
         11    1    3    3    0    0 -0.25989653434E+02  0.54125865689E+02 -0.73386424526E+02  0.94818978727E+02  0.00000000000E+00 0.  1.
</event>
<event>
 7    1  0.6684706E-006  0.1518283E+03  0.7561462E-02  0.1198244E+00
          2   -1    0    0  501    0  0.00000000000E+00  0.00000000000E+00  0.18003593236E+03  0.18003593236E+03  0.00000000000E+00 0. -1.
         -2   -1    0    0    0  501 -0.00000000000E+00 -0.00000000000E+00 -0.17119904153E+03  0.17119904153E+03  0.00000000000E+00 0.  1.
         23    2    1    2    0    0  0.11841214061E+03 -0.19787531306E+02 -0.61874421620E+02  0.16398706069E+03  0.93007153398E+02 0.  0.
          5    1    1    2  502    0 -0.50924879799E+02 -0.39012864293E+02  0.73435444014E+02  0.97599097334E+02  0.41800000000E+01 0. -1.
         -5    1    1    2    0  502 -0.67487260809E+02  0.58800395599E+02 -0.27241315692E+01  0.89648815870E+02  0.41800000000E+01 0. -1.
        -11    1    3    3    0    0  0.86024972883E+02  0.29364937306E+02 -0.50667801017E+02  0.10406642860E+03  0.00000000000E+00 0.  1.
         11    1    3    3    0    0  0.32387167726E+02 -0.49152468612E+02 -0.11206620603E+02  0.59920632083E+02  0.00000000000E+00 0. -1.
</event>
<event>
 7    1  0.6684706E-006  0.8105677E+02  0.7561462E-02  0.1326079E+00
         -2   -1    0    0    0  501 -0.00000000000E+00  0.00000000000E+00  0.71016418648E+03  0.71016418648E+03  0.00000000000E+00 0.  1.
          2   -1    0    0  501    0  0.00000000000E+00 -0.00000000000E+00 -0.18395173298E+02  0.18395173298E+02  0.00000000000E+00 0. -1.
         23    2    1    2    0    0 -0.40489150743E+02  0.95435522061E+01  0.38086023084E+03  0.39394778389E+03  0.91705453915E+02 0.  0.
          5    1    1    2  502    0  0.18470312955E+02  0.18656449730E+02  0.55769709329E+01  0.27162300749E+02  0.41800000000E+01 0. -1.
         -5    1    1    2    0  502  0.22018837788E+02 -0.28200001936E+02  0.30533181141E+03  0.30744927514E+03  0.41800000000E+01 0.  1.
        -11    1    3    3    0    0  0.26027256418E+02 -0.13236199572E+02  0.86038081461E+02  0.90857946913E+02  0.00000000000E+00 0. -1.
         11    1    3    3    0    0 -0.66516407162E+02  0.22779751778E+02  0.29482214938E+03  0.30308983698E+03  0.00000000000E+00 0.  1.
</event>
<event>
 7    1  0.6684706E-006  0.1184094E+03  0.7561462E-02  0.1245744E+00
         -1   -1    0    0    0  501 -0.00000000000E+00  0.00000000000E+00  0.55227874358E+03  0.55227874358E+03  0.00000000000E+00 0.  1.
          1   -1    0    0  501    0  0.00000000000E+00 -0.00000000000E+00 -0.42944359685E+02  0.42944359685E+02  0.00000000000E+00 0. -1.
         23    2    1    2    0    0 -0.71395153722E+02  0.81809578408E+02  0.25529707178E+03  0.29195141476E+03  0.90933814549E+02 0.  0.
          5    1    1    2  502    0  0.25155810893E+02 -0.51404795792E+02  0.23897290396E+03  0.24576571990E+03  0.41800000000E+01 0.  1.
         -5    1    1    2    0  502  0.46239342829E+02 -0.30404782617E+02  0.15064408152E+02  0.57505968597E+02  0.41800000000E+01 0.  1.
        -11    1    3    3    0    0 -0.57230698601E+02  0.20151948225E+02  0.19624190452E+03  0.20540773834E+03  0.00000000000E+00 0.  1.
         11    1    3    3    0    0 -0.14164455121E+02  0.61657630184E+02  0.59055167253E+02  0.86543676419E+02  0.00000000000E+00 0. -1.
</event>
<event>
 7    1  0.6684706E-006  0.9364733E+02  0.7561462E-02  0.1294252E+00
          1   -1    0    0  501    0  0.00000000000E+00  0.00000000000E+00  0.43394913633E+02  0.43394913633E+02  0.00000000000E+00 0. -1.
         -1   -1    0    0    0  501 -0.00000000000E+00 -0.00000000000E+00 -0.31949256830E+03  0.31949256830E+03  0.00000000000E+00 0.  1.
         23    2    1    2    0    0  0.32117523011E+02 -0.26182751287E+02 -0.14917913596E+03  0.17993002482E+03  0.91669664966E+02 0.  0.
          5    1    1    2  502    0  0.19424380968E+02  0.60316157879E+02 -0.92137051824E+02  0.11190198477E+03  0.41800000000E+01 0. -1.
         -5    1    1    2    0  502 -0.51541903979E+02 -0.34133406592E+02 -0.34781466876E+02  0.71055472339E+02  0.41800000000E+01 0. -1.
        -11    1    3    3    0    0  0.20654224233E+02  0.10661168508E+02 -0.13773530331E+03  0.13968275223E+03  0.00000000000E+00 0.  1.
         11    1    3    3    0    0  0.11463298778E+02 -0.36843919796E+02 -0.11443832650E+02  0.40247272585E+02  0.00000000000E+00 0. -1.
</event>
<event>
 7    1  0.6684706E-006  0.1145365E+03  0.7561462E-02  0.1252392E+00
         -2   -1    0    0    0  501 -0.00000000000E+00  0.00000000000E+00  0.13207159407E+02  0.13207159407E+02  0.00000000000E+00 0.  1.
          2   -1    0    0  501    0  0.00000000000E+00 -0.00000000000E+00 -0.11372092197E+04  0.11372092197E+04  0.00000000000E+00 0. -1.
         23    2    1    2    0    0 -0.39883281220E+01 -0.43783857447E+02 -0.32853058026E+03  0.34396541418E+03  0.91907187155E+02 0.  0.
          5    1    1    2  502    0  0.63599924694E+02  0.15728490394E+02 -0.34832395457E+03  0.35445646497E+03  0.41800000000E+01 0. -1.
         -5    1    1    2    0  502 -0.59611596573E+02  0.28055367053E+02 -0.44714752546E+03  0.45199449996E+03  0.41800000000E+01 0. -1.
        -11    1    3    3    0    0  0.18874920560E+01  0.26656335009E+02 -0.51027357028E+02  0.57601336683E+02  0.00000000000E+00 0.  1.
         11    1    3    3    0    0 -0.58758201780E+01 -0.70440192456E+02 -0.27750322323E+03  0.28636407749E+03  0.00000000000E+00 0. -1.
</event>
<event>
 7    1  0.6684706E-006  0.7421222E+02  0.7561462E-02  0.1346328E+00
         -2   -1    0    0    0  501 -0.00000000000E+00  0.00000000000E+00  0.21566378564E+03  0.21566378564E+03  0.00000000000E+00 0. -1.
          2   -1    0    0  501    0  0.00000000000E+00 -0.00000000000E+00 -0.77166924686E+02  0.77166924686E+02  0.00000000000E+00 0.  1.
         23    2    1    2    0    0  0.12963570972E+02 -0.46089645211E+02  0.11890049792E+03  0.15746645236E+03  0.91466090148E+02 0.  0.
          5    1    1    2  502    0 -0.31210267519E+02  0.10579899578E+02 -0.47030622830E+02  0.57579223314E+02  0.41800000000E+01 0. -1.
         -5    1    1    2    0  502  0.18246696547E+02  0.35509745632E+02  0.66626985872E+02  0.77785034654E+02  0.41800000000E+01 0. -1.
        -11    1    3    3    0    0  0.18523691951E+02 -0.58554824910E+02  0.12736988372E+03  0.14140326009E+03  0.00000000000E+00 0. -1.
         11    1    3    3    0    0 -0.55601209792E+01  0.12465179699E+02 -0.84693858046E+01  0.16063192277E+02  0.00000000000E+00 0.  1.
</event>
<event>
 7    1  0.6684706E-006  0.9954368E+02  0.7561462E-02  0.1281258E+00
         -3   -1    0    0    0  501 -0.00000000000E+00  0.00000000000E+00  0.11912997828E+02  0.11912997828E+02  0.00000000000E+00 0.  1.
          3   -1    0    0  501    0  0.00000000000E+00 -0.00000000000E+00 -0.28077089467E+04  0.28077089467E+04  0.00000000000E+00 0. -1.
         23    2    1    2    0    0  0.41155146930E+02  0.33219423238E+02 -0.28287001088E+03  0.30302839669E+03  0.94939401440E+02 0.  0.
          5    1    1    2  502    0  0.33011798488E+02 -0.89325094015E+01 -0.25518722939E+03  0.25750254952E+03  0.41800000000E+01 0.  1.
         -5    1    1    2    0  502 -0.74166945418E+02 -0.24286913836E+02 -0.22577387086E+04  0.22590909983E+04  0.41800000000E+01 0.  1.
        -11    1    3    3    0    0  0.30052086343E+02 -0.17353355450E+02 -0.33130818651E+02  0.47978307426E+02  0.00000000000E+00 0.  1.
         11    1    3    3    0    0  0.11103060587E+02  0.50572778687E+02 -0.24973919223E+03  0.25505008926E+03  0.00000000000E+00 0. -1.
</event>
<event>
 7    1  0.6684706E-006  0.2842569E+03  0.7561462E-02  0.1093386E+00
         -2   -1    0    0    0  501 -0.00000000000E+00  0.00000000000E+00  0.36895626745E+02  0.36895626745E+02  0.00000000000E+00 0. -1.
          2   -1    0    0  501    0  0.00000000000E+00 -0.00000000000E+00 -0.26310877427E+04  0.26310877427E+04  0.00000000000E+00 0.  1.
         23    2    1    2    0    0  0.10794408794E+03 -0.25379204985E+03 -0.86634658981E+03  0.91379983409E+03  0.91713643582E+02 0.  0.
          5    1    1    2  502    0 -0.64841611612E+02  0.19460344544E+03 -0.15198932282E+04  0.15336778778E+04  0.41800000000E+01 0.  1.
         -5    1    1    2    0  502 -0.43102476327E+02  0.59188604413E+02 -0.20795229794E+03  0.22050565747E+03  0.41800000000E+01 0.  1.
        -11    1    3    3    0    0  0.12048457714E+03 -0.18988030457E+03 -0.69592378693E+03  0.73135557741E+03  0.00000000000E+00 0.  1.
         11    1    3    3    0    0 -0.12540489205E+02 -0.63911745277E+02 -0.17042280288E+03  0.18244425668E+03  0.00000000000E+00 0. -1.
</event>
<event>
 7    1  0.6684706E-006  0.1192405E+03  0.7561462E-02  0.1244355E+00
         -1   -1    0    0    0  501 -0.00000000000E+00  0.00000000000E+00  0.26605690652E+02  0.26605690652E+02  0.00000000000E+00 0.  1.
          1   -1    0    0  501    0  0.00000000000E+00 -0.00000000000E+00 -0.54591255465E+03  0.54591255465E+03  0.00000000000E+00 0. -1.
         23    2    1    2    0    0  0.17072154997E+01 -0.53358252595E+02 -0.22753957986E+03  0.25060984227E+03  0.90448963128E+02 0.  0.
          5    1    1    2  502    0  0.10205561475E+02  0.93128881613E+02 -0.21421806280E+03  0.23384608806E+03  0.41800000000E+01 0. -1.
         -5    1    1    2    0  502 -0.11912776975E+02 -0.39770629018E+02 -0.77549221342E+02  0.88062314973E+02  0.41800000000E+01 0. -1.
        -11    1    3    3    0    0  0.24762041170E+02  0.16270194162E+02 -0.44919830148E+02  0.53811421106E+02  0.00000000000E+00 0.  1.
         11    1    3    3    0    0 -0.23054825670E+02 -0.69628446757E+02 -0.18261974972E+03  0.19679842116E+03  0.00000000000E+00 0. -1.
</event>
<event>
 7    1  0.6684706E-006  0.1234736E+03  0.7561462E-02  0.1237474E+00
         -2   -1    0    0    0  501 -0.00000000000E+00  0.00000000000E+00  0.53663318260E+02  0.53663318260E+02  0.00000000000E+00 0. -1.
          2   -1    0    0  501    0  0.00000000000E+00 -0.00000000000E+00 -0.33626744982E+03  0.33626744982E+03  0.00000000000E+00 0.  1.
         23    2    1    2    0    0 -0.56954626299E+02  0.38014587837E+02 -0.65153512811E+02  0.12989218610E+03  0.89095799195E+02 0.  0.
          5    1    1    2  502    0  0.86357583678E+02 -0.58707870968E+02 -0.17867296544E+03  0.20699214321E+03  0.41800000000E+01 0. -1.
         -5    1    1    2    0  502 -0.29402957380E+02  0.20693283131E+02 -0.38777653311E+02  0.53046438766E+02  0.41800000000E+01 0. -1.
        -11    1    3    3    0    0 -0.93118006856E+01 -0.25326797103E+02 -0.36972270003E+02  0.45772317318E+02  0.00000000000E+00 0.  1.
         11    1    3    3    0    0 -0.47642825613E+02  0.63341384940E+02 -0.28181242809E+02  0.84119868787E+02  0.00000000000E+00 0. -1.
</event>
<event>
 7    1  0.6684706E-006  0.2426610E+03  0.7561462E-02  0.1118033E+00
          3   -1    0    0  501    0  0.00000000000E+00  0.00000000000E+00  0.26859530158E+03  0.26859530158E+03  0.00000000000E+00 0. -1.
         -3   -1    0    0    0  501 -0.00000000000E+00 -0.00000000000E+00 -0.27337420073E+03  0.27337420073E+03  0.00000000000E+00 0.  1.
         23    2    1    2    0    0 -0.64594628086E+02 -0.21596411196E+03 -0.10491114424E+03  0.26540632598E+03  0.92850449938E+02 0.  0.
          5    1    1    2  502    0 -0.21834344524E+02  0.69533641649E+02  0.74944169917E+02  0.10462201932E+03  0.41800000000E+01 0. -1.
         -5    1    1    2    0  502  0.86428972610E+02  0.14643047031E+03  0.25188075179E+02  0.17194115701E+03  0.41800000000E+01 0. -1.
        -11    1    3    3    0    0 -0.54529977601E+02 -0.44247648967E+02 -0.44297708259E+02  0.83028066660E+02  0.00000000000E+00 0.  1.
         11    1    3    3    0    0 -0.10064650485E+02 -0.17171646299E+03 -0.60613435980E+02  0.18237825932E+03  0.00000000000E+00 0. -1.
</event>
<event>
 7    1  0.6684706E-006  0.1690520E+03  0.7561462E-02  0.1178840E+00
         -2   -1    0    0    0  501 -0.00000000000E+00  0.00000000000E+00  0.27463689074E+02  0.27463689074E+02  0.00000000000E+00 0. -1.
          2   -1    0    0  501    0  0.00000000000E+00 -0.00000000000E+00 -0.17212112454E+04  0.17212112454E+04  0.00000000000E+00 0.  1.
         23    2    1    2    0    0  0.15802093034E+03  0.58599145021E+01 -0.40436400828E+03  0.44362251676E+03  0.91026002684E+02 0.  0.
          5    1    1    2  502    0 -0.71829781007E+02  0.33224204810E+02 -0.93076735122E+03  0.93413526843E+03  0.41800000000E+01 0. -1.
         -5    1    1    2    0  502 -0.86191149333E+02 -0.39084119312E+02 -0.35861619686E+03  0.37091714932E+03  0.41800000000E+01 0. -1.
        -11    1    3    3    0    0  0.23042387893E+02 -0.15065667808E+02 -0.15782747406E+02  0.31733595794E+02  0.00000000000E+00 0. -1.
         11    1    3    3    0    0  0.13497854245E+03  0.20925582311E+02 -0.38858126087E+03  0.41188892097E+03  0.00000000000E+00 0.  1.
</event>
<event>
 7    1  0.6684706E-006  0.1197356E+03  0.7561462E-02  0.1243534E+00
         -1   -1    0    0    0  501 -0.00000000000E+00  0.00000000000E+00  0.16823666790E+02  0.16823666790E+02  0.00000000000E+00 0.  1.
          1   -1    0    0  501    0  0.00000000000E+00 -0.00000000000E+00 -0.90209756436E+03  0.90209756436E+03  0.00000000000E+00 0. -1.
         23    2    1    2    0    0 -0.47824754876E+02  0.30748647378E+02 -0.34560900977E+03  0.36203813764E+03  0.91615167849E+02 0.  0.
          5    1    1    2  502    0  0.52714621267E+02 -0.72609684528E+02 -0.43090902497E+03  0.44017162310E+03  0.41800000000E+01 0.  1.
         -5    1    1    2    0  502 -0.48898663915E+01  0.41861037149E+02 -0.10875586284E+03  0.11671147041E+03  0.41800000000E+01 0.  1.
        -11    1    3    3    0    0  0.13292684718E+02  0.42959220641E+02 -0.16281723248E+03  0.16891311760E+03  0.00000000000E+00 0. -1.
         11    1    3    3    0    0 -0.61117439594E+02 -0.12210573263E+02 -0.18279177729E+03  0.19312502004E+03  0.00000000000E+00 0.  1.
</event>
<event>
 7    1  0.6684706E-006  0.1094131E+03  0.7561462E-02  0.1261661E+00
          3   -1    0    0  501    0  0.00000000000E+00  0.00000000000E+00  0.28389070188E+03  0.28389070188E+03  0.00000000000E+00 0. -1.
         -3   -1    0    0    0  501 -0.00000000000E+00 -0.00000000000E+00 -0.59301177481E+02  0.59301177481E+02  0.00000000000E+00 0.  1.
         23    2    1    2    0    0 -0.31306761880E+02 -0.64488770747E+02  0.79924390412E+02  0.13895033041E+03  0.88206412725E+02 0.  0.
          5    1    1    2  502    0  0.66145963101E+02  0.81594777940E+02  0.10690867195E+03  0.14993309427E+03  0.41800000000E+01 0. -1.
         -5    1    1    2    0  502 -0.34839201221E+02 -0.17106007192E+02  0.37756462044E+02  0.54308454681E+02  0.41800000000E+01 0. -1.
        -11    1    3    3    0    0 -0.30474144925E+02 -0.40597231489E+02  0.97062988591E+02  0.10953553062E+03  0.00000000000E+00 0. -1.
         11    1    3    3    0    0 -0.83261695485E+00 -0.23891539259E+02 -0.17138598179E+02  0.29414799790E+02  0.00000000000E+00 0.  1.
</event>
<event>
 7    1  0.6684706E-006  0.1247337E+03  0.7561462E-02  0.1235486E+00
         -2   -1    0    0    0  501 -0.00000000000E+00  0.00000000000E+00  0.20212713069E+02  0.20212713069E+02  0.00000000000E+00 0.  1.
          2   -1    0    0  501    0  0.00000000000E+00 -0.00000000000E+00 -0.14127373615E+04  0.14127373615E+04  0.00000000000E+00 0. -1.
         23    2    1    2    0    0 -0.51978642117E+02  0.53996545896E+02 -0.20423135650E+03  0.23574290801E+03  0.90812254093E+02 0.  0.
          5    1    1    2  502    0 -0.11936439238E+02  0.32379814858E+02 -0.41819879067E+03  0.41964107510E+03  0.41800000000E+01 0. -1.
         -5    1    1    2    0  502  0.63915081355E+02 -0.86376360753E+02 -0.77009450130E+03  0.77756609150E+03  0.41800000000E+01 0. -1.
        -11    1    3    3    0    0 -0.49758246687E+02  0.72831584817E+02 -0.19625980605E+03  0.21517024499E+03  0.00000000000E+00 0. -1.
         11    1    3    3    0    0 -0.22203954302E+01 -0.18835038921E+02 -0.79715504559E+01  0.20572663019E+02  0.00000000000E+00 0.  1.
</event>
<event>
 7    1  0.8662242E-006  0.2361124E+03  0.7561462E-02  0.1122410E+00
         -1   -1    0    0    0  501 -0.00000000000E+00  0.00000000000E+00  0.25576258301E+03  0.25576258301E+03  0.00000000000E+00 0.  1.
          1   -1    0    0  501    0  0.00000000000E+00 -0.00000000000E+00 -0.25322725674E+03  0.25322725674E+03  0.00000000000E+00 0. -1.
         23    2    1    2    0    0 -0.13406587089E+03  0.17395792379E+03  0.64732242657E+02  0.24869952521E+03  0.97088483415E+02 0.  0.
          5    1    1    2  502    0  0.15693797911E+03 -0.13432653546E+03 -0.47013681240E+02  0.21189833893E+03  0.41800000000E+01 0. -1.
         -5    1    1    2    0  502 -0.22872108216E+02 -0.39631388325E+02 -0.15183235137E+02  0.48391975616E+02  0.41800000000E+01 0. -1.
        -11    1    3    3    0    0 -0.53276363642E+02  0.72269873058E+02  0.76954645744E+02  0.11825110137E+03  0.00000000000E+00 0. -1.
         11    1    3    3    0    0 -0.80789507251E+02  0.10168805073E+03 -0.12222403087E+02  0.13044842383E+03  0.00000000000E+00 0.  1.
</event>
<event>
 7    1  0.6684706E-006  0.1087420E+03  0.7561462E-02  0.1262917E+00
         -2   -1    0    0    0  501 -0.00000000000E+00  0.00000000000E+00  0.13129325337E+02  0.13129325337E+02  0.00000000000E+00 0.  1.
          2   -1    0    0  501    0  0.00000000000E+00 -0.00000000000E+00 -0.10051873122E+04  0.10051873122E+04  0.00000000000E+00 0. -1.
         23    2    1    2    0    0  0.36119787957E+02 -0.69944037430E+01 -0.37508555802E+03  0.38771279535E+03  0.90986125772E+02 0.  0.
          5    1    1    2  502    0  0.32202983361E+02 -0.29981510665E+02 -0.34177156101E+03  0.34461746246E+03  0.41800000000E+01 0. -1.
         -5    1    1    2    0  502 -0.68322771318E+02  0.36975914408E+02 -0.27520086781E+03  0.28598637969E+03  0.41800000000E+01 0. -1.
        -11    1    3    3    0    0  0.37166969864E+02  0.36434161930E+02 -0.24815767597E+03  0.25355682587E+03  0.00000000000E+00 0. -1.
         11    1    3    3    0    0 -0.10471819065E+01 -0.43428565674E+02 -0.12692788205E+03  0.13415596948E+03  0.00000000000E+00 0.  1.
</event>
<event>
 7    1  0.6684706E-006  0.1315615E+03  0.7561462E-02  0.1225157E+00
         -2   -1    0    0    0  501 -0.00000000000E+00  0.00000000000E+00  0.16314155991E+02  0.16314155991E+02  0.00000000000E+00 0.  1.
          2   -1    0    0  501    0  0.00000000000E+00 -0.00000000000E+00 -0.24115316592E+04  0.24115316592E+04  0.00000000000E+00 0. -1.
         23    2    1    2    0    0 -0.26140504270E+02  0.85353817666E+02 -0.28695979178E+03  0.31399437002E+03  0.90983197065E+02 0.  0.
          5    1    1    2  502    0 -0.12337011755E+02 -0.10170772937E+03 -0.11148533684E+04  0.11195589174E+04  0.41800000000E+01 0. -1.
         -5    1    1    2    0  502  0.38477516024E+02  0.16353911708E+02 -0.99340434303E+03  0.99429252779E+03  0.41800000000E+01 0. -1.
        -11    1    3    3    0    0 -0.74848257762E+01  0.96530211877E+02 -0.17552471722E+03  0.20045705470E+03  0.00000000000E+00 0.  1.
         11    1    3    3    0    0 -0.18655678493E+02 -0.11176394210E+02 -0.11143507456E+03  0.11353731532E+03  0.00000000000E+00 0. -1.
</event>
<event>
 7    1  0.6684706E-006  0.1090514E+03  0.7561462E-02  0.1262337E+00
          2   -1    0    0  501    0  0.00000000000E+00  0.00000000000E+00  0.85878076513E+03  0.85878076513E+03  0.00000000000E+00 0. -1.
         -2   -1    0    0    0  501 -0.00000000000E+00 -0.00000000000E+00 -0.17795578608E+02  0.17795578608E+02  0.00000000000E+00 0.  1.
         23    2    1    2    0    0  0.47187959374E+02  0.44673428397E+02  0.39617064618E+03  0.40996099791E+03  0.83032645401E+02 0.  0.
          5    1    1    2  502    0 -0.69949792467E+02 -0.39996677881E+01  0.12468211462E+03  0.14308065178E+03  0.41800000000E+01 0.  1.
         -5    1    1    2    0  502  0.22761833094E+02 -0.40673760608E+02  0.32013242572E+03  0.32353469404E+03  0.41800000000E+01 0.  1.
        -11    1    3    3    0    0 -0.16675043208E+02  0.31891692529E+02  0.89774880539E+02  0.96719523852E+02  0.00000000000E+00 0.  1.
         11    1    3    3    0    0  0.63863002582E+02  0.12781735867E+02  0.30639576564E+03  0.31324147406E+03  0.00000000000E+00 0. -1.
</event>
<event>
 7    1  0.6684706E-006  0.1205213E+03  0.7561462E-02  0.1242240E+00
          2   -1    0    0  501    0  0.00000000000E+00  0.00000000000E+00  0.28503175409E+02  0.28503175409E+02  0.00000000000E+00 0. -1.
         -2   -1    0    0    0  501 -0.00000000000E+00 -0.00000000000E+00 -0.63811448635E+03  0.63811448635E+03  0.00000000000E+00 0.  1.
         23    2    1    2    0    0 -0.71018721370E+02  0.19928218711E+02 -0.34599287251E+03  0.36564613938E+03  0.92440460440E+02 0.  0.
          5    1    1    2  502    0  0.18292449167E+02 -0.68130190862E+02 -0.10061853983E+03  0.12295486799E+03  0.41800000000E+01 0. -1.
         -5    1    1    2    0  502  0.52726272204E+02  0.48201972151E+02 -0.16299989860E+03  0.17801665440E+03  0.41800000000E+01 0. -1.
        -11    1    3    3    0    0  0.31709644859E+01 -0.16050887885E+02 -0.89194001337E+01  0.18634422889E+02  0.00000000000E+00 0. -1.
         11    1    3    3    0    0 -0.74189685856E+02  0.35979106596E+02 -0.33707347238E+03  0.34701171649E+03  0.00000000000E+00 0.  1.
</event>
<event>
 7    1  0.6684706E-006  0.9654715E+02  0.7561462E-02  0.1287729E+00
          4   -1    0    0  501    0  0.00000000000E+00  0.00000000000E+00  0.22410649582E+03  0.22410649582E+03  0.00000000000E+00 0. -1.
         -4   -1    0    0    0  501 -0.00000000000E+00 -0.00000000000E+00 -0.62160287648E+02  0.62160287648E+02  0.00000000000E+00 0.  1.
         23    2    1    2    0    0 -0.36072583179E+02  0.49555826300E+01  0.11135623402E+03  0.14650345042E+03  0.87961702322E+02 0.  0.
          5    1    1    2  502    0  0.23765374052E+02  0.58507465617E+02  0.12172863052E+02  0.64448177101E+02  0.41800000000E+01 0.  1.
         -5    1    1    2    0  502  0.12307209127E+02 -0.63463048247E+02  0.38417111103E+02  0.75315155943E+02  0.41800000000E+01 0.  1.
        -11    1    3    3    0    0  0.49041482910E+01  0.20591322056E+02  0.98572842126E+02  0.10081993067E+03  0.00000000000E+00 0. -1.
         11    1    3    3    0    0 -0.40976731470E+02 -0.15635739426E+02  0.12783391890E+02  0.45683519759E+02  0.00000000000E+00 0.  1.
</event>
<event>
 7    1  0.6684706E-006  0.2424871E+03  0.7561462E-02  0.1118147E+00
          2   -1    0    0  501    0  0.00000000000E+00  0.00000000000E+00  0.21716691457E+03  0.21716691457E+03  0.00000000000E+00 0. -1.
         -2   -1    0    0    0  501 -0.00000000000E+00 -0.00000000000E+00 -0.58403237796E+03  0.58403237796E+03  0.00000000000E+00 0.  1.
         23    2    1    2    0    0  0.19063723554E+03 -0.11824212674E+03 -0.46657806501E+03  0.52567473717E+03  0.91187073853E+02 0.  0.
          5    1    1    2  502    0  0.84043106160E+00  0.54886525677E+02  0.23963586643E+02  0.60041343340E+02  0.41800000000E+01 0.  1.
         -5    1    1    2    0  502 -0.19147766661E+03  0.63355601060E+02  0.75749014979E+02  0.21548321203E+03  0.41800000000E+01 0.  1.
        -11    1    3    3    0    0  0.12764925390E+03 -0.55193205588E+02 -0.19256649906E+03  0.23753416285E+03  0.00000000000E+00 0. -1.
         11    1    3    3    0    0  0.62987981644E+02 -0.63048921148E+02 -0.27401156595E+03  0.28814057431E+03  0.00000000000E+00 0.  1.
</event>
<event>
 7    1  0.6684706E-006  0.1057915E+03  0.7561462E-02  0.1268568E+00
         -3   -1    0    0    0  501 -0.00000000000E+00  0.00000000000E+00  0.78845038997E+02  0.78845038997E+02  0.00000000000E+00 0.  1.
          3   -1    0    0  501    0  0.00000000000E+00 -0.00000000000E+00 -0.17387849843E+03  0.17387849843E+03  0.00000000000E+00 0. -1.
         23    2    1    2    0    0  0.18761172818E+02 -0.25396445355E+02 -0.16025284103E+02  0.10145902667E+03  0.95079773456E+02 0.  0.
          5    1    1    2  502    0  0.20841743531E+02  0.57128898527E+02 -0.79703045862E+02  0.10034010783E+03  0.41800000000E+01 0. -1.
         -5    1    1    2    0  502 -0.39602916349E+02 -0.31732453172E+02  0.69487053339E+00  0.50924402920E+02  0.41800000000E+01 0. -1.
        -11    1    3    3    0    0  0.45977082620E+02 -0.46406583462E+02 -0.57706112972E+01  0.65580203336E+02  0.00000000000E+00 0.  1.
         11    1    3    3    0    0 -0.27215909802E+02  0.21010138107E+02 -0.10254672806E+02  0.35878823336E+02  0.00000000000E+00 0. -1.
</event>
<event>
 7    1  0.6684706E-006  0.1248110E+03  0.7561462E-02  0.1235365E+00
          2   -1    0    0  501    0  0.00000000000E+00  0.00000000000E+00  0.99097544501E+03  0.99097544501E+03  0.00000000000E+00 0.  1.
         -2   -1    0    0    0  501 -0.00000000000E+00 -0.00000000000E+00 -0.22931705007E+02  0.22931705007E+02  0.00000000000E+00 0. -1.
         23    2    1    2    0    0  0.66888921447E+02  0.79866388205E+02  0.47354810694E+03  0.49330735279E+03  0.90838136032E+02 0.  0.
          5    1    1    2  502    0 -0.63435708536E+02 -0.45772435254E+02  0.47404631321E+03  0.48047537337E+03  0.41800000000E+01 0.  1.
         -5    1    1    2    0  502 -0.34532129115E+01 -0.34093952952E+02  0.20449319860E+02  0.40124423859E+02  0.41800000000E+01 0.  1.
        -11    1    3    3    0    0  0.80772618615E+02  0.31927590096E+02  0.33380176901E+03  0.34491623320E+03  0.00000000000E+00 0. -1.
         11    1    3    3    0    0 -0.13883697168E+02  0.47938798109E+02  0.13974633792E+03  0.14839111959E+03  0.00000000000E+00 0.  1.
</event>
<event>
 7    1  0.6684706E-006  0.9569164E+02  0.7561462E-02  0.1289626E+00
         -2   -1    0    0    0  501 -0.00000000000E+00  0.00000000000E+00  0.12034805498E+02  0.12034805498E+02  0.00000000000E+00 0.  1.
          2   -1    0    0  501    0  0.00000000000E+00 -0.00000000000E+00 -0.13636271396E+04  0.13636271396E+04  0.00000000000E+00 0. -1.
         23    2    1    2    0    0  0.22359276649E+02  0.54661840678E+02 -0.41346299434E+03  0.42738845549E+03  0.90671881644E+02 0.  0.
          5    1    1    2  502    0  0.23877903913E+02 -0.69611188152E+00 -0.36400710738E+02  0.43739261645E+02  0.41800000000E+01 0. -1.
         -5    1    1    2    0  502 -0.46237180561E+02 -0.53965728797E+02 -0.90172862903E+03  0.90453422797E+03  0.41800000000E+01 0. -1.
        -11    1    3    3    0    0 -0.30460407535E+01 -0.18369749779E+02 -0.24279124972E+02  0.30597417875E+02  0.00000000000E+00 0.  1.
         11    1    3    3    0    0  0.25405317402E+02  0.73031590457E+02 -0.38918386936E+03  0.39679103761E+03  0.00000000000E+00 0. -1.
</event>
<event>
 7    1  0.6684706E-006  0.9510288E+02  0.7561462E-02  0.1290945E+00
         -2   -1    0    0    0  501 -0.00000000000E+00  0.00000000000E+00  0.50754113911E+02  0.50754113911E+02  0.00000000000E+00 0. -1.
          2   -1    0    0  501    0  0.00000000000E+00 -0.00000000000E+00 -0.37856591578E+03  0.37856591578E+03  0.00000000000E+00 0.  1.
         23    2    1    2    0    0  0.53764830646E+02 -0.27232109957E+02 -0.55802300618E+02  0.12392164619E+03  0.92792417869E+02 0.  0.
          5    1    1    2  502    0 -0.42337545994E+02 -0.40063370774E+02 -0.65106012973E+02  0.87486037765E+02  0.41800000000E+01 0. -1.
         -5    1    1    2    0  502 -0.11427284652E+02  0.67295480732E+02 -0.20690348828E+03  0.21791234574E+03  0.41800000000E+01 0. -1.
        -11    1    3    3    0    0  0.47977891720E+02 -0.15705221347E+02 -0.81098230212E+02  0.95527247500E+02  0.00000000000E+00 0.  1.
         11    1    3    3    0    0  0.57869389260E+01 -0.11526888610E+02  0.25295929593E+02  0.28394398694E+02  0.00000000000E+00 0. -1.
</event>
<event>
 7    1  0.6684706E-006  0.1498720E+03  0.7561462E-02  0.1200630E+00
          2   -1    0    0  501    0  0.00000000000E+00  0.00000000000E+00  0.13366868957E+03  0.13366868957E+03  0.00000000000E+00 0. -1.
         -2   -1    0    0    0  501 -0.00000000000E+00 -0.00000000000E+00 -0.33136420165E+03  0.33136420165E+03  0.00000000000E+00 0.  1.
         23    2    1    2    0    0 -0.34211268613E+02  0.13032025098E+03 -0.22389623791E+03  0.27932443065E+03  0.98685528260E+02 0.  0.
          5    1    1    2  502    0  0.56025336884E+02 -0.64196165895E+02 -0.35673087564E+02  0.92466359639E+02  0.41800000000E+01 0. -1.
         -5    1    1    2    0  502 -0.21814068271E+02 -0.66124085085E+02  0.61873813397E+02  0.93242100937E+02  0.41800000000E+01 0. -1.
        -11    1    3    3    0    0  0.73951354938E+01  0.75493685264E+02 -0.18573283628E+03  0.20062569879E+03  0.00000000000E+00 0.  1.
         11    1    3    3    0    0 -0.41606404107E+02  0.54826565716E+02 -0.38163401633E+02  0.78698731852E+02  0.00000000000E+00 0. -1.
</event>
<event>
 7    1  0.6684706E-006  0.8721672E+02  0.7561462E-02  0.1309735E+00
         -1   -1    0    0    0  501 -0.00000000000E+00  0.00000000000E+00  0.17867188956E+02  0.17867188956E+02  0.00000000000E+00 0.  1.
          1   -1    0    0  501    0  0.00000000000E+00 -0.00000000000E+00 -0.72551439179E+03  0.72551439179E+03  0.00000000000E+00 0. -1.
         23    2    1    2    0    0  0.59295153945E+01  0.26848365406E+02 -0.25315534209E+03  0.27118807558E+03  0.93270312699E+02 0.  0.
          5    1    1    2  502    0 -0.12749504025E+02  0.32660349918E+02 -0.34923030773E+03  0.35101072426E+03  0.41800000000E+01 0.  1.
         -5    1    1    2    0  502  0.68199886307E+01 -0.59508715324E+02 -0.10526155301E+03  0.12118278090E+03  0.41800000000E+01 0.  1.
        -11    1    3    3    0    0 -0.25188139124E+02  0.38369687754E+02 -0.61815899002E+02  0.76992731218E+02  0.00000000000E+00 0.  1.
         11    1    3    3    0    0  0.31117654519E+02 -0.11521322349E+02 -0.19133944309E+03  0.19419534436E+03  0.00000000000E+00 0. -1.
</event>
<event>
 7    1  0.6684706E-006  0.9604840E+02  0.7561462E-02  0.1288832E+00
          1   -1    0    0  501    0  0.00000000000E+00  0.00000000000E+00  0.67237782974E+03  0.67237782974E+03  0.00000000000E+00 0. -1.
         -1   -1    0    0    0  501 -0.00000000000E+00 -0.00000000000E+00 -0.24067875346E+02  0.24067875346E+02  0.00000000000E+00 0.  1.
         23    2    1    2    0    0 -0.54525506764E+02  0.37358303548E+02  0.32594901731E+03  0.34440702138E+03  0.89469328582E+02 0.  0.
          5    1    1    2  502    0  0.32847307300E+02 -0.47165579752E+02  0.43677101563E+02  0.72309744234E+02  0.41800000000E+01 0.  1.
         -5    1    1    2    0  502  0.21678199463E+02  0.98072762041E+01  0.27868383553E+03  0.27972893948E+03  0.41800000000E+01 0.  1.
        -11    1    3    3    0    0 -0.29831335442E+02 -0.27709189710E+02  0.14241558038E+03  0.14812125203E+03  0.00000000000E+00 0.  1.
         11    1    3    3    0    0 -0.24694171321E+02  0.65067493258E+02  0.18353343693E+03  0.19628576935E+03  0.00000000000E+00 0. -1.
</event>
<event>
 7    1  0.6684706E-006  0.2457724E+03  0.7561462E-02  0.1116006E+00
          1   -1    0    0  501    0  0.00000000000E+00  0.00000000000E+00  0.16522192160E+04  0.16522192160E+04  0.00000000000E+00 0. -1.
         -1   -1    0    0    0  501 -0.00000000000E+00 -0.00000000000E+00 -0.57861402720E+02  0.57861402720E+02  0.00000000000E+00 0.  1.
         23    2    1    2    0    0  0.17224497722E+01 -0.20531215013E+02  0.40226538313E+02  0.10132692473E+03  0.90688883929E+02 0.  0.
          5    1    1    2  502    0  0.19140250345E+03 -0.45281549987E+02  0.97685103092E+03  0.99646412183E+03  0.41800000000E+01 0. -1.
         -5    1    1    2    0  502 -0.19312495323E+03  0.65812765000E+02  0.57728024404E+03  0.61228957214E+03  0.41800000000E+01 0.  1.
        -11    1    3    3    0    0  0.44513399487E+02 -0.33829953383E+01  0.87084214453E+01  0.45483227628E+02  0.00000000000E+00 0. -1.
         11    1    3    3    0    0 -0.42790949715E+02 -0.17148219675E+02  0.31518116867E+02  0.55843697106E+02  0.00000000000E+00 0.  1.
</event>
<event>
 7    1  0.6684706E-006  0.8192307E+02  0.7561462E-02  0.1323681E+00
          2   -1    0    0  501    0  0.00000000000E+00  0.00000000000E+00  0.61890903241E+03  0.61890903241E+03  0.00000000000E+00 0. -1.
         -2   -1    0    0    0  501 -0.00000000000E+00 -0.00000000000E+00 -0.27381491638E+02  0.27381491638E+02  0.00000000000E+00 0.  1.
         23    2    1    2    0    0 -0.91445797889E+01 -0.30645002930E+02  0.10818079685E+03  0.14599653995E+03  0.92677749898E+02 0.  0.
          5    1    1    2  502    0  0.34343708430E+02  0.19017596436E+01  0.44374199156E+03  0.44509272570E+03  0.41800000000E+01 0.  1.
         -5    1    1    2    0  502 -0.25199128641E+02  0.28743243287E+02  0.39604752360E+02  0.55201258395E+02  0.41800000000E+01 0.  1.
        -11    1    3    3    0    0  0.21853618976E+02 -0.49744895264E+02  0.90411962233E+02  0.10548202777E+03  0.00000000000E+00 0. -1.
         11    1    3    3    0    0 -0.30998198765E+02  0.19099892333E+02  0.17768834619E+02  0.40514512184E+02  0.00000000000E+00 0.  1.
</event>
<event>
 7    1  0.6684706E-006  0.8740086E+02  0.7561462E-02  0.1309271E+00
          2   -1    0    0  501    0  0.00000000000E+00  0.00000000000E+00  0.29462651540E+03  0.29462651540E+03  0.00000000000E+00 0. -1.
         -2   -1    0    0    0  501 -0.00000000000E+00 -0.00000000000E+00 -0.59266433421E+02  0.59266433421E+02  0.00000000000E+00 0.  1.
         23    2    1    2    0    0  0.71966775192E+02  0.14681582347E+02  0.77056031461E+02  0.13917442747E+03  0.89650006608E+02 0.  0.
          5    1    1    2  502    0 -0.77689239402E+02 -0.72479074525E+00  0.26807658321E+02  0.82293779748E+02  0.41800000000E+01 0. -1.
         -5    1    1    2    0  502  0.57224642099E+01 -0.13956791601E+02  0.13149639219E+03  0.13242474160E+03  0.41800000000E+01 0. -1.
        -11    1    3    3    0    0  0.40841871864E+02  0.25782048963E+02 -0.70490537355E+01  0.48810467162E+02  0.00000000000E+00 0.  1.
         11    1    3    3    0    0  0.31124903329E+02 -0.11100466616E+02  0.84105085196E+02  0.90363960306E+02  0.00000000000E+00 0. -1.
</event>
<event>
 7    1  0.6684706E-006  0.1557763E+03  0.7561462E-02  0.1193549E+00
         -2   -1    0    0    0  501 -0.00000000000E+00  0.00000000000E+00  0.33286201534E+02  0.33286201534E+02  0.00000000000E+00 0.  1.
          2   -1    0    0  501    0  0.00000000000E+00 -0.00000000000E+00 -0.19926981452E+04  0.19926981452E+04  0.00000000000E+00 0. -1.
         23    2    1    2    0    0 -0.43387015939E+02  0.13526182807E+03 -0.22422824841E+03  0.28050796964E+03  0.90709527402E+02 0.  0.
          5    1    1    2  502    0  0.48740071889E+02 -0.11318006913E+03 -0.16921263654E+04  0.16966126345E+04  0.41800000000E+01 0. -1.
         -5    1    1    2    0  502 -0.53530559502E+01 -0.22081758942E+02 -0.43057329860E+02  0.48863742598E+02  0.41800000000E+01 0. -1.
        -11    1    3    3    0    0 -0.68957886469E+02  0.93430410313E+02 -0.18152861182E+03  0.21549261840E+03  0.00000000000E+00 0.  1.
         11    1    3    3    0    0  0.25570870530E+02  0.41831417759E+02 -0.42699636587E+02  0.65015351234E+02  0.00000000000E+00 0. -1.
</event>
<event>
 7    1  0.6684706E-006  0.1010223E+03  0.7561462E-02  0.1278161E+00
         -1   -1    0    0    0  501 -0.00000000000E+00  0.00000000000E+00  0.15031441447E+03  0.15031441447E+03  0.00000000000E+00 0.  1.
          1   -1    0    0  501    0  0.00000000000E+00 -0.00000000000E+00 -0.92484430489E+02  0.92484430489E+02  0.00000000000E+00 0. -1.
         23    2    1    2    0    0  0.63608880740E+01 -0.32751596212E+01  0.57156262793E+02  0.10636599710E+03  0.89418674757E+02 0.  0.
          5    1    1    2  502    0 -0.59291354252E+02  0.25184315568E+02 -0.30149205602E+02  0.71247185475E+02  0.41800000000E+01 0. -1.
         -5    1    1    2    0  502  0.52930466178E+02 -0.21909155947E+02  0.30822926785E+02  0.65185662378E+02  0.41800000000E+01 0.  1.
        -11    1    3    3    0    0 -0.67700058602E+01 -0.40250124468E+02  0.53020972406E+02  0.66911351906E+02  0.00000000000E+00 0.  1.
         11    1    3    3    0    0  0.13130893934E+02  0.36974964847E+02  0.41352903876E+01  0.39454645196E+02  0.00000000000E+00 0. -1.
</event>
<event>
 7    1  0.6684706E-006  0.2357592E+03  0.7561462E-02  0.1122651E+00
         -3   -1    0    0    0  501 -0.00000000000E+00  0.00000000000E+00  0.45510940435E+03  0.45510940435E+03  0.00000000000E+00 0.  1.
          3   -1    0    0  501    0  0.00000000000E+00 -0.00000000000E+00 -0.13261643306E+03  0.13261643306E+03  0.00000000000E+00 0. -1.
         23    2    1    2    0    0  0.46976869905E+02  0.20781248014E+03  0.22245985877E+03  0.32096073849E+03  0.90191760596E+02 0.  0.
          5    1    1    2  502    0  0.36489106705E+02 -0.41628012294E+02 -0.94896896874E-01  0.55514211884E+02  0.41800000000E+01 0.  1.
         -5    1    1    2    0  502 -0.83465976610E+02 -0.16618446784E+03  0.10012800942E+03  0.21125088703E+03  0.41800000000E+01 0.  1.
        -11    1    3    3    0    0 -0.20267296638E+02  0.10637244122E+03  0.87408596952E+02  0.13916221608E+03  0.00000000000E+00 0.  1.
         11    1    3    3    0    0  0.67244166542E+02  0.10144003892E+03  0.13505126182E+03  0.18179852240E+03  0.00000000000E+00 0. -1.
</event>
<event>
 7    1  0.6684706E-006  0.1736922E+03  0.7561462E-02  0.1174051E+00
         -1   -1    0    0    0  501 -0.00000000000E+00  0.00000000000E+00  0.75098992605E+02  0.75098992605E+02  0.00000000000E+00 0.  1.
          1   -1    0    0  501    0  0.00000000000E+00 -0.00000000000E+00 -0.81141607150E+03  0.81141607150E+03  0.00000000000E+00 0. -1.
         23    2    1    2    0    0  0.71387673578E+02 -0.12268533716E+03 -0.52098448044E+02  0.17661774987E+03  0.91278088211E+02 0.  0.
          5    1    1    2  502    0  0.47652323448E+01 -0.17905371108E+02 -0.17802201583E+03  0.17903245592E+03  0.41800000000E+01 0.  1.
         -5    1    1    2    0  502 -0.76152905923E+02  0.14059070827E+03 -0.50619661502E+03  0.53086485832E+03  0.41800000000E+01 0.  1.
        -11    1    3    3    0    0  0.86378644450E+02 -0.63017765923E+02 -0.27857321428E+02  0.11049225944E+03  0.00000000000E+00 0.  1.
         11    1    3    3    0    0 -0.14990970871E+02 -0.59667571237E+02 -0.24241126615E+02  0.66125490430E+02  0.00000000000E+00 0. -1.
</event>
<event>
 7    1  0.6684706E-006  0.1778921E+03  0.7561462E-02  0.1169859E+00
         -1   -1    0    0    0  501 -0.00000000000E+00  0.00000000000E+00  0.83029997758E+02  0.83029997758E+02  0.00000000000E+00 0.  1.
          1   -1    0    0  501    0  0.00000000000E+00 -0.00000000000E+00 -0.43741705723E+03  0.43741705723E+03  0.00000000000E+00 0. -1.
         23    2    1    2    0    0 -0.71503840403E+01 -0.15609552510E+03 -0.18127973351E+03  0.25581495244E+03  0.90343827498E+02 0.  0.
          5    1    1    2  502    0  0.55729703153E+02  0.64274849666E+02 -0.12198774564E+03  0.14878016870E+03  0.41800000000E+01 0.  1.
         -5    1    1    2    0  502 -0.48579319112E+02  0.91820675429E+02 -0.51119580325E+02  0.11585193384E+03  0.41800000000E+01 0.  1.
        -11    1    3    3    0    0 -0.28444100869E+02 -0.12945016495E+03 -0.17746242110E+03  0.22149339264E+03  0.00000000000E+00 0. -1.
         11    1    3    3    0    0  0.21293716828E+02 -0.26645360142E+02 -0.38173124095E+01  0.34321559806E+02  0.00000000000E+00 0.  1.
</event>
<event>
 7    1  0.6684706E-006  0.1090242E+03  0.7561462E-02  0.1262388E+00
         -2   -1    0    0    0  501 -0.00000000000E+00  0.00000000000E+00  0.10369635832E+02  0.10369635832E+02  0.00000000000E+00 0.  1.
          2   -1    0    0  501    0  0.00000000000E+00 -0.00000000000E+00 -0.13396162071E+04  0.13396162071E+04  0.00000000000E+00 0. -1.
         23    2    1    2    0    0 -0.10023989451E+02  0.41813086726E+02 -0.45623229175E+03  0.46700947328E+03  0.90006274822E+02 0.  0.
          5    1    1    2  502    0 -0.19106324671E+02 -0.73017905891E+02 -0.72328791196E+03  0.72722729748E+03  0.41800000000E+01 0.  1.
         -5    1    1    2    0  502  0.29130314121E+02  0.31204819165E+02 -0.14972636760E+03  0.15574907221E+03  0.41800000000E+01 0.  1.
        -11    1    3    3    0    0  0.10899159009E+01 -0.28427982866E+02 -0.14359663937E+03  0.14638761206E+03  0.00000000000E+00 0. -1.
         11    1    3    3    0    0 -0.11113905351E+02  0.70241069592E+02 -0.31263565239E+03  0.32062186122E+03  0.00000000000E+00 0.  1.
</event>
<event>
 7    1  0.6684706E-006  0.9693238E+02  0.7561462E-02  0.1286882E+00
          3   -1    0    0  501    0  0.00000000000E+00  0.00000000000E+00  0.67664307299E+02  0.67664307299E+02  0.00000000000E+00 0. -1.
         -3   -1    0    0    0  501 -0.00000000000E+00 -0.00000000000E+00 -0.22553124582E+03  0.22553124582E+03  0.00000000000E+00 0.  1.
         23    2    1    2    0    0 -0.41371644153E+02  0.38469372742E+02 -0.90969055372E+02  0.14050426499E+03  0.90964684723E+02 0.  0.
          5    1    1    2  502    0 -0.10777084112E+02 -0.37974848635E+02  0.25023246347E+02  0.46924086870E+02  0.41800000000E+01 0. -1.
         -5    1    1    2    0  502  0.52148728266E+02 -0.49452410757E+00 -0.91921129496E+02  0.10576720126E+03  0.41800000000E+01 0. -1.
        -11    1    3    3    0    0 -0.59664222225E+02  0.45646483257E+00 -0.73940531260E+02  0.95011735785E+02  0.00000000000E+00 0.  1.
         11    1    3    3    0    0  0.18292578071E+02  0.38012907910E+02 -0.17028524111E+02  0.45492529207E+02  0.00000000000E+00 0. -1.
</event>
<event>
 7    1  0.6684706E-006  0.1558017E+03  0.7561462E-02  0.1193520E+00
          1   -1    0    0  501    0  0.00000000000E+00  0.00000000000E+00  0.17678742337E+04  0.17678742337E+04  0.00000000000E+00 0. -1.
         -1   -1    0    0    0  501 -0.00000000000E+00 -0.00000000000E+00 -0.18400258897E+02  0.18400258897E+02  0.00000000000E+00 0.  1.
         23    2    1    2    0    0 -0.29852135720E+02 -0.12730520066E+03  0.53244112995E+03  0.55586257910E+03  0.91607236984E+02 0.  0.
          5    1    1    2  502    0 -0.44110031207E+02  0.15983501412E+02  0.29664236933E+03  0.30035867701E+03  0.41800000000E+01 0.  1.
         -5    1    1    2    0  502  0.73962166927E+02  0.11132169925E+03  0.92039047548E+03  0.93005323644E+03  0.41800000000E+01 0.  1.
        -11    1    3    3    0    0 -0.18840755857E+02 -0.74843953844E+02  0.45608476191E+03  0.46256880737E+03  0.00000000000E+00 0. -1.
         11    1    3    3    0    0 -0.11011379863E+02 -0.52461246817E+02  0.76356368034E+02  0.93293771729E+02  0.00000000000E+00 0.  1.
</event>
<event>
 7    1  0.6684706E-006  0.1472359E+03  0.7561462E-02  0.1203911E+00
          2   -1    0    0  501    0  0.00000000000E+00  0.00000000000E+00  0.45045653552E+03  0.45045653552E+03  0.00000000000E+00 0. -1.
         -2   -1    0    0    0  501 -0.00000000000E+00 -0.00000000000E+00 -0.53700292393E+02  0.53700292393E+02  0.00000000000E+00 0.  1.
         23    2    1    2    0    0  0.18873034497E+02 -0.11022967660E+03  0.17480540014E+03  0.22600356899E+03  0.89520457134E+02 0.  0.
          5    1    1    2  502    0  0.52367460098E+02  0.34022376917E+02  0.95332072822E+02  0.11404187615E+03  0.41800000000E+01 0. -1.
         -5    1    1    2    0  502 -0.71240494596E+02  0.76207299683E+02  0.12661877017E+03  0.16411138277E+03  0.41800000000E+01 0. -1.
        -11    1    3    3    0    0  0.12288106967E+02  0.41043316225E+01 -0.40944481112E+01  0.13587038538E+02  0.00000000000E+00 0.  1.
         11    1    3    3    0    0  0.65849275304E+01 -0.11433400822E+03  0.17889984825E+03  0.21241653045E+03  0.00000000000E+00 0. -1.
</event>
<event>
 7    1  0.6684706E-006  0.1644936E+03  0.7561462E-02  0.1183715E+00
          1   -1    0    0  501    0  0.00000000000E+00  0.00000000000E+00  0.57051337334E+03  0.57051337334E+03  0.00000000000E+00 0. -1.
         -1   -1    0    0    0  501 -0.00000000000E+00 -0.00000000000E+00 -0.55632866056E+02  0.55632866056E+02  0.00000000000E+00 0.  1.
         23    2    1    2    0    0 -0.11720616508E+03 -0.78948409020E+02  0.20968401754E+03  0.26731028077E+03  0.86702148607E+02 0.  0.
          5    1    1    2  502    0 -0.22388444287E+02  0.29153259924E+02  0.36639334488E+02  0.52067919427E+02  0.41800000000E+01 0. -1.
         -5    1    1    2    0  502  0.13959460936E+03  0.49795149097E+02  0.26855715525E+03  0.30676803920E+03  0.41800000000E+01 0. -1.
        -11    1    3    3    0    0 -0.49030102256E+02 -0.48807259401E+02  0.35309872444E+02  0.77671658856E+02  0.00000000000E+00 0.  1.
         11    1    3    3    0    0 -0.68176062821E+02 -0.30141149620E+02  0.17437414510E+03  0.18963862191E+03  0.00000000000E+00 0. -1.
</event>
<event>
 7    1  0.6684706E-006  0.1832853E+03  0.7561462E-02  0.1164661E+00
          2   -1    0    0  501    0  0.00000000000E+00  0.00000000000E+00  0.21068014594E+03  0.21068014594E+03  0.00000000000E+00 0.  1.
         -2   -1    0    0    0  501 -0.00000000000E+00 -0.00000000000E+00 -0.22019495212E+03  0.22019495212E+03  0.00000000000E+00 0. -1.
         23    2    1    2    0    0  0.13270895117E+01  0.15078552753E+03 -0.69579481647E+02  0.18913741967E+03  0.90518632192E+02 0.  0.
          5    1    1    2  502    0 -0.63226818141E+02 -0.65855818206E+02 -0.37019893371E+02  0.98603063994E+02  0.41800000000E+01 0. -1.
         -5    1    1    2    0  502  0.61899728629E+02 -0.84929709323E+02  0.97084568844E+02  0.14313461439E+03  0.41800000000E+01 0.  1.
        -11    1    3    3    0    0 -0.38566566762E+02  0.77402198182E+02 -0.59578537936E+02  0.10501467773E+03  0.00000000000E+00 0. -1.
         11    1    3    3    0    0  0.39893656273E+02  0.73383329346E+02 -0.10000943711E+02  0.84122741942E+02  0.00000000000E+00 0.  1.
</event>
<event>
 7    1  0.6684706E-006  0.1247270E+03  0.7561462E-02  0.1235497E+00
         -1   -1    0    0    0  501 -0.00000000000E+00  0.00000000000E+00  0.39107391323E+02  0.39107391323E+02  0.00000000000E+00 0.  1.
          1   -1    0    0  501    0  0.00000000000E+00 -0.00000000000E+00 -0.69556577389E+03  0.69556577389E+03  0.00000000000E+00 0. -1.
         23    2    1    2    0    0 -0.63222047690E+02  0.48875685482E+02 -0.92198981628E+02  0.15253424652E+03  0.91543346025E+02 0.  0.
          5    1    1    2  502    0  0.90072496804E+02 -0.23623145768E+02 -0.49369898262E+03  0.50242140235E+03  0.41800000000E+01 0. -1.
         -5    1    1    2    0  502 -0.26850449114E+02 -0.25252539714E+02 -0.70560418314E+02  0.79717516346E+02  0.41800000000E+01 0.  1.
        -11    1    3    3    0    0 -0.79411355371E+02  0.13919067225E+02 -0.47697437692E+02  0.93674699662E+02  0.00000000000E+00 0.  1.
         11    1    3    3    0    0  0.16189307681E+02  0.34956618257E+02 -0.44501543936E+02  0.58859546854E+02  0.00000000000E+00 0. -1.
</event>
<event>
 7    1  0.6684706E-006  0.1400977E+03  0.7561462E-02  0.1213198E+00
          1   -1    0    0  501    0  0.00000000000E+00  0.00000000000E+00  0.21298909878E+03  0.21298909878E+03  0.00000000000E+00 0. -1.
         -1   -1    0    0    0  501 -0.00000000000E+00 -0.00000000000E+00 -0.10798950643E+03  0.10798950643E+03  0.00000000000E+00 0.  1.
         23    2    1    2    0    0  0.15820936261E+02 -0.10497783733E+03  0.44959584050E+02  0.14627354037E+03  0.90021864346E+02 0.  0.
          5    1    1    2  502    0 -0.54851158722E+01  0.12621629668E+03  0.74471955982E+02  0.14671122886E+03  0.41800000000E+01 0.  1.
         -5    1    1    2    0  502 -0.10335820389E+02 -0.21238459350E+02 -0.14431947685E+02  0.27993835976E+02  0.41800000000E+01 0.  1.
        -11    1    3    3    0    0  0.14995926798E+02  0.78819038359E+01  0.27167773834E+02  0.32017029277E+02  0.00000000000E+00 0. -1.
         11    1    3    3    0    0  0.82500946301E+00 -0.11285974117E+03  0.17791810216E+02  0.11425651110E+03  0.00000000000E+00 0.  1.
</event>
<event>
 7    1  0.6684706E-006  0.2109532E+03  0.7561462E-02  0.1140813E+00
          1   -1    0    0  501    0  0.00000000000E+00  0.00000000000E+00  0.18063132971E+04  0.18063132971E+04  0.00000000000E+00 0. -1.
         -1   -1    0    0    0  501 -0.00000000000E+00 -0.00000000000E+00 -0.28998419420E+02  0.28998419420E+02  0.00000000000E+00 0.  1.
         23    2    1    2    0    0  0.55730052805E+01 -0.19715380180E+03  0.10009634464E+04  0.10245928960E+04  0.94668376445E+02 0.  0.
          5    1    1    2  502    0 -0.18194266039E+02  0.18207224257E+03  0.76701801270E+03  0.78855274842E+03  0.41800000000E+01 0. -1.
         -5    1    1    2    0  502  0.12621260758E+02  0.15081559224E+02  0.93334186022E+01  0.22166072150E+02  0.41800000000E+01 0. -1.
        -11    1    3    3    0    0 -0.18314547909E+02  0.17897581687E+01  0.83214992257E+02  0.85225353245E+02  0.00000000000E+00 0. -1.
         11    1    3    3    0    0  0.23887553189E+02 -0.19894355997E+03  0.91774845412E+03  0.93936754271E+03  0.00000000000E+00 0.  1.
</event>
<event>
 7    1  0.6684706E-006  0.1315047E+03  0.7561462E-02  0.1225240E+00
         -2   -1    0    0    0  501 -0.00000000000E+00  0.00000000000E+00  0.87928689852E+02  0.87928689852E+02  0.00000000000E+00 0.  1.
          2   -1    0    0  501    0  0.00000000000E+00 -0.00000000000E+00 -0.37477612867E+03  0.37477612867E+03  0.00000000000E+00 0. -1.
         23    2    1    2    0    0 -0.48137811061E+02  0.27561825158E+01  0.26727189803E+02  0.11283171235E+03  0.98446976802E+02 0.  0.
          5    1    1    2  502    0  0.10079409180E+03 -0.64552958292E+01 -0.22523418019E+03  0.24687856957E+03  0.41800000000E+01 0. -1.
         -5    1    1    2    0  502 -0.52656280740E+02  0.36991133134E+01 -0.88340448425E+02  0.10299453660E+03  0.41800000000E+01 0.  1.
        -11    1    3    3    0    0 -0.45982077922E+02 -0.43124252097E+02  0.93805968585E+01  0.63734199660E+02  0.00000000000E+00 0.  1.
         11    1    3    3    0    0 -0.21557331395E+01  0.45880434613E+02  0.17346592945E+02  0.49097512691E+02  0.00000000000E+00 0. -1.
</event>
<event>
 7    1  0.6684706E-006  0.1253991E+03  0.7561462E-02  0.1234447E+00
          2   -1    0    0  501    0  0.00000000000E+00  0.00000000000E+00  0.77956907660E+03  0.77956907660E+03  0.00000000000E+00 0. -1.
         -2   -1    0    0    0  501 -0.00000000000E+00 -0.00000000000E+00 -0.29809407486E+02  0.29809407486E+02  0.00000000000E+00 0.  1.
         23    2    1    2    0    0  0.10264949437E+03 -0.32070812899E+01  0.26466687109E+03  0.29799669145E+03  0.90588472752E+02 0.  0.
          5    1    1    2  502    0 -0.74598521059E+02 -0.48075861357E+02  0.18024851710E+03  0.20095578645E+03  0.41800000000E+01 0. -1.
         -5    1    1    2    0  502 -0.28050973309E+02  0.51282942647E+02  0.30484428092E+03  0.31042600619E+03  0.41800000000E+01 0. -1.
        -11    1    3    3    0    0  0.50800905078E+02 -0.73744292663E+01  0.22959035682E+03  0.23525910420E+03  0.00000000000E+00 0. -1.
         11    1    3    3    0    0  0.51848589291E+02  0.41673479764E+01  0.35076514278E+02  0.62737587255E+02  0.00000000000E+00 0.  1.
</event>
<event>
 7    1  0.6684706E-006  0.8303133E+02  0.7561462E-02  0.1320663E+00
          1   -1    0    0  501    0  0.00000000000E+00  0.00000000000E+00  0.50635949643E+03  0.50635949643E+03  0.00000000000E+00 0. -1.
         -1   -1    0    0    0  501 -0.00000000000E+00 -0.00000000000E+00 -0.29577389666E+02  0.29577389666E+02  0.00000000000E+00 0.  1.
         23    2    1    2    0    0 -0.26858223666E+02 -0.15793942960E+01  0.83328600938E+02  0.12590462553E+03  0.90468007222E+02 0.  0.
          5    1    1    2  502    0 -0.23544749247E+02  0.25406222917E+02  0.29299142902E+03  0.29506148725E+03  0.41800000000E+01 0. -1.
         -5    1    1    2    0  502  0.50402972913E+02 -0.23826828621E+02  0.10046207681E+03  0.11497077332E+03  0.41800000000E+01 0.  1.
        -11    1    3    3    0    0  0.24082458145E+02 -0.32284830082E+01 -0.41613374341E+01  0.24651665706E+02  0.00000000000E+00 0.  1.
         11    1    3    3    0    0 -0.50940681810E+02  0.16490887122E+01  0.87489938372E+02  0.10125295982E+03  0.00000000000E+00 0. -1.
</event>
<event>
 7    1  0.6684706E-006  0.1244208E+03  0.7561462E-02  0.1235977E+00
         -1   -1    0    0    0  501 -0.00000000000E+00  0.00000000000E+00  0.68415769921E+02  0.68415769921E+02  0.00000000000E+00 0.  1.
          1   -1    0    0  501    0  0.00000000000E+00 -0.00000000000E+00 -0.34787774634E+03  0.34787774634E+03  0.00000000000E+00 0. -1.
         23    2    1    2    0    0  0.54894058856E+02  0.81853414996E+02 -0.66193000211E+02  0.15012710106E+03  0.91887398223E+02 0.  0.
          5    1    1    2  502    0  0.15561897873E+02 -0.68994349991E+02 -0.16535773302E+03  0.17989731867E+03  0.41800000000E+01 0.  1.
         -5    1    1    2    0  502 -0.70455956729E+02 -0.12859065005E+02 -0.47911243187E+02  0.86269096524E+02  0.41800000000E+01 0.  1.
        -11    1    3    3    0    0  0.39795820692E+02  0.24033076417E+02  0.15414885802E+02  0.48978717939E+02  0.00000000000E+00 0.  1.
         11    1    3    3    0    0  0.15098238164E+02  0.57820338579E+02 -0.81607886013E+02  0.10114838312E+03  0.00000000000E+00 0. -1.
</event>
<event>
 7    1  0.6684706E-006  0.7144456E+02  0.7561462E-02  0.1355249E+00
          1   -1    0    0  501    0  0.00000000000E+00  0.00000000000E+00  0.72359376079E+02  0.72359376079E+02  0.00000000000E+00 0. -1.
         -1   -1    0    0    0  501 -0.00000000000E+00 -0.00000000000E+00 -0.17981413295E+03  0.17981413295E+03  0.00000000000E+00 0.  1.
         23    2    1    2    0    0 -0.13676650367E+02 -0.22009477124E+02 -0.74050893412E+02  0.12013610318E+03  0.90981759846E+02 0.  0.
          5    1    1    2  502    0  0.10143454884E+01  0.31667665629E+02  0.43170744412E+02  0.53712712799E+02  0.41800000000E+01 0. -1.
         -5    1    1    2    0  502  0.12662304879E+02 -0.96581885051E+01 -0.76574607875E+02  0.78324693049E+02  0.41800000000E+01 0. -1.
        -11    1    3    3    0    0  0.25718770023E+01 -0.56385042819E+02 -0.47359871956E+02  0.73680696772E+02  0.00000000000E+00 0. -1.
         11    1    3    3    0    0 -0.16248527370E+02  0.34375565696E+02 -0.26691021455E+02  0.46455406412E+02  0.00000000000E+00 0.  1.
</event>
<event>
 7    1  0.6684706E-006  0.1071837E+03  0.7561462E-02  0.1265876E+00
         -2   -1    0    0    0  501 -0.00000000000E+00  0.00000000000E+00  0.28427726287E+02  0.28427726287E+02  0.00000000000E+00 0.  1.
          2   -1    0    0  501    0  0.00000000000E+00 -0.00000000000E+00 -0.22173925684E+04  0.22173925684E+04  0.00000000000E+00 0. -1.
         23    2    1    2    0    0  0.27051048461E+02 -0.17511298909E+02 -0.77771950749E+02  0.12486570430E+03  0.92220187455E+02 0.  0.
          5    1    1    2  502    0 -0.54860819729E+02 -0.32088880753E+02 -0.19289301163E+04  0.19299814175E+04  0.41800000000E+01 0. -1.
         -5    1    1    2    0  502  0.27809771268E+02  0.49600179662E+02 -0.18226277504E+03  0.19097317290E+03  0.41800000000E+01 0.  1.
        -11    1    3    3    0    0 -0.30936436940E+02 -0.17752303667E+02 -0.47650300844E+02  0.59521076826E+02  0.00000000000E+00 0. -1.
         11    1    3    3    0    0  0.57987485401E+02  0.24100475802E+00 -0.30121649905E+02  0.65344627472E+02  0.00000000000E+00 0.  1.
</event>
<event>
 7    1  0.6684706E-006  0.1377318E+03  0.7561462E-02  0.1216414E+00
          1   -1    0    0  501    0  0.00000000000E+00  0.00000000000E+00  0.46863337381E+03  0.46863337381E+03  0.00000000000E+00 0. -1.
         -1   -1    0    0    0  501 -0.00000000000E+00 -0.00000000000E+00 -0.64553209346E+02  0.64553209346E+02  0.00000000000E+00 0.  1.
         23    2    1    2    0    0  0.30503040190E+02 -0.11998836388E+03  0.10025061040E+03  0.18206254011E+03  0.88141594589E+02 0.  0.
          5    1    1    2  502    0 -0.33448271163E+02  0.12866748425E+03  0.31133806221E+03  0.33856014196E+03  0.41800000000E+01 0.  1.
         -5    1    1    2    0  502  0.29452309722E+01 -0.86791203698E+01 -0.75085081461E+01  0.12563901084E+02  0.41800000000E+01 0.  1.
        -11    1    3    3    0    0  0.42500662949E+02 -0.10432672062E+03  0.41441486613E+02  0.12003236146E+03  0.00000000000E+00 0.  1.
         11    1    3    3    0    0 -0.11997622759E+02 -0.15661643262E+02  0.58809123789E+02  0.62030178642E+02  0.00000000000E+00 0. -1.
</event>
<event>
 6    1  0.6684706E-006  0.1120893E+03  0.7561462E-02  0.1256749E+00
         -1   -1    0    0    0  501 -0.00000000000E+00  0.00000000000E+00  0.25487438958E+02  0.25487438958E+02  0.00000000000E+00 0.  1.
          1   -1    0    0  501    0  0.00000000000E+00 -0.00000000000E+00 -0.84440047290E+03  0.84440047290E+03  0.00000000000E+00 0. -1.
          5    1    1    2  502    0  0.67618848241E+02  0.12351118418E+02 -0.39026436057E+03  0.39629358094E+03  0.41800000000E+01 0.  1.
         -5    1    1    2    0  502 -0.50454691865E+02  0.18784790475E+02 -0.15070651846E+03  0.16008894837E+03  0.41800000000E+01 0.  1.
        -11    1    1    2    0    0  0.17728607882E+02  0.27712821822E+02 -0.64488379589E+01  0.33524491671E+02  0.00000000000E+00 0.  1.
         11    1    1    2    0    0 -0.34892764258E+02 -0.58848730715E+02 -0.27149331696E+03  0.27998089088E+03  0.00000000000E+00 0. -1.
</event>
<event>
 7    1  0.6684706E-006  0.1118388E+03  0.7561462E-02  0.1257202E+00
          1   -1    0    0  501    0  0.00000000000E+00  0.00000000000E+00  0.11416578311E+03  0.11416578311E+03  0.00000000000E+00 0. -1.
         -1   -1    0    0    0  501 -0.00000000000E+00 -0.00000000000E+00 -0.12076387792E+03  0.12076387792E+03  0.00000000000E+00 0.  1.
         23    2    1    2    0    0 -0.43254541721E+02 -0.11824367542E+02 -0.15131871918E+01  0.10194980120E+03  0.91546169670E+02 0.  0.
          5    1    1    2  502    0  0.78183277409E+02 -0.24033844489E+02 -0.99934992762E+01  0.82508138842E+02  0.41800000000E+01 0.  1.
         -5    1    1    2    0  502 -0.34928735688E+02  0.35858212031E+02  0.49085916587E+01  0.50471720982E+02  0.41800000000E+01 0.  1.
        -11    1    3    3    0    0 -0.49757280434E+02 -0.39239818081E+02  0.20055124211E+02  0.66466219137E+02  0.00000000000E+00 0.  1.
         11    1    3    3    0    0  0.65027387127E+01  0.27415450539E+02 -0.21568311403E+02  0.35483582060E+02  0.00000000000E+00 0. -1.
</event>
<event>
 7    1  0.6684706E-006  0.7586509E+02  0.7561462E-02  0.1341213E+00
          2   -1    0    0  501    0  0.00000000000E+00  0.00000000000E+00  0.11161009952E+03  0.11161009952E+03  0.00000000000E+00 0. -1.
         -2   -1    0    0    0  501 -0.00000000000E+00 -0.00000000000E+00 -0.11095433161E+03  0.11095433161E+03  0.00000000000E+00 0.  1.
         23    2    1    2    0    0  0.21602872998E+02  0.13607622824E+02 -0.17505106133E+01  0.94869703319E+02  0.91352858738E+02 0.  0.
          5    1    1    2  502    0 -0.23871248900E+02  0.16760433117E+02  0.57497795178E+02  0.64608184409E+02  0.41800000000E+01 0.  1.
         -5    1    1    2    0  502  0.22683759021E+01 -0.30368055942E+02 -0.55091516656E+02  0.63086543401E+02  0.41800000000E+01 0.  1.
        -11    1    3    3    0    0 -0.90252201726E+01 -0.33856135934E+02  0.11446324924E+02  0.36860695786E+02  0.00000000000E+00 0. -1.
         11    1    3    3    0    0  0.30628093171E+02  0.47463758758E+02 -0.13196835538E+02  0.58009007533E+02  0.00000000000E+00 0.  1.
</event>
<event>
 7    1  0.6684706E-006  0.1767571E+03  0.7561462E-02  0.1170979E+00
         -2   -1    0    0    0  501 -0.00000000000E+00  0.00000000000E+00  0.83669892833E+02  0.83669892833E+02  0.00000000000E+00 0.  1.
          2   -1    0    0  501    0  0.00000000000E+00 -0.00000000000E+00 -0.63783302016E+03  0.63783302016E+03  0.00000000000E+00 0. -1.
         23    2    1    2    0    0 -0.10438470263E+03 -0.11895034885E+03 -0.67360214396E+02  0.19460172752E+03  0.91033412753E+02 0.  0.
          5    1    1    2  502    0  0.49476156721E+02  0.10254849148E+03 -0.43454298628E+03  0.44923174700E+03  0.41800000000E+01 0.  1.
         -5    1    1    2    0  502  0.54908545907E+02  0.16401857370E+02 -0.52259926651E+02  0.77669438470E+02  0.41800000000E+01 0.  1.
        -11    1    3    3    0    0 -0.33496351087E+02 -0.10454784079E+03 -0.47270197005E+02  0.11952710184E+03  0.00000000000E+00 0.  1.
         11    1    3    3    0    0 -0.70888351541E+02 -0.14402508062E+02 -0.20090017391E+02  0.75074625683E+02  0.00000000000E+00 0. -1.
</event>
<event>
 7    1  0.6684706E-006  0.7955010E+02  0.7561462E-02  0.1330333E+00
          1   -1    0    0  501    0  0.00000000000E+00  0.00000000000E+00  0.14231700325E+03  0.14231700325E+03  0.00000000000E+00 0. -1.
         -1   -1    0    0    0  501 -0.00000000000E+00 -0.00000000000E+00 -0.11501465929E+03  0.11501465929E+03  0.00000000000E+00 0.  1.
         23    2    1    2    0    0  0.42924094271E+02  0.25257536130E+02 -0.34835301737E+02  0.10904348066E+03  0.90534863049E+02 0.  0.
          5    1    1    2  502    0 -0.21697628399E+02 -0.32253321978E+02 -0.32572402114E+02  0.50887106778E+02  0.41800000000E+01 0. -1.
         -5    1    1    2    0  502 -0.21226465872E+02  0.69957858479E+01  0.94710047817E+02  0.97401075099E+02  0.41800000000E+01 0. -1.
        -11    1    3    3    0    0  0.48015572607E+02 -0.19788721675E+02 -0.10131573448E+00  0.51933601678E+02  0.00000000000E+00 0. -1.
         11    1    3    3    0    0 -0.50914783361E+01  0.45046257805E+02 -0.34733986002E+02  0.57109878984E+02  0.00000000000E+00 0.  1.
</event>
<event>
 7    1  0.6684706E-006  0.9528921E+02  0.7561462E-02  0.1290526E+00
         -1   -1    0    0    0  501 -0.00000000000E+00  0.00000000000E+00  0.98154918907E+02  0.98154918907E+02  0.00000000000E+00 0.  1.
          1   -1    0    0  501    0  0.00000000000E+00 -0.00000000000E+00 -0.12359204687E+03  0.12359204687E+03  0.00000000000E+00 0. -1.
         23    2    1    2    0    0  0.12708796763E+02  0.15317728756E+02 -0.28987910688E+01  0.93126003894E+02  0.90928011538E+02 0.  0.
          5    1    1    2  502    0  0.39981626551E+02  0.33538268031E+02  0.25026596490E+01  0.52412609070E+02  0.41800000000E+01 0.  1.
         -5    1    1    2    0  502 -0.52690423314E+02 -0.48855996787E+02 -0.25040996546E+02  0.76208352817E+02  0.41800000000E+01 0.  1.
        -11    1    3    3    0    0  0.31526585802E+02  0.29115672799E+02 -0.33642705462E+02  0.54529621727E+02  0.00000000000E+00 0. -1.
         11    1    3    3    0    0 -0.18817789039E+02 -0.13797944043E+02  0.30743914394E+02  0.38596382167E+02  0.00000000000E+00 0.  1.
</event>
<event>
 7    1  0.6684706E-006  0.7427661E+02  0.7561462E-02  0.1346126E+00
          1   -1    0    0  501    0  0.00000000000E+00  0.00000000000E+00  0.68089043971E+03  0.68089043971E+03  0.00000000000E+00 0. -1.
         -1   -1    0    0    0  501 -0.00000000000E+00 -0.00000000000E+00 -0.19534786735E+02  0.19534786735E+02  0.00000000000E+00 0.  1.
         23    2    1    2    0    0  0.34973193903E+01  0.32107186104E+02  0.20048278777E+03  0.22178605679E+03  0.89177374672E+02 0.  0.
          5    1    1    2  502    0  0.22557237093E+01  0.10353283177E+02  0.41705532463E+03  0.41721085193E+03  0.41800000000E+01 0.  1.
         -5    1    1    2    0  502 -0.57530430996E+01 -0.42460469281E+02  0.43817540570E+02  0.61428317721E+02  0.41800000000E+01 0.  1.
        -11    1    3    3    0    0 -0.41278333017E+02  0.45355572580E+01  0.10233223900E+03  0.11043712779E+03  0.00000000000E+00 0.  1.
         11    1    3    3    0    0  0.44775652407E+02  0.27571628846E+02  0.98150548768E+02  0.11134892900E+03  0.00000000000E+00 0. -1.
</event>
<event>
 7    1  0.6684706E-006  0.9473698E+02  0.7561462E-02  0.1291770E+00
          1   -1    0    0  501    0  0.00000000000E+00  0.00000000000E+00  0.15376288222E+03  0.15376288222E+03  0.00000000000E+00 0. -1.
         -1   -1    0    0    0  501 -0.00000000000E+00 -0.00000000000E+00 -0.15185408319E+03  0.15185408319E+03  0.00000000000E+00 0.  1.
         23    2    1    2    0    0  0.26774471514E+01  0.33595880846E+02 -0.10602133887E+03  0.14392449997E+03  0.91312022545E+02 0.  0.
          5    1    1    2  502    0  0.42511294320E+02 -0.51691471678E+02  0.83425752366E+02  0.10703526030E+03  0.41800000000E+01 0. -1.
         -5    1    1    2    0  502 -0.45188741472E+02  0.18095590832E+02  0.24504385535E+02  0.54657205141E+02  0.41800000000E+01 0.  1.
        -11    1    3    3    0    0 -0.73353537040E+01  0.52050202565E+02 -0.11058181606E+03  0.12243924634E+03  0.00000000000E+00 0.  1.
         11    1    3    3    0    0  0.10012800855E+02 -0.18454321719E+02  0.45604771910E+01  0.21485253624E+02  0.00000000000E+00 0. -1.
</event>
<event>
 7    1  0.6684706E-006  0.9281978E+02  0.7561462E-02  0.1296163E+00
          2   -1    0    0  501    0  0.00000000000E+00  0.00000000000E+00  0.30337170762E+03  0.30337170762E+03  0.00000000000E+00 0. -1.
         -2   -1    0    0    0  501 -0.00000000000E+00 -0.00000000000E+00 -0.55194196207E+02  0.55194196207E+02  0.00000000000E+00 0.  1.
         23    2    1    2    0    0  0.11479521112E+02  0.86168154706E+01  0.14642575958E+02  0.93251531539E+02  0.90969303559E+02 0.  0.
          5    1    1    2  502    0 -0.52927393345E+02 -0.28660586264E+02  0.19805015877E+03  0.20703641216E+03  0.41800000000E+01 0. -1.
         -5    1    1    2    0  502  0.41447872233E+02  0.20043770794E+02  0.35484776688E+02  0.58277960130E+02  0.41800000000E+01 0. -1.
        -11    1    3    3    0    0 -0.32362749219E+02 -0.58934329072E+01 -0.17235141189E+02  0.37136642016E+02  0.00000000000E+00 0.  1.
         11    1    3    3    0    0  0.43842270331E+02  0.14510248378E+02  0.31877717146E+02  0.56114889523E+02  0.00000000000E+00 0. -1.
</event>
<event>
 7    1  0.6684706E-006  0.9797950E+02  0.7561462E-02  0.1284603E+00
          2   -1    0    0  501    0  0.00000000000E+00  0.00000000000E+00  0.63849580223E+02  0.63849580223E+02  0.00000000000E+00 0. -1.
         -2   -1    0    0    0  501 -0.00000000000E+00 -0.00000000000E+00 -0.20241223538E+03  0.20241223538E+03  0.00000000000E+00 0.  1.
         23    2    1    2    0    0  0.16404599390E+02  0.91511211831E+01 -0.95203338322E+02  0.13254627834E+03  0.90288351265E+02 0.  0.
          5    1    1    2  502    0 -0.28313161516E+02  0.42814402459E+02  0.15896838226E+02  0.53897031816E+02  0.41800000000E+01 0.  1.
         -5    1    1    2    0  502  0.11908562126E+02 -0.51965523642E+02 -0.59256155063E+02  0.79818505449E+02  0.41800000000E+01 0.  1.
        -11    1    3    3    0    0  0.11180141512E+01  0.48632864438E+02 -0.61612050268E+02  0.78501275132E+02  0.00000000000E+00 0.  1.
         11    1    3    3    0    0  0.15286585239E+02 -0.39481743255E+02 -0.33591288054E+02  0.54045003208E+02  0.00000000000E+00 0. -1.
</event>
<event>
 7    1  0.6684706E-006  0.1245128E+03  0.7561462E-02  0.1235833E+00
          1   -1    0    0  501    0  0.00000000000E+00  0.00000000000E+00  0.14718266832E+03  0.14718266832E+03  0.00000000000E+00 0. -1.
         -1   -1    0    0    0  501 -0.00000000000E+00 -0.00000000000E+00 -0.13725183467E+03  0.13725183467E+03  0.00000000000E+00 0.  1.
         23    2    1    2    0    0  0.46001880062E+02 -0.44594725052E+02 -0.61407414464E+02  0.12682155712E+03  0.90597871539E+02 0.  0.
          5    1    1    2  502    0 -0.44813528640E+02 -0.37343825109E+02  0.30482738229E+02  0.65950612983E+02  0.41800000000E+01 0. -1.
         -5    1    1    2    0  502 -0.11883514220E+01  0.81938550161E+02  0.40855509894E+02  0.91662332887E+02  0.41800000000E+01 0. -1.
        -11    1    3    3    0    0  0.62531552594E+02 -0.17391451839E+01 -0.22033993186E+02  0.66322820745E+02  0.00000000000E+00 0.  1.
         11    1    3    3    0    0 -0.16529672533E+02 -0.42855579868E+02 -0.39373421277E+02  0.60498736375E+02  0.00000000000E+00 0. -1.
</event>
<event>
 7    1  0.6684706E-006  0.2041203E+03  0.7561462E-02  0.1146309E+00
          1   -1    0    0  501    0  0.00000000000E+00  0.00000000000E+00  0.82964638120E+03  0.82964638120E+03  0.00000000000E+00 0. -1.
         -1   -1    0    0    0  501 -0.00000000000E+00 -0.00000000000E+00 -0.10839895981E+03  0.10839895981E+03  0.00000000000E+00 0.  1.
         23    2    1    2    0    0  0.33221502675E+02  0.84306221363E+02 -0.20306713132E+02  0.12970009275E+03  0.90545813051E+02 0.  0.
          5    1    1    2  502    0 -0.10531521842E+03 -0.17329374344E+03  0.40765632552E+03  0.45532754022E+03  0.41800000000E+01 0. -1.
         -5    1    1    2    0  502  0.72093715746E+02  0.88987522072E+02  0.33389780900E+03  0.35301770804E+03  0.41800000000E+01 0.  1.
        -11    1    3    3    0    0  0.22432296786E+02  0.63953387516E+02 -0.55526935663E+02  0.87615548266E+02  0.00000000000E+00 0.  1.
         11    1    3    3    0    0  0.10789205889E+02  0.20352833847E+02  0.35220222532E+02  0.42084544485E+02  0.00000000000E+00 0. -1.
</event>
<event>
 7    1  0.6684706E-006  0.2257144E+03  0.7561462E-02  0.1129693E+00
          2   -1    0    0  501    0  0.00000000000E+00  0.00000000000E+00  0.70128774981E+03  0.70128774981E+03  0.00000000000E+00 0. -1.
         -2   -1    0    0    0  501 -0.00000000000E+00 -0.00000000000E+00 -0.85704653882E+02  0.85704653882E+02  0.00000000000E+00 0.  1.
         23    2    1    2    0    0 -0.20513194580E+03 -0.73682653410E+02  0.25271990764E+03  0.34560136029E+03  0.89803674284E+02 0.  0.
          5    1    1    2  502    0  0.18726165675E+03  0.79729718744E+02  0.23008358504E+03  0.30721276771E+03  0.41800000000E+01 0.  1.
         -5    1    1    2    0  502  0.17870289049E+02 -0.60470653335E+01  0.13277960325E+03  0.13417827570E+03  0.41800000000E+01 0.  1.
        -11    1    3    3    0    0 -0.49704041003E+02 -0.51427704459E+02  0.12144391680E+03  0.14093943878E+03  0.00000000000E+00 0.  1.
         11    1    3    3    0    0 -0.15542790479E+03 -0.22254948952E+02  0.13127599084E+03  0.20466192150E+03  0.00000000000E+00 0. -1.
</event>
<event>
 7    1  0.6684706E-006  0.9259554E+02  0.7561462E-02  0.1296685E+00
         -1   -1    0    0    0  501 -0.00000000000E+00  0.00000000000E+00  0.47465118484E+02  0.47465118484E+02  0.00000000000E+00 0.  1.
          1   -1    0    0  501    0  0.00000000000E+00 -0.00000000000E+00 -0.35282442685E+03  0.35282442685E+03  0.00000000000E+00 0. -1.
         23    2    1    2    0    0  0.30575190310E+02  0.43823932141E+02 -0.63082359108E+02  0.12243850008E+03  0.90312917012E+02 0.  0.
          5    1    1    2  502    0 -0.74230646813E+01  0.26730756251E+02 -0.41263947844E+01  0.28357269842E+02  0.41800000000E+01 0. -1.
         -5    1    1    2    0  502 -0.23152125629E+02 -0.70554688392E+02 -0.23815055448E+03  0.24949377542E+03  0.41800000000E+01 0. -1.
        -11    1    3    3    0    0  0.57258953057E+01  0.55154749106E+02 -0.19527967520E+01  0.55485544434E+02  0.00000000000E+00 0.  1.
         11    1    3    3    0    0  0.24849295004E+02 -0.11330816964E+02 -0.61129562356E+02  0.66952955642E+02  0.00000000000E+00 0. -1.
</event>
<event>
 7    1  0.6684706E-006  0.1071048E+03  0.7561462E-02  0.1266027E+00
         -2   -1    0    0    0  501 -0.00000000000E+00  0.00000000000E+00  0.38965767651E+02  0.38965767651E+02  0.00000000000E+00 0.  1.
          2   -1    0    0  501    0  0.00000000000E+00 -0.00000000000E+00 -0.33935106544E+03  0.33935106544E+03  0.00000000000E+00 0. -1.
         23    2    1    2    0    0  0.31828966783E+02 -0.92969613411E+01 -0.10047856760E+03  0.14017849804E+03  0.91948638644E+02 0.  0.
          5    1    1    2  502    0 -0.70915984721E+02 -0.14602661238E+02 -0.71937191521E+02  0.10215060709E+03  0.41800000000E+01 0. -1.
         -5    1    1    2    0  502  0.39087017938E+02  0.23899622579E+02 -0.12796953867E+03  0.13598772797E+03  0.41800000000E+01 0. -1.
        -11    1    3    3    0    0  0.53020365602E+02  0.22394983765E+02 -0.74059794408E+02  0.93795243025E+02  0.00000000000E+00 0. -1.
         11    1    3    3    0    0 -0.21191398819E+02 -0.31691945106E+02 -0.26418773189E+02  0.46383255010E+02  0.00000000000E+00 0.  1.
</event>
<event>
 7    1  0.6684706E-006  0.1445474E+03  0.7561462E-02  0.1207338E+00
          4   -1    0    0  501    0  0.00000000000E+00  0.00000000000E+00  0.23379461919E+03  0.23379461919E+03  0.00000000000E+00 0. -1.
         -4   -1    0    0    0  501 -0.00000000000E+00 -0.00000000000E+00 -0.13067698304E+03  0.13067698304E+03  0.00000000000E+00 0.  1.
         23    2    1    2    0    0 -0.58402870180E+02  0.88499509478E+02 -0.41499681215E+02  0.14583144408E+03  0.91112722046E+02 0.  0.
          5    1    1    2  502    0  0.93216733965E+00  0.26370938868E+02  0.21931021574E+01  0.26806294965E+02  0.41800000000E+01 0.  1.
         -5    1    1    2    0  502  0.57470702841E+02 -0.11487044835E+03  0.14242421521E+03  0.19183386319E+03  0.41800000000E+01 0.  1.
        -11    1    3    3    0    0  0.57885253686E+01  0.65382708552E+02 -0.41400906590E+02  0.77604385636E+02  0.00000000000E+00 0.  1.
         11    1    3    3    0    0 -0.64191395549E+02  0.23116800926E+02 -0.98774625594E-01  0.68227058445E+02  0.00000000000E+00 0. -1.
</event>
<event>
 7    1  0.6684706E-006  0.9431450E+02  0.7561462E-02  0.1292728E+00
         -1   -1    0    0    0  501 -0.00000000000E+00  0.00000000000E+00  0.26733006810E+03  0.26733006810E+03  0.00000000000E+00 0.  1.
          1   -1    0    0  501    0  0.00000000000E+00 -0.00000000000E+00 -0.46520487434E+02  0.46520487434E+02  0.00000000000E+00 0. -1.
         23    2    1    2    0    0  0.13558048439E+02  0.16997406726E+02  0.11432977238E+03  0.14814689472E+03  0.91670458986E+02 0.  0.
          5    1    1    2  502    0  0.29808365711E+02 -0.37427047491E+02  0.10731966769E+03  0.11757680904E+03  0.41800000000E+01 0.  1.
         -5    1    1    2    0  502 -0.43366414150E+02  0.20429640764E+02 -0.83985940292E+00  0.48126851776E+02  0.41800000000E+01 0.  1.
        -11    1    3    3    0    0 -0.19060167342E+02 -0.29837797348E+02  0.30495325363E+02  0.46728460264E+02  0.00000000000E+00 0.  1.
         11    1    3    3    0    0  0.32618215781E+02  0.46835204074E+02  0.83834447015E+02  0.10141843446E+03  0.00000000000E+00 0. -1.
</event>
<event>
 7    1  0.6684706E-006  0.1218916E+03  0.7561462E-02  0.1240009E+00
          1   -1    0    0  501    0  0.00000000000E+00  0.00000000000E+00  0.44290150686E+03  0.44290150686E+03  0.00000000000E+00 0. -1.
         -1   -1    0    0    0  501 -0.00000000000E+00 -0.00000000000E+00 -0.46437371367E+02  0.46437371367E+02  0.00000000000E+00 0.  1.
         23    2    1    2    0    0 -0.29274580119E+02  0.88850359343E+02  0.18723743331E+03  0.22823609931E+03  0.91008094139E+02 0.  0.
          5    1    1    2  502    0  0.50736644368E+02 -0.56759575737E+02  0.20878197703E+03  0.22226840273E+03  0.41800000000E+01 0. -1.
         -5    1    1    2    0  502 -0.21462064250E+02 -0.32090783606E+02  0.44472516365E+00  0.38834376199E+02  0.41800000000E+01 0. -1.
        -11    1    3    3    0    0  0.13151594765E+02  0.85104850916E+02  0.14225001759E+03  0.16628550026E+03  0.00000000000E+00 0. -1.
         11    1    3    3    0    0 -0.42426174884E+02  0.37455084264E+01  0.44987415723E+02  0.61950599045E+02  0.00000000000E+00 0.  1.
</event>
<event>
 7    1  0.6684706E-006  0.1162597E+03  0.7561462E-02  0.1249398E+00
          2   -1    0    0  501    0  0.00000000000E+00  0.00000000000E+00  0.11034054255E+04  0.11034054255E+04  0.00000000000E+00 0. -1.
         -2   -1    0    0    0  501 -0.00000000000E+00 -0.00000000000E+00 -0.23127081653E+02  0.23127081653E+02  0.00000000000E+00 0.  1.
         23    2    1    2    0    0 -0.80071608940E+02 -0.82263660084E+02  0.42869777664E+03  0.45319639266E+03  0.91795502614E+02 0.  0.
          5    1    1    2  502    0  0.91365241478E+01  0.20571600095E+02  0.45309933873E+03  0.45367736329E+03  0.41800000000E+01 0.  1.
         -5    1    1    2    0  502  0.70935084792E+02  0.61692059989E+02  0.19848122848E+03  0.21965875120E+03  0.41800000000E+01 0.  1.
        -11    1    3    3    0    0 -0.45663100250E+02 -0.55877037484E+02  0.38474804588E+03  0.39145679308E+03  0.00000000000E+00 0. -1.
         11    1    3    3    0    0 -0.34408508690E+02 -0.26386622601E+02  0.43949730755E+02  0.61739599578E+02  0.00000000000E+00 0.  1.
</event>
<event>
 7    1  0.6684706E-006  0.9099945E+02  0.7561462E-02  0.1300449E+00
         -1   -1    0    0    0  501 -0.00000000000E+00  0.00000000000E+00  0.57744438891E+02  0.57744438891E+02  0.00000000000E+00 0.  1.
          1   -1    0    0  501    0  0.00000000000E+00 -0.00000000000E+00 -0.33983991320E+03  0.33983991320E+03  0.00000000000E+00 0. -1.
         23    2    1    2    0    0  0.15482319516E+02  0.50297043975E+02 -0.26308416950E+02  0.10802636606E+03  0.90598389120E+02 0.  0.
          5    1    1    2  502    0  0.31064558774E+02 -0.71484182749E+02 -0.19480072597E+03  0.20985659493E+03  0.41800000000E+01 0.  1.
         -5    1    1    2    0  502 -0.46546878289E+02  0.21187138774E+02 -0.60986331383E+02  0.79701391101E+02  0.41800000000E+01 0.  1.
        -11    1    3    3    0    0  0.11247275820E+02  0.37720732166E+02  0.30432505484E+02  0.49754318793E+02  0.00000000000E+00 0.  1.
         11    1    3    3    0    0  0.42350436960E+01  0.12576311809E+02 -0.56740922434E+02  0.58272047265E+02  0.00000000000E+00 0. -1.
</event>
<event>
 7    1  0.6684706E-006  0.6732940E+02  0.7561462E-02  0.1369417E+00
         -2   -1    0    0    0  501 -0.00000000000E+00  0.00000000000E+00  0.18511551196E+02  0.18511551196E+02  0.00000000000E+00 0.  1.
          2   -1    0    0  501    0  0.00000000000E+00 -0.00000000000E+00 -0.71306827457E+03  0.71306827457E+03  0.00000000000E+00 0. -1.
         23    2    1    2    0    0  0.32492013419E+02 -0.18188178809E+02 -0.26151125740E+03  0.27929428373E+03  0.90722755644E+02 0.  0.
          5    1    1    2  502    0 -0.21404276860E+02  0.15075771060E+02 -0.43819469698E+03  0.43899599862E+03  0.41800000000E+01 0.  1.
         -5    1    1    2    0  502 -0.11087736559E+02  0.31124077484E+01  0.51492310157E+01  0.13289543410E+02  0.41800000000E+01 0.  1.
        -11    1    3    3    0    0  0.37729017466E+02  0.29517053628E+02 -0.10141317615E+03  0.11215777954E+03  0.00000000000E+00 0.  1.
         11    1    3    3    0    0 -0.52370040466E+01 -0.47705232437E+02 -0.16009808125E+03  0.16713650419E+03  0.00000000000E+00 0. -1.
</event>
<event>
 7    1  0.6684706E-006  0.1036180E+03  0.7561462E-02  0.1272867E+00
          1   -1    0    0  501    0  0.00000000000E+00  0.00000000000E+00  0.93883392373E+02  0.93883392373E+02  0.00000000000E+00 0. -1.
         -1   -1    0    0    0  501 -0.00000000000E+00 -0.00000000000E+00 -0.14727624400E+03  0.14727624400E+03  0.00000000000E+00 0.  1.
         23    2    1    2    0    0 -0.41888524208E+01 -0.13977292187E+02 -0.69013002762E+02  0.11425467085E+03  0.89880053845E+02 0.  0.
          5    1    1    2  502    0  0.60012891892E+02  0.30596528964E+02  0.65407029198E+01  0.67808170397E+02  0.41800000000E+01 0. -1.
         -5    1    1    2    0  502 -0.55824039471E+02 -0.16619236777E+02  0.90794482184E+01  0.59096795124E+02  0.41800000000E+01 0. -1.
        -11    1    3    3    0    0 -0.41941569505E+02 -0.30781799681E+01 -0.97859691896E+01  0.43177953141E+02  0.00000000000E+00 0.  1.
         11    1    3    3    0    0  0.37752717084E+02 -0.10899112219E+02 -0.59227033572E+02  0.71076717708E+02  0.00000000000E+00 0. -1.
</event>
<event>
 7    1  0.6684706E-006  0.1055865E+03  0.7561462E-02  0.1268968E+00
          2   -1    0    0  501    0  0.00000000000E+00  0.00000000000E+00  0.56018181355E+03  0.56018181355E+03  0.00000000000E+00 0.  1.
         -2   -1    0    0    0  501 -0.00000000000E+00 -0.00000000000E+00 -0.34498377294E+02  0.34498377294E+02  0.00000000000E+00 0. -1.
         23    2    1    2    0    0  0.75097855221E+01 -0.77539523553E+02  0.15444255989E+03  0.19525832273E+03  0.90578881080E+02 0.  0.
          5    1    1    2  502    0  0.51542518481E+01  0.87712913269E+02  0.37236216400E+03  0.38261099703E+03  0.41800000000E+01 0.  1.
         -5    1    1    2    0  502 -0.12664037370E+02 -0.10173389717E+02 -0.11212876334E+01  0.16810871090E+02  0.41800000000E+01 0.  1.
        -11    1    3    3    0    0 -0.65879816964E+01 -0.88396825549E+02  0.15372384364E+03  0.17744976859E+03  0.00000000000E+00 0.  1.
         11    1    3    3    0    0  0.14097767218E+02  0.10857301996E+02  0.71871624447E+00  0.17808554131E+02  0.00000000000E+00 0. -1.
</event>
<event>
 7    1  0.6684706E-006  0.1166152E+03  0.7561462E-02  0.1248788E+00
          1   -1    0    0  501    0  0.00000000000E+00  0.00000000000E+00  0.57864199670E+03  0.57864199670E+03  0.00000000000E+00 0. -1.
         -1   -1    0    0    0  501 -0.00000000000E+00 -0.00000000000E+00 -0.44260874297E+02  0.44260874297E+02  0.00000000000E+00 0.  1.
         23    2    1    2    0    0 -0.35986488160E+02 -0.90110380112E+02  0.12052514202E+03  0.17980137987E+03  0.91582304027E+02 0.  0.
          5    1    1    2  502    0  0.26710843745E+02  0.86600020180E+02  0.12717064040E+03  0.15621420181E+03  0.41800000000E+01 0.  1.
         -5    1    1    2    0  502  0.92756444154E+01  0.35103599324E+01  0.28668533998E+03  0.28688728931E+03  0.41800000000E+01 0.  1.
        -11    1    3    3    0    0  0.28016285727E+02 -0.11273155366E+02  0.16428572266E+02  0.34378689395E+02  0.00000000000E+00 0.  1.
         11    1    3    3    0    0 -0.64002773888E+02 -0.78837224746E+02  0.10409656975E+03  0.14542269048E+03  0.00000000000E+00 0. -1.
</event>
<event>
 7    1  0.6684706E-006  0.9892844E+02  0.7561462E-02  0.1282566E+00
         -1   -1    0    0    0  501 -0.00000000000E+00  0.00000000000E+00  0.86899943063E+02  0.86899943063E+02  0.00000000000E+00 0.  1.
          1   -1    0    0  501    0  0.00000000000E+00 -0.00000000000E+00 -0.28545537065E+03  0.28545537065E+03  0.00000000000E+00 0. -1.
         23    2    1    2    0    0  0.12735651904E+02  0.77400218435E+02  0.53439483439E+01  0.12060784844E+03  0.91458759434E+02 0.  0.
          5    1    1    2  502    0 -0.49860929540E+02 -0.31283936024E+02 -0.17701490064E+03  0.18659191943E+03  0.41800000000E+01 0.  1.
         -5    1    1    2    0  502  0.37125277636E+02 -0.46116282411E+02 -0.26884475288E+02  0.65155545846E+02  0.41800000000E+01 0.  1.
        -11    1    3    3    0    0  0.77277002371E+01  0.14804639092E+02  0.43866459185E+02  0.46937841142E+02  0.00000000000E+00 0.  1.
         11    1    3    3    0    0  0.50079516665E+01  0.62595579343E+02 -0.38522510841E+02  0.73670007294E+02  0.00000000000E+00 0. -1.
</event>
<event>
 7    1  0.6684706E-006  0.1244065E+03  0.7561462E-02  0.1236000E+00
          2   -1    0    0  501    0  0.00000000000E+00  0.00000000000E+00  0.38596400085E+04  0.38596400085E+04  0.00000000000E+00 0. -1.
         -2   -1    0    0    0  501 -0.00000000000E+00 -0.00000000000E+00 -0.16751012389E+02  0.16751012389E+02  0.00000000000E+00 0.  1.
         23    2    1    2    0    0 -0.21851267847E+02  0.49838143353E+02  0.17175177745E+03  0.20160228455E+03  0.90462642225E+02 0.  0.
          5    1    1    2  502    0 -0.47399879723E+02 -0.68407958904E+02  0.25448963573E+04  0.25462602655E+04  0.41800000000E+01 0. -1.
         -5    1    1    2    0  502  0.69251147571E+02  0.18569815552E+02  0.11262408613E+04  0.11285284708E+04  0.41800000000E+01 0.  1.
        -11    1    3    3    0    0  0.28387927521E+02  0.12244506352E+02  0.10724102189E+03  0.11160841877E+03  0.00000000000E+00 0. -1.
         11    1    3    3    0    0 -0.50239195369E+02  0.37593637001E+02  0.64510755556E+02  0.89993865772E+02  0.00000000000E+00 0.  1.
</event>
<event>
 7    1  0.6684706E-006  0.1531780E+03  0.7561462E-02  0.1196621E+00
         -2   -1    0    0    0  501 -0.00000000000E+00  0.00000000000E+00  0.31603577562E+02  0.31603577562E+02  0.00000000000E+00 0.  1.
          2   -1    0    0  501    0  0.00000000000E+00 -0.00000000000E+00 -0.10569201874E+04  0.10569201874E+04  0.00000000000E+00 0. -1.
         23    2    1    2    0    0 -0.18717576581E+02  0.12577519202E+03 -0.25545996367E+03  0.29827244996E+03  0.86815406287E+02 0.  0.
          5    1    1    2  502    0  0.66801360501E+02 -0.10462530139E+03 -0.58444862672E+03  0.59750024697E+03  0.41800000000E+01 0.  1.
         -5    1    1    2    0  502 -0.48083783920E+02 -0.21149890630E+02 -0.18540801948E+03  0.19275106805E+03  0.41800000000E+01 0.  1.
        -11    1    3    3    0    0  0.48166572312E+01  0.46885308878E+02 -0.18177961780E+03  0.18779047319E+03  0.00000000000E+00 0.  1.
         11    1    3    3    0    0 -0.23534233812E+02  0.78889883143E+02 -0.73680345871E+02  0.11048197677E+03  0.00000000000E+00 0. -1.
</event>
<event>
 7    1  0.6684706E-006  0.2744801E+03  0.7561462E-02  0.1098743E+00
         -1   -1    0    0    0  501 -0.00000000000E+00  0.00000000000E+00  0.12241514774E+03  0.12241514774E+03  0.00000000000E+00 0. -1.
          1   -1    0    0  501    0  0.00000000000E+00 -0.00000000000E+00 -0.99013335102E+03  0.99013335102E+03  0.00000000000E+00 0.  1.
         23    2    1    2    0    0 -0.18589140566E+03  0.19271320871E+03 -0.11720159778E+03  0.30593864684E+03  0.90378346940E+02 0.  0.
          5    1    1    2  502    0  0.32694049108E+02  0.24224755501E+01 -0.30247721473E+02  0.44801409455E+02  0.41800000000E+01 0. -1.
         -5    1    1    2    0  502  0.15319735655E+03 -0.19513568426E+03 -0.72026888403E+03  0.76180844248E+03  0.41800000000E+01 0. -1.
        -11    1    3    3    0    0 -0.29766886766E+02  0.33048895719E+02 -0.61302199998E+02  0.75738080122E+02  0.00000000000E+00 0. -1.
         11    1    3    3    0    0 -0.15612451889E+03  0.15966431299E+03 -0.55899397783E+02  0.23020056671E+03  0.00000000000E+00 0.  1.
</event>
<event>
 7    1  0.6684706E-006  0.1103530E+03  0.7561462E-02  0.1259918E+00
          1   -1    0    0  501    0  0.00000000000E+00  0.00000000000E+00  0.29241538257E+03  0.29241538257E+03  0.00000000000E+00 0. -1.
         -1   -1    0    0    0  501 -0.00000000000E+00 -0.00000000000E+00 -0.76914372951E+02  0.76914372951E+02  0.00000000000E+00 0.  1.
         23    2    1    2    0    0 -0.11725911276E+02 -0.12876590651E+02 -0.22639211838E+02  0.99771621736E+02  0.95595706018E+02 0.  0.
          5    1    1    2  502    0  0.63569445201E+02 -0.16685617208E+02  0.13799657657E+03  0.15290523775E+03  0.41800000000E+01 0.  1.
         -5    1    1    2    0  502 -0.51843533925E+02  0.29562207859E+02  0.10014364488E+03  0.11665289604E+03  0.41800000000E+01 0.  1.
        -11    1    3    3    0    0 -0.14073322807E+02 -0.52997890250E+02 -0.26840133609E+01  0.54900261507E+02  0.00000000000E+00 0. -1.
         11    1    3    3    0    0  0.23474115306E+01  0.40121299600E+02 -0.19955198477E+02  0.44871360228E+02  0.00000000000E+00 0.  1.
</event>
<event>
 7    1  0.6684706E-006  0.1579657E+03  0.7561462E-02  0.1191013E+00
         -2   -1    0    0    0  501 -0.00000000000E+00  0.00000000000E+00  0.20951669683E+03  0.20951669683E+03  0.00000000000E+00 0.  1.
          2   -1    0    0  501    0  0.00000000000E+00 -0.00000000000E+00 -0.12067144251E+03  0.12067144251E+03  0.00000000000E+00 0. -1.
         23    2    1    2    0    0  0.10153552054E+03  0.60083311187E+02  0.54422937605E+02  0.15482555048E+03  0.84199933070E+02 0.  0.
          5    1    1    2  502    0 -0.12580277016E+03 -0.25245333297E+02  0.17935860463E+02  0.12962573558E+03  0.41800000000E+01 0.  1.
         -5    1    1    2    0  502  0.24267249622E+02 -0.34837977890E+02  0.16486456252E+02  0.45736853274E+02  0.41800000000E+01 0.  1.
        -11    1    3    3    0    0 -0.12407303392E+02  0.21073802898E+02  0.76062720229E+01  0.25610578286E+02  0.00000000000E+00 0.  1.
         11    1    3    3    0    0  0.11394282393E+03  0.39009508289E+02  0.46816665582E+02  0.12921497219E+03  0.00000000000E+00 0. -1.
</event>
<event>
 7    1  0.6684706E-006  0.1168463E+03  0.7561462E-02  0.1248392E+00
          2   -1    0    0  501    0  0.00000000000E+00  0.00000000000E+00  0.33964130452E+03  0.33964130452E+03  0.00000000000E+00 0. -1.
         -2   -1    0    0    0  501 -0.00000000000E+00 -0.00000000000E+00 -0.52195318985E+02  0.52195318985E+02  0.00000000000E+00 0.  1.
         23    2    1    2    0    0 -0.71056632729E+01  0.74596087923E+02  0.10337735782E+03  0.15701034127E+03  0.91379988905E+02 0.  0.
          5    1    1    2  502    0  0.33299372694E+02 -0.94205624809E+02  0.87853821509E+02  0.13311391483E+03  0.41800000000E+01 0.  1.
         -5    1    1    2    0  502 -0.26193709421E+02  0.19609536885E+02  0.96214806207E+02  0.10171236741E+03  0.41800000000E+01 0.  1.
        -11    1    3    3    0    0 -0.20954350814E+02  0.82250352465E+02  0.11076621164E+03  0.13954697754E+03  0.00000000000E+00 0. -1.
         11    1    3    3    0    0  0.13848687541E+02 -0.76542645415E+01 -0.73888538167E+01  0.17463363737E+02  0.00000000000E+00 0.  1.
</event>
<event>
 7    1  0.6684706E-006  0.1267386E+03  0.7561462E-02  0.1232377E+00
          1   -1    0    0  501    0  0.00000000000E+00  0.00000000000E+00  0.96445489969E+02  0.96445489969E+02  0.00000000000E+00 0. -1.
         -1   -1    0    0    0  501 -0.00000000000E+00 -0.00000000000E+00 -0.20805728996E+03  0.20805728996E+03  0.00000000000E+00 0.  1.
         23    2    1    2    0    0 -0.70173545169E+02 -0.50167079399E+02 -0.81199022902E+02  0.14953966130E+03  0.91256598037E+02 0.  0.
          5    1    1    2  502    0 -0.17510734407E+02 -0.17245821214E+02 -0.36400469231E+02  0.44119278428E+02  0.41800000000E+01 0.  1.
         -5    1    1    2    0  502  0.87684279575E+02  0.67412900613E+02  0.59876921376E+01  0.11084384020E+03  0.41800000000E+01 0.  1.
        -11    1    3    3    0    0  0.17354519672E+02 -0.16912810845E+02  0.19577642732E+01  0.24311630235E+02  0.00000000000E+00 0. -1.
         11    1    3    3    0    0 -0.87528064841E+02 -0.33254268555E+02 -0.83156787175E+02  0.12522803107E+03  0.00000000000E+00 0.  1.
</event>
<event>
 7    1  0.6684706E-006  0.1106455E+03  0.7561462E-02  0.1259379E+00
         -1   -1    0    0    0  501 -0.00000000000E+00  0.00000000000E+00  0.36446439319E+02  0.36446439319E+02  0.00000000000E+00 0.  1.
          1   -1    0    0  501    0  0.00000000000E+00 -0.00000000000E+00 -0.63662158821E+03  0.63662158821E+03  0.00000000000E+00 0. -1.
         23    2    1    2    0    0 -0.10462435194E+02 -0.82324817991E+02 -0.12653002237E+03  0.17620353486E+03  0.90282893876E+02 0.  0.
          5    1    1    2  502    0  0.46994551874E+02  0.42579832405E+02 -0.40235597455E+03  0.40734424347E+03  0.41800000000E+01 0. -1.
         -5    1    1    2    0  502 -0.36532116680E+02  0.39744985587E+02 -0.71289151968E+02  0.89520249200E+02  0.41800000000E+01 0. -1.
        -11    1    3    3    0    0  0.13125359798E+02  0.43013974797E+01 -0.67166928984E+02  0.68572395607E+02  0.00000000000E+00 0. -1.
         11    1    3    3    0    0 -0.23587794992E+02 -0.86626215471E+02 -0.59363093387E+02  0.10763113925E+03  0.00000000000E+00 0.  1.
</event>
<event>
 7    1  0.6684706E-006  0.1268869E+03  0.7561462E-02  0.1232150E+00
          2   -1    0    0  501    0  0.00000000000E+00  0.00000000000E+00  0.53069265771E+03  0.53069265771E+03  0.00000000000E+00 0. -1.
         -2   -1    0    0    0  501 -0.00000000000E+00 -0.00000000000E+00 -0.39106887654E+02  0.39106887654E+02  0.00000000000E+00 0.  1.
         23    2    1    2    0    0  0.63033515162E+02 -0.61785419601E+02  0.14040183218E+03  0.18668939298E+03  0.85729766481E+02 0.  0.
          5    1    1    2  502    0 -0.73231960895E+02 -0.15267803950E+02  0.15929643183E+03  0.17603650623E+03  0.41800000000E+01 0.  1.
         -5    1    1    2    0  502  0.10198445733E+02  0.77053223551E+02  0.19188750605E+03  0.20707364615E+03  0.41800000000E+01 0.  1.
        -11    1    3    3    0    0  0.51967353636E+02 -0.70035491982E+02  0.14735945545E+03  0.17123196283E+03  0.00000000000E+00 0. -1.
         11    1    3    3    0    0  0.11066161527E+02  0.82500723818E+01 -0.69576232734E+01  0.15457430150E+02  0.00000000000E+00 0.  1.
</event>
<event>
 7    1  0.6684706E-006  0.1322585E+03  0.7561462E-02  0.1224143E+00
         -3   -1    0    0    0  501 -0.00000000000E+00  0.00000000000E+00  0.37338610925E+03  0.37338610925E+03  0.00000000000E+00 0.  1.
          3   -1    0    0  501    0  0.00000000000E+00 -0.00000000000E+00 -0.51561351672E+02  0.51561351672E+02  0.00000000000E+00 0. -1.
         23    2    1    2    0    0  0.20446432556E+02 -0.75094789120E+02  0.20205527935E+03  0.23508048382E+03  0.91538046753E+02 0.  0.
          5    1    1    2  502    0 -0.58775429747E+02 -0.40956554393E+01  0.43489523922E+02  0.73349414629E+02  0.41800000000E+01 0. -1.
         -5    1    1    2    0  502  0.38328997191E+02  0.79190444559E+02  0.76279954301E+02  0.11651756247E+03  0.41800000000E+01 0. -1.
        -11    1    3    3    0    0 -0.22627490033E+02  0.78172821755E+01  0.64449674095E+02  0.68752263212E+02  0.00000000000E+00 0.  1.
         11    1    3    3    0    0  0.43073922589E+02 -0.82912071295E+02  0.13760560526E+03  0.16632822061E+03  0.00000000000E+00 0. -1.
</event>
<event>
 7    1  0.6684706E-006  0.9934046E+02  0.7561462E-02  0.1281689E+00
          3   -1    0    0  501    0  0.00000000000E+00  0.00000000000E+00  0.80265483797E+03  0.80265483797E+03  0.00000000000E+00 0. -1.
         -3   -1    0    0    0  501 -0.00000000000E+00 -0.00000000000E+00 -0.18768541293E+02  0.18768541293E+02  0.00000000000E+00 0.  1.
         23    2    1    2    0    0 -0.12100604945E+02 -0.31989187835E+02  0.18995647789E+03  0.21350104164E+03  0.91266086308E+02 0.  0.
          5    1    1    2  502    0 -0.31280497332E+02  0.45965438359E+02  0.50342455081E+03  0.50650275596E+03  0.41800000000E+01 0.  1.
         -5    1    1    2    0  502  0.43381102277E+02 -0.13976250524E+02  0.90505267982E+02  0.10141958167E+03  0.41800000000E+01 0.  1.
        -11    1    3    3    0    0  0.46885772668E+01 -0.62316168644E+02  0.11388987773E+03  0.12990839804E+03  0.00000000000E+00 0.  1.
         11    1    3    3    0    0 -0.16789182212E+02  0.30326980809E+02  0.76066600157E+02  0.83592643598E+02  0.00000000000E+00 0. -1.
</event>
<event>
 7    1  0.6684706E-006  0.1241754E+03  0.7561462E-02  0.1236364E+00
          1   -1    0    0  501    0  0.00000000000E+00  0.00000000000E+00  0.66003371368E+02  0.66003371368E+02  0.00000000000E+00 0. -1.
         -1   -1    0    0    0  501 -0.00000000000E+00 -0.00000000000E+00 -0.28648896648E+03  0.28648896648E+03  0.00000000000E+00 0.  1.
         23    2    1    2    0    0 -0.78435844718E+02  0.20745344420E+02 -0.12040747584E+03  0.17292223002E+03  0.93923300331E+02 0.  0.
          5    1    1    2  502    0  0.71193339310E+01  0.43146999133E+02 -0.44080193065E+01  0.44150328243E+02  0.41800000000E+01 0.  1.
         -5    1    1    2    0  502  0.71316510787E+02 -0.63892343553E+02 -0.95670099961E+02  0.13541977958E+03  0.41800000000E+01 0.  1.
        -11    1    3    3    0    0 -0.11125357916E+02  0.37582289999E+02 -0.67668298616E+01  0.39774264251E+02  0.00000000000E+00 0. -1.
         11    1    3    3    0    0 -0.67310486802E+02 -0.16836945578E+02 -0.11364064598E+03  0.13314796577E+03  0.00000000000E+00 0.  1.
</event>
<event>
 7    1  0.6684706E-006  0.1079992E+03  0.7561462E-02  0.1264321E+00
          2   -1    0    0  501    0  0.00000000000E+00  0.00000000000E+00  0.54102705654E+03  0.54102705654E+03  0.00000000000E+00 0. -1.
         -2   -1    0    0    0  501 -0.00000000000E+00 -0.00000000000E+00 -0.36061820715E+02  0.36061820715E+02  0.00000000000E+00 0.  1.
         23    2    1    2    0    0 -0.74806590754E+02 -0.33009288041E+02  0.16345942902E+03  0.20431510931E+03  0.91323818567E+02 0.  0.
          5    1    1    2  502    0  0.39881459810E+02  0.44333802295E+02  0.32804314994E+03  0.33344534407E+03  0.41800000000E+01 0. -1.
         -5    1    1    2    0  502  0.34925130944E+02 -0.11324514253E+02  0.13462656865E+02  0.39328423874E+02  0.41800000000E+01 0. -1.
        -11    1    3    3    0    0 -0.11929888599E+02 -0.52185200773E+02  0.97281968020E+02  0.11103782564E+03  0.00000000000E+00 0. -1.
         11    1    3    3    0    0 -0.62876702155E+02  0.19175912732E+02  0.66177461000E+02  0.93277283662E+02  0.00000000000E+00 0.  1.
</event>
<event>
 7    1  0.6684706E-006  0.2204786E+03  0.7561462E-02  0.1133527E+00
          1   -1    0    0  501    0  0.00000000000E+00  0.00000000000E+00  0.18692458710E+04  0.18692458710E+04  0.00000000000E+00 0. -1.
         -1   -1    0    0    0  501 -0.00000000000E+00 -0.00000000000E+00 -0.33209972708E+02  0.33209972708E+02  0.00000000000E+00 0.  1.
         23    2    1    2    0    0  0.15771166203E+03  0.11012100081E+03  0.45522106974E+03  0.50270714420E+03  0.92133855519E+02 0.  0.
          5    1    1    2  502    0 -0.75083965448E+02 -0.12448292793E+03  0.86207709779E+03  0.87425854079E+03  0.41800000000E+01 0. -1.
         -5    1    1    2    0  502 -0.82627696586E+02  0.14361927116E+02  0.51873773073E+03  0.52549015868E+03  0.41800000000E+01 0. -1.
        -11    1    3    3    0    0  0.12981917096E+03  0.12476132850E+03  0.40776598535E+03  0.44574825299E+03  0.00000000000E+00 0.  1.
         11    1    3    3    0    0  0.27892491075E+02 -0.14640327688E+02  0.47455084397E+02  0.56958891214E+02  0.00000000000E+00 0. -1.
</event>
<event>
 7    1  0.6684706E-006  0.1263215E+03  0.7561462E-02  0.1233018E+00
          3   -1    0    0  501    0  0.00000000000E+00  0.00000000000E+00  0.50589621571E+03  0.50589621571E+03  0.00000000000E+00 0. -1.
         -3   -1    0    0    0  501 -0.00000000000E+00 -0.00000000000E+00 -0.49216278830E+02  0.49216278830E+02  0.00000000000E+00 0.  1.
         23    2    1    2    0    0  0.27418467789E+02 -0.10962185808E+03  0.18919840911E+03  0.23894448802E+03  0.92356408549E+02 0.  0.
          5    1    1    2  502    0 -0.50448336167E+02  0.54523861353E+02  0.23815737858E+03  0.24950810699E+03  0.41800000000E+01 0.  1.
         -5    1    1    2    0  502  0.23029868379E+02  0.55097996724E+02  0.29324149186E+02  0.66659899535E+02  0.41800000000E+01 0.  1.
        -11    1    3    3    0    0  0.32401607702E+02 -0.57346830245E+02  0.17119973800E+03  0.18343356675E+03  0.00000000000E+00 0. -1.
         11    1    3    3    0    0 -0.49831399135E+01 -0.52275027831E+02  0.17998671115E+02  0.55510921268E+02  0.00000000000E+00 0.  1.
</event>
<event>
 7    1  0.6684706E-006  0.1222504E+03  0.7561462E-02  0.1239430E+00
          1   -1    0    0  501    0  0.00000000000E+00  0.00000000000E+00  0.52617996197E+03  0.52617996197E+03  0.00000000000E+00 0. -1.
         -1   -1    0    0    0  501 -0.00000000000E+00 -0.00000000000E+00 -0.34542180817E+02  0.34542180817E+02  0.00000000000E+00 0.  1.
         23    2    1    2    0    0  0.73798302591E+02 -0.20470513100E+02  0.18797810264E+03  0.22349306918E+03  0.93531564339E+02 0.  0.
          5    1    1    2  502    0 -0.96782839487E+02  0.24466525203E+02  0.29586328801E+03  0.31227886011E+03  0.41800000000E+01 0. -1.
         -5    1    1    2    0  502  0.22984536896E+02 -0.39960121023E+01  0.77963905058E+01  0.24950213505E+02  0.41800000000E+01 0. -1.
        -11    1    3    3    0    0  0.12898178288E+02 -0.51109463185E+02  0.81544570351E+02  0.97098183217E+02  0.00000000000E+00 0.  1.
         11    1    3    3    0    0  0.60900124303E+02  0.30638950085E+02  0.10643353228E+03  0.12639488596E+03  0.00000000000E+00 0. -1.
</event>
<event>
 7    1  0.6684706E-006  0.8852781E+02  0.7561462E-02  0.1306456E+00
         -4   -1    0    0    0  501 -0.00000000000E+00  0.00000000000E+00  0.13394154037E+03  0.13394154037E+03  0.00000000000E+00 0.  1.
          4   -1    0    0  501    0  0.00000000000E+00 -0.00000000000E+00 -0.11684545881E+03  0.11684545881E+03  0.00000000000E+00 0. -1.
         23    2    1    2    0    0 -0.40251821882E+02 -0.30660809139E+02  0.45942084245E+02  0.11279473971E+03  0.89731175298E+02 0.  0.
          5    1    1    2  502    0  0.54895213760E+02 -0.22740605533E+02 -0.50793581694E+02  0.78282053978E+02  0.41800000000E+01 0. -1.
         -5    1    1    2    0  502 -0.14643391878E+02  0.53401414672E+02  0.21947579014E+02  0.59710205486E+02  0.41800000000E+01 0. -1.
        -11    1    3    3    0    0 -0.27395209319E+02  0.13856617738E+01 -0.22929820543E+02  0.35751842223E+02  0.00000000000E+00 0. -1.
         11    1    3    3    0    0 -0.12856612563E+02 -0.32046470913E+02  0.68871904788E+02  0.77042897490E+02  0.00000000000E+00 0.  1.
</event>
<event>
 7    1  0.6684706E-006  0.2325405E+03  0.7561462E-02  0.1124864E+00
         -2   -1    0    0    0  501 -0.00000000000E+00  0.00000000000E+00  0.14653940686E+03  0.14653940686E+03  0.00000000000E+00 0.  1.
          2   -1    0    0  501    0  0.00000000000E+00 -0.00000000000E+00 -0.41020980068E+03  0.41020980068E+03  0.00000000000E+00 0. -1.
         23    2    1    2    0    0 -0.16595471707E+03 -0.14280749336E+03 -0.14645442575E+03  0.27879181470E+03  0.91329233248E+02 0.  0.
          5    1    1    2  502    0  0.43531162381E+01  0.51502126226E+02 -0.68683547934E+02  0.86059983637E+02  0.41800000000E+01 0.  1.
         -5    1    1    2    0  502  0.16160160083E+03  0.91305367129E+02 -0.48532420135E+02  0.19189740921E+03  0.41800000000E+01 0.  1.
        -11    1    3    3    0    0 -0.33698944401E+02 -0.67323942769E+02 -0.13189747744E+02  0.76433641607E+02  0.00000000000E+00 0.  1.
         11    1    3    3    0    0 -0.13225577266E+03 -0.75483550586E+02 -0.13326467801E+03  0.20235817309E+03  0.00000000000E+00 0. -1.
</event>
<event>
 7    1  0.6684706E-006  0.1154042E+03  0.7561462E-02  0.1250877E+00
          1   -1    0    0  501    0  0.00000000000E+00  0.00000000000E+00  0.27070545923E+03  0.27070545923E+03  0.00000000000E+00 0. -1.
         -1   -1    0    0    0  501 -0.00000000000E+00 -0.00000000000E+00 -0.12147376475E+03  0.12147376475E+03  0.00000000000E+00 0.  1.
         23    2    1    2    0    0 -0.21833388518E+02  0.91245358277E+02 -0.51233189826E+02  0.13794272075E+03  0.87183382628E+02 0.  0.
          5    1    1    2  502    0  0.13660352545E+02 -0.11196307839E+03  0.98571490535E+02  0.14985375304E+03  0.41800000000E+01 0.  1.
         -5    1    1    2    0  502  0.81730359729E+01  0.20717720116E+02  0.10189339377E+03  0.10438275019E+03  0.41800000000E+01 0.  1.
        -11    1    3    3    0    0 -0.88234372656E+01  0.68565558361E+02 -0.75430717115E+02  0.10231755432E+03  0.00000000000E+00 0.  1.
         11    1    3    3    0    0 -0.13009951253E+02  0.22679799917E+02  0.24197527289E+02  0.35625166424E+02  0.00000000000E+00 0. -1.
</event>
<event>
 7    1  0.6684706E-006  0.1266555E+03  0.7561462E-02  0.1232505E+00
          1   -1    0    0  501    0  0.00000000000E+00  0.00000000000E+00  0.26265154453E+04  0.26265154453E+04  0.00000000000E+00 0. -1.
         -1   -1    0    0    0  501 -0.00000000000E+00 -0.00000000000E+00 -0.17691151759E+02  0.17691151759E+02  0.00000000000E+00 0.  1.
         23    2    1    2    0    0  0.63252998087E+02  0.43641072826E+02  0.21164237053E+03  0.24303743281E+03  0.91483417841E+02 0.  0.
          5    1    1    2  502    0 -0.93617227055E+02 -0.21819219631E+02  0.19643328923E+04  0.19666879386E+04  0.41800000000E+01 0. -1.
         -5    1    1    2    0  502  0.30364228967E+02 -0.21821853195E+02  0.43284903069E+03  0.43448122565E+03  0.41800000000E+01 0.  1.
        -11    1    3    3    0    0 -0.19435604123E+02 -0.90286923718E+01  0.39061095844E+02  0.44553666539E+02  0.00000000000E+00 0. -1.
         11    1    3    3    0    0  0.82688602210E+02  0.52669765198E+02  0.17258127469E+03  0.19848376628E+03  0.00000000000E+00 0.  1.
</event>
<event>
 7    1  0.6684706E-006  0.1502305E+03  0.7561462E-02  0.1200190E+00
         -2   -1    0    0    0  501 -0.00000000000E+00  0.00000000000E+00  0.26495396059E+02  0.26495396059E+02  0.00000000000E+00 0.  1.
          2   -1    0    0  501    0  0.00000000000E+00 -0.00000000000E+00 -0.16200583467E+04  0.16200583467E+04  0.00000000000E+00 0. -1.
         23    2    1    2    0    0 -0.53684812408E+02 -0.77934340017E+02 -0.23664781319E+03  0.27335845964E+03  0.98827321790E+02 0.  0.
          5    1    1    2  502    0 -0.38443626560E+02 -0.17411583589E+02 -0.78308948325E+03  0.78423700935E+03  0.41800000000E+01 0. -1.
         -5    1    1    2    0  502  0.92128438968E+02  0.95345923607E+02 -0.57382565421E+03  0.58895827378E+03  0.41800000000E+01 0.  1.
        -11    1    3    3    0    0 -0.55701144138E+02 -0.89826014149E+01 -0.53916186501E+02  0.78040116308E+02  0.00000000000E+00 0.  1.
         11    1    3    3    0    0  0.20163317302E+01 -0.68951738602E+02 -0.18273162669E+03  0.19531834333E+03  0.00000000000E+00 0. -1.
</event>
<event>
 7    1  0.6684706E-006  0.1102378E+03  0.7561462E-02  0.1260130E+00
         -4   -1    0    0    0  501 -0.00000000000E+00  0.00000000000E+00  0.97247231577E+02  0.97247231577E+02  0.00000000000E+00 0.  1.
          4   -1    0    0  501    0  0.00000000000E+00 -0.00000000000E+00 -0.14359706001E+03  0.14359706001E+03  0.00000000000E+00 0. -1.
         23    2    1    2    0    0  0.33416548494E+02 -0.15453723491E+02 -0.77542757621E+01  0.10485110874E+03  0.97867987245E+02 0.  0.
          5    1    1    2  502    0 -0.73849551743E+02 -0.17350678532E+02 -0.34958466719E+02  0.83632345020E+02  0.41800000000E+01 0.  1.
         -5    1    1    2    0  502  0.40433003250E+02  0.32804402022E+02 -0.36370859472E+01  0.52360837828E+02  0.41800000000E+01 0.  1.
        -11    1    3    3    0    0  0.52984116820E+01 -0.48549674428E+02  0.20580488392E+02  0.52997174980E+02  0.00000000000E+00 0.  1.
         11    1    3    3    0    0  0.28118136812E+02  0.33095950937E+02 -0.28334764154E+02  0.51853933755E+02  0.00000000000E+00 0. -1.
</event>
<event>
 7    1  0.6684706E-006  0.1032314E+03  0.7561462E-02  0.1273644E+00
         -2   -1    0    0    0  501 -0.00000000000E+00  0.00000000000E+00  0.26370984109E+03  0.26370984109E+03  0.00000000000E+00 0. -1.
          2   -1    0    0  501    0  0.00000000000E+00 -0.00000000000E+00 -0.46226319699E+02  0.46226319699E+02  0.00000000000E+00 0.  1.
         23    2    1    2    0    0 -0.21354706014E+02  0.14163411140E+02  0.84871203431E+02  0.12584276514E+03  0.89312119461E+02 0.  0.
          5    1    1    2  502    0  0.60661237551E+02  0.21316326196E+02  0.35911356219E+02  0.73764960579E+02  0.41800000000E+01 0. -1.
         -5    1    1    2    0  502 -0.39306531537E+02 -0.35479737336E+02  0.96700961741E+02  0.11032843507E+03  0.41800000000E+01 0. -1.
        -11    1    3    3    0    0  0.32436495743E+02 -0.26805929474E+01  0.49681579283E+02  0.59393359517E+02  0.00000000000E+00 0.  1.
         11    1    3    3    0    0 -0.53791201757E+02  0.16844004088E+02  0.35189624149E+02  0.66449405625E+02  0.00000000000E+00 0. -1.
</event>
<event>
 7    1  0.6684706E-006  0.3328350E+03  0.7561462E-02  0.1069889E+00
          2   -1    0    0  501    0  0.00000000000E+00  0.00000000000E+00  0.20915164859E+03  0.20915164859E+03  0.00000000000E+00 0.  1.
         -2   -1    0    0    0  501 -0.00000000000E+00 -0.00000000000E+00 -0.63697622056E+03  0.63697622056E+03  0.00000000000E+00 0. -1.
         23    2    1    2    0    0  0.21422724907E+03  0.25111635201E+03 -0.82270258594E+02  0.35215607790E+03  0.91064654292E+02 0.  0.
          5    1    1    2  502    0 -0.86625119100E+02 -0.14773887657E+03 -0.99481812957E+02  0.19810297933E+03  0.41800000000E+01 0.  1.
         -5    1    1    2    0  502 -0.12760212997E+03 -0.10337747544E+03 -0.24607250042E+03  0.29586881192E+03  0.41800000000E+01 0.  1.
        -11    1    3    3    0    0  0.95661930010E+02  0.11268079647E+03 -0.83733608798E+02  0.16988079347E+03  0.00000000000E+00 0. -1.
         11    1    3    3    0    0  0.11856531906E+03  0.13843555554E+03  0.14633502037E+01  0.18227528443E+03  0.00000000000E+00 0.  1.
</event>
<event>
 7    1  0.6684706E-006  0.1975861E+03  0.7561462E-02  0.1151792E+00
         -1   -1    0    0    0  501 -0.00000000000E+00  0.00000000000E+00  0.21624925726E+03  0.21624925726E+03  0.00000000000E+00 0.  1.
          1   -1    0    0  501    0  0.00000000000E+00 -0.00000000000E+00 -0.31794221994E+03  0.31794221994E+03  0.00000000000E+00 0. -1.
         23    2    1    2    0    0 -0.16892611680E+03  0.47656723073E+01  0.11672048874E+03  0.23102319178E+03  0.10577947853E+03 0.  0.
          5    1    1    2  502    0  0.18456833575E+03 -0.21614244576E+02 -0.18379450851E+03  0.26140110920E+03  0.41800000000E+01 0.  1.
         -5    1    1    2    0  502 -0.15642218954E+02  0.16848572268E+02 -0.34618942912E+02  0.41767176223E+02  0.41800000000E+01 0.  1.
        -11    1    3    3    0    0 -0.38510673763E+02  0.35016658796E+02  0.74042908546E+02  0.90507406840E+02  0.00000000000E+00 0.  1.
         11    1    3    3    0    0 -0.13041544304E+03 -0.30250986489E+02  0.42677580191E+02  0.14051578494E+03  0.00000000000E+00 0. -1.
</event>
<event>
 7    1  0.6684706E-006  0.1115043E+03  0.7561462E-02  0.1257809E+00
          1   -1    0    0  501    0  0.00000000000E+00  0.00000000000E+00  0.80968797248E+02  0.80968797248E+02  0.00000000000E+00 0. -1.
         -1   -1    0    0    0  501 -0.00000000000E+00 -0.00000000000E+00 -0.42140429634E+03  0.42140429634E+03  0.00000000000E+00 0.  1.
         23    2    1    2    0    0 -0.60579732589E+02  0.16617127611E+02 -0.34479515716E+03  0.36232965532E+03  0.91940446989E+02 0.  0.
          5    1    1    2  502    0  0.42324870469E+02 -0.61655044155E+02  0.34754748778E+02  0.82571811732E+02  0.41800000000E+01 0.  1.
         -5    1    1    2    0  502  0.18254862120E+02  0.45037916544E+02 -0.30395090712E+02  0.57471626539E+02  0.41800000000E+01 0.  1.
        -11    1    3    3    0    0 -0.56382847980E+02 -0.21973132430E+02 -0.12205577518E+03  0.13623309565E+03  0.00000000000E+00 0. -1.
         11    1    3    3    0    0 -0.41968846092E+01  0.38590260041E+02 -0.22273938198E+03  0.22609655967E+03  0.00000000000E+00 0.  1.
</event>
<event>
 7    1  0.6684706E-006  0.8847127E+02  0.7561462E-02  0.1306597E+00
         -2   -1    0    0    0  501 -0.00000000000E+00  0.00000000000E+00  0.79077074197E+02  0.79077074197E+02  0.00000000000E+00 0.  1.
          2   -1    0    0  501    0  0.00000000000E+00 -0.00000000000E+00 -0.55260666912E+03  0.55260666912E+03  0.00000000000E+00 0. -1.
         23    2    1    2    0    0 -0.51516740940E+02 -0.33932676598E+02 -0.38926984042E+01  0.14177394783E+03  0.12759035247E+03 0.  0.
          5    1    1    2  502    0 -0.49992856587E+00 -0.61066857185E+01 -0.37264357943E+03  0.37271738789E+03  0.41800000000E+01 0. -1.
         -5    1    1    2    0  502  0.52016669506E+02  0.40039362316E+02 -0.96993317087E+02  0.11719240761E+03  0.41800000000E+01 0. -1.
        -11    1    3    3    0    0 -0.22114242172E+02 -0.60318432258E+02  0.45353251810E+02  0.78640132417E+02  0.00000000000E+00 0.  1.
         11    1    3    3    0    0 -0.29402498768E+02  0.26385755660E+02 -0.49245950214E+02  0.63133815408E+02  0.00000000000E+00 0. -1.
</event>
<event>
 6    1  0.6684706E-006  0.3133652E+03  0.7561462E-02  0.1078744E+00
          1   -1    0    0  501    0  0.00000000000E+00  0.00000000000E+00  0.13914052504E+04  0.13914052504E+04  0.00000000000E+00 0. -1.
         -1   -1    0    0    0  501 -0.00000000000E+00 -0.00000000000E+00 -0.74243422494E+02  0.74243422494E+02  0.00000000000E+00 0.  1.
          5    1    1    2  502    0 -0.24869625220E+03 -0.45958847156E+02  0.58568195882E+03  0.63796776625E+03  0.41800000000E+01 0. -1.
         -5    1    1    2    0  502 -0.14132087727E+02 -0.44243791567E+02  0.18470087898E+03  0.19049702384E+03  0.41800000000E+01 0. -1.
        -11    1    1    2    0    0  0.15673086696E+03 -0.37474384148E+02  0.26701532038E+03  0.31187509590E+03  0.00000000000E+00 0.  1.
         11    1    1    2    0    0  0.10609747296E+03  0.12767702287E+03  0.27976366974E+03  0.32530878691E+03  0.00000000000E+00 0. -1.
</event>
<event>
 7    1  0.6684706E-006  0.1685742E+03  0.7561462E-02  0.1179343E+00
          2   -1    0    0  501    0  0.00000000000E+00  0.00000000000E+00  0.19898647111E+03  0.19898647111E+03  0.00000000000E+00 0. -1.
         -2   -1    0    0    0  501 -0.00000000000E+00 -0.00000000000E+00 -0.18585577676E+03  0.18585577676E+03  0.00000000000E+00 0.  1.
         23    2    1    2    0    0  0.12500305269E+03 -0.77337720932E+02 -0.53308347380E+02  0.18071289145E+03  0.90600678664E+02 0.  0.
          5    1    1    2  502    0 -0.10894434005E+03  0.23839460584E+02  0.89994224659E+02  0.14336534443E+03  0.41800000000E+01 0.  1.
         -5    1    1    2    0  502 -0.16058712635E+02  0.53498260348E+02 -0.23555182925E+02  0.60764012000E+02  0.41800000000E+01 0.  1.
        -11    1    3    3    0    0  0.58829331256E+01 -0.45982968439E+02  0.34088460501E+00  0.46359017364E+02  0.00000000000E+00 0.  1.
         11    1    3    3    0    0  0.11912011956E+03 -0.31354752493E+02 -0.53649231985E+02  0.13435387408E+03  0.00000000000E+00 0. -1.
</event>
<event>
 7    1  0.6684706E-006  0.3532037E+03  0.7561462E-02  0.1061308E+00
          2   -1    0    0  501    0  0.00000000000E+00  0.00000000000E+00  0.12444706091E+03  0.12444706091E+03  0.00000000000E+00 0. -1.
         -2   -1    0    0    0  501 -0.00000000000E+00 -0.00000000000E+00 -0.14014308580E+04  0.14014308580E+04  0.00000000000E+00 0.  1.
         23    2    1    2    0    0  0.24422791488E+03  0.23939705247E+03 -0.10209055857E+04  0.10807017611E+04  0.93326622355E+02 0.  0.
          5    1    1    2  502    0 -0.17410303162E+03 -0.22810548305E+03 -0.17023191975E+03  0.33367702336E+03  0.41800000000E+01 0. -1.
         -5    1    1    2    0  502 -0.70124883256E+02 -0.11291569418E+02 -0.85846291661E+02  0.11149913445E+03  0.41800000000E+01 0. -1.
        -11    1    3    3    0    0  0.11199420276E+03  0.15562388768E+03 -0.66058297058E+03  0.68784544550E+03  0.00000000000E+00 0.  1.
         11    1    3    3    0    0  0.13223371212E+03  0.83773164791E+02 -0.36032261509E+03  0.39285631560E+03  0.00000000000E+00 0. -1.
</event>
<event>
 7    1  0.6684706E-006  0.8835406E+02  0.7561462E-02  0.1306887E+00
          1   -1    0    0  501    0  0.00000000000E+00  0.00000000000E+00  0.39130016258E+03  0.39130016258E+03  0.00000000000E+00 0. -1.
         -1   -1    0    0    0  501 -0.00000000000E+00 -0.00000000000E+00 -0.42213260858E+02  0.42213260858E+02  0.00000000000E+00 0.  1.
         23    2    1    2    0    0  0.37977925587E+02 -0.23684343375E+02  0.69019340233E+02  0.12353332929E+03  0.92160420828E+02 0.  0.
          5    1    1    2  502    0 -0.22715844077E+01  0.53709680887E+02  0.24656597964E+03  0.25239283791E+03  0.41800000000E+01 0. -1.
         -5    1    1    2    0  502 -0.35706341180E+02 -0.30025337512E+02  0.33501581850E+02  0.57587256226E+02  0.41800000000E+01 0. -1.
        -11    1    3    3    0    0  0.15249637716E+02  0.20919601269E+02 -0.11812156946E+02  0.28455372418E+02  0.00000000000E+00 0.  1.
         11    1    3    3    0    0  0.22728287872E+02 -0.44603944645E+02  0.80831497179E+02  0.95077956876E+02  0.00000000000E+00 0. -1.
</event>
<event>
 7    1  0.6684706E-006  0.9027935E+02  0.7561462E-02  0.1302177E+00
          2   -1    0    0  501    0  0.00000000000E+00  0.00000000000E+00  0.41441327636E+02  0.41441327636E+02  0.00000000000E+00 0. -1.
         -2   -1    0    0    0  501 -0.00000000000E+00 -0.00000000000E+00 -0.35750351944E+03  0.35750351944E+03  0.00000000000E+00 0.  1.
         23    2    1    2    0    0 -0.23241608403E+02  0.49591162264E+02 -0.14363684580E+03  0.17899673267E+03  0.91699678837E+02 0.  0.
          5    1    1    2  502    0 -0.13614430295E+02 -0.41926151892E+02 -0.89732700217E+00  0.44288062957E+02  0.41800000000E+01 0.  1.
         -5    1    1    2    0  502  0.36856038698E+02 -0.76650103724E+01 -0.17152801901E+03  0.17566005145E+03  0.41800000000E+01 0.  1.
        -11    1    3    3    0    0 -0.32488888954E+02 -0.13102698364E+02 -0.20707843896E+02  0.40694267517E+02  0.00000000000E+00 0. -1.
         11    1    3    3    0    0  0.92472805510E+01  0.62693860629E+02 -0.12292900190E+03  0.13830246515E+03  0.00000000000E+00 0.  1.
</event>
<event>
 7    1  0.6684706E-006  0.1184537E+03  0.7561462E-02  0.1245670E+00
          2   -1    0    0  501    0  0.00000000000E+00  0.00000000000E+00  0.12582942627E+04  0.12582942627E+04  0.00000000000E+00 0. -1.
         -2   -1    0    0    0  501 -0.00000000000E+00 -0.00000000000E+00 -0.17280789493E+02  0.17280789493E+02  0.00000000000E+00 0.  1.
         23    2    1    2    0    0 -0.34263577673E+02 -0.49940358506E+02  0.23143647202E+03  0.25647659776E+03  0.92462816609E+02 0.  0.
          5    1    1    2  502    0  0.59119849552E+02 -0.11177357497E+02  0.27414809378E+03  0.28070400719E+03  0.41800000000E+01 0. -1.
         -5    1    1    2    0  502 -0.24856271880E+02  0.61117716003E+02  0.73542890744E+03  0.73839444727E+03  0.41800000000E+01 0. -1.
        -11    1    3    3    0    0  0.19394669592E+02  0.16231459114E+02  0.49844060971E+02  0.55893147054E+02  0.00000000000E+00 0.  1.
         11    1    3    3    0    0 -0.53658247264E+02 -0.66171817620E+02  0.18159241105E+03  0.20058345070E+03  0.00000000000E+00 0. -1.
</event>
<event>
 7    1  0.6684706E-006  0.8786049E+02  0.7561462E-02  0.1308117E+00
          1   -1    0    0  501    0  0.00000000000E+00  0.00000000000E+00  0.20136088192E+03  0.20136088192E+03  0.00000000000E+00 0. -1.
         -1   -1    0    0    0  501 -0.00000000000E+00 -0.00000000000E+00 -0.78869241245E+02  0.78869241245E+02  0.00000000000E+00 0.  1.
         23    2    1    2    0    0 -0.36687349161E+02  0.50203609749E+02  0.53310589693E+02  0.12434854888E+03  0.93563767637E+02 0.  0.
          5    1    1    2  502    0  0.68866378514E+00 -0.21620108018E+02  0.98676412367E+02  0.10110593497E+03  0.41800000000E+01 0.  1.
         -5    1    1    2    0  502  0.35998685376E+02 -0.28583501732E+02 -0.29495361382E+02  0.54775639321E+02  0.41800000000E+01 0.  1.
        -11    1    3    3    0    0  0.17099126163E+01  0.65994072104E+02  0.49780231721E+02  0.82681393459E+02  0.00000000000E+00 0. -1.
         11    1    3    3    0    0 -0.38397261777E+02 -0.15790462355E+02  0.35303579721E+01  0.41667155420E+02  0.00000000000E+00 0.  1.
</event>
<event>
 7    1  0.6684706E-006  0.5777400E+02  0.7561462E-02  0.1407418E+00
          2   -1    0    0  501    0  0.00000000000E+00  0.00000000000E+00  0.20412139180E+03  0.20412139180E+03  0.00000000000E+00 0. -1.
         -2   -1    0    0    0  501 -0.00000000000E+00 -0.00000000000E+00 -0.60772821045E+02  0.60772821045E+02  0.00000000000E+00 0.  1.
         23    2    1    2    0    0  0.30197112548E+02  0.52618824240E+01  0.15032051705E+02  0.83086223397E+02  0.75748299829E+02 0.  0.
          5    1    1    2  502    0  0.24048223177E+01 -0.11223166781E+02 -0.23432700821E+02  0.26425489792E+02  0.41800000000E+01 0.  1.
         -5    1    1    2    0  502 -0.32601934866E+02  0.59612843565E+01  0.15174921987E+03  0.15538249965E+03  0.41800000000E+01 0.  1.
        -11    1    3    3    0    0  0.12738184387E+02 -0.28889013354E+02 -0.14437687960E+02  0.34717189801E+02  0.00000000000E+00 0.  1.
         11    1    3    3    0    0  0.17458928161E+02  0.34150895778E+02  0.29469739666E+02  0.48369033595E+02  0.00000000000E+00 0. -1.
</event>
<event>
 7    1  0.6684706E-006  0.2607600E+03  0.7561462E-02  0.1106687E+00
          2   -1    0    0  501    0  0.00000000000E+00  0.00000000000E+00  0.15177559928E+04  0.15177559928E+04  0.00000000000E+00 0. -1.
         -2   -1    0    0    0  501 -0.00000000000E+00 -0.00000000000E+00 -0.52046720413E+02  0.52046720413E+02  0.00000000000E+00 0.  1.
         23    2    1    2    0    0  0.39346317056E+02  0.24437180595E+03  0.49632139262E+03  0.56152483258E+03  0.87803762031E+02 0.  0.
          5    1    1    2  502    0 -0.57315007370E+02 -0.22876535154E+03  0.94482090817E+03  0.97381857502E+03  0.41800000000E+01 0.  1.
         -5    1    1    2    0  502  0.17968690313E+02 -0.15606454407E+02  0.24566971643E+02  0.34459305658E+02  0.41800000000E+01 0.  1.
        -11    1    3    3    0    0  0.45569628906E+02  0.52535099031E+02  0.10981101090E+03  0.12998071328E+03  0.00000000000E+00 0. -1.
         11    1    3    3    0    0 -0.62233118498E+01  0.19183670692E+03  0.38651038172E+03  0.43154411931E+03  0.00000000000E+00 0.  1.
</event>
<event>
 7    1  0.6684706E-006  0.1108287E+03  0.7561462E-02  0.1259043E+00
         -2   -1    0    0    0  501 -0.00000000000E+00  0.00000000000E+00  0.43242164970E+02  0.43242164970E+02  0.00000000000E+00 0.  1.
          2   -1    0    0  501    0  0.00000000000E+00 -0.00000000000E+00 -0.35898874345E+03  0.35898874345E+03  0.00000000000E+00 0. -1.
         23    2    1    2    0    0  0.54934661141E+02  0.10717075517E+02 -0.91997212399E+02  0.13985096388E+03  0.89230781154E+02 0.  0.
          5    1    1    2  502    0  0.25807746753E+02  0.16834959236E+02 -0.10765113247E+02  0.32906165200E+02  0.41800000000E+01 0.  1.
         -5    1    1    2    0  502 -0.80742407894E+02 -0.27552034753E+02 -0.21298425284E+03  0.22947377935E+03  0.41800000000E+01 0.  1.
        -11    1    3    3    0    0  0.59076100161E+02 -0.28583434102E+02 -0.61405055645E+02  0.89875353541E+02  0.00000000000E+00 0.  1.
         11    1    3    3    0    0 -0.41414390203E+01  0.39300509619E+02 -0.30592156754E+02  0.49975610335E+02  0.00000000000E+00 0. -1.
</event>
<event>
 7    1  0.1080998E-005  0.8508876E+02  0.7561462E-02  0.1315201E+00
          1   -1    0    0  501    0  0.00000000000E+00  0.00000000000E+00  0.85948585883E+02  0.85948585883E+02  0.00000000000E+00 0. -1.
         -1   -1    0    0    0  501 -0.00000000000E+00 -0.00000000000E+00 -0.15202594566E+03  0.15202594566E+03  0.00000000000E+00 0.  1.
         23    2    1    2    0    0  0.16373808867E+02  0.39705823871E+02 -0.30186705871E+02  0.10093319793E+03  0.86206839442E+02 0.  0.
          5    1    1    2  502    0  0.40095424301E+02 -0.44439879864E+02  0.13789500046E+02  0.61564345880E+02  0.41800000000E+01 0.  1.
         -5    1    1    2    0  502 -0.56469233168E+02  0.47340559931E+01 -0.49680153951E+02  0.75476987734E+02  0.41800000000E+01 0.  1.
        -11    1    3    3    0    0 -0.56645755383E+01  0.27672858051E+02 -0.57358242675E+02  0.63936237703E+02  0.00000000000E+00 0.  1.
         11    1    3    3    0    0  0.22038384406E+02  0.12032965820E+02  0.27171536804E+02  0.36996960226E+02  0.00000000000E+00 0. -1.
</event>
<event>
 7    1  0.6684706E-006  0.8907201E+02  0.7561462E-02  0.1305115E+00
          1   -1    0    0  501    0  0.00000000000E+00  0.00000000000E+00  0.81140633160E+03  0.81140633160E+03  0.00000000000E+00 0. -1.
         -1   -1    0    0    0  501 -0.00000000000E+00 -0.00000000000E+00 -0.19847852652E+02  0.19847852652E+02  0.00000000000E+00 0.  1.
         23    2    1    2    0    0  0.45820323675E+02 -0.42175545448E+02  0.27249051500E+03  0.29371143531E+03  0.90205586156E+02 0.  0.
          5    1    1    2  502    0 -0.53007343640E+02  0.46213406361E+02  0.52283640072E+03  0.52756121136E+03  0.41800000000E+01 0. -1.
         -5    1    1    2    0  502  0.71870199641E+01 -0.40378609138E+01 -0.37684367758E+01  0.99815375798E+01  0.41800000000E+01 0. -1.
        -11    1    3    3    0    0  0.27184638134E+02  0.19868110765E+02  0.39605582291E+02  0.51984118002E+02  0.00000000000E+00 0.  1.
         11    1    3    3    0    0  0.18635685541E+02 -0.62043656213E+02  0.23288493271E+03  0.24172731731E+03  0.00000000000E+00 0. -1.
</event>
<event>
 7    1  0.6684706E-006  0.9724822E+02  0.7561462E-02  0.1286191E+00
         -2   -1    0    0    0  501 -0.00000000000E+00  0.00000000000E+00  0.70857696349E+02  0.70857696349E+02  0.00000000000E+00 0. -1.
          2   -1    0    0  501    0  0.00000000000E+00 -0.00000000000E+00 -0.17849729002E+03  0.17849729002E+03  0.00000000000E+00 0.  1.
         23    2    1    2    0    0  0.40312570069E+02 -0.10094856686E+02 -0.32158694738E+02  0.97462482064E+02  0.82083764082E+02 0.  0.
          5    1    1    2  502    0 -0.47619033300E+02  0.62101172396E+02 -0.53033976104E+02  0.94626650405E+02  0.41800000000E+01 0.  1.
         -5    1    1    2    0  502  0.73064632304E+01 -0.52006315710E+02 -0.22446922832E+02  0.57265853903E+02  0.41800000000E+01 0.  1.
        -11    1    3    3    0    0  0.32964122534E+02  0.15780290922E+02 -0.52338785223E+02  0.63835721933E+02  0.00000000000E+00 0.  1.
         11    1    3    3    0    0  0.73484475355E+01 -0.25875147608E+02  0.20180090486E+02  0.33626760132E+02  0.00000000000E+00 0. -1.
</event>
<event>
 7    1  0.6684706E-006  0.6196724E+02  0.7561462E-02  0.1389757E+00
          1   -1    0    0  501    0  0.00000000000E+00  0.00000000000E+00  0.15194999157E+03  0.15194999157E+03  0.00000000000E+00 0. -1.
         -1   -1    0    0    0  501 -0.00000000000E+00 -0.00000000000E+00 -0.10274843208E+03  0.10274843208E+03  0.00000000000E+00 0.  1.
         23    2    1    2    0    0 -0.21394123999E+02 -0.13314912682E+02 -0.36862270719E+02  0.10078417108E+03  0.90352790197E+02 0.  0.
          5    1    1    2  502    0  0.61360055491E+01 -0.17878207701E+02 -0.28319106904E+02  0.34303426804E+02  0.41800000000E+01 0.  1.
         -5    1    1    2    0  502  0.15258118450E+02  0.31193120383E+02  0.11438293712E+03  0.11961082577E+03  0.41800000000E+01 0.  1.
        -11    1    3    3    0    0  0.23134489490E+02 -0.91467729431E+01 -0.48555655184E+02  0.54557489949E+02  0.00000000000E+00 0.  1.
         11    1    3    3    0    0 -0.44528613488E+02 -0.41681397388E+01  0.11693384465E+02  0.46226681130E+02  0.00000000000E+00 0. -1.
</event>
<event>
 7    1  0.6684706E-006  0.1349100E+03  0.7561462E-02  0.1220347E+00
          2   -1    0    0  501    0  0.00000000000E+00  0.00000000000E+00  0.64214334604E+02  0.64214334604E+02  0.00000000000E+00 0.  1.
         -2   -1    0    0    0  501 -0.00000000000E+00 -0.00000000000E+00 -0.41068479959E+03  0.41068479959E+03  0.00000000000E+00 0. -1.
         23    2    1    2    0    0  0.67061610249E+02 -0.81276548816E+02 -0.24780191446E+03  0.28388788994E+03  0.89907776568E+02 0.  0.
          5    1    1    2  502    0 -0.47788784553E+02  0.12695077676E+00 -0.96160509651E+02  0.10746208663E+03  0.41800000000E+01 0.  1.
         -5    1    1    2    0  502 -0.19272825696E+02  0.81149598039E+02 -0.25080408797E+01  0.83549157634E+02  0.41800000000E+01 0.  1.
        -11    1    3    3    0    0  0.31292412153E-01 -0.70435741185E+02 -0.11896335429E+03  0.13825148924E+03  0.00000000000E+00 0. -1.
         11    1    3    3    0    0  0.67030317837E+02 -0.10840807631E+02 -0.12883856017E+03  0.14563640069E+03  0.00000000000E+00 0.  1.
</event>
<event>
 7    1  0.6684706E-006  0.7833213E+02  0.7561462E-02  0.1333852E+00
          2   -1    0    0  501    0  0.00000000000E+00  0.00000000000E+00  0.59585012857E+03  0.59585012857E+03  0.00000000000E+00 0. -1.
         -2   -1    0    0    0  501 -0.00000000000E+00 -0.00000000000E+00 -0.31477302890E+02  0.31477302890E+02  0.00000000000E+00 0.  1.
         23    2    1    2    0    0 -0.70606246614E+01 -0.63036531685E+02  0.10631480607E+03  0.14827914120E+03  0.81611328745E+02 0.  0.
          5    1    1    2  502    0  0.59178542456E+01  0.62562118310E+01  0.39081585722E+03  0.39093307335E+03  0.41800000000E+01 0.  1.
         -5    1    1    2    0  502  0.11427704158E+01  0.56780319854E+02  0.67242162391E+02  0.88115216904E+02  0.41800000000E+01 0.  1.
        -11    1    3    3    0    0  0.26609585371E+02 -0.44127789038E+02  0.22959654268E+02  0.56413451615E+02  0.00000000000E+00 0.  1.
         11    1    3    3    0    0 -0.33670210032E+02 -0.18908742647E+02  0.83355151801E+02  0.91865689590E+02  0.00000000000E+00 0. -1.
</event>
<event>
 7    1  0.6684706E-006  0.6547257E+02  0.7561462E-02  0.1376203E+00
         -2   -1    0    0    0  501 -0.00000000000E+00  0.00000000000E+00  0.10955575312E+02  0.10955575312E+02  0.00000000000E+00 0.  1.
          2   -1    0    0  501    0  0.00000000000E+00 -0.00000000000E+00 -0.26772959529E+04  0.26772959529E+04  0.00000000000E+00 0. -1.
         23    2    1    2    0    0 -0.12385172901E+02  0.45836911888E+02 -0.27722747736E+03  0.29539536184E+03  0.90271427321E+02 0.  0.
          5    1    1    2  502    0  0.39217285021E+00 -0.60013742283E+01 -0.62553670574E+01  0.96318383082E+01  0.41800000000E+01 0. -1.
         -5    1    1    2    0  502  0.11993000051E+02 -0.39835537660E+02 -0.23828575332E+04  0.23832243281E+04  0.41800000000E+01 0. -1.
        -11    1    3    3    0    0  0.25508526145E+02  0.48054161372E+01 -0.21693736065E+02  0.33828909453E+02  0.00000000000E+00 0.  1.
         11    1    3    3    0    0 -0.37893699046E+02  0.41031495751E+02 -0.25553374130E+03  0.26156645238E+03  0.00000000000E+00 0. -1.
</event>
<event>
 7    1  0.6684706E-006  0.8679446E+02  0.7561462E-02  0.1310805E+00
         -1   -1    0    0    0  501 -0.00000000000E+00  0.00000000000E+00  0.16199672177E+03  0.16199672177E+03  0.00000000000E+00 0.  1.
          1   -1    0    0  501    0  0.00000000000E+00 -0.00000000000E+00 -0.21399080381E+03  0.21399080381E+03  0.00000000000E+00 0. -1.
         23    2    1    2    0    0  0.53957809815E+01  0.16119678816E+02  0.12870893853E+03  0.15843216815E+03  0.90806401481E+02 0.  0.
          5    1    1    2  502    0 -0.44063584237E+02 -0.10405761950E+02 -0.17116924079E+03  0.17710522503E+03  0.41800000000E+01 0. -1.
         -5    1    1    2    0  502  0.38667803255E+02 -0.57139168654E+01 -0.95337797701E+01  0.40450132401E+02  0.41800000000E+01 0.  1.
        -11    1    3    3    0    0 -0.84058154214E+01  0.50796741036E+02  0.95401248423E+02  0.10840832456E+03  0.00000000000E+00 0.  1.
         11    1    3    3    0    0  0.13801596403E+02 -0.34677062221E+02  0.33307690107E+02  0.50023843593E+02  0.00000000000E+00 0. -1.
</event>
<event>
 7    1  0.6684706E-006  0.1252605E+03  0.7561462E-02  0.1234663E+00
          2   -1    0    0  501    0  0.00000000000E+00  0.00000000000E+00  0.14084237647E+03  0.14084237647E+03  0.00000000000E+00 0. -1.
         -2   -1    0    0    0  501 -0.00000000000E+00 -0.00000000000E+00 -0.25196841335E+03  0.25196841335E+03  0.00000000000E+00 0.  1.
         23    2    1    2    0    0 -0.47391158057E+02  0.80843091099E+02 -0.18010916130E+03  0.22195987260E+03  0.89695862906E+02 0.  0.
          5    1    1    2  502    0 -0.74263566514E+01  0.25492948675E+02  0.39138040058E+02  0.47479466982E+02  0.41800000000E+01 0.  1.
         -5    1    1    2    0  502  0.54817514709E+02 -0.10633603977E+03  0.29845084355E+02  0.12337145024E+03  0.41800000000E+01 0.  1.
        -11    1    3    3    0    0 -0.10771431233E+02  0.61660895421E+02 -0.16738560730E+03  0.17870655077E+03  0.00000000000E+00 0.  1.
         11    1    3    3    0    0 -0.36619726824E+02  0.19182195678E+02 -0.12723553996E+02  0.43253321837E+02  0.00000000000E+00 0. -1.
</event>
<event>
 7    1  0.6684706E-006  0.7716761E+02  0.7561462E-02  0.1337287E+00
          1   -1    0    0  501    0  0.00000000000E+00  0.00000000000E+00  0.59192554926E+02  0.59192554926E+02  0.00000000000E+00 0. -1.
         -1   -1    0    0    0  501 -0.00000000000E+00 -0.00000000000E+00 -0.27027400031E+03  0.27027400031E+03  0.00000000000E+00 0.  1.
         23    2    1    2    0    0 -0.49947551424E+02  0.16730887481E+01 -0.17254703702E+03  0.20160911775E+03  0.91521578091E+02 0.  0.
          5    1    1    2  502    0  0.11157974255E+02  0.13436086469E+01  0.39111700460E+02  0.40908473285E+02  0.41800000000E+01 0. -1.
         -5    1    1    2    0  502  0.38789577169E+02 -0.30166973950E+01 -0.77646108823E+02  0.86948964200E+02  0.41800000000E+01 0.  1.
        -11    1    3    3    0    0 -0.57349318699E+02 -0.34074228173E+02 -0.97262646921E+02  0.11794074727E+03  0.00000000000E+00 0.  1.
         11    1    3    3    0    0  0.74017672755E+01  0.35747316922E+02 -0.75284390101E+02  0.83668370480E+02  0.00000000000E+00 0. -1.
</event>
<event>
 7    1  0.6684706E-006  0.1153063E+03  0.7561462E-02  0.1251047E+00
          2   -1    0    0  501    0  0.00000000000E+00  0.00000000000E+00  0.54793439441E+03  0.54793439441E+03  0.00000000000E+00 0.  1.
         -2   -1    0    0    0  501 -0.00000000000E+00 -0.00000000000E+00 -0.52466995975E+02  0.52466995975E+02  0.00000000000E+00 0. -1.
         23    2    1    2    0    0 -0.36222348742E+01  0.83972581291E+02  0.61783191609E+02  0.14129689900E+03  0.95305487287E+02 0.  0.
          5    1    1    2  502    0 -0.50592911813E+02 -0.74251446383E+02  0.32460179923E+03  0.33683337198E+03  0.41800000000E+01 0.  1.
         -5    1    1    2    0  502  0.54215146687E+02 -0.97211349085E+01  0.10908240760E+03  0.12227111941E+03  0.41800000000E+01 0.  1.
        -11    1    3    3    0    0  0.52281385653E+01  0.51699881447E+02  0.85659123908E+02  0.10018830612E+03  0.00000000000E+00 0.  1.
         11    1    3    3    0    0 -0.88503734395E+01  0.32272699845E+02 -0.23875932299E+02  0.41108592878E+02  0.00000000000E+00 0. -1.
</event>
<event>
 7    1  0.6684706E-006  0.1853535E+03  0.7561462E-02  0.1162720E+00
         -2   -1    0    0    0  501 -0.00000000000E+00  0.00000000000E+00  0.18165446618E+02  0.18165446618E+02  0.00000000000E+00 0.  1.
          2   -1    0    0  501    0  0.00000000000E+00 -0.00000000000E+00 -0.22305546136E+04  0.22305546136E+04  0.00000000000E+00 0. -1.
         23    2    1    2    0    0  0.14304804554E+03 -0.57711986091E+02 -0.66607998756E+03  0.68970968410E+03  0.90793622261E+02 0.  0.
          5    1    1    2  502    0 -0.13461345049E+03  0.87624718535E+02 -0.14107983619E+04  0.14199184353E+04  0.41800000000E+01 0.  1.
         -5    1    1    2    0  502 -0.84345950525E+01 -0.29912732444E+02 -0.13551081751E+03  0.13909194088E+03  0.41800000000E+01 0.  1.
        -11    1    3    3    0    0  0.97781665151E+01  0.21514561286E+02 -0.10285075204E+03  0.10553087739E+03  0.00000000000E+00 0.  1.
         11    1    3    3    0    0  0.13326987903E+03 -0.79226547377E+02 -0.56322923552E+03  0.58417880671E+03  0.00000000000E+00 0. -1.
</event>
<event>
 7    1  0.6684706E-006  0.1147106E+03  0.7561462E-02  0.1252087E+00
          1   -1    0    0  501    0  0.00000000000E+00  0.00000000000E+00  0.75005639480E+03  0.75005639480E+03  0.00000000000E+00 0. -1.
         -1   -1    0    0    0  501 -0.00000000000E+00 -0.00000000000E+00 -0.29674059742E+02  0.29674059742E+02  0.00000000000E+00 0.  1.
         23    2    1    2    0    0  0.85831464085E+02  0.46561437714E+02  0.24064506807E+03  0.27442834465E+03  0.88689682902E+02 0.  0.
          5    1    1    2  502    0 -0.18683281890E+02 -0.26069358746E+02  0.38975993039E+03  0.39109967045E+03  0.41800000000E+01 0. -1.
         -5    1    1    2    0  502 -0.67148182195E+02 -0.20492078968E+02  0.89977336591E+02  0.11420243943E+03  0.41800000000E+01 0. -1.
        -11    1    3    3    0    0  0.79490568540E+02 -0.26750067596E+00  0.11170626378E+03  0.13710255801E+03  0.00000000000E+00 0.  1.
         11    1    3    3    0    0  0.63408955444E+01  0.46828938390E+02  0.12893880429E+03  0.13732578665E+03  0.00000000000E+00 0. -1.
</event>
<event>
 7    1  0.6684706E-006  0.1083212E+03  0.7561462E-02  0.1263711E+00
          1   -1    0    0  501    0  0.00000000000E+00  0.00000000000E+00  0.12416316275E+04  0.12416316275E+04  0.00000000000E+00 0. -1.
         -1   -1    0    0    0  501 -0.00000000000E+00 -0.00000000000E+00 -0.19159392735E+02  0.19159392735E+02  0.00000000000E+00 0.  1.
         23    2    1    2    0    0 -0.54419548109E+02 -0.30036702908E+02  0.19488329543E+03  0.22375235411E+03  0.90674838823E+02 0.  0.
          5    1    1    2  502    0  0.51426372218E+02 -0.20830604296E+02  0.19234714512E+03  0.20023356979E+03  0.41800000000E+01 0.  1.
         -5    1    1    2    0  502  0.29931758910E+01  0.50867307204E+02  0.83524179419E+03  0.83680509631E+03  0.41800000000E+01 0.  1.
        -11    1    3    3    0    0  0.23041770491E+02  0.69055167865E+01  0.39647579037E+02  0.46373913712E+02  0.00000000000E+00 0.  1.
         11    1    3    3    0    0 -0.77461318600E+02 -0.36942219694E+02  0.15523571639E+03  0.17737844040E+03  0.00000000000E+00 0. -1.
</event>
<event>
 6    1  0.6684706E-006  0.7137731E+02  0.7561462E-02  0.1355471E+00
         -2   -1    0    0    0  501 -0.00000000000E+00  0.00000000000E+00  0.36405606868E+02  0.36405606868E+02  0.00000000000E+00 0. -1.
          2   -1    0    0  501    0  0.00000000000E+00 -0.00000000000E+00 -0.23914832725E+03  0.23914832725E+03  0.00000000000E+00 0.  1.
          5    1    1    2  502    0 -0.23971692857E+02 -0.52386037099E+02 -0.17290013057E+02  0.60293912569E+02  0.41800000000E+01 0.  1.
         -5    1    1    2    0  502  0.13275162857E+02  0.25647516419E+02 -0.13862198782E+03  0.14165999067E+03  0.41800000000E+01 0.  1.
        -11    1    1    2    0    0  0.12494335100E+02 -0.11827505729E+02 -0.21001054364E+02  0.27148528243E+02  0.00000000000E+00 0. -1.
         11    1    1    2    0    0 -0.17978050994E+01  0.38566026410E+02 -0.25829665132E+02  0.46451502635E+02  0.00000000000E+00 0.  1.
</event>
<event>
 7    1  0.6684706E-006  0.1192232E+03  0.7561462E-02  0.1244384E+00
         -1   -1    0    0    0  501 -0.00000000000E+00  0.00000000000E+00  0.20737728466E+03  0.20737728466E+03  0.00000000000E+00 0.  1.
          1   -1    0    0  501    0  0.00000000000E+00 -0.00000000000E+00 -0.81809912981E+02  0.81809912981E+02  0.00000000000E+00 0. -1.
         23    2    1    2    0    0  0.13451107834E+02  0.64972928604E+02  0.79570460536E+02  0.14032373486E+03  0.94640787313E+02 0.  0.
          5    1    1    2  502    0 -0.63146797225E+02 -0.49149650074E+02  0.14422992725E+01  0.80142115828E+02  0.41800000000E+01 0. -1.
         -5    1    1    2    0  502  0.49695689391E+02 -0.15823278530E+02  0.44554611872E+02  0.68721346949E+02  0.41800000000E+01 0. -1.
        -11    1    3    3    0    0  0.32044050696E+02 -0.60235598449E+01  0.53087943525E+02  0.62301157341E+02  0.00000000000E+00 0.  1.
         11    1    3    3    0    0 -0.18592942863E+02  0.70996488449E+02  0.26482517011E+02  0.78022577524E+02  0.00000000000E+00 0. -1.
</event>
<event>
 7    1  0.6684706E-006  0.1182563E+03  0.7561462E-02  0.1246002E+00
          2   -1    0    0  501    0  0.00000000000E+00  0.00000000000E+00  0.12383325963E+04  0.12383325963E+04  0.00000000000E+00 0.  1.
         -2   -1    0    0    0  501 -0.00000000000E+00 -0.00000000000E+00 -0.18330002032E+02  0.18330002032E+02  0.00000000000E+00 0. -1.
         23    2    1    2    0    0  0.17515928226E+02 -0.83372091434E+02  0.32141167625E+03  0.34541583546E+03  0.93535663716E+02 0.  0.
          5    1    1    2  502    0 -0.42612471327E+02  0.70285496869E+02  0.27625803991E+03  0.28825657113E+03  0.41800000000E+01 0. -1.
         -5    1    1    2    0  502  0.25096543101E+02  0.13086594565E+02  0.62233287808E+03  0.62299019172E+03  0.41800000000E+01 0. -1.
        -11    1    3    3    0    0 -0.12211761990E+02  0.16993430417E+02  0.39549012680E+02  0.44744029905E+02  0.00000000000E+00 0.  1.
         11    1    3    3    0    0  0.29727690216E+02 -0.10036552185E+03  0.28186266357E+03  0.30067180556E+03  0.00000000000E+00 0. -1.
</event>
<event>
 7    1  0.6684706E-006  0.1599960E+03  0.7561462E-02  0.1188701E+00
          2   -1    0    0  501    0  0.00000000000E+00  0.00000000000E+00  0.88833428215E+03  0.88833428215E+03  0.00000000000E+00 0. -1.
         -2   -1    0    0    0  501 -0.00000000000E+00 -0.00000000000E+00 -0.29074694081E+02  0.29074694081E+02  0.00000000000E+00 0.  1.
         23    2    1    2    0    0 -0.11858293385E+03  0.53747602635E+01  0.40543684425E+03  0.43192749649E+03  0.89952917130E+02 0.  0.
          5    1    1    2  502    0  0.65285094516E+02  0.59385793041E+02  0.22380683561E+03  0.24061543601E+03  0.41800000000E+01 0.  1.
         -5    1    1    2    0  502  0.53297839337E+02 -0.64760553305E+02  0.23001590822E+03  0.24486604374E+03  0.41800000000E+01 0.  1.
        -11    1    3    3    0    0 -0.82831309219E+01 -0.30555152029E+02  0.65657021594E+02  0.72890822865E+02  0.00000000000E+00 0. -1.
         11    1    3    3    0    0 -0.11029980293E+03  0.35929912292E+02  0.33977982266E+03  0.35903667363E+03  0.00000000000E+00 0.  1.
</event>
<event>
 7    1  0.6684706E-006  0.1018717E+03  0.7561462E-02  0.1276409E+00
         -2   -1    0    0    0  501 -0.00000000000E+00  0.00000000000E+00  0.31938043497E+02  0.31938043497E+02  0.00000000000E+00 0.  1.
          2   -1    0    0  501    0  0.00000000000E+00 -0.00000000000E+00 -0.48891348635E+03  0.48891348635E+03  0.00000000000E+00 0. -1.
         23    2    1    2    0    0 -0.53725414957E+02  0.31500178480E+02 -0.16716242868E+03  0.19910916015E+03  0.88444890394E+02 0.  0.
          5    1    1    2  502    0  0.87930903063E+02 -0.43016893431E+02 -0.16651089644E+03  0.19319846756E+03  0.41800000000E+01 0. -1.
         -5    1    1    2    0  502 -0.34205488106E+02  0.11516714951E+02 -0.12330211773E+03  0.12854390213E+03  0.41800000000E+01 0. -1.
        -11    1    3    3    0    0 -0.30930175913E+02  0.47684443002E+00 -0.36763756753E+01  0.31151547325E+02  0.00000000000E+00 0.  1.
         11    1    3    3    0    0 -0.22795239044E+02  0.31023334050E+02 -0.16348605301E+03  0.16795761283E+03  0.00000000000E+00 0. -1.
</event>
<event>
 7    1  0.6684706E-006  0.1102277E+03  0.7561462E-02  0.1260149E+00
          2   -1    0    0  501    0  0.00000000000E+00  0.00000000000E+00  0.27965658475E+03  0.27965658475E+03  0.00000000000E+00 0. -1.
         -2   -1    0    0    0  501 -0.00000000000E+00 -0.00000000000E+00 -0.51895710090E+02  0.51895710090E+02  0.00000000000E+00 0.  1.
         23    2    1    2    0    0  0.46810967228E+02  0.34082107066E+01  0.66531425931E+02  0.12215875688E+03  0.91068373731E+02 0.  0.
          5    1    1    2  502    0 -0.21463227213E+02  0.60419917196E+02  0.87343359518E+02  0.10843233544E+03  0.41800000000E+01 0.  1.
         -5    1    1    2    0  502 -0.25347740015E+02 -0.63828127903E+02  0.73886089215E+02  0.10096120252E+03  0.41800000000E+01 0.  1.
        -11    1    3    3    0    0  0.64655675993E+02 -0.95306904568E+01  0.74147153802E+02  0.98838205749E+02  0.00000000000E+00 0. -1.
         11    1    3    3    0    0 -0.17844708765E+02  0.12938901163E+02 -0.76157278714E+01  0.23320551135E+02  0.00000000000E+00 0.  1.
</event>
<event>
 7    1  0.6684706E-006  0.7609882E+02  0.7561462E-02  0.1340502E+00
         -1   -1    0    0    0  501 -0.00000000000E+00  0.00000000000E+00  0.47332143967E+02  0.47332143967E+02  0.00000000000E+00 0.  1.
          1   -1    0    0  501    0  0.00000000000E+00 -0.00000000000E+00 -0.53619258885E+03  0.53619258885E+03  0.00000000000E+00 0. -1.
         23    2    1    2    0    0 -0.10153445277E+02  0.37543193256E+02 -0.28332129674E+02  0.10472304800E+03  0.93014103229E+02 0.  0.
          5    1    1    2  502    0 -0.27565804282E+01  0.15434519415E+02 -0.38610494312E+03  0.38644575639E+03  0.41800000000E+01 0. -1.
         -5    1    1    2    0  502  0.12910025705E+02 -0.52977712671E+02 -0.74423372080E+02  0.92355928425E+02  0.41800000000E+01 0.  1.
        -11    1    3    3    0    0 -0.28715710848E+02  0.50881743332E+02 -0.47180144124E+02  0.75096670057E+02  0.00000000000E+00 0.  1.
         11    1    3    3    0    0  0.18562265571E+02 -0.13338550076E+02  0.18848014451E+02  0.29626377943E+02  0.00000000000E+00 0. -1.
</event>
<event>
 7    1  0.6684706E-006  0.2342717E+03  0.7561462E-02  0.1123669E+00
         -1   -1    0    0    0  501 -0.00000000000E+00  0.00000000000E+00  0.10763789676E+03  0.10763789676E+03  0.00000000000E+00 0.  1.
          1   -1    0    0  501    0  0.00000000000E+00 -0.00000000000E+00 -0.59394699956E+03  0.59394699956E+03  0.00000000000E+00 0. -1.
         23    2    1    2    0    0 -0.18577005362E+03  0.13168156050E+03 -0.22986813759E+03  0.33653751073E+03  0.92561272937E+02 0.  0.
          5    1    1    2  502    0  0.19160558551E+03 -0.13002302602E+03 -0.19382778834E+03  0.30200227090E+03  0.41800000000E+01 0.  1.
         -5    1    1    2    0  502 -0.58355318911E+01 -0.16585344803E+01 -0.62613176871E+02  0.63045114696E+02  0.41800000000E+01 0.  1.
        -11    1    3    3    0    0 -0.15163034091E+03  0.92519947948E+02 -0.11815956791E+03  0.21333866162E+03  0.00000000000E+00 0.  1.
         11    1    3    3    0    0 -0.34139712715E+02  0.39161612557E+02 -0.11170856968E+03  0.12319884911E+03  0.00000000000E+00 0. -1.
</event>
<event>
 7    1  0.6684706E-006  0.1067137E+03  0.7561462E-02  0.1266780E+00
         -1   -1    0    0    0  501 -0.00000000000E+00  0.00000000000E+00  0.15454789900E+02  0.15454789900E+02  0.00000000000E+00 0.  1.
          1   -1    0    0  501    0  0.00000000000E+00 -0.00000000000E+00 -0.12467921905E+04  0.12467921905E+04  0.00000000000E+00 0. -1.
         23    2    1    2    0    0 -0.70664411596E+01 -0.67425957725E+02 -0.30758700002E+03  0.32760422514E+03  0.90103115282E+02 0.  0.
          5    1    1    2  502    0 -0.31904730790E+02  0.45587120894E+02 -0.81624412185E+03  0.81814915284E+03  0.41800000000E+01 0. -1.
         -5    1    1    2    0  502  0.38971171950E+02  0.21838836831E+02 -0.10750627868E+03  0.11649360237E+03  0.41800000000E+01 0. -1.
        -11    1    3    3    0    0  0.26709979878E+01 -0.89026126252E+02 -0.24303515490E+03  0.25884140299E+03  0.00000000000E+00 0.  1.
         11    1    3    3    0    0 -0.97374391474E+01  0.21600168527E+02 -0.64551845120E+02  0.68762822149E+02  0.00000000000E+00 0. -1.
</event>
<event>
 7    1  0.6684706E-006  0.1070347E+03  0.7561462E-02  0.1266162E+00
          2   -1    0    0  501    0  0.00000000000E+00  0.00000000000E+00  0.88875043818E+02  0.88875043818E+02  0.00000000000E+00 0. -1.
         -2   -1    0    0    0  501 -0.00000000000E+00 -0.00000000000E+00 -0.24629847514E+03  0.24629847514E+03  0.00000000000E+00 0.  1.
         23    2    1    2    0    0 -0.75571824625E+01 -0.56782475332E+02 -0.15954769818E+03  0.19757465931E+03  0.10148358239E+03 0.  0.
          5    1    1    2  502    0 -0.38543016544E+02  0.10818284174E+02  0.44350051677E+02  0.59891559344E+02  0.41800000000E+01 0. -1.
         -5    1    1    2    0  502  0.46100199007E+02  0.45964191158E+02 -0.42225784820E+02  0.77707300307E+02  0.41800000000E+01 0. -1.
        -11    1    3    3    0    0 -0.49564542090E+02 -0.22814657748E+02 -0.11597764847E+03  0.12817163253E+03  0.00000000000E+00 0. -1.
         11    1    3    3    0    0  0.42007359627E+02 -0.33967817584E+02 -0.43570049711E+02  0.69403026779E+02  0.00000000000E+00 0.  1.
</event>
<event>
 7    1  0.6684706E-006  0.9218925E+02  0.7561462E-02  0.1297635E+00
          2   -1    0    0  501    0  0.00000000000E+00  0.00000000000E+00  0.16229865027E+04  0.16229865027E+04  0.00000000000E+00 0. -1.
         -2   -1    0    0    0  501 -0.00000000000E+00 -0.00000000000E+00 -0.95924908275E+01  0.95924908275E+01  0.00000000000E+00 0.  1.
         23    2    1    2    0    0  0.25329427316E+02  0.39869342024E+02  0.42128274390E+03  0.43299223054E+03  0.88158817357E+02 0.  0.
          5    1    1    2  502    0  0.12097737636E+02 -0.45814461868E+02  0.10823044508E+04  0.10833493051E+04  0.41800000000E+01 0. -1.
         -5    1    1    2    0  502 -0.37427164952E+02  0.59451198433E+01  0.10980681720E+03  0.11623745794E+03  0.41800000000E+01 0. -1.
        -11    1    3    3    0    0 -0.26102561181E+02 -0.91238524498E+01  0.15222619750E+03  0.15471717290E+03  0.00000000000E+00 0.  1.
         11    1    3    3    0    0  0.51431988497E+02  0.48993194474E+02  0.26905654640E+03  0.27827505765E+03  0.00000000000E+00 0. -1.
</event>
<event>
 7    1  0.6684706E-006  0.1104732E+03  0.7561462E-02  0.1259696E+00
         -2   -1    0    0    0  501 -0.00000000000E+00  0.00000000000E+00  0.14718340477E+02  0.14718340477E+02  0.00000000000E+00 0. -1.
          2   -1    0    0  501    0  0.00000000000E+00 -0.00000000000E+00 -0.13265716851E+04  0.13265716851E+04  0.00000000000E+00 0.  1.
         23    2    1    2    0    0  0.62105188509E+02 -0.64100592280E+02 -0.60809072673E+03  0.62094629415E+03  0.88510044156E+02 0.  0.
          5    1    1    2  502    0 -0.68550234906E+02  0.64351923403E+02 -0.70607305599E+03  0.71231800310E+03  0.41800000000E+01 0. -1.
         -5    1    1    2    0  502  0.64450463964E+01 -0.25133112304E+00  0.23104381210E+01  0.80257282969E+01  0.41800000000E+01 0. -1.
        -11    1    3    3    0    0  0.79770277439E+02 -0.39927355628E+02 -0.52717629575E+03  0.53467030747E+03  0.00000000000E+00 0.  1.
         11    1    3    3    0    0 -0.17665088930E+02 -0.24173236652E+02 -0.80914430983E+02  0.86275986685E+02  0.00000000000E+00 0. -1.
</event>
<event>
 7    1  0.6684706E-006  0.1185719E+03  0.7561462E-02  0.1245472E+00
         -2   -1    0    0    0  501 -0.00000000000E+00  0.00000000000E+00  0.45610094697E+03  0.45610094697E+03  0.00000000000E+00 0. -1.
          2   -1    0    0  501    0  0.00000000000E+00 -0.00000000000E+00 -0.47739749839E+02  0.47739749839E+02  0.00000000000E+00 0.  1.
         23    2    1    2    0    0  0.44374579764E+02  0.45790972520E+02  0.31671334110E+03  0.33617143058E+03  0.92940700532E+02 0.  0.
          5    1    1    2  502    0 -0.80582146403E+02 -0.48607580477E+02  0.91192685700E+02  0.13110971560E+03  0.41800000000E+01 0.  1.
         -5    1    1    2    0  502  0.36207566639E+02  0.28166079566E+01  0.45517033224E+00  0.36559550631E+02  0.41800000000E+01 0.  1.
        -11    1    3    3    0    0  0.69173577932E+02  0.42956930385E+02  0.18519380981E+03  0.20230429789E+03  0.00000000000E+00 0.  1.
         11    1    3    3    0    0 -0.24798998168E+02  0.28340421352E+01  0.13151953129E+03  0.13386713270E+03  0.00000000000E+00 0. -1.
</event>
<event>
 7    1  0.6684706E-006  0.1524392E+03  0.7561462E-02  0.1197507E+00
         -2   -1    0    0    0  501 -0.00000000000E+00  0.00000000000E+00  0.29333946215E+03  0.29333946215E+03  0.00000000000E+00 0.  1.
          2   -1    0    0  501    0  0.00000000000E+00 -0.00000000000E+00 -0.10722388065E+03  0.10722388065E+03  0.00000000000E+00 0. -1.
         23    2    1    2    0    0  0.60393060202E+02 -0.10601260977E+03  0.16614247255E+03  0.22468605766E+03  0.89412013563E+02 0.  0.
          5    1    1    2  502    0 -0.70620467783E+02  0.15274009350E+02  0.39433762479E+02  0.82419899628E+02  0.41800000000E+01 0. -1.
         -5    1    1    2    0  502  0.10227407581E+02  0.90738600418E+02 -0.19460653522E+02  0.93457385515E+02  0.41800000000E+01 0. -1.
        -11    1    3    3    0    0  0.60683441419E+02 -0.34942494005E+02  0.42043279370E+02  0.81676773259E+02  0.00000000000E+00 0. -1.
         11    1    3    3    0    0 -0.29038121722E+00 -0.71070115763E+02  0.12409919318E+03  0.14300928440E+03  0.00000000000E+00 0.  1.
</event>
<event>
 7    1  0.6684706E-006  0.9317668E+02  0.7561462E-02  0.1295336E+00
          1   -1    0    0  501    0  0.00000000000E+00  0.00000000000E+00  0.19928488324E+03  0.19928488324E+03  0.00000000000E+00 0. -1.
         -1   -1    0    0    0  501 -0.00000000000E+00 -0.00000000000E+00 -0.59280062648E+02  0.59280062648E+02  0.00000000000E+00 0.  1.
         23    2    1    2    0    0  0.29555296414E+01  0.13397891056E+02  0.75675158629E+02  0.11895491604E+03  0.90748574519E+02 0.  0.
          5    1    1    2  502    0  0.13003399270E+02 -0.65033322573E+02  0.19462740814E+02  0.69243715364E+02  0.41800000000E+01 0. -1.
         -5    1    1    2    0  502 -0.15958928911E+02  0.51635431517E+02  0.44866921148E+02  0.70366314478E+02  0.41800000000E+01 0.  1.
        -11    1    3    3    0    0 -0.28502378638E+02 -0.54549921981E+01  0.76968473355E+02  0.82257452054E+02  0.00000000000E+00 0. -1.
         11    1    3    3    0    0  0.31457908279E+02  0.18852883254E+02 -0.12933147256E+01  0.36697463990E+02  0.00000000000E+00 0.  1.
</event>
<event>
 7    1  0.6684706E-006  0.1110924E+03  0.7561462E-02  0.1258560E+00
          1   -1    0    0  501    0  0.00000000000E+00  0.00000000000E+00  0.19698885057E+04  0.19698885057E+04  0.00000000000E+00 0. -1.
         -1   -1    0    0    0  501 -0.00000000000E+00 -0.00000000000E+00 -0.82813111606E+01  0.82813111606E+01  0.00000000000E+00 0.  1.
         23    2    1    2    0    0  0.20149518821E+02  0.44897472860E+02  0.54565021095E+03  0.55584659125E+03  0.93858905360E+02 0.  0.
          5    1    1    2  502    0 -0.62707175334E+02 -0.36355268179E+02  0.11890135154E+04  0.11912281509E+04  0.41800000000E+01 0.  1.
         -5    1    1    2    0  502  0.42557656514E+02 -0.85422046817E+01  0.22694346822E+03  0.23109507471E+03  0.41800000000E+01 0.  1.
        -11    1    3    3    0    0  0.56989982680E+02  0.37987881316E+02  0.35019965998E+03  0.35683433005E+03  0.00000000000E+00 0. -1.
         11    1    3    3    0    0 -0.36840463859E+02  0.69095915446E+01  0.19545055097E+03  0.19901226120E+03  0.00000000000E+00 0.  1.
</event>
<event>
 7    1  0.6684706E-006  0.1355614E+03  0.7561462E-02  0.1219429E+00
         -3   -1    0    0    0  501 -0.00000000000E+00  0.00000000000E+00  0.14557225807E+02  0.14557225807E+02  0.00000000000E+00 0.  1.
          3   -1    0    0  501    0  0.00000000000E+00 -0.00000000000E+00 -0.13856727562E+04  0.13856727562E+04  0.00000000000E+00 0. -1.
         23    2    1    2    0    0 -0.22052472809E+02 -0.79989452275E+02 -0.44297829385E+03  0.46003200131E+03  0.92277025187E+02 0.  0.
          5    1    1    2  502    0 -0.50859592777E+02  0.48883544096E+02 -0.45093326377E+03  0.45643683006E+03  0.41800000000E+01 0.  1.
         -5    1    1    2    0  502  0.72912065586E+02  0.31105908179E+02 -0.47720397273E+03  0.48376115059E+03  0.41800000000E+01 0.  1.
        -11    1    3    3    0    0  0.17689196505E+02 -0.79382598592E+02 -0.24638608948E+03  0.25946215470E+03  0.00000000000E+00 0.  1.
         11    1    3    3    0    0 -0.39741669314E+02 -0.60685368231E+00 -0.19659220437E+03  0.20056984661E+03  0.00000000000E+00 0. -1.
</event>
<event>
 7    1  0.6684706E-006  0.8979578E+02  0.7561462E-02  0.1303347E+00
          1   -1    0    0  501    0  0.00000000000E+00  0.00000000000E+00  0.18404442052E+03  0.18404442052E+03  0.00000000000E+00 0. -1.
         -1   -1    0    0    0  501 -0.00000000000E+00 -0.00000000000E+00 -0.98253772058E+02  0.98253772058E+02  0.00000000000E+00 0.  1.
         23    2    1    2    0    0  0.23524184018E+02 -0.65750611830E+02 -0.95020005310E+01  0.11023821826E+03  0.84768193106E+02 0.  0.
          5    1    1    2  502    0  0.22703969163E+02  0.48330739126E+02 -0.11085277205E+02  0.54696310030E+02  0.41800000000E+01 0. -1.
         -5    1    1    2    0  502 -0.46228153181E+02  0.17419872704E+02  0.10637792619E+03  0.11736366428E+03  0.41800000000E+01 0. -1.
        -11    1    3    3    0    0 -0.76138283911E+01 -0.96751303839E+01 -0.38078676298E+02  0.40019546716E+02  0.00000000000E+00 0.  1.
         11    1    3    3    0    0  0.31138012409E+02 -0.56075481446E+02  0.28576675767E+02  0.70218671549E+02  0.00000000000E+00 0. -1.
</event>
<event>
 7    1  0.6684706E-006  0.1569504E+03  0.7561462E-02  0.1192183E+00
         -1   -1    0    0    0  501 -0.00000000000E+00  0.00000000000E+00  0.30169319552E+02  0.30169319552E+02  0.00000000000E+00 0.  1.
          1   -1    0    0  501    0  0.00000000000E+00 -0.00000000000E+00 -0.91660179306E+03  0.91660179306E+03  0.00000000000E+00 0. -1.
         23    2    1    2    0    0  0.11652862178E+03 -0.13529089446E+02 -0.27674823254E+03  0.31342696018E+03  0.88797067510E+02 0.  0.
          5    1    1    2  502    0 -0.59305775476E+02  0.69397415266E+02 -0.31911836101E+03  0.33194453902E+03  0.41800000000E+01 0.  1.
         -5    1    1    2    0  502 -0.57222846309E+02 -0.55868325820E+02 -0.29056587995E+03  0.30139961341E+03  0.41800000000E+01 0.  1.
        -11    1    3    3    0    0  0.12063165037E+03  0.76401717533E+01 -0.25776473308E+03  0.28469812945E+03  0.00000000000E+00 0. -1.
         11    1    3    3    0    0 -0.41030285850E+01 -0.21169261199E+02 -0.18983499467E+02  0.28728830733E+02  0.00000000000E+00 0.  1.
</event>
<event>
 7    1  0.6684706E-006  0.1213832E+03  0.7561462E-02  0.1240832E+00
         -3   -1    0    0    0  501 -0.00000000000E+00  0.00000000000E+00  0.11278046572E+03  0.11278046572E+03  0.00000000000E+00 0.  1.
          3   -1    0    0  501    0  0.00000000000E+00 -0.00000000000E+00 -0.22449897972E+03  0.22449897972E+03  0.00000000000E+00 0. -1.
         23    2    1    2    0    0 -0.56777035643E+02 -0.66531130722E+02  0.28170762037E+02  0.13023840741E+03  0.92295329237E+02 0.  0.
          5    1    1    2  502    0 -0.24221594390E+02  0.32994872679E+02 -0.10468028675E+03  0.11247569556E+03  0.41800000000E+01 0. -1.
         -5    1    1    2    0  502  0.80998630033E+02  0.33536258043E+02 -0.35208989292E+02  0.94565342476E+02  0.41800000000E+01 0. -1.
        -11    1    3    3    0    0 -0.23202469090E+02 -0.75598366797E+02 -0.86974855791E+01  0.79555728202E+02  0.00000000000E+00 0. -1.
         11    1    3    3    0    0 -0.33574566553E+02  0.90672360753E+01  0.36868247616E+02  0.50682679207E+02  0.00000000000E+00 0.  1.
</event>
<event>
 7    1  0.6684706E-006  0.1144297E+03  0.7561462E-02  0.1252580E+00
         -2   -1    0    0    0  501 -0.00000000000E+00  0.00000000000E+00  0.40743578334E+02  0.40743578334E+02  0.00000000000E+00 0.  1.
          2   -1    0    0  501    0  0.00000000000E+00 -0.00000000000E+00 -0.56441062072E+03  0.56441062072E+03  0.00000000000E+00 0. -1.
         23    2    1    2    0    0 -0.44234159427E+02  0.64528253360E+00 -0.48786915743E+02  0.11208607815E+03  0.90697566217E+02 0.  0.
          5    1    1    2  502    0  0.68846791472E+02  0.40392440711E+02 -0.22923780275E+03  0.24277329460E+03  0.41800000000E+01 0. -1.
         -5    1    1    2    0  502 -0.24612632044E+02 -0.41037723245E+02 -0.24564232389E+03  0.25029482630E+03  0.41800000000E+01 0. -1.
        -11    1    3    3    0    0 -0.64368770319E+02 -0.24329942983E+02 -0.34242822690E+02  0.76862576223E+02  0.00000000000E+00 0. -1.
         11    1    3    3    0    0  0.20134610891E+02  0.24975225516E+02 -0.14544093053E+02  0.35223501928E+02  0.00000000000E+00 0.  1.
</event>
<event>
 7    1  0.6684706E-006  0.8219667E+02  0.7561462E-02  0.1322931E+00
          1   -1    0    0  501    0  0.00000000000E+00  0.00000000000E+00  0.96492130120E+02  0.96492130120E+02  0.00000000000E+00 0. -1.
         -1   -1    0    0    0  501 -0.00000000000E+00 -0.00000000000E+00 -0.14602785419E+03  0.14602785419E+03  0.00000000000E+00 0.  1.
         23    2    1    2    0    0 -0.34554845186E+02 -0.33585612009E+02 -0.27659769941E+02  0.10669763940E+03  0.91089476448E+02 0.  0.
          5    1    1    2  502    0  0.64945911872E+02 -0.66835003835E+01 -0.45769998755E+02  0.79843633637E+02  0.41800000000E+01 0. -1.
         -5    1    1    2    0  502 -0.30391066686E+02  0.40269112392E+02  0.23894044629E+02  0.55978711274E+02  0.41800000000E+01 0. -1.
        -11    1    3    3    0    0 -0.13552354665E+02 -0.10547738291E+02 -0.59624257600E+02  0.62048152223E+02  0.00000000000E+00 0.  1.
         11    1    3    3    0    0 -0.21002490522E+02 -0.23037873718E+02  0.31964487658E+02  0.44649487173E+02  0.00000000000E+00 0. -1.
</event>
<event>
 7    1  0.6684706E-006  0.7150648E+02  0.7561462E-02  0.1355044E+00
          2   -1    0    0  501    0  0.00000000000E+00  0.00000000000E+00  0.12594991306E+04  0.12594991306E+04  0.00000000000E+00 0.  1.
         -2   -1    0    0    0  501 -0.00000000000E+00 -0.00000000000E+00 -0.14384611399E+02  0.14384611399E+02  0.00000000000E+00 0. -1.
         23    2    1    2    0    0 -0.64352049986E+01 -0.36823058003E+01  0.25368090094E+03  0.26944422516E+03  0.90505357462E+02 0.  0.
          5    1    1    2  502    0  0.29912123728E+02  0.89299018371E+01  0.32720972248E+02  0.45415996275E+02  0.41800000000E+01 0. -1.
         -5    1    1    2    0  502 -0.23476918730E+02 -0.52475960369E+01  0.95871264601E+03  0.95902352056E+03  0.41800000000E+01 0.  1.
        -11    1    3    3    0    0 -0.31497986768E+02  0.31077079321E+02  0.16680820522E+03  0.17257718666E+03  0.00000000000E+00 0.  1.
         11    1    3    3    0    0  0.25062781769E+02 -0.34759385121E+02  0.86872695728E+02  0.96867038496E+02  0.00000000000E+00 0. -1.
</event>
<event>
 7    1  0.6684706E-006  0.1428693E+03  0.7561462E-02  0.1209519E+00
         -1   -1    0    0    0  501 -0.00000000000E+00  0.00000000000E+00  0.87830499224E+02  0.87830499224E+02  0.00000000000E+00 0.  1.
          1   -1    0    0  501    0  0.00000000000E+00 -0.00000000000E+00 -0.32691574417E+03  0.32691574417E+03  0.00000000000E+00 0. -1.
         23    2    1    2    0    0 -0.10399261932E+03 -0.27153025369E+02 -0.13640122078E+02  0.13541729252E+03  0.81240621140E+02 0.  0.
          5    1    1    2  502    0  0.13201457703E+03  0.29220002727E+02 -0.19823652674E+03  0.23999343750E+03  0.41800000000E+01 0.  1.
         -5    1    1    2    0  502 -0.28021957710E+02 -0.20669773571E+01 -0.27208596133E+02  0.39335513379E+02  0.41800000000E+01 0.  1.
        -11    1    3    3    0    0 -0.10312192688E+03 -0.38946608963E+02 -0.30913090908E+02  0.11448401348E+03  0.00000000000E+00 0. -1.
         11    1    3    3    0    0 -0.87069244500E+00  0.11793583594E+02  0.17272968829E+02  0.20933279043E+02  0.00000000000E+00 0.  1.
</event>
<event>
 7    1  0.6684706E-006  0.1030911E+03  0.7561462E-02  0.1273927E+00
          2   -1    0    0  501    0  0.00000000000E+00  0.00000000000E+00  0.28203446259E+03  0.28203446259E+03  0.00000000000E+00 0. -1.
         -2   -1    0    0    0  501 -0.00000000000E+00 -0.00000000000E+00 -0.77109067132E+02  0.77109067132E+02  0.00000000000E+00 0.  1.
         23    2    1    2    0    0  0.59237490758E+01  0.82756512895E+02  0.46358255911E+02  0.14079314327E+03  0.10387439565E+03 0.  0.
          5    1    1    2  502    0  0.17747695656E+02 -0.25484687478E+00 -0.15690662837E+02  0.24056494929E+02  0.41800000000E+01 0. -1.
         -5    1    1    2    0  502 -0.23671444732E+02 -0.82501666020E+02  0.17425780239E+03  0.19429389153E+03  0.41800000000E+01 0. -1.
        -11    1    3    3    0    0  0.26817509961E+02  0.75130084250E+02 -0.98171978907E+01  0.80374658782E+02  0.00000000000E+00 0.  1.
         11    1    3    3    0    0 -0.20893760885E+02  0.76264286445E+01  0.56175453801E+02  0.60418484486E+02  0.00000000000E+00 0. -1.
</event>
<event>
 7    1  0.6684706E-006  0.7973188E+02  0.7561462E-02  0.1329814E+00
          1   -1    0    0  501    0  0.00000000000E+00  0.00000000000E+00  0.87207827910E+03  0.87207827910E+03  0.00000000000E+00 0. -1.
         -1   -1    0    0    0  501 -0.00000000000E+00 -0.00000000000E+00 -0.11614954891E+02  0.11614954891E+02  0.00000000000E+00 0.  1.
         23    2    1    2    0    0 -0.14569826425E+02  0.13931718514E+02  0.25614848902E+03  0.26623734800E+03  0.69741697873E+02 0.  0.
          5    1    1    2  502    0  0.49178801127E+02 -0.23113975344E+02  0.54725590125E+03  0.54996300257E+03  0.41800000000E+01 0.  1.
         -5    1    1    2    0  502 -0.34608974702E+02  0.91822568300E+01  0.57058933935E+02  0.67492883419E+02  0.41800000000E+01 0.  1.
        -11    1    3    3    0    0 -0.32743476169E+02 -0.13983318166E+02  0.90077906064E+02  0.96859163632E+02  0.00000000000E+00 0.  1.
         11    1    3    3    0    0  0.18173649744E+02  0.27915036680E+02  0.16607058295E+03  0.16937818437E+03  0.00000000000E+00 0. -1.
</event>
<event>
 7    1  0.6684706E-006  0.2120334E+03  0.7561462E-02  0.1139966E+00
         -2   -1    0    0    0  501 -0.00000000000E+00  0.00000000000E+00  0.30252100800E+02  0.30252100800E+02  0.00000000000E+00 0.  1.
          2   -1    0    0  501    0  0.00000000000E+00 -0.00000000000E+00 -0.19946478974E+04  0.19946478974E+04  0.00000000000E+00 0. -1.
         23    2    1    2    0    0  0.17360808122E+03  0.75184390007E+02 -0.48358241228E+03  0.52681870555E+03  0.88845600255E+02 0.  0.
          5    1    1    2  502    0  0.22650404232E+01 -0.40097499192E+02 -0.15440297426E+03  0.15959539690E+03  0.41800000000E+01 0.  1.
         -5    1    1    2    0  502 -0.17587312164E+03 -0.35086890814E+02 -0.13264104100E+04  0.13384858957E+04  0.41800000000E+01 0.  1.
        -11    1    3    3    0    0  0.16744336538E+03  0.88670710976E+02 -0.46982245754E+03  0.50658949575E+03  0.00000000000E+00 0.  1.
         11    1    3    3    0    0  0.61647158436E+01 -0.13486320969E+02 -0.13759954738E+02  0.20229209799E+02  0.00000000000E+00 0. -1.
</event>
<event>
 7    1  0.6684706E-006  0.3142390E+03  0.7561462E-02  0.1078332E+00
          1   -1    0    0  501    0  0.00000000000E+00  0.00000000000E+00  0.10628581273E+04  0.10628581273E+04  0.00000000000E+00 0. -1.
         -1   -1    0    0    0  501 -0.00000000000E+00 -0.00000000000E+00 -0.10337889103E+03  0.10337889103E+03  0.00000000000E+00 0.  1.
         23    2    1    2    0    0  0.85814834382E+01  0.30742666492E+03  0.37089506856E+03  0.49046845385E+03  0.91713445979E+02 0.  0.
          5    1    1    2  502    0  0.35617808460E+02 -0.19334243776E+03  0.44860757565E+03  0.48981236800E+03  0.41800000000E+01 0. -1.
         -5    1    1    2    0  502 -0.44199291898E+02 -0.11408422716E+03  0.13997659210E+03  0.18595619653E+03  0.41800000000E+01 0. -1.
        -11    1    3    3    0    0  0.18335427294E+02  0.94096914272E+02  0.18043834321E+03  0.20432428361E+03  0.00000000000E+00 0. -1.
         11    1    3    3    0    0 -0.97539438555E+01  0.21332975065E+03  0.19045672535E+03  0.28614417024E+03  0.00000000000E+00 0.  1.
</event>
<event>
 7    1  0.6684706E-006  0.9880691E+02  0.7561462E-02  0.1282825E+00
         -1   -1    0    0    0  501 -0.00000000000E+00  0.00000000000E+00  0.44297300528E+03  0.44297300528E+03  0.00000000000E+00 0.  1.
          1   -1    0    0  501    0  0.00000000000E+00 -0.00000000000E+00 -0.30877108094E+02  0.30877108094E+02  0.00000000000E+00 0. -1.
         23    2    1    2    0    0  0.51612335248E+00  0.13962938503E+02  0.20371846311E+03  0.23041613144E+03  0.10674807438E+03 0.  0.
          5    1    1    2  502    0  0.51697645047E+02 -0.14964849676E+02  0.17034642454E+03  0.17869518736E+03  0.41800000000E+01 0. -1.
         -5    1    1    2    0  502 -0.52213768400E+02  0.10019111723E+01  0.38031009539E+02  0.64738794575E+02  0.41800000000E+01 0. -1.
        -11    1    3    3    0    0  0.45339701955E+02  0.66291322707E+01  0.16333210382E+03  0.16963787934E+03  0.00000000000E+00 0.  1.
         11    1    3    3    0    0 -0.44823578603E+02  0.73338062327E+01  0.40386359282E+02  0.60778252103E+02  0.00000000000E+00 0. -1.
</event>
<event>
 7    1  0.6684706E-006  0.8739557E+02  0.7561462E-02  0.1309284E+00
         -1   -1    0    0    0  501 -0.00000000000E+00  0.00000000000E+00  0.15646106601E+03  0.15646106601E+03  0.00000000000E+00 0.  1.
          1   -1    0    0  501    0  0.00000000000E+00 -0.00000000000E+00 -0.11599784450E+03  0.11599784450E+03  0.00000000000E+00 0. -1.
         23    2    1    2    0    0  0.62368318436E+02 -0.39996983152E+02  0.43301225212E+02  0.12704598334E+03  0.93680947759E+02 0.  0.
          5    1    1    2  502    0  0.11485771551E+02 -0.10570270789E+01 -0.47978626015E+02  0.49522330404E+02  0.41800000000E+01 0. -1.
         -5    1    1    2    0  502 -0.73854089987E+02  0.41054010231E+02  0.45140622312E+02  0.95890596757E+02  0.41800000000E+01 0. -1.
        -11    1    3    3    0    0  0.52337774436E+02 -0.20911037506E+02 -0.20287932617E+02  0.59900870881E+02  0.00000000000E+00 0. -1.
         11    1    3    3    0    0  0.10030544000E+02 -0.19085945646E+02  0.63589157829E+02  0.67145112462E+02  0.00000000000E+00 0.  1.
</event>
<event>
 7    1  0.6684706E-006  0.1139749E+03  0.7561462E-02  0.1253381E+00
         -2   -1    0    0    0  501 -0.00000000000E+00  0.00000000000E+00  0.60758430841E+02  0.60758430841E+02  0.00000000000E+00 0.  1.
          2   -1    0    0  501    0  0.00000000000E+00 -0.00000000000E+00 -0.26651027087E+03  0.26651027087E+03  0.00000000000E+00 0. -1.
         23    2    1    2    0    0  0.55167950525E+01 -0.49498425182E+02 -0.33332238758E+02  0.10853678943E+03  0.90491255915E+02 0.  0.
          5    1    1    2  502    0  0.55795972330E+02  0.29764658537E+02 -0.51497338176E+02  0.81661335192E+02  0.41800000000E+01 0.  1.
         -5    1    1    2    0  502 -0.61312767383E+02  0.19733766645E+02 -0.12092226310E+03  0.13707057708E+03  0.41800000000E+01 0.  1.
        -11    1    3    3    0    0  0.20609739156E+02 -0.70902489094E+02 -0.12101680481E+02  0.74822289314E+02  0.00000000000E+00 0. -1.
         11    1    3    3    0    0 -0.15092944104E+02  0.21404063911E+02 -0.21230558276E+02  0.33714500120E+02  0.00000000000E+00 0.  1.
</event>
<event>
 7    1  0.6684706E-006  0.1229670E+03  0.7561462E-02  0.1238281E+00
          1   -1    0    0  501    0  0.00000000000E+00  0.00000000000E+00  0.93190611303E+03  0.93190611303E+03  0.00000000000E+00 0. -1.
         -1   -1    0    0    0  501 -0.00000000000E+00 -0.00000000000E+00 -0.21880640826E+02  0.21880640826E+02  0.00000000000E+00 0.  1.
         23    2    1    2    0    0 -0.49354122645E+02  0.31707672419E+02  0.18135998500E+03  0.21213808993E+03  0.93112400503E+02 0.  0.
          5    1    1    2  502    0  0.58123861450E+02 -0.73275369326E+02  0.55312345660E+03  0.56099081424E+03  0.41800000000E+01 0. -1.
         -5    1    1    2    0  502 -0.87697388057E+01  0.41567696908E+02  0.17554203060E+03  0.18065784968E+03  0.41800000000E+01 0. -1.
        -11    1    3    3    0    0 -0.36599933509E+02  0.64654124428E+02  0.11393471371E+03  0.13601775592E+03  0.00000000000E+00 0.  1.
         11    1    3    3    0    0 -0.12754189136E+02 -0.32946452010E+02  0.67425271290E+02  0.76120334005E+02  0.00000000000E+00 0. -1.
</event>
<event>
 7    1  0.6684706E-006  0.1166407E+03  0.7561462E-02  0.1248744E+00
          4   -1    0    0  501    0  0.00000000000E+00  0.00000000000E+00  0.58293328014E+02  0.58293328014E+02  0.00000000000E+00 0.  1.
         -4   -1    0    0    0  501 -0.00000000000E+00 -0.00000000000E+00 -0.30492456561E+03  0.30492456561E+03  0.00000000000E+00 0. -1.
         23    2    1    2    0    0  0.76491302734E+02  0.54770958809E+01 -0.11212779490E+03  0.16417026478E+03  0.92186308510E+02 0.  0.
          5    1    1    2  502    0 -0.40666337839E+02 -0.45179219313E+02 -0.77605168276E+01  0.61421583440E+02  0.41800000000E+01 0.  1.
         -5    1    1    2    0  502 -0.35824964895E+02  0.39702123432E+02 -0.12674292587E+03  0.13762604540E+03  0.41800000000E+01 0.  1.
        -11    1    3    3    0    0  0.93099884258E+02 -0.12846866803E+02 -0.97576168210E+02  0.13547597218E+03  0.00000000000E+00 0. -1.
         11    1    3    3    0    0 -0.16608581524E+02  0.18323962684E+02 -0.14551626688E+02  0.28694292602E+02  0.00000000000E+00 0.  1.
</event>
<event>
 7    1  0.6684706E-006  0.1057482E+03  0.7561462E-02  0.1268652E+00
         -1   -1    0    0    0  501 -0.00000000000E+00  0.00000000000E+00  0.40576766850E+03  0.40576766850E+03  0.00000000000E+00 0.  1.
          1   -1    0    0  501    0  0.00000000000E+00 -0.00000000000E+00 -0.34470237282E+02  0.34470237282E+02  0.00000000000E+00 0. -1.
         23    2    1    2    0    0 -0.40747650040E+02 -0.19357021254E+02  0.18258750139E+03  0.20938144445E+03  0.92018087130E+02 0.  0.
          5    1    1    2  502    0  0.74220578610E+02  0.43981506817E+02  0.95787363897E+02  0.12897968334E+03  0.41800000000E+01 0. -1.
         -5    1    1    2    0  502 -0.33472928570E+02 -0.24624485564E+02  0.92922565925E+02  0.10187677799E+03  0.41800000000E+01 0. -1.
        -11    1    3    3    0    0  0.49116170436E+01 -0.34809491875E+02  0.14224295058E+03  0.14652263202E+03  0.00000000000E+00 0.  1.
         11    1    3    3    0    0 -0.45659267084E+02  0.15452470621E+02  0.40344550818E+02  0.62858812426E+02  0.00000000000E+00 0. -1.
</event>
<event>
 7    1  0.6684706E-006  0.2180999E+03  0.7561462E-02  0.1135308E+00
         -2   -1    0    0    0  501 -0.00000000000E+00  0.00000000000E+00  0.60576897202E+02  0.60576897202E+02  0.00000000000E+00 0.  1.
          2   -1    0    0  501    0  0.00000000000E+00 -0.00000000000E+00 -0.10056965836E+04  0.10056965836E+04  0.00000000000E+00 0. -1.
         23    2    1    2    0    0  0.42565218894E+01 -0.20904384560E+03 -0.30215108737E+03  0.37868804548E+03  0.91607362303E+02 0.  0.
          5    1    1    2  502    0 -0.15351495724E+02  0.90741735969E+02 -0.12007252352E+03  0.15134270505E+03  0.41800000000E+01 0. -1.
         -5    1    1    2    0  502  0.11094973835E+02  0.11830210963E+03 -0.52289607546E+03  0.53624273022E+03  0.41800000000E+01 0. -1.
        -11    1    3    3    0    0 -0.38434127823E+02 -0.12706595535E+03 -0.14681220037E+03  0.19793120362E+03  0.00000000000E+00 0.  1.
         11    1    3    3    0    0  0.42690649712E+02 -0.81977890244E+02 -0.15533888700E+03  0.18075684185E+03  0.00000000000E+00 0. -1.
</event>
<event>
 7    1  0.6684706E-006  0.2154841E+03  0.7561462E-02  0.1137295E+00
         -2   -1    0    0    0  501 -0.00000000000E+00  0.00000000000E+00  0.12652974198E+03  0.12652974198E+03  0.00000000000E+00 0.  1.
          2   -1    0    0  501    0  0.00000000000E+00 -0.00000000000E+00 -0.38185740251E+03  0.38185740251E+03  0.00000000000E+00 0. -1.
         23    2    1    2    0    0  0.16475204005E+03 -0.94175440627E+02 -0.99939952444E+02  0.23305969908E+03  0.91195290018E+02 0.  0.
          5    1    1    2  502    0 -0.50471059393E+02  0.93337331462E+02 -0.41739415950E+02  0.11410011623E+03  0.41800000000E+01 0. -1.
         -5    1    1    2    0  502 -0.11428098066E+03  0.83810916527E+00 -0.11364829214E+03  0.16122732918E+03  0.41800000000E+01 0. -1.
        -11    1    3    3    0    0  0.32561304631E+02  0.17857452655E+02 -0.20778152925E+02  0.42554186792E+02  0.00000000000E+00 0. -1.
         11    1    3    3    0    0  0.13219073542E+03 -0.11203289328E+03 -0.79161799520E+02  0.19050551229E+03  0.00000000000E+00 0.  1.
</event>
<event>
 7    1  0.6684706E-006  0.1180325E+03  0.7561462E-02  0.1246379E+00
         -2   -1    0    0    0  501 -0.00000000000E+00  0.00000000000E+00  0.36862704412E+02  0.36862704412E+02  0.00000000000E+00 0.  1.
          2   -1    0    0  501    0  0.00000000000E+00 -0.00000000000E+00 -0.64130621770E+03  0.64130621770E+03  0.00000000000E+00 0. -1.
         23    2    1    2    0    0 -0.75167653671E+00  0.93719901805E+02 -0.15468426393E+03  0.20202353132E+03  0.90012780695E+02 0.  0.
          5    1    1    2  502    0  0.21968538184E+02 -0.74111430637E+02 -0.43781351404E+03  0.44460461794E+03  0.41800000000E+01 0. -1.
         -5    1    1    2    0  502 -0.21216861647E+02 -0.19608471167E+02 -0.11945735323E+02  0.31540772851E+02  0.41800000000E+01 0. -1.
        -11    1    3    3    0    0  0.33443369245E+02  0.88832718498E+02 -0.10542062416E+03  0.14185633162E+03  0.00000000000E+00 0. -1.
         11    1    3    3    0    0 -0.34195045782E+02  0.48871833066E+01 -0.49263639770E+02  0.60167199703E+02  0.00000000000E+00 0.  1.
</event>
<event>
 7    1  0.6684706E-006  0.8837823E+02  0.7561462E-02  0.1306827E+00
          1   -1    0    0  501    0  0.00000000000E+00  0.00000000000E+00  0.57465191954E+03  0.57465191954E+03  0.00000000000E+00 0. -1.
         -1   -1    0    0    0  501 -0.00000000000E+00 -0.00000000000E+00 -0.20198803258E+02  0.20198803258E+02  0.00000000000E+00 0.  1.
         23    2    1    2    0    0 -0.94852222838E+01 -0.20593162944E+02  0.16744122861E+03  0.19177566545E+03  0.90704426683E+02 0.  0.
          5    1    1    2  502    0 -0.44269687378E+01  0.53013375394E+02  0.33993466323E+03  0.34409746249E+03  0.41800000000E+01 0. -1.
         -5    1    1    2    0  502  0.13912191022E+02 -0.32420212451E+02  0.47077224440E+02  0.58977594859E+02  0.41800000000E+01 0.  1.
        -11    1    3    3    0    0 -0.37141757582E+02  0.17286241244E+02  0.46031050138E+02  0.61621277733E+02  0.00000000000E+00 0. -1.
         11    1    3    3    0    0  0.27656535298E+02 -0.37879404188E+02  0.12141017847E+03  0.13015438772E+03  0.00000000000E+00 0.  1.
</event>
<event>
 7    1  0.6684706E-006  0.1554749E+03  0.7561462E-02  0.1193902E+00
         -1   -1    0    0    0  501 -0.00000000000E+00  0.00000000000E+00  0.11777553048E+03  0.11777553048E+03  0.00000000000E+00 0.  1.
          1   -1    0    0  501    0  0.00000000000E+00 -0.00000000000E+00 -0.32148539033E+03  0.32148539033E+03  0.00000000000E+00 0. -1.
         23    2    1    2    0    0  0.12020744080E+03  0.10731687126E+02  0.23157978111E+02  0.15342255630E+03  0.91854182799E+02 0.  0.
          5    1    1    2  502    0 -0.14178748695E+03 -0.17641337560E+02 -0.15726029756E+03  0.21251630958E+03  0.41800000000E+01 0.  1.
         -5    1    1    2    0  502  0.21580046148E+02  0.69096504338E+01 -0.69607540392E+02  0.73322054938E+02  0.41800000000E+01 0.  1.
        -11    1    3    3    0    0  0.46398012401E+02  0.44056704644E+02 -0.12065315445E+02  0.65110218980E+02  0.00000000000E+00 0. -1.
         11    1    3    3    0    0  0.73809428401E+02 -0.33325017518E+02  0.35223293556E+02  0.88312337317E+02  0.00000000000E+00 0.  1.
</event>
<event>
 7    1  0.6684706E-006  0.9636130E+02  0.7561462E-02  0.1288139E+00
         -2   -1    0    0    0  501 -0.00000000000E+00  0.00000000000E+00  0.18155179536E+02  0.18155179536E+02  0.00000000000E+00 0.  1.
          2   -1    0    0  501    0  0.00000000000E+00 -0.00000000000E+00 -0.89819228472E+03  0.89819228472E+03  0.00000000000E+00 0. -1.
         23    2    1    2    0    0  0.51301120645E+02 -0.11437751724E+02 -0.21709264019E+03  0.23966075392E+03  0.86864465688E+02 0.  0.
          5    1    1    2  502    0  0.24019433403E+02  0.25752457059E+02 -0.66908423608E+02  0.75725370750E+02  0.41800000000E+01 0. -1.
         -5    1    1    2    0  502 -0.75320554047E+02 -0.14314705335E+02 -0.59603604139E+03  0.60096133959E+03  0.41800000000E+01 0. -1.
        -11    1    3    3    0    0  0.13175121506E+02  0.24669435515E+02 -0.15863746133E+03  0.16108385708E+03  0.00000000000E+00 0. -1.
         11    1    3    3    0    0  0.38125999138E+02 -0.36107187238E+02 -0.58455178860E+02  0.78576896834E+02  0.00000000000E+00 0.  1.
</event>
<event>
 7    1  0.6684706E-006  0.1439050E+03  0.7561462E-02  0.1208169E+00
          1   -1    0    0  501    0  0.00000000000E+00  0.00000000000E+00  0.14718044027E+04  0.14718044027E+04  0.00000000000E+00 0. -1.
         -1   -1    0    0    0  501 -0.00000000000E+00 -0.00000000000E+00 -0.19714517163E+02  0.19714517163E+02  0.00000000000E+00 0.  1.
         23    2    1    2    0    0 -0.76017965222E+02 -0.10256279920E+03  0.55679781831E+03  0.57856050775E+03  0.91709278896E+02 0.  0.
          5    1    1    2  502    0  0.27781061186E+02  0.63183432324E+02  0.76884536662E+03  0.77194857578E+03  0.41800000000E+01 0.  1.
         -5    1    1    2    0  502  0.48236904036E+02  0.39379366877E+02  0.12644670057E+03  0.14100983629E+03  0.41800000000E+01 0.  1.
        -11    1    3    3    0    0  0.89365609421E+01 -0.61044687241E+02  0.25138411276E+03  0.25884413864E+03  0.00000000000E+00 0.  1.
         11    1    3    3    0    0 -0.84954526164E+02 -0.41518111961E+02  0.30541370556E+03  0.31971636911E+03  0.00000000000E+00 0. -1.
</event>
<event>
 7    1  0.6684706E-006  0.9751999E+02  0.7561462E-02  0.1285599E+00
          2   -1    0    0  501    0  0.00000000000E+00  0.00000000000E+00  0.57975067854E+03  0.57975067854E+03  0.00000000000E+00 0. -1.
         -2   -1    0    0    0  501 -0.00000000000E+00 -0.00000000000E+00 -0.23742130147E+02  0.23742130147E+02  0.00000000000E+00 0.  1.
         23    2    1    2    0    0  0.12116146145E+02 -0.11914935480E+02  0.12887859564E+03  0.15810009248E+03  0.89984332766E+02 0.  0.
          5    1    1    2  502    0  0.15324588357E+02 -0.53160021768E+02  0.18631802733E+03  0.19440347382E+03  0.41800000000E+01 0. -1.
         -5    1    1    2    0  502 -0.27440734503E+02  0.65074957247E+02  0.24081192542E+03  0.25098924239E+03  0.41800000000E+01 0. -1.
        -11    1    3    3    0    0  0.26383099018E+02  0.20488813508E+02  0.11233430132E+02  0.35242720458E+02  0.00000000000E+00 0.  1.
         11    1    3    3    0    0 -0.14266952873E+02 -0.32403748988E+02  0.11764516551E+03  0.12285737202E+03  0.00000000000E+00 0. -1.
</event>
<event>
 7    1  0.6684706E-006  0.1050678E+03  0.7561462E-02  0.1269986E+00
          1   -1    0    0  501    0  0.00000000000E+00  0.00000000000E+00  0.97824039805E+02  0.97824039805E+02  0.00000000000E+00 0. -1.
         -1   -1    0    0    0  501 -0.00000000000E+00 -0.00000000000E+00 -0.17140657720E+03  0.17140657720E+03  0.00000000000E+00 0.  1.
         23    2    1    2    0    0  0.24084916120E+02 -0.61917863401E+02 -0.62723937743E+02  0.12718315398E+03  0.88472353300E+02 0.  0.
          5    1    1    2  502    0 -0.54443336093E+02  0.26452736072E+02 -0.51827036383E+02  0.79795602578E+02  0.41800000000E+01 0. -1.
         -5    1    1    2    0  502  0.30358419973E+02  0.35465127329E+02  0.40968436734E+02  0.62251860439E+02  0.41800000000E+01 0. -1.
        -11    1    3    3    0    0 -0.20270824062E+02 -0.53808579986E+02 -0.58284828982E+02  0.81874238181E+02  0.00000000000E+00 0.  1.
         11    1    3    3    0    0  0.44355740182E+02 -0.81092834152E+01 -0.44391087606E+01  0.45308915802E+02  0.00000000000E+00 0. -1.
</event>
<event>
 7    1  0.6684706E-006  0.1567547E+03  0.7561462E-02  0.1192410E+00
         -2   -1    0    0    0  501 -0.00000000000E+00  0.00000000000E+00  0.12110648075E+03  0.12110648075E+03  0.00000000000E+00 0.  1.
          2   -1    0    0  501    0  0.00000000000E+00 -0.00000000000E+00 -0.27573409301E+03  0.27573409301E+03  0.00000000000E+00 0. -1.
         23    2    1    2    0    0  0.10533075094E+03 -0.97533583776E+02 -0.39521522052E+02  0.17434311516E+03  0.90698423593E+02 0.  0.
          5    1    1    2  502    0 -0.69495129754E+02  0.10854498410E+03 -0.12890271214E+03  0.18233202744E+03  0.41800000000E+01 0. -1.
         -5    1    1    2    0  502 -0.35835621182E+02 -0.11011400326E+02  0.13796621934E+02  0.40165431149E+02  0.41800000000E+01 0. -1.
        -11    1    3    3    0    0  0.66592279448E+02 -0.40671013415E+02  0.23027802253E+02  0.81356884717E+02  0.00000000000E+00 0.  1.
         11    1    3    3    0    0  0.38738471487E+02 -0.56862570362E+02 -0.62549324305E+02  0.92986230445E+02  0.00000000000E+00 0. -1.
</event>
<event>
 7    1  0.6684706E-006  0.5180502E+02  0.7561462E-02  0.1435842E+00
         -2   -1    0    0    0  501 -0.00000000000E+00  0.00000000000E+00  0.50265082395E+02  0.50265082395E+02  0.00000000000E+00 0.  1.
          2   -1    0    0  501    0  0.00000000000E+00 -0.00000000000E+00 -0.28369038584E+03  0.28369038584E+03  0.00000000000E+00 0. -1.
         23    2    1    2    0    0 -0.31976937185E+02  0.67339662989E+01 -0.48449663310E+02  0.10826901284E+03  0.91142407538E+02 0.  0.
          5    1    1    2  502    0  0.65939496173E+01 -0.99790109521E+01 -0.19678683332E+03  0.19719429759E+03  0.41800000000E+01 0.  1.
         -5    1    1    2    0  502  0.25382987567E+02  0.32450446531E+01  0.11811193185E+02  0.28492157817E+02  0.41800000000E+01 0.  1.
        -11    1    3    3    0    0 -0.36066050918E+01  0.28827873626E+02  0.16950037034E+02  0.33635660445E+02  0.00000000000E+00 0.  1.
         11    1    3    3    0    0 -0.28370332093E+02 -0.22093907327E+02 -0.65399700344E+02  0.74633352391E+02  0.00000000000E+00 0. -1.
</event>
<event>
 7    1  0.6684706E-006  0.8853165E+02  0.7561462E-02  0.1306447E+00
         -2   -1    0    0    0  501 -0.00000000000E+00  0.00000000000E+00  0.35461346977E+02  0.35461346977E+02  0.00000000000E+00 0. -1.
          2   -1    0    0  501    0  0.00000000000E+00 -0.00000000000E+00 -0.37730824443E+03  0.37730824443E+03  0.00000000000E+00 0.  1.
         23    2    1    2    0    0 -0.14279671534E+02 -0.31365966981E+02 -0.11849531460E+03  0.15446620541E+03  0.92902831643E+02 0.  0.
          5    1    1    2  502    0 -0.29837564313E+02 -0.68811786850E+01 -0.38657761991E+01  0.31145585399E+02  0.41800000000E+01 0. -1.
         -5    1    1    2    0  502  0.44117235847E+02  0.38247145666E+02 -0.21948580666E+03  0.22715780060E+03  0.41800000000E+01 0. -1.
        -11    1    3    3    0    0 -0.34273425718E+02 -0.49781267184E+02 -0.42856149508E+02  0.74091104888E+02  0.00000000000E+00 0.  1.
         11    1    3    3    0    0  0.19993754184E+02  0.18415300202E+02 -0.75639165089E+02  0.80375100518E+02  0.00000000000E+00 0. -1.
</event>
<event>
 7    1  0.6684706E-006  0.7011483E+02  0.7561462E-02  0.1359703E+00
          1   -1    0    0  501    0  0.00000000000E+00  0.00000000000E+00  0.64734829743E+03  0.64734829743E+03  0.00000000000E+00 0. -1.
         -1   -1    0    0    0  501 -0.00000000000E+00 -0.00000000000E+00 -0.29287017214E+02  0.29287017214E+02  0.00000000000E+00 0.  1.
         23    2    1    2    0    0  0.52466806791E+01  0.28408352362E+02  0.83529615472E+02  0.12690180142E+03  0.91062112878E+02 0.  0.
          5    1    1    2  502    0  0.20143161043E+02 -0.79716367034E+01  0.50521550443E+03  0.50569701626E+03  0.41800000000E+01 0. -1.
         -5    1    1    2    0  502 -0.25389841722E+02 -0.20436715659E+02  0.29316160309E+02  0.44036496964E+02  0.41800000000E+01 0. -1.
        -11    1    3    3    0    0  0.24578437615E+01 -0.28361910475E+02  0.57965104875E+02  0.64578574968E+02  0.00000000000E+00 0. -1.
         11    1    3    3    0    0  0.27888369177E+01  0.56770262837E+02  0.25564510596E+02  0.62323226456E+02  0.00000000000E+00 0.  1.
</event>
<event>
 7    1  0.6684706E-006  0.1705356E+03  0.7561462E-02  0.1177290E+00
          1   -1    0    0  501    0  0.00000000000E+00  0.00000000000E+00  0.29077571291E+03  0.29077571291E+03  0.00000000000E+00 0. -1.
         -1   -1    0    0    0  501 -0.00000000000E+00 -0.00000000000E+00 -0.11069306152E+03  0.11069306152E+03  0.00000000000E+00 0.  1.
         23    2    1    2    0    0 -0.91130409428E+02  0.10351687170E+03  0.12460245690E+03  0.20718618624E+03  0.91541516562E+02 0.  0.
          5    1    1    2  502    0  0.11002211073E+03 -0.11358655763E+03  0.64294044673E+02  0.17075704233E+03  0.41800000000E+01 0. -1.
         -5    1    1    2    0  502 -0.18891701306E+02  0.10069685927E+02 -0.88138501875E+01  0.23525545860E+02  0.41800000000E+01 0. -1.
        -11    1    3    3    0    0 -0.11371726753E+02  0.75774167431E+02  0.83299708695E+02  0.11318074963E+03  0.00000000000E+00 0.  1.
         11    1    3    3    0    0 -0.79758682675E+02  0.27742704271E+02  0.41302748203E+02  0.94005436606E+02  0.00000000000E+00 0. -1.
</event>
<event>
 7    1  0.6684706E-006  0.2044147E+03  0.7561462E-02  0.1146067E+00
          1   -1    0    0  501    0  0.00000000000E+00  0.00000000000E+00  0.18546502492E+03  0.18546502492E+03  0.00000000000E+00 0. -1.
         -1   -1    0    0    0  501 -0.00000000000E+00 -0.00000000000E+00 -0.35246168765E+03  0.35246168765E+03  0.00000000000E+00 0.  1.
         23    2    1    2    0    0  0.12259499355E+03 -0.11046801488E+03 -0.16763115021E+03  0.25209941477E+03  0.90670820308E+02 0.  0.
          5    1    1    2  502    0  0.61373614781E+01 -0.30728260588E+02 -0.74143393411E+02  0.80601540874E+02  0.41800000000E+01 0. -1.
         -5    1    1    2    0  502 -0.12873235502E+03  0.14119627546E+03  0.74777880883E+02  0.20522575692E+03  0.41800000000E+01 0.  1.
        -11    1    3    3    0    0 -0.13239006278E+02 -0.50955701230E+01 -0.24899305963E+02  0.28656789065E+02  0.00000000000E+00 0.  1.
         11    1    3    3    0    0  0.13583399982E+03 -0.10537244475E+03 -0.14273184424E+03  0.22344262571E+03  0.00000000000E+00 0. -1.
</event>
<event>
 7    1  0.6684706E-006  0.1449336E+03  0.7561462E-02  0.1206841E+00
         -2   -1    0    0    0  501 -0.00000000000E+00  0.00000000000E+00  0.18747198888E+03  0.18747198888E+03  0.00000000000E+00 0. -1.
          2   -1    0    0  501    0  0.00000000000E+00 -0.00000000000E+00 -0.12654287312E+03  0.12654287312E+03  0.00000000000E+00 0.  1.
         23    2    1    2    0    0  0.52099652144E+02  0.88914743952E+02  0.63272763211E+02  0.15192350409E+03  0.91962509134E+02 0.  0.
          5    1    1    2  502    0  0.18019221571E+02  0.17080664663E+02  0.21027425584E+02  0.32803452227E+02  0.41800000000E+01 0. -1.
         -5    1    1    2    0  502 -0.70118873715E+02 -0.10599540861E+03 -0.23371073033E+02  0.12928790567E+03  0.41800000000E+01 0. -1.
        -11    1    3    3    0    0  0.10253808261E+02 -0.19108770851E+02  0.15288950997E+02  0.26533709312E+02  0.00000000000E+00 0. -1.
         11    1    3    3    0    0  0.41845843883E+02  0.10802351480E+03  0.47983812214E+02  0.12538979478E+03  0.00000000000E+00 0.  1.
</event>
<event>
 7    1  0.6684706E-006  0.1262438E+03  0.7561462E-02  0.1233138E+00
         -1   -1    0    0    0  501 -0.00000000000E+00  0.00000000000E+00  0.29321497410E+02  0.29321497410E+02  0.00000000000E+00 0.  1.
          1   -1    0    0  501    0  0.00000000000E+00 -0.00000000000E+00 -0.60978871081E+03  0.60978871081E+03  0.00000000000E+00 0. -1.
         23    2    1    2    0    0 -0.71619569460E+02 -0.39346509219E+02 -0.27024657473E+03  0.29478015347E+03  0.84762121314E+02 0.  0.
          5    1    1    2  502    0 -0.27654856640E+02 -0.35555109930E+01 -0.19948656092E+02  0.34537719005E+02  0.41800000000E+01 0.  1.
         -5    1    1    2    0  502  0.99274426100E+02  0.42902020212E+02 -0.29027198258E+03  0.30979233574E+03  0.41800000000E+01 0.  1.
        -11    1    3    3    0    0 -0.53382774082E+02  0.17647550743E+02 -0.15577657650E+03  0.16561249470E+03  0.00000000000E+00 0.  1.
         11    1    3    3    0    0 -0.18236795379E+02 -0.56994059962E+02 -0.11446999823E+03  0.12916765877E+03  0.00000000000E+00 0. -1.
</event>
<event>
 7    1  0.6684706E-006  0.1306520E+03  0.7561462E-02  0.1226492E+00
         -2   -1    0    0    0  501 -0.00000000000E+00  0.00000000000E+00  0.30900250722E+02  0.30900250722E+02  0.00000000000E+00 0.  1.
          2   -1    0    0  501    0  0.00000000000E+00 -0.00000000000E+00 -0.58679636072E+03  0.58679636072E+03  0.00000000000E+00 0. -1.
         23    2    1    2    0    0  0.25129371924E+02  0.71355093373E+02 -0.18994446869E+03  0.22362669857E+03  0.90592297921E+02 0.  0.
          5    1    1    2  502    0 -0.27254661586E+02  0.31207073763E+02 -0.13614653751E+03  0.14237292617E+03  0.41800000000E+01 0.  1.
         -5    1    1    2    0  502  0.21252896622E+01 -0.10256216714E+03 -0.22980510380E+03  0.25169698671E+03  0.41800000000E+01 0.  1.
        -11    1    3    3    0    0  0.51862901020E+02  0.14011527341E+02 -0.10207833018E+03  0.11535193494E+03  0.00000000000E+00 0. -1.
         11    1    3    3    0    0 -0.26733529096E+02  0.57343566032E+02 -0.87866138509E+02  0.10827476363E+03  0.00000000000E+00 0.  1.
</event>
<event>
 7    1  0.6684706E-006  0.8801994E+02  0.7561462E-02  0.1307719E+00
          2   -1    0    0  501    0  0.00000000000E+00  0.00000000000E+00  0.12203415423E+04  0.12203415423E+04  0.00000000000E+00 0.  1.
         -2   -1    0    0    0  501 -0.00000000000E+00 -0.00000000000E+00 -0.15935300732E+02  0.15935300732E+02  0.00000000000E+00 0. -1.
         23    2    1    2    0    0 -0.29345267661E+02  0.96615549563E+01  0.19629858103E+03  0.21996822735E+03  0.94331319038E+02 0.  0.
          5    1    1    2  502    0 -0.35420981377E+02 -0.20933835473E+02  0.70084839511E+03  0.70206753002E+03  0.41800000000E+01 0.  1.
         -5    1    1    2    0  502  0.64766249038E+02  0.11272280516E+02  0.30725926547E+03  0.31424108570E+03  0.41800000000E+01 0.  1.
        -11    1    3    3    0    0  0.10090201277E+02 -0.18004185103E+02  0.31192294867E+01  0.20873246887E+02  0.00000000000E+00 0. -1.
         11    1    3    3    0    0 -0.39435468938E+02  0.27665740059E+02  0.19317935154E+03  0.19909498046E+03  0.00000000000E+00 0.  1.
</event>
<event>
 7    1  0.6684706E-006  0.1331342E+03  0.7561462E-02  0.1222878E+00
          1   -1    0    0  501    0  0.00000000000E+00  0.00000000000E+00  0.66701717976E+03  0.66701717976E+03  0.00000000000E+00 0. -1.
         -1   -1    0    0    0  501 -0.00000000000E+00 -0.00000000000E+00 -0.42030280929E+02  0.42030280929E+02  0.00000000000E+00 0.  1.
         23    2    1    2    0    0 -0.58819069190E+02  0.10460995062E+03  0.19382531343E+03  0.24434277324E+03  0.87933008801E+02 0.  0.
          5    1    1    2  502    0  0.52626212389E+02 -0.59286989358E+02  0.88133475495E+02  0.11861470078E+03  0.41800000000E+01 0. -1.
         -5    1    1    2    0  502  0.61928568005E+01 -0.45322961262E+02  0.34302810990E+03  0.34608998667E+03  0.41800000000E+01 0. -1.
        -11    1    3    3    0    0  0.12103993707E+02  0.49981368746E+02  0.11120971924E+03  0.12252446915E+03  0.00000000000E+00 0. -1.
         11    1    3    3    0    0 -0.70923062897E+02  0.54628581874E+02  0.82615594188E+02  0.12181830409E+03  0.00000000000E+00 0.  1.
</event>
<event>
 7    1  0.6684706E-006  0.1669486E+03  0.7561462E-02  0.1181068E+00
          1   -1    0    0  501    0  0.00000000000E+00  0.00000000000E+00  0.10918354930E+04  0.10918354930E+04  0.00000000000E+00 0. -1.
         -1   -1    0    0    0  501 -0.00000000000E+00 -0.00000000000E+00 -0.33446566384E+02  0.33446566384E+02  0.00000000000E+00 0.  1.
         23    2    1    2    0    0 -0.74675485205E+02 -0.10408648346E+03  0.23205077477E+03  0.27976895469E+03  0.89513584465E+02 0.  0.
          5    1    1    2  502    0  0.98322383433E+02  0.32992980024E+02  0.49976866034E+03  0.51043316318E+03  0.41800000000E+01 0.  1.
         -5    1    1    2    0  502 -0.23646898228E+02  0.71093503438E+02  0.32656949152E+03  0.33507994154E+03  0.41800000000E+01 0.  1.
        -11    1    3    3    0    0 -0.37511883465E+01 -0.80106917590E+02  0.10254394513E+03  0.13017853257E+03  0.00000000000E+00 0.  1.
         11    1    3    3    0    0 -0.70924296858E+02 -0.23979565872E+02  0.12950682964E+03  0.14959042211E+03  0.00000000000E+00 0. -1.
</event>
<event>
 7    1  0.6684706E-006  0.6826750E+02  0.7561462E-02  0.1366086E+00
         -2   -1    0    0    0  501 -0.00000000000E+00  0.00000000000E+00  0.65776314113E+02  0.65776314113E+02  0.00000000000E+00 0.  1.
          2   -1    0    0  501    0  0.00000000000E+00 -0.00000000000E+00 -0.34836759025E+03  0.34836759025E+03  0.00000000000E+00 0. -1.
         23    2    1    2    0    0  0.24336692110E+02  0.34937601772E+02 -0.26144240441E+02  0.12565635115E+03  0.11529564899E+03 0.  0.
          5    1    1    2  502    0 -0.32467971367E+02 -0.42602973087E+02 -0.29628700475E+02  0.61355641732E+02  0.41800000000E+01 0. -1.
         -5    1    1    2    0  502  0.81312792564E+01  0.76653713153E+01 -0.22681833523E+03  0.22713191148E+03  0.41800000000E+01 0. -1.
        -11    1    3    3    0    0  0.34128669431E+02  0.45235774171E+02 -0.63845668102E+02  0.85365746511E+02  0.00000000000E+00 0. -1.
         11    1    3    3    0    0 -0.97919773208E+01 -0.10298172400E+02  0.37701427661E+02  0.40290604640E+02  0.00000000000E+00 0.  1.
</event>
<event>
 7    1  0.6684706E-006  0.1529521E+03  0.7561462E-02  0.1196892E+00
         -2   -1    0    0    0  501 -0.00000000000E+00  0.00000000000E+00  0.10960997199E+02  0.10960997199E+02  0.00000000000E+00 0. -1.
          2   -1    0    0  501    0  0.00000000000E+00 -0.00000000000E+00 -0.25189965248E+04  0.25189965248E+04  0.00000000000E+00 0.  1.
         23    2    1    2    0    0  0.25603737598E+02 -0.11233221113E+03 -0.78027330601E+03  0.79384579191E+03  0.89947941801E+02 0.  0.
          5    1    1    2  502    0 -0.69089450588E+02  0.78969884092E+02 -0.13844547351E+04  0.13884314822E+04  0.41800000000E+01 0.  1.
         -5    1    1    2    0  502  0.43485712991E+02  0.33362327036E+02 -0.34330748643E+03  0.34768024784E+03  0.41800000000E+01 0.  1.
        -11    1    3    3    0    0  0.19442172011E+02  0.11068091751E+02 -0.10407829445E+03  0.10645558737E+03  0.00000000000E+00 0. -1.
         11    1    3    3    0    0  0.61615655870E+01 -0.12340030288E+03 -0.67619501156E+03  0.68739020454E+03  0.00000000000E+00 0.  1.
</event>
<event>
 7    1  0.6684706E-006  0.1029900E+03  0.7561462E-02  0.1274131E+00
         -1   -1    0    0    0  501 -0.00000000000E+00  0.00000000000E+00  0.31402635120E+03  0.31402635120E+03  0.00000000000E+00 0.  1.
          1   -1    0    0  501    0  0.00000000000E+00 -0.00000000000E+00 -0.42002935922E+02  0.42002935922E+02  0.00000000000E+00 0. -1.
         23    2    1    2    0    0  0.43389215329E+02  0.18518763582E+02  0.16004506344E+03  0.19014476005E+03  0.91186834759E+02 0.  0.
          5    1    1    2  502    0 -0.64093180432E+01 -0.57675853454E+02  0.24627311552E+02  0.63178796315E+02  0.41800000000E+01 0. -1.
         -5    1    1    2    0  502 -0.36979897285E+02  0.39157089873E+02  0.87351040290E+02  0.10270573076E+03  0.41800000000E+01 0.  1.
        -11    1    3    3    0    0  0.62476377113E+02  0.32207390513E+02  0.78899294687E+02  0.10566793460E+03  0.00000000000E+00 0.  1.
         11    1    3    3    0    0 -0.19087161784E+02 -0.13688626931E+02  0.81145768751E+02  0.84476825452E+02  0.00000000000E+00 0. -1.
</event>
<event>
 7    1  0.6684706E-006  0.1257273E+03  0.7561462E-02  0.1233937E+00
          2   -1    0    0  501    0  0.00000000000E+00  0.00000000000E+00  0.60007548332E+02  0.60007548332E+02  0.00000000000E+00 0.  1.
         -2   -1    0    0    0  501 -0.00000000000E+00 -0.00000000000E+00 -0.31116619386E+03  0.31116619386E+03  0.00000000000E+00 0. -1.
         23    2    1    2    0    0  0.43494010462E+02 -0.65524893547E+02 -0.15283474387E+03  0.19369468912E+03  0.89296881463E+02 0.  0.
          5    1    1    2  502    0 -0.79595030845E+01  0.97837494634E+02 -0.54641642222E+02  0.11242201969E+03  0.41800000000E+01 0.  1.
         -5    1    1    2    0  502 -0.35534507378E+02 -0.32312601087E+02 -0.43682259435E+02  0.65057033386E+02  0.41800000000E+01 0.  1.
        -11    1    3    3    0    0  0.25799778890E+02  0.98154606943E+01 -0.89598656688E+02  0.93754419307E+02  0.00000000000E+00 0. -1.
         11    1    3    3    0    0  0.17694231573E+02 -0.75340354241E+02 -0.63236087182E+02  0.99940269812E+02  0.00000000000E+00 0.  1.
</event>
<event>
 7    1  0.6684706E-006  0.1293642E+03  0.7561462E-02  0.1228402E+00
         -1   -1    0    0    0  501 -0.00000000000E+00  0.00000000000E+00  0.14420173017E+03  0.14420173017E+03  0.00000000000E+00 0.  1.
          1   -1    0    0  501    0  0.00000000000E+00 -0.00000000000E+00 -0.24925830525E+03  0.24925830525E+03  0.00000000000E+00 0. -1.
         23    2    1    2    0    0 -0.60441250784E+01  0.74147861275E+02  0.88015284428E+02  0.14763892607E+03  0.92282855499E+02 0.  0.
          5    1    1    2  502    0 -0.59009293990E+02 -0.47412887614E+02 -0.13363667059E+03  0.15364345354E+03  0.41800000000E+01 0. -1.
         -5    1    1    2    0  502  0.65053419069E+02 -0.26734973661E+02 -0.59435188909E+02  0.92177655806E+02  0.41800000000E+01 0.  1.
        -11    1    3    3    0    0  0.38202175624E+02  0.22056149688E+02  0.12632961000E+02  0.45885418872E+02  0.00000000000E+00 0. -1.
         11    1    3    3    0    0 -0.44246300702E+02  0.52091711587E+02  0.75382323428E+02  0.10175350720E+03  0.00000000000E+00 0.  1.
</event>
<event>
 7    1  0.6684706E-006  0.1355999E+03  0.7561462E-02  0.1219375E+00
          2   -1    0    0  501    0  0.00000000000E+00  0.00000000000E+00  0.42338593002E+03  0.42338593002E+03  0.00000000000E+00 0. -1.
         -2   -1    0    0    0  501 -0.00000000000E+00 -0.00000000000E+00 -0.56605673850E+02  0.56605673850E+02  0.00000000000E+00 0.  1.
         23    2    1    2    0    0  0.22696184664E+02 -0.99213973441E+02  0.10775411405E+03  0.17486803484E+03  0.92786589500E+02 0.  0.
          5    1    1    2  502    0  0.45035618280E+02  0.89789933514E+01  0.99718070582E+02  0.10986353005E+03  0.41800000000E+01 0.  1.
         -5    1    1    2    0  502 -0.67731802944E+02  0.90234980089E+02  0.15930807154E+03  0.19526003898E+03  0.41800000000E+01 0.  1.
        -11    1    3    3    0    0  0.81804741630E+00 -0.87238447845E+02  0.11896263983E+03  0.14752398333E+03  0.00000000000E+00 0. -1.
         11    1    3    3    0    0  0.21878137248E+02 -0.11975525596E+02 -0.11208525780E+02  0.27344051508E+02  0.00000000000E+00 0.  1.
</event>
<event>
 6    1  0.6684706E-006  0.1441414E+03  0.7561462E-02  0.1207863E+00
         -2   -1    0    0    0  501 -0.00000000000E+00  0.00000000000E+00  0.27926748686E+02  0.27926748686E+02  0.00000000000E+00 0.  1.
          2   -1    0    0  501    0  0.00000000000E+00 -0.00000000000E+00 -0.86063783449E+03  0.86063783449E+03  0.00000000000E+00 0. -1.
          5    1    1    2  502    0  0.41482947786E+02  0.11474166174E+03 -0.51154872435E+03  0.52591449275E+03  0.41800000000E+01 0. -1.
         -5    1    1    2    0  502  0.37056002881E+02 -0.20990464556E+02 -0.92182343746E+02  0.10163072296E+03  0.41800000000E+01 0.  1.
        -11    1    1    2    0    0 -0.11114508551E+02 -0.56520743348E+01 -0.39827130543E+02  0.41733422719E+02  0.00000000000E+00 0. -1.
         11    1    1    2    0    0 -0.67424442116E+02 -0.88099122845E+02 -0.18915288716E+03  0.21928594474E+03  0.00000000000E+00 0.  1.
</event>
<event>
 7    1  0.6684706E-006  0.1063628E+03  0.7561462E-02  0.1267458E+00
         -2   -1    0    0    0  501 -0.00000000000E+00  0.00000000000E+00  0.15346796478E+02  0.15346796478E+02  0.00000000000E+00 0. -1.
          2   -1    0    0  501    0  0.00000000000E+00 -0.00000000000E+00 -0.99209502619E+03  0.99209502619E+03  0.00000000000E+00 0.  1.
         23    2    1    2    0    0  0.42154551907E+01  0.51879602597E+02 -0.38343743028E+03  0.39885807687E+03  0.96717316516E+02 0.  0.
          5    1    1    2  502    0  0.25552276610E+02  0.24961647353E+02 -0.34616240576E+03  0.34802569767E+03  0.41800000000E+01 0.  1.
         -5    1    1    2    0  502 -0.29767731801E+02 -0.76841249950E+02 -0.24714839366E+03  0.26055804812E+03  0.41800000000E+01 0.  1.
        -11    1    3    3    0    0  0.37545604663E+02  0.47630282645E+02 -0.33148214749E+03  0.33698476280E+03  0.00000000000E+00 0.  1.
         11    1    3    3    0    0 -0.33330149473E+02  0.42493199525E+01 -0.51955282793E+02  0.61873314070E+02  0.00000000000E+00 0. -1.
</event>
<event>
 7    1  0.6684706E-006  0.7358792E+02  0.7561462E-02  0.1348300E+00
         -1   -1    0    0    0  501 -0.00000000000E+00  0.00000000000E+00  0.11559208820E+03  0.11559208820E+03  0.00000000000E+00 0. -1.
          1   -1    0    0  501    0  0.00000000000E+00 -0.00000000000E+00 -0.13779642049E+03  0.13779642049E+03  0.00000000000E+00 0.  1.
         23    2    1    2    0    0  0.44060068193E+02  0.19774665735E+02  0.34017025502E+02  0.10799029794E+03  0.90401434786E+02 0.  0.
          5    1    1    2  502    0 -0.50649744071E+02 -0.14989311397E+02 -0.93251244619E+02  0.10725363888E+03  0.41800000000E+01 0. -1.
         -5    1    1    2    0  502  0.65896758781E+01 -0.47853543375E+01  0.37029886823E+02  0.38144571861E+02  0.41800000000E+01 0. -1.
        -11    1    3    3    0    0  0.16789243321E+02  0.44911461661E+02 -0.11469478402E+02  0.49299766882E+02  0.00000000000E+00 0.  1.
         11    1    3    3    0    0  0.27270824872E+02 -0.25136795926E+02  0.45486503903E+02  0.58690531059E+02  0.00000000000E+00 0. -1.
</event>
<event>
 7    1  0.6684706E-006  0.9616925E+02  0.7561462E-02  0.1288564E+00
          1   -1    0    0  501    0  0.00000000000E+00  0.00000000000E+00  0.13376966599E+03  0.13376966599E+03  0.00000000000E+00 0. -1.
         -1   -1    0    0    0  501 -0.00000000000E+00 -0.00000000000E+00 -0.19443822636E+03  0.19443822636E+03  0.00000000000E+00 0.  1.
         23    2    1    2    0    0 -0.50047221430E+01 -0.31896780266E+02 -0.14215297475E+03  0.17546492847E+03  0.97662792587E+02 0.  0.
          5    1    1    2  502    0 -0.20022990689E+02 -0.24840080787E+02  0.84599557415E+02  0.90512470326E+02  0.41800000000E+01 0. -1.
         -5    1    1    2    0  502  0.25027712832E+02  0.56736861053E+02 -0.31151430378E+01  0.62230493553E+02  0.41800000000E+01 0. -1.
        -11    1    3    3    0    0 -0.26793459272E+02 -0.58069521819E+02 -0.65279489458E+02  0.91385833519E+02  0.00000000000E+00 0. -1.
         11    1    3    3    0    0  0.21788737129E+02  0.26172741553E+02 -0.76873485293E+02  0.84079094947E+02  0.00000000000E+00 0.  1.
</event>
<event>
 7    1  0.6684706E-006  0.1406995E+03  0.7561462E-02  0.1212391E+00
          3   -1    0    0  501    0  0.00000000000E+00  0.00000000000E+00  0.21949727813E+03  0.21949727813E+03  0.00000000000E+00 0. -1.
         -3   -1    0    0    0  501 -0.00000000000E+00 -0.00000000000E+00 -0.28104619173E+03  0.28104619173E+03  0.00000000000E+00 0.  1.
         23    2    1    2    0    0  0.21718352274E+02  0.91859354941E+02 -0.23526320541E+03  0.26861264111E+03  0.88849013666E+02 0.  0.
          5    1    1    2  502    0  0.46886351635E+02 -0.59315725696E+02  0.10486182092E+03  0.12934511653E+03  0.41800000000E+01 0. -1.
         -5    1    1    2    0  502 -0.68604703909E+02 -0.32543629245E+02  0.68852470894E+02  0.10258571222E+03  0.41800000000E+01 0.  1.
        -11    1    3    3    0    0  0.29946243230E+02  0.10769559991E+03 -0.20230380326E+03  0.23113188559E+03  0.00000000000E+00 0.  1.
         11    1    3    3    0    0 -0.82278909560E+01 -0.15836244968E+02 -0.32959402153E+02  0.37480755523E+02  0.00000000000E+00 0. -1.
</event>
<event>
 7    1  0.6684706E-006  0.1147186E+03  0.7561462E-02  0.1252073E+00
          1   -1    0    0  501    0  0.00000000000E+00  0.00000000000E+00  0.64285708846E+03  0.64285708846E+03  0.00000000000E+00 0. -1.
         -1   -1    0    0    0  501 -0.00000000000E+00 -0.00000000000E+00 -0.24319668982E+02  0.24319668982E+02  0.00000000000E+00 0.  1.
         23    2    1    2    0    0  0.25387940194E+02  0.35207531922E+02  0.15540025844E+03  0.18548074160E+03  0.91486323405E+02 0.  0.
          5    1    1    2  502    0 -0.19812048022E+02  0.45674750603E+02  0.14508122785E+03  0.15344293781E+03  0.41800000000E+01 0.  1.
         -5    1    1    2    0  502 -0.55758921719E+01 -0.80882282525E+02  0.31805593319E+03  0.32825307803E+03  0.41800000000E+01 0.  1.
        -11    1    3    3    0    0  0.47471236868E+01 -0.29754703897E+02  0.70029368250E+02  0.76236408656E+02  0.00000000000E+00 0. -1.
         11    1    3    3    0    0  0.20640816507E+02  0.64962235819E+02  0.85370890190E+02  0.10924433294E+03  0.00000000000E+00 0.  1.
</event>
<event>
 7    1  0.6684706E-006  0.1284585E+03  0.7561462E-02  0.1229761E+00
          2   -1    0    0  501    0  0.00000000000E+00  0.00000000000E+00  0.70013947610E+03  0.70013947610E+03  0.00000000000E+00 0. -1.
         -2   -1    0    0    0  501 -0.00000000000E+00 -0.00000000000E+00 -0.38499630362E+02  0.38499630362E+02  0.00000000000E+00 0.  1.
         23    2    1    2    0    0  0.82486829086E+02  0.72322785693E+02  0.18705759771E+03  0.23573714406E+03  0.92448871949E+02 0.  0.
          5    1    1    2  502    0 -0.19800479061E+02  0.22919488643E+02  0.24111725549E+03  0.24304807184E+03  0.41800000000E+01 0.  1.
         -5    1    1    2    0  502 -0.62686350025E+02 -0.95242274336E+02  0.23346499254E+03  0.25985389057E+03  0.41800000000E+01 0.  1.
        -11    1    3    3    0    0  0.12924544081E+02  0.24903502084E+02 -0.26559175364E+01  0.28183011793E+02  0.00000000000E+00 0.  1.
         11    1    3    3    0    0  0.69562285005E+02  0.47419283609E+02  0.18971351525E+03  0.20755413227E+03  0.00000000000E+00 0. -1.
</event>
<event>
 7    1  0.6684706E-006  0.1374456E+03  0.7561462E-02  0.1216808E+00
         -1   -1    0    0    0  501 -0.00000000000E+00  0.00000000000E+00  0.25786724682E+02  0.25786724682E+02  0.00000000000E+00 0.  1.
          1   -1    0    0  501    0  0.00000000000E+00 -0.00000000000E+00 -0.80400989420E+03  0.80400989420E+03  0.00000000000E+00 0. -1.
         23    2    1    2    0    0  0.93154972482E+02 -0.71068174406E+01 -0.37310864020E+03  0.39562285615E+03  0.92623059561E+02 0.  0.
          5    1    1    2  502    0 -0.62668802883E+02  0.57949384552E+02 -0.31376135375E+03  0.32519097394E+03  0.41800000000E+01 0.  1.
         -5    1    1    2    0  502 -0.30486169599E+02 -0.50842567112E+02 -0.91353175574E+02  0.10898278880E+03  0.41800000000E+01 0.  1.
        -11    1    3    3    0    0 -0.15345383569E+02  0.12443692153E+02 -0.81747342041E+02  0.84100857320E+02  0.00000000000E+00 0. -1.
         11    1    3    3    0    0  0.10850035605E+03 -0.19550509594E+02 -0.29136129816E+03  0.31152199883E+03  0.00000000000E+00 0.  1.
</event>
<event>
 7    1  0.6684706E-006  0.6813102E+02  0.7561462E-02  0.1366566E+00
         -1   -1    0    0    0  501 -0.00000000000E+00  0.00000000000E+00  0.91071457063E+02  0.91071457063E+02  0.00000000000E+00 0.  1.
          1   -1    0    0  501    0  0.00000000000E+00 -0.00000000000E+00 -0.15161286306E+03  0.15161286306E+03  0.00000000000E+00 0. -1.
         23    2    1    2    0    0 -0.34421097953E+02 -0.17991158215E+02 -0.21652280525E+02  0.10605111196E+03  0.96278363807E+02 0.  0.
          5    1    1    2  502    0  0.13907394452E+02  0.47912216097E+02 -0.71761250906E+02  0.87499403445E+02  0.41800000000E+01 0. -1.
         -5    1    1    2    0  502  0.20513703502E+02 -0.29921057882E+02  0.32872125432E+02  0.49133804723E+02  0.41800000000E+01 0. -1.
        -11    1    3    3    0    0  0.26631165242E+01 -0.11781843489E+02  0.35578864138E+02  0.37573389506E+02  0.00000000000E+00 0.  1.
         11    1    3    3    0    0 -0.37084214477E+02 -0.62093147257E+01 -0.57231144663E+02  0.68477722452E+02  0.00000000000E+00 0. -1.
</event>
<event>
 7    1  0.6684706E-006  0.7530826E+02  0.7561462E-02  0.1342919E+00
          2   -1    0    0  501    0  0.00000000000E+00  0.00000000000E+00  0.39197748265E+03  0.39197748265E+03  0.00000000000E+00 0. -1.
         -2   -1    0    0    0  501 -0.00000000000E+00 -0.00000000000E+00 -0.40836106838E+02  0.40836106838E+02  0.00000000000E+00 0.  1.
         23    2    1    2    0    0  0.50257020408E+02  0.35218656834E+02  0.12048327880E+03  0.16333892822E+03  0.91636581726E+02 0.  0.
          5    1    1    2  502    0 -0.22848993495E+02 -0.39125181812E+02  0.23653003873E+03  0.24086674320E+03  0.41800000000E+01 0.  1.
         -5    1    1    2    0  502 -0.27408026914E+02  0.39065249781E+01 -0.58719417266E+01  0.28607918071E+02  0.41800000000E+01 0.  1.
        -11    1    3    3    0    0  0.11002011103E+02 -0.11621042561E+02 -0.10265440332E+02  0.19012420775E+02  0.00000000000E+00 0.  1.
         11    1    3    3    0    0  0.39255009305E+02  0.46839699394E+02  0.13074871914E+03  0.14432650744E+03  0.00000000000E+00 0. -1.
</event>
<event>
 7    1  0.6684706E-006  0.1734875E+03  0.7561462E-02  0.1174259E+00
          2   -1    0    0  501    0  0.00000000000E+00  0.00000000000E+00  0.22414093038E+04  0.22414093038E+04  0.00000000000E+00 0. -1.
         -2   -1    0    0    0  501 -0.00000000000E+00 -0.00000000000E+00 -0.21398223226E+02  0.21398223226E+02  0.00000000000E+00 0.  1.
         23    2    1    2    0    0 -0.14391237356E+03  0.29273799065E+02  0.47421428331E+03  0.50638455364E+03  0.99891957094E+02 0.  0.
          5    1    1    2  502    0  0.21102584278E+02  0.30910910287E+02  0.14576521658E+03  0.15055156659E+03  0.41800000000E+01 0. -1.
         -5    1    1    2    0  502  0.12280978929E+03 -0.60184709351E+02  0.16000315807E+04  0.16058714068E+04  0.41800000000E+01 0. -1.
        -11    1    3    3    0    0 -0.11700647774E+03  0.60125773587E+02  0.40651968161E+03  0.42727494195E+03  0.00000000000E+00 0. -1.
         11    1    3    3    0    0 -0.26905895826E+02 -0.30851974523E+02  0.67694601697E+02  0.79109611686E+02  0.00000000000E+00 0.  1.
</event>
<event>
 7    1  0.6684706E-006  0.1592876E+03  0.7561462E-02  0.1189503E+00
          1   -1    0    0  501    0  0.00000000000E+00  0.00000000000E+00  0.12949941791E+04  0.12949941791E+04  0.00000000000E+00 0. -1.
         -1   -1    0    0    0  501 -0.00000000000E+00 -0.00000000000E+00 -0.26041592970E+02  0.26041592970E+02  0.00000000000E+00 0.  1.
         23    2    1    2    0    0  0.11302101758E+03  0.93506481179E+02  0.67168234023E+03  0.69342402140E+03  0.90346526455E+02 0.  0.
          5    1    1    2  502    0 -0.64037080905E+02 -0.61224431623E+02  0.13445095249E+03  0.16107051183E+03  0.41800000000E+01 0. -1.
         -5    1    1    2    0  502 -0.48983936677E+02 -0.32282049556E+02  0.46281929340E+03  0.46654123882E+03  0.41800000000E+01 0. -1.
        -11    1    3    3    0    0  0.12728701801E+03  0.75137447405E+02  0.60528281715E+03  0.62306894458E+03  0.00000000000E+00 0.  1.
         11    1    3    3    0    0 -0.14266000430E+02  0.18369033774E+02  0.66399523080E+02  0.70355076827E+02  0.00000000000E+00 0. -1.
</event>
<event>
 7    1  0.6684706E-006  0.1489682E+03  0.7561462E-02  0.1201747E+00
          1   -1    0    0  501    0  0.00000000000E+00  0.00000000000E+00  0.11708192777E+04  0.11708192777E+04  0.00000000000E+00 0. -1.
         -1   -1    0    0    0  501 -0.00000000000E+00 -0.00000000000E+00 -0.20675255473E+02  0.20675255473E+02  0.00000000000E+00 0.  1.
         23    2    1    2    0    0 -0.79728617683E+02 -0.65912219641E+02  0.37627768528E+03  0.40078735374E+03  0.91348417093E+02 0.  0.
          5    1    1    2  502    0  0.37807754506E+02  0.10072725165E+03  0.51344410986E+03  0.52461198221E+03  0.41800000000E+01 0.  1.
         -5    1    1    2    0  502  0.41920863177E+02 -0.34815032012E+02  0.26042222707E+03  0.26609519720E+03  0.41800000000E+01 0.  1.
        -11    1    3    3    0    0 -0.32937452118E+02 -0.80191234643E+02  0.27447058266E+03  0.28783608289E+03  0.00000000000E+00 0.  1.
         11    1    3    3    0    0 -0.46791165564E+02  0.14279015002E+02  0.10180710261E+03  0.11295127085E+03  0.00000000000E+00 0. -1.
</event>
<event>
 7    1  0.6684706E-006  0.8422833E+02  0.7561462E-02  0.1317463E+00
         -2   -1    0    0    0  501 -0.00000000000E+00  0.00000000000E+00  0.11567422394E+02  0.11567422394E+02  0.00000000000E+00 0.  1.
          2   -1    0    0  501    0  0.00000000000E+00 -0.00000000000E+00 -0.11818749973E+04  0.11818749973E+04  0.00000000000E+00 0. -1.
         23    2    1    2    0    0  0.82228100585E+01 -0.28634273431E+02 -0.37588078255E+03  0.38799582290E+03  0.91470539950E+02 0.  0.
          5    1    1    2  502    0 -0.36989730732E+02  0.84952826687E+01 -0.73710986620E+03  0.73809812170E+03  0.41800000000E+01 0. -1.
         -5    1    1    2    0  502  0.28766920674E+02  0.20138990762E+02 -0.57316926194E+02  0.67348475130E+02  0.41800000000E+01 0.  1.
        -11    1    3    3    0    0 -0.21880206286E+02  0.25112871945E+02 -0.16365259123E+03  0.16700769558E+03  0.00000000000E+00 0. -1.
         11    1    3    3    0    0  0.30103016345E+02 -0.53747145376E+02 -0.21222819131E+03  0.22098812732E+03  0.00000000000E+00 0.  1.
</event>
<event>
 7    1  0.6684706E-006  0.1516464E+03  0.7561462E-02  0.1198464E+00
         -3   -1    0    0    0  501 -0.00000000000E+00  0.00000000000E+00  0.15923613830E+03  0.15923613830E+03  0.00000000000E+00 0.  1.
          3   -1    0    0  501    0  0.00000000000E+00 -0.00000000000E+00 -0.22415255040E+03  0.22415255040E+03  0.00000000000E+00 0. -1.
         23    2    1    2    0    0  0.28612972895E+02 -0.13013617478E+03  0.50423264713E+02  0.16728333161E+03  0.87676001309E+02 0.  0.
          5    1    1    2  502    0 -0.32521543176E+01  0.14099859183E+03 -0.58420210824E+02  0.15271402306E+03  0.41800000000E+01 0. -1.
         -5    1    1    2    0  502 -0.25360818578E+02 -0.10862417056E+02 -0.56919465986E+02  0.63391334040E+02  0.41800000000E+01 0. -1.
        -11    1    3    3    0    0  0.45804963639E+01 -0.59544026300E+02 -0.21700244186E+02  0.63540322730E+02  0.00000000000E+00 0. -1.
         11    1    3    3    0    0  0.24032476531E+02 -0.70592148476E+02  0.72123508899E+02  0.10374300888E+03  0.00000000000E+00 0.  1.
</event>
<event>
 7    1  0.6684706E-006  0.1263260E+03  0.7561462E-02  0.1233011E+00
          2   -1    0    0  501    0  0.00000000000E+00  0.00000000000E+00  0.12037571813E+04  0.12037571813E+04  0.00000000000E+00 0. -1.
         -2   -1    0    0    0  501 -0.00000000000E+00 -0.00000000000E+00 -0.16097010243E+02  0.16097010243E+02  0.00000000000E+00 0.  1.
         23    2    1    2    0    0  0.21855766288E+01  0.67795697427E+02  0.29451313038E+03  0.31542844615E+03  0.90311058798E+02 0.  0.
          5    1    1    2  502    0  0.57783672203E+02 -0.13752694997E+02  0.45555430942E+03  0.45942930972E+03  0.41800000000E+01 0. -1.
         -5    1    1    2    0  502 -0.59969248831E+02 -0.54043002430E+02  0.43759273129E+03  0.44499643571E+03  0.41800000000E+01 0. -1.
        -11    1    3    3    0    0 -0.34388931620E+02 -0.94988580098E+00  0.75022928545E+02  0.82534481936E+02  0.00000000000E+00 0.  1.
         11    1    3    3    0    0  0.36574508249E+02  0.68745583228E+02  0.21949020183E+03  0.23289396421E+03  0.00000000000E+00 0. -1.
</event>
<event>
 7    1  0.6684706E-006  0.1686977E+03  0.7561462E-02  0.1179213E+00
          1   -1    0    0  501    0  0.00000000000E+00  0.00000000000E+00  0.48640594169E+02  0.48640594169E+02  0.00000000000E+00 0.  1.
         -1   -1    0    0    0  501 -0.00000000000E+00 -0.00000000000E+00 -0.65160902346E+03  0.65160902346E+03  0.00000000000E+00 0. -1.
         23    2    1    2    0    0  0.35900308583E+02  0.13544577634E+03 -0.29406450065E+03  0.33871986328E+03  0.92859166225E+02 0.  0.
          5    1    1    2  502    0  0.32238400320E+02 -0.56560449515E+02 -0.49366201447E+02  0.81810104204E+02  0.41800000000E+01 0.  1.
         -5    1    1    2    0  502 -0.68138708902E+02 -0.78885326829E+02 -0.25953772719E+03  0.27971965014E+03  0.41800000000E+01 0.  1.
        -11    1    3    3    0    0 -0.15347327150E+02  0.10917168840E+03 -0.20201481183E+03  0.23013904970E+03  0.00000000000E+00 0.  1.
         11    1    3    3    0    0  0.51247635733E+02  0.26274087944E+02 -0.92049688820E+02  0.10858081358E+03  0.00000000000E+00 0. -1.
</event>
<event>
 7    1  0.6684706E-006  0.2216800E+03  0.7561462E-02  0.1132637E+00
          2   -1    0    0  501    0  0.00000000000E+00  0.00000000000E+00  0.64791506681E+03  0.64791506681E+03  0.00000000000E+00 0.  1.
         -2   -1    0    0    0  501 -0.00000000000E+00 -0.00000000000E+00 -0.85650689965E+02  0.85650689965E+02  0.00000000000E+00 0. -1.
         23    2    1    2    0    0  0.15889450424E+03 -0.12525305181E+03  0.19229476629E+03  0.29372398347E+03  0.91436922841E+02 0.  0.
          5    1    1    2  502    0 -0.26050882369E+02  0.80191628648E+02  0.73907128175E+02  0.11220107741E+03  0.41800000000E+01 0. -1.
         -5    1    1    2    0  502 -0.13284362188E+03  0.45061423157E+02  0.29606248238E+03  0.32764069589E+03  0.41800000000E+01 0. -1.
        -11    1    3    3    0    0  0.13684432270E+03 -0.59450499621E+02  0.10617770862E+03  0.18312410101E+03  0.00000000000E+00 0.  1.
         11    1    3    3    0    0  0.22050181541E+02 -0.65802552185E+02  0.86117057667E+02  0.11059988247E+03  0.00000000000E+00 0. -1.
</event>
<event>
 7    1  0.6684706E-006  0.1497532E+03  0.7561462E-02  0.1200777E+00
         -1   -1    0    0    0  501 -0.00000000000E+00  0.00000000000E+00  0.23484361424E+02  0.23484361424E+02  0.00000000000E+00 0.  1.
          1   -1    0    0  501    0  0.00000000000E+00 -0.00000000000E+00 -0.11702166868E+04  0.11702166868E+04  0.00000000000E+00 0. -1.
         23    2    1    2    0    0  0.37673696173E+02 -0.11464782422E+03 -0.41531659493E+03  0.44191492062E+03  0.90760630571E+02 0.  0.
          5    1    1    2  502    0  0.31586011555E+02  0.21736364936E+02 -0.37505589998E+03  0.37703387937E+03  0.41800000000E+01 0. -1.
         -5    1    1    2    0  502 -0.69259707728E+02  0.92911459284E+02 -0.35635983044E+03  0.37475224821E+03  0.41800000000E+01 0. -1.
        -11    1    3    3    0    0 -0.19198428345E+02 -0.70249743953E+02 -0.14676421702E+03  0.16383937736E+03  0.00000000000E+00 0. -1.
         11    1    3    3    0    0  0.56872124518E+02 -0.44398080268E+02 -0.26855237791E+03  0.27807554326E+03  0.00000000000E+00 0.  1.
</event>
<event>
 7    1  0.6684706E-006  0.1746753E+03  0.7561462E-02  0.1173058E+00
         -1   -1    0    0    0  501 -0.00000000000E+00  0.00000000000E+00  0.66063939868E+02  0.66063939868E+02  0.00000000000E+00 0.  1.
          1   -1    0    0  501    0  0.00000000000E+00 -0.00000000000E+00 -0.57849512252E+03  0.57849512252E+03  0.00000000000E+00 0. -1.
         23    2    1    2    0    0  0.75206591410E+02  0.13838074895E+03 -0.18319208167E+03  0.25874613576E+03  0.92655064143E+02 0.  0.
          5    1    1    2  502    0 -0.85463263531E+02 -0.14472648214E+03 -0.33254206228E+03  0.37262772257E+03  0.41800000000E+01 0.  1.
         -5    1    1    2    0  502  0.10256672121E+02  0.63457331851E+01  0.33029612967E+01  0.13185204056E+02  0.41800000000E+01 0.  1.
        -11    1    3    3    0    0  0.29807061095E+02  0.11210995542E+03 -0.73968428878E+02  0.13758063624E+03  0.00000000000E+00 0.  1.
         11    1    3    3    0    0  0.45399530315E+02  0.26270793529E+02 -0.10922365279E+03  0.12116549952E+03  0.00000000000E+00 0. -1.
</event>
<event>
 7    1  0.6684706E-006  0.1200559E+03  0.7561462E-02  0.1243005E+00
          1   -1    0    0  501    0  0.00000000000E+00  0.00000000000E+00  0.25484921318E+03  0.25484921318E+03  0.00000000000E+00 0. -1.
         -1   -1    0    0    0  501 -0.00000000000E+00 -0.00000000000E+00 -0.79768955379E+02  0.79768955379E+02  0.00000000000E+00 0.  1.
         23    2    1    2    0    0  0.36268486342E+02 -0.84480545910E+02  0.65390708614E+02  0.14448622583E+03  0.90266045344E+02 0.  0.
          5    1    1    2  502    0  0.34781396629E+02 -0.17109067773E+01  0.23373265035E+01  0.35151219732E+02  0.41800000000E+01 0.  1.
         -5    1    1    2    0  502 -0.71049882971E+02  0.86191452687E+02  0.10735222268E+03  0.15498072300E+03  0.41800000000E+01 0.  1.
        -11    1    3    3    0    0  0.25391251315E+02 -0.39307293473E+02 -0.17090183640E+02  0.49818202902E+02  0.00000000000E+00 0. -1.
         11    1    3    3    0    0  0.10877235028E+02 -0.45173252437E+02  0.82480892254E+02  0.94668022925E+02  0.00000000000E+00 0.  1.
</event>
<event>
 7    1  0.6684706E-006  0.1022244E+03  0.7561462E-02  0.1275687E+00
         -2   -1    0    0    0  501 -0.00000000000E+00  0.00000000000E+00  0.65704647732E+02  0.65704647732E+02  0.00000000000E+00 0. -1.
          2   -1    0    0  501    0  0.00000000000E+00 -0.00000000000E+00 -0.31152738608E+03  0.31152738608E+03  0.00000000000E+00 0.  1.
         23    2    1    2    0    0  0.34612684351E+02 -0.30779668961E+02 -0.74411513914E+01  0.10406685657E+03  0.92893024302E+02 0.  0.
          5    1    1    2  502    0  0.22921866149E+02  0.58558996986E+02 -0.15994826379E+03  0.17191709503E+03  0.41800000000E+01 0.  1.
         -5    1    1    2    0  502 -0.57534550500E+02 -0.27779328025E+02 -0.78433323166E+02  0.10124808220E+03  0.41800000000E+01 0.  1.
        -11    1    3    3    0    0  0.51418112365E+02 -0.31976648404E+02 -0.36338015254E+02  0.70617134429E+02  0.00000000000E+00 0.  1.
         11    1    3    3    0    0 -0.16805428015E+02  0.11969794431E+01  0.28896863862E+02  0.33449722146E+02  0.00000000000E+00 0. -1.
</event>
<event>
 7    1  0.7676676E-006  0.1305061E+03  0.7561462E-02  0.1226707E+00
         -4   -1    0    0    0  501 -0.00000000000E+00  0.00000000000E+00  0.36316618935E+03  0.36316618935E+03  0.00000000000E+00 0.  1.
          4   -1    0    0  501    0  0.00000000000E+00 -0.00000000000E+00 -0.68131487653E+02  0.68131487653E+02  0.00000000000E+00 0. -1.
         23    2    1    2    0    0 -0.78908349233E+02 -0.62725253684E+02  0.21558585111E+03  0.25207520412E+03  0.83088292228E+02 0.  0.
          5    1    1    2  502    0 -0.10906131899E+02 -0.21673461340E+02  0.44816701793E+02  0.51134057134E+02  0.41800000000E+01 0.  1.
         -5    1    1    2    0  502  0.89814481132E+02  0.84398715024E+02  0.34632148793E+02  0.12808841575E+03  0.41800000000E+01 0.  1.
        -11    1    3    3    0    0 -0.72977416930E+02 -0.28509775597E+02  0.19844048592E+03  0.21334745637E+03  0.00000000000E+00 0.  1.
         11    1    3    3    0    0 -0.59309323036E+01 -0.34215478087E+02  0.17145365195E+02  0.38727747758E+02  0.00000000000E+00 0. -1.
</event>
<event>
 7    1  0.6684706E-006  0.1853101E+03  0.7561462E-02  0.1162761E+00
         -2   -1    0    0    0  501 -0.00000000000E+00  0.00000000000E+00  0.33675950246E+02  0.33675950246E+02  0.00000000000E+00 0.  1.
          2   -1    0    0  501    0  0.00000000000E+00 -0.00000000000E+00 -0.30471646819E+04  0.30471646819E+04  0.00000000000E+00 0. -1.
         23    2    1    2    0    0  0.48476847973E+02  0.98315851810E+01 -0.10692586285E+03  0.15434079415E+03  0.99705946339E+02 0.  0.
          5    1    1    2  502    0 -0.15221081300E+03 -0.86159655400E+02 -0.22868167043E+04  0.22934994504E+04  0.41800000000E+01 0. -1.
         -5    1    1    2    0  502  0.10373396502E+03  0.76328070219E+02 -0.61974616459E+03  0.63300038762E+03  0.41800000000E+01 0.  1.
        -11    1    3    3    0    0  0.14772326113E+02 -0.17866780582E+02  0.13103119799E+02  0.26629592855E+02  0.00000000000E+00 0.  1.
         11    1    3    3    0    0  0.33704521860E+02  0.27698365763E+02 -0.12002898265E+03  0.12771120129E+03  0.00000000000E+00 0. -1.
</event>
<event>
 7    1  0.6684706E-006  0.1028722E+03  0.7561462E-02  0.1274369E+00
          2   -1    0    0  501    0  0.00000000000E+00  0.00000000000E+00  0.14813637179E+04  0.14813637179E+04  0.00000000000E+00 0.  1.
         -2   -1    0    0    0  501 -0.00000000000E+00 -0.00000000000E+00 -0.91583423384E+01  0.91583423384E+01  0.00000000000E+00 0. -1.
         23    2    1    2    0    0 -0.58663271047E+01  0.28757585487E+02  0.46100236912E+03  0.47118861525E+03  0.92919934837E+02 0.  0.
          5    1    1    2  502    0  0.52795390700E+02  0.12721825936E+01  0.22519615863E+03  0.23134336816E+03  0.41800000000E+01 0. -1.
         -5    1    1    2    0  502 -0.46929063596E+02 -0.30029768081E+02  0.78600684778E+03  0.78799007680E+03  0.41800000000E+01 0. -1.
        -11    1    3    3    0    0 -0.48275960174E+02  0.24881990973E+02  0.28284110091E+03  0.28800828142E+03  0.00000000000E+00 0.  1.
         11    1    3    3    0    0  0.42409633069E+02  0.38755945144E+01  0.17816126821E+03  0.18318033382E+03  0.00000000000E+00 0. -1.
</event>
<event>
 7    1  0.6684706E-006  0.3203863E+03  0.7561462E-02  0.1075472E+00
         -2   -1    0    0    0  501 -0.00000000000E+00  0.00000000000E+00  0.49461760663E+03  0.49461760663E+03  0.00000000000E+00 0.  1.
          2   -1    0    0  501    0  0.00000000000E+00 -0.00000000000E+00 -0.26404302090E+03  0.26404302090E+03  0.00000000000E+00 0. -1.
         23    2    1    2    0    0 -0.12880630807E+03 -0.16178945319E+03  0.10355151912E+03  0.24857117515E+03  0.91092369832E+02 0.  0.
          5    1    1    2  502    0 -0.60840785319E+02 -0.86041522702E+02 -0.82745685805E+02  0.13404874377E+03  0.41800000000E+01 0. -1.
         -5    1    1    2    0  502  0.18964709339E+03  0.24783097589E+03  0.20976875242E+03  0.37604070861E+03  0.41800000000E+01 0.  1.
        -11    1    3    3    0    0  0.10339749343E+02 -0.29343711189E+02  0.28929720715E+02  0.42484026922E+02  0.00000000000E+00 0.  1.
         11    1    3    3    0    0 -0.13914605742E+03 -0.13244574200E+03  0.74621798403E+02  0.20608714823E+03  0.00000000000E+00 0. -1.
</event>
<event>
 7    1  0.6684706E-006  0.1095131E+03  0.7561462E-02  0.1261474E+00
          1   -1    0    0  501    0  0.00000000000E+00  0.00000000000E+00  0.12362517963E+03  0.12362517963E+03  0.00000000000E+00 0. -1.
         -1   -1    0    0    0  501 -0.00000000000E+00 -0.00000000000E+00 -0.15830845386E+03  0.15830845386E+03  0.00000000000E+00 0.  1.
         23    2    1    2    0    0 -0.29169928287E+02  0.78270835978E+02 -0.42942220058E+02  0.13128923835E+03  0.91736695830E+02 0.  0.
          5    1    1    2  502    0 -0.21221736188E+02 -0.50716894301E+02 -0.45787435009E+02  0.71669568570E+02  0.41800000000E+01 0. -1.
         -5    1    1    2    0  502  0.50391664476E+02 -0.27553941677E+02  0.54046380839E+02  0.78974826574E+02  0.41800000000E+01 0. -1.
        -11    1    3    3    0    0 -0.46711556955E+02  0.31466921622E+02 -0.56213264557E+02  0.79574291211E+02  0.00000000000E+00 0.  1.
         11    1    3    3    0    0  0.17541628668E+02  0.46803914356E+02  0.13271044500E+02  0.51714947138E+02  0.00000000000E+00 0. -1.
</event>
<event>
 7    1  0.6684706E-006  0.1088517E+03  0.7561462E-02  0.1262711E+00
         -1   -1    0    0    0  501 -0.00000000000E+00  0.00000000000E+00  0.85634259617E+02  0.85634259617E+02  0.00000000000E+00 0.  1.
          1   -1    0    0  501    0  0.00000000000E+00 -0.00000000000E+00 -0.17731706075E+03  0.17731706075E+03  0.00000000000E+00 0. -1.
         23    2    1    2    0    0  0.12760637703E+02 -0.32258122468E+02 -0.23328792714E+02  0.10249219155E+03  0.93578824626E+02 0.  0.
          5    1    1    2  502    0 -0.61704955097E+02 -0.56012493656E+01 -0.75805665268E+02  0.97994115970E+02  0.41800000000E+01 0. -1.
         -5    1    1    2    0  502  0.48944317393E+02  0.37859371833E+02  0.74516568511E+01  0.62465012852E+02  0.41800000000E+01 0.  1.
        -11    1    3    3    0    0  0.42828801329E+02 -0.43909769011E+02  0.21783615809E+01  0.61376862880E+02  0.00000000000E+00 0.  1.
         11    1    3    3    0    0 -0.30068163626E+02  0.11651646543E+02 -0.25507154295E+02  0.41115328665E+02  0.00000000000E+00 0. -1.
</event>
<event>
 7    1  0.6684706E-006  0.1282964E+03  0.7561462E-02  0.1230006E+00
          2   -1    0    0  501    0  0.00000000000E+00  0.00000000000E+00  0.36023709134E+03  0.36023709134E+03  0.00000000000E+00 0. -1.
         -2   -1    0    0    0  501 -0.00000000000E+00 -0.00000000000E+00 -0.60507359306E+02  0.60507359306E+02  0.00000000000E+00 0.  1.
         23    2    1    2    0    0  0.43994046445E+02  0.69696794961E+02  0.62227918772E+02  0.13994447635E+03  0.94440580445E+02 0.  0.
          5    1    1    2  502    0 -0.72214259443E+02 -0.88732223892E+02  0.19575126235E+03  0.22676934523E+03  0.41800000000E+01 0.  1.
         -5    1    1    2    0  502  0.28220212998E+02  0.19035428930E+02  0.41750550906E+02  0.54030629065E+02  0.41800000000E+01 0.  1.
        -11    1    3    3    0    0  0.62074236885E+02  0.63249839188E+02  0.16220901456E+02  0.90093677282E+02  0.00000000000E+00 0.  1.
         11    1    3    3    0    0 -0.18080190440E+02  0.64469557736E+01  0.46007017315E+02  0.49850799064E+02  0.00000000000E+00 0. -1.
</event>
<event>
 7    1  0.6684706E-006  0.1217198E+03  0.7561462E-02  0.1240287E+00
         -1   -1    0    0    0  501 -0.00000000000E+00  0.00000000000E+00  0.45525164198E+02  0.45525164198E+02  0.00000000000E+00 0.  1.
          1   -1    0    0  501    0  0.00000000000E+00 -0.00000000000E+00 -0.54003970501E+03  0.54003970501E+03  0.00000000000E+00 0. -1.
         23    2    1    2    0    0 -0.46837096080E+02  0.89504400587E+02 -0.13248201713E+03  0.18943567196E+03  0.90164503280E+02 0.  0.
          5    1    1    2  502    0 -0.66308321324E+01 -0.66940694934E+02 -0.31259471036E+03  0.31977796972E+03  0.41800000000E+01 0.  1.
         -5    1    1    2    0  502  0.53467928213E+02 -0.22563705653E+02 -0.49437813319E+02  0.76351227534E+02  0.41800000000E+01 0.  1.
        -11    1    3    3    0    0 -0.61337402365E+02  0.78672267522E+02 -0.13821016433E+03  0.17045131894E+03  0.00000000000E+00 0. -1.
         11    1    3    3    0    0  0.14500306285E+02  0.10832133065E+02  0.57281471923E+01  0.18984353014E+02  0.00000000000E+00 0.  1.
</event>
<event>
 7    1  0.6684706E-006  0.1525451E+03  0.7561462E-02  0.1197380E+00
         -2   -1    0    0    0  501 -0.00000000000E+00  0.00000000000E+00  0.33721724429E+02  0.33721724429E+02  0.00000000000E+00 0.  1.
          2   -1    0    0  501    0  0.00000000000E+00 -0.00000000000E+00 -0.84539609535E+03  0.84539609535E+03  0.00000000000E+00 0. -1.
         23    2    1    2    0    0 -0.10180090280E+03  0.41744616704E+02 -0.21160642038E+03  0.25628260076E+03  0.93794762473E+02 0.  0.
          5    1    1    2  502    0  0.12267612304E+03 -0.32382691135E+01 -0.43370672478E+03  0.45075371664E+03  0.41800000000E+01 0. -1.
         -5    1    1    2    0  502 -0.20875220239E+02 -0.38506347590E+02 -0.16636122576E+03  0.17208150238E+03  0.41800000000E+01 0. -1.
        -11    1    3    3    0    0 -0.44744147754E+02  0.63120495249E+02 -0.15442645776E+03  0.17272453947E+03  0.00000000000E+00 0. -1.
         11    1    3    3    0    0 -0.57056755049E+02 -0.21375878545E+02 -0.57179962624E+02  0.83558061286E+02  0.00000000000E+00 0.  1.
</event>
<event>
 7    1  0.6684706E-006  0.1133947E+03  0.7561462E-02  0.1254409E+00
          2   -1    0    0  501    0  0.00000000000E+00  0.00000000000E+00  0.98953633439E+02  0.98953633439E+02  0.00000000000E+00 0. -1.
         -2   -1    0    0    0  501 -0.00000000000E+00 -0.00000000000E+00 -0.18435980488E+03  0.18435980488E+03  0.00000000000E+00 0.  1.
         23    2    1    2    0    0 -0.68692544180E+02 -0.24804964030E+02 -0.64286158821E+02  0.13693405175E+03  0.96354929534E+02 0.  0.
          5    1    1    2  502    0  0.13074623441E+02 -0.35451504475E+02  0.31062462082E+02  0.49092809027E+02  0.41800000000E+01 0.  1.
         -5    1    1    2    0  502  0.55617920739E+02  0.60256468504E+02 -0.52182474697E+02  0.97286577540E+02  0.41800000000E+01 0.  1.
        -11    1    3    3    0    0  0.85967478548E+01 -0.28020439243E+02 -0.50456228941E+02  0.58351350695E+02  0.00000000000E+00 0.  1.
         11    1    3    3    0    0 -0.77289292035E+02  0.32154752131E+01 -0.13829929880E+02  0.78582701052E+02  0.00000000000E+00 0. -1.
</event>
<event>
 7    1  0.6684706E-006  0.1205927E+03  0.7561462E-02  0.1242123E+00
          1   -1    0    0  501    0  0.00000000000E+00  0.00000000000E+00  0.64259942069E+03  0.64259942069E+03  0.00000000000E+00 0. -1.
         -1   -1    0    0    0  501 -0.00000000000E+00 -0.00000000000E+00 -0.40443640439E+02  0.40443640439E+02  0.00000000000E+00 0.  1.
         23    2    1    2    0    0 -0.31538544629E+02  0.34275228934E+02  0.14170614699E+03  0.17469164672E+03  0.90923419541E+02 0.  0.
          5    1    1    2  502    0  0.91412427928E+02 -0.28230760893E+02  0.43046225165E+03  0.44098574845E+03  0.41800000000E+01 0. -1.
         -5    1    1    2    0  502 -0.59873883299E+02 -0.60444680409E+01  0.29987381610E+02  0.67365665966E+02  0.41800000000E+01 0.  1.
        -11    1    3    3    0    0  0.28599012947E+01 -0.20347220796E+02  0.18171922778E+01  0.20627423913E+02  0.00000000000E+00 0. -1.
         11    1    3    3    0    0 -0.34398445923E+02  0.54622449730E+02  0.13988895472E+03  0.15406422280E+03  0.00000000000E+00 0.  1.
</event>
<event>
 7    1  0.6684706E-006  0.1437425E+03  0.7561462E-02  0.1208380E+00
          3   -1    0    0  501    0  0.00000000000E+00  0.00000000000E+00  0.10423956553E+04  0.10423956553E+04  0.00000000000E+00 0. -1.
         -3   -1    0    0    0  501 -0.00000000000E+00 -0.00000000000E+00 -0.37028537130E+02  0.37028537130E+02  0.00000000000E+00 0.  1.
         23    2    1    2    0    0 -0.79783130050E+02 -0.29398520214E+01  0.21966815764E+03  0.25043529326E+03  0.89943015612E+02 0.  0.
          5    1    1    2  502    0  0.11110295907E+03  0.68426402507E+02  0.71756376649E+03  0.72934304100E+03  0.41800000000E+01 0. -1.
         -5    1    1    2    0  502 -0.31319829018E+02 -0.65486550486E+02  0.68135194039E+02  0.99645858172E+02  0.41800000000E+01 0.  1.
        -11    1    3    3    0    0 -0.11552684155E+02 -0.10453676003E+02 -0.43175384784E+01  0.16167405224E+02  0.00000000000E+00 0.  1.
         11    1    3    3    0    0 -0.68230445895E+02  0.75138239818E+01  0.22398569612E+03  0.23426788803E+03  0.00000000000E+00 0. -1.
</event>
<event>
 7    1  0.6684706E-006  0.9769626E+02  0.7561462E-02  0.1285216E+00
         -2   -1    0    0    0  501 -0.00000000000E+00  0.00000000000E+00  0.66066070267E+02  0.66066070267E+02  0.00000000000E+00 0.  1.
          2   -1    0    0  501    0  0.00000000000E+00 -0.00000000000E+00 -0.33254377570E+03  0.33254377570E+03  0.00000000000E+00 0. -1.
         23    2    1    2    0    0 -0.39182333908E+02  0.67637922520E+02 -0.30411637402E+02  0.12299970734E+03  0.89966196218E+02 0.  0.
          5    1    1    2  502    0  0.41386840423E+02 -0.39523191786E+02 -0.24935745889E+02  0.62563704113E+02  0.41800000000E+01 0. -1.
         -5    1    1    2    0  502 -0.22045065152E+01 -0.28114730733E+02 -0.21113032214E+03  0.21304643452E+03  0.41800000000E+01 0.  1.
        -11    1    3    3    0    0  0.22891707481E+02  0.10691031532E+02 -0.29387333872E+02  0.38754919929E+02  0.00000000000E+00 0. -1.
         11    1    3    3    0    0 -0.62074041389E+02  0.56946890987E+02 -0.10243035297E+01  0.84244787407E+02  0.00000000000E+00 0.  1.
</event>
<event>
 7    1  0.6684706E-006  0.7218998E+02  0.7561462E-02  0.1352800E+00
          1   -1    0    0  501    0  0.00000000000E+00  0.00000000000E+00  0.46579939797E+03  0.46579939797E+03  0.00000000000E+00 0. -1.
         -1   -1    0    0    0  501 -0.00000000000E+00 -0.00000000000E+00 -0.28224790973E+02  0.28224790973E+02  0.00000000000E+00 0.  1.
         23    2    1    2    0    0  0.24231346007E+02  0.16920981084E+02  0.15161190770E+03  0.18050353566E+03  0.93390995817E+02 0.  0.
          5    1    1    2  502    0 -0.22354756845E+02  0.31640478852E+02  0.24974791208E+03  0.25276935543E+03  0.41800000000E+01 0.  1.
         -5    1    1    2    0  502 -0.18765891619E+01 -0.48561459935E+02  0.36214787220E+02  0.60751297857E+02  0.41800000000E+01 0.  1.
        -11    1    3    3    0    0  0.10802183419E+02  0.33559549716E+02  0.15490792590E+03  0.15886911610E+03  0.00000000000E+00 0. -1.
         11    1    3    3    0    0  0.13429162588E+02 -0.16638568633E+02 -0.32960181961E+01  0.21634419565E+02  0.00000000000E+00 0.  1.
</event>
<event>
 7    1  0.6684706E-006  0.1169630E+03  0.7561462E-02  0.1248193E+00
          2   -1    0    0  501    0  0.00000000000E+00  0.00000000000E+00  0.10928014364E+04  0.10928014364E+04  0.00000000000E+00 0. -1.
         -2   -1    0    0    0  501 -0.00000000000E+00 -0.00000000000E+00 -0.13232473495E+02  0.13232473495E+02  0.00000000000E+00 0.  1.
         23    2    1    2    0    0  0.16484775770E+02  0.44430672215E+02  0.36393983538E+03  0.37801035619E+03  0.90519573232E+02 0.  0.
          5    1    1    2  502    0 -0.65203373972E+02  0.22487791776E+01  0.39135328750E+03  0.39677626570E+03  0.41800000000E+01 0. -1.
         -5    1    1    2    0  502  0.48718598202E+02 -0.46679451392E+02  0.32427584002E+03  0.33124728801E+03  0.41800000000E+01 0. -1.
        -11    1    3    3    0    0  0.18600450370E+02  0.71457776834E+02  0.29015187080E+03  0.29939989772E+03  0.00000000000E+00 0. -1.
         11    1    3    3    0    0 -0.21156745995E+01 -0.27027104619E+02  0.73787964584E+02  0.78610458468E+02  0.00000000000E+00 0.  1.
</event>
<event>
 7    1  0.6684706E-006  0.1895070E+03  0.7561462E-02  0.1158907E+00
          2   -1    0    0  501    0  0.00000000000E+00  0.00000000000E+00  0.11279987590E+04  0.11279987590E+04  0.00000000000E+00 0. -1.
         -2   -1    0    0    0  501 -0.00000000000E+00 -0.00000000000E+00 -0.38196587098E+02  0.38196587098E+02  0.00000000000E+00 0.  1.
         23    2    1    2    0    0  0.15278038655E+03 -0.68808420210E+02  0.37730137212E+03  0.42364482296E+03  0.95090301367E+02 0.  0.
          5    1    1    2  502    0 -0.62961020776E+02 -0.22167886672E+02  0.13027804317E+03  0.14644229672E+03  0.41800000000E+01 0.  1.
         -5    1    1    2    0  502 -0.89819365772E+02  0.90976306882E+02  0.58222275663E+03  0.59610822643E+03  0.41800000000E+01 0.  1.
        -11    1    3    3    0    0  0.11882499833E+03 -0.13864190779E+02  0.29961252624E+03  0.32261317688E+03  0.00000000000E+00 0. -1.
         11    1    3    3    0    0  0.33955388221E+02 -0.54944229431E+02  0.77688845876E+02  0.10103164608E+03  0.00000000000E+00 0.  1.
</event>
<event>
 7    1  0.6684706E-006  0.1391594E+03  0.7561462E-02  0.1214464E+00
         -1   -1    0    0    0  501 -0.00000000000E+00  0.00000000000E+00  0.52961860006E+02  0.52961860006E+02  0.00000000000E+00 0.  1.
          1   -1    0    0  501    0  0.00000000000E+00 -0.00000000000E+00 -0.51248050746E+03  0.51248050746E+03  0.00000000000E+00 0. -1.
         23    2    1    2    0    0  0.24798719627E+02 -0.10762302601E+03 -0.11353573076E+03  0.18132637913E+03  0.88267782281E+02 0.  0.
          5    1    1    2  502    0  0.11187338380E+02  0.10437263192E+03 -0.32622433474E+03  0.34272232465E+03  0.41800000000E+01 0.  1.
         -5    1    1    2    0  502 -0.35986058007E+02  0.32503940833E+01 -0.19758581957E+02  0.41393663689E+02  0.41800000000E+01 0.  1.
        -11    1    3    3    0    0  0.54618545824E+02 -0.65553805564E+02 -0.47880206953E+02  0.97841714977E+02  0.00000000000E+00 0.  1.
         11    1    3    3    0    0 -0.29819826196E+02 -0.42069220443E+02 -0.65655523807E+02  0.83484664157E+02  0.00000000000E+00 0. -1.
</event>
<event>
 7    1  0.6684706E-006  0.1047179E+03  0.7561462E-02  0.1270677E+00
         -2   -1    0    0    0  501 -0.00000000000E+00  0.00000000000E+00  0.13910230113E+02  0.13910230113E+02  0.00000000000E+00 0.  1.
          2   -1    0    0  501    0  0.00000000000E+00 -0.00000000000E+00 -0.92083870045E+03  0.92083870045E+03  0.00000000000E+00 0. -1.
         23    2    1    2    0    0 -0.27357214612E+02  0.10661080778E+01 -0.30941915523E+03  0.32367238253E+03  0.90961771166E+02 0.  0.
          5    1    1    2  502    0 -0.72455329019E+01  0.57638732764E+02 -0.32268456031E+03  0.32789864154E+03  0.41800000000E+01 0.  1.
         -5    1    1    2    0  502  0.34602747514E+02 -0.58704840842E+02 -0.27482475480E+03  0.28317790649E+03  0.41800000000E+01 0.  1.
        -11    1    3    3    0    0 -0.96132624670E+00 -0.36772667265E+02 -0.21998614394E+03  0.22304048227E+03  0.00000000000E+00 0. -1.
         11    1    3    3    0    0 -0.26395888366E+02  0.37838775342E+02 -0.89433011287E+02  0.10063190026E+03  0.00000000000E+00 0.  1.
</event>
<event>
 7    1  0.6684706E-006  0.1064709E+03  0.7561462E-02  0.1267248E+00
         -2   -1    0    0    0  501 -0.00000000000E+00  0.00000000000E+00  0.35880205914E+02  0.35880205914E+02  0.00000000000E+00 0. -1.
          2   -1    0    0  501    0  0.00000000000E+00 -0.00000000000E+00 -0.12443914812E+04  0.12443914812E+04  0.00000000000E+00 0.  1.
         23    2    1    2    0    0  0.49080920011E+02  0.54165382822E+02 -0.95118284786E+02  0.15749233494E+03  0.10204666608E+03 0.  0.
          5    1    1    2  502    0  0.72285717772E+01 -0.78046149802E+02 -0.76672032062E+03  0.77072756289E+03  0.41800000000E+01 0. -1.
         -5    1    1    2    0  502 -0.56309491788E+02  0.23880766980E+02 -0.34667266990E+03  0.35205178930E+03  0.41800000000E+01 0. -1.
        -11    1    3    3    0    0  0.28282992667E+02  0.33165298815E+02 -0.11425169539E+03  0.12228374634E+03  0.00000000000E+00 0.  1.
         11    1    3    3    0    0  0.20797927343E+02  0.21000084007E+02  0.19133410600E+02  0.35208588601E+02  0.00000000000E+00 0. -1.
</event>
<event>
 7    1  0.6684706E-006  0.1139899E+03  0.7561462E-02  0.1253355E+00
         -1   -1    0    0    0  501 -0.00000000000E+00  0.00000000000E+00  0.74722740684E+02  0.74722740684E+02  0.00000000000E+00 0.  1.
          1   -1    0    0  501    0  0.00000000000E+00 -0.00000000000E+00 -0.29469612331E+03  0.29469612331E+03  0.00000000000E+00 0. -1.
         23    2    1    2    0    0  0.80467408836E+02 -0.36509154968E+02 -0.40520090170E+02  0.13349821013E+03  0.91498481515E+02 0.  0.
          5    1    1    2  502    0 -0.80817931976E+01  0.55870879706E+02 -0.20611399852E+02  0.60242616015E+02  0.41800000000E+01 0.  1.
         -5    1    1    2    0  502 -0.72385615639E+02 -0.19361724738E+02 -0.15884189260E+03  0.17567803785E+03  0.41800000000E+01 0.  1.
        -11    1    3    3    0    0  0.66547054482E+02 -0.11258747421E+02  0.16608099101E+02  0.69506106275E+02  0.00000000000E+00 0.  1.
         11    1    3    3    0    0  0.13920354354E+02 -0.25250407547E+02 -0.57128189271E+02  0.63992103857E+02  0.00000000000E+00 0. -1.
</event>
<event>
 7    1  0.6684706E-006  0.8683387E+02  0.7561462E-02  0.1310705E+00
          1   -1    0    0  501    0  0.00000000000E+00  0.00000000000E+00  0.22479748585E+03  0.22479748585E+03  0.00000000000E+00 0. -1.
         -1   -1    0    0    0  501 -0.00000000000E+00 -0.00000000000E+00 -0.88001025450E+02  0.88001025450E+02  0.00000000000E+00 0.  1.
         23    2    1    2    0    0 -0.59681509070E+02 -0.14918924013E+02 -0.89940968934E+01  0.11108644604E+03  0.92058937081E+02 0.  0.
          5    1    1    2  502    0  0.76464135196E+02  0.34275288340E+02  0.40302030940E+02  0.93076771861E+02  0.41800000000E+01 0. -1.
         -5    1    1    2    0  502 -0.16782626126E+02 -0.19356364327E+02  0.10548852635E+03  0.10863529340E+03  0.41800000000E+01 0. -1.
        -11    1    3    3    0    0 -0.50482589143E+02 -0.57261535527E+01 -0.48045797000E+02  0.69926241501E+02  0.00000000000E+00 0.  1.
         11    1    3    3    0    0 -0.91989199271E+01 -0.91927704606E+01  0.39051700107E+02  0.41160204540E+02  0.00000000000E+00 0. -1.
</event>
<event>
 7    1  0.6684706E-006  0.1433063E+03  0.7561462E-02  0.1208948E+00
         -1   -1    0    0    0  501 -0.00000000000E+00  0.00000000000E+00  0.30374367695E+03  0.30374367695E+03  0.00000000000E+00 0.  1.
          1   -1    0    0  501    0  0.00000000000E+00 -0.00000000000E+00 -0.84050057162E+02  0.84050057162E+02  0.00000000000E+00 0. -1.
         23    2    1    2    0    0 -0.95522257087E+02  0.63410944040E+02  0.12834096479E+03  0.19507861978E+03  0.91863024267E+02 0.  0.
          5    1    1    2  502    0  0.72648172762E+02  0.13287256524E+02  0.84460766904E+02  0.11227378028E+03  0.41800000000E+01 0.  1.
         -5    1    1    2    0  502  0.22874084325E+02 -0.76698200564E+02  0.68918880908E+01  0.80441334057E+02  0.41800000000E+01 0.  1.
        -11    1    3    3    0    0 -0.31520517887E+02 -0.11873518908E+02  0.76290064542E+02  0.83394828659E+02  0.00000000000E+00 0.  1.
         11    1    3    3    0    0 -0.64001739200E+02  0.75284462948E+02  0.52050900250E+02  0.11168379112E+03  0.00000000000E+00 0. -1.
</event>
<event>
 7    1  0.6684706E-006  0.1368823E+03  0.7561462E-02  0.1217587E+00
         -2   -1    0    0    0  501 -0.00000000000E+00  0.00000000000E+00  0.55465298830E+02  0.55465298830E+02  0.00000000000E+00 0.  1.
          2   -1    0    0  501    0  0.00000000000E+00 -0.00000000000E+00 -0.42654797230E+03  0.42654797230E+03  0.00000000000E+00 0. -1.
         23    2    1    2    0    0 -0.10915120609E+03  0.13222162707E+02 -0.16270104173E+03  0.21525673957E+03  0.88176094119E+02 0.  0.
          5    1    1    2  502    0  0.13045502753E+03 -0.30551362455E+02 -0.14453456431E+03  0.19712841661E+03  0.41800000000E+01 0.  1.
         -5    1    1    2    0  502 -0.21303821442E+02  0.17329199748E+02 -0.63847067422E+02  0.69628114942E+02  0.41800000000E+01 0.  1.
        -11    1    3    3    0    0 -0.59515570912E+02 -0.33439201058E+01 -0.19377933728E+02  0.62680055027E+02  0.00000000000E+00 0.  1.
         11    1    3    3    0    0 -0.49635635173E+02  0.16566082813E+02 -0.14332310800E+03  0.15257668454E+03  0.00000000000E+00 0. -1.
</event>
<event>
 7    1  0.6684706E-006  0.9361741E+02  0.7561462E-02  0.1294321E+00
          2   -1    0    0  501    0  0.00000000000E+00  0.00000000000E+00  0.78113230314E+03  0.78113230314E+03  0.00000000000E+00 0. -1.
         -2   -1    0    0    0  501 -0.00000000000E+00 -0.00000000000E+00 -0.59814900171E+02  0.59814900171E+02  0.00000000000E+00 0.  1.
         23    2    1    2    0    0 -0.54205245250E+02  0.47473055361E+02  0.12632670065E+03  0.17150444489E+03  0.90903463763E+02 0.  0.
          5    1    1    2  502    0  0.45434177380E+02 -0.19195136412E+02  0.62507206428E+03  0.62702892731E+03  0.41800000000E+01 0. -1.
         -5    1    1    2    0  502  0.87710678703E+01 -0.28277918949E+02 -0.30081361962E+02  0.42413831107E+02  0.41800000000E+01 0.  1.
        -11    1    3    3    0    0 -0.11797814376E+02  0.61920158463E+02  0.10359884062E+03  0.12126835625E+03  0.00000000000E+00 0. -1.
         11    1    3    3    0    0 -0.42407430873E+02 -0.14447103102E+02  0.22727860023E+02  0.50236088647E+02  0.00000000000E+00 0.  1.
</event>
<event>
 7    1  0.6684706E-006  0.9033352E+02  0.7561462E-02  0.1302046E+00
         -2   -1    0    0    0  501 -0.00000000000E+00  0.00000000000E+00  0.23995807558E+02  0.23995807558E+02  0.00000000000E+00 0.  1.
          2   -1    0    0  501    0  0.00000000000E+00 -0.00000000000E+00 -0.54375240400E+03  0.54375240400E+03  0.00000000000E+00 0. -1.
         23    2    1    2    0    0  0.12415449879E+02 -0.23152383719E+01 -0.14190312351E+03  0.16952651523E+03  0.91887100185E+02 0.  0.
          5    1    1    2  502    0  0.16490958552E+02  0.43804770992E+02 -0.30975436117E+03  0.31329865359E+03  0.41800000000E+01 0. -1.
         -5    1    1    2    0  502 -0.28906408431E+02 -0.41489532620E+02 -0.68099111760E+02  0.84923042738E+02  0.41800000000E+01 0. -1.
        -11    1    3    3    0    0  0.47659457657E+02 -0.13393025479E+01 -0.11705541108E+03  0.12639298595E+03  0.00000000000E+00 0. -1.
         11    1    3    3    0    0 -0.35244007778E+02 -0.97593582397E+00 -0.24847712433E+02  0.43133529280E+02  0.00000000000E+00 0.  1.
</event>
<event>
 7    1  0.6684706E-006  0.8326971E+02  0.7561462E-02  0.1320020E+00
         -1   -1    0    0    0  501 -0.00000000000E+00  0.00000000000E+00  0.12339027675E+03  0.12339027675E+03  0.00000000000E+00 0.  1.
          1   -1    0    0  501    0  0.00000000000E+00 -0.00000000000E+00 -0.19706898837E+03  0.19706898837E+03  0.00000000000E+00 0. -1.
         23    2    1    2    0    0  0.45701477122E+02 -0.30458486216E+01  0.50349456549E+02  0.13844712518E+03  0.12055968020E+03 0.  0.
          5    1    1    2  502    0 -0.65890125599E+02 -0.20030043480E+02 -0.17637719832E+02  0.71212870004E+02  0.41800000000E+01 0. -1.
         -5    1    1    2    0  502  0.20188648477E+02  0.23075892102E+02 -0.10639044833E+03  0.11079926994E+03  0.41800000000E+01 0. -1.
        -11    1    3    3    0    0  0.48361232749E+02 -0.17857186984E+02  0.85709029850E+02  0.10001862705E+03  0.00000000000E+00 0.  1.
         11    1    3    3    0    0 -0.26597556271E+01  0.14811338362E+02 -0.35359573300E+02  0.38428498124E+02  0.00000000000E+00 0. -1.
</event>
<event>
 7    1  0.6684706E-006  0.1189975E+03  0.7561462E-02  0.1244760E+00
         -1   -1    0    0    0  501 -0.00000000000E+00  0.00000000000E+00  0.12182767409E+03  0.12182767409E+03  0.00000000000E+00 0.  1.
          1   -1    0    0  501    0  0.00000000000E+00 -0.00000000000E+00 -0.17224419939E+03  0.17224419939E+03  0.00000000000E+00 0. -1.
         23    2    1    2    0    0  0.64376595722E+02  0.77603326686E+02  0.13673536474E+01  0.13573953154E+03  0.90866541573E+02 0.  0.
          5    1    1    2  502    0 -0.62030468876E+02 -0.96684882961E+02 -0.14085147547E+02  0.11580850333E+03  0.41800000000E+01 0. -1.
         -5    1    1    2    0  502 -0.23461268456E+01  0.19081556275E+02 -0.37698731402E+02  0.42523838613E+02  0.41800000000E+01 0.  1.
        -11    1    3    3    0    0  0.63214285544E+02  0.64838908886E+02 -0.35074016793E+02  0.97109817507E+02  0.00000000000E+00 0. -1.
         11    1    3    3    0    0  0.11623101774E+01  0.12764417800E+02  0.36441370440E+02  0.38629714033E+02  0.00000000000E+00 0.  1.
</event>
<event>
 7    1  0.6684706E-006  0.1293586E+03  0.7561462E-02  0.1228411E+00
         -2   -1    0    0    0  501 -0.00000000000E+00  0.00000000000E+00  0.11032095260E+02  0.11032095260E+02  0.00000000000E+00 0. -1.
          2   -1    0    0  501    0  0.00000000000E+00 -0.00000000000E+00 -0.18435956673E+04  0.18435956673E+04  0.00000000000E+00 0.  1.
         23    2    1    2    0    0 -0.83683278398E+02 -0.23876782225E+02 -0.62416564730E+03  0.63665979106E+03  0.90443034373E+02 0.  0.
          5    1    1    2  502    0 -0.19202872509E+02  0.24593368887E+02 -0.10099415144E+03  0.10578693271E+03  0.41800000000E+01 0. -1.
         -5    1    1    2    0  502  0.10288615091E+03 -0.71658666186E+00 -0.11074037732E+04  0.11121810387E+04  0.41800000000E+01 0. -1.
        -11    1    3    3    0    0 -0.12406276893E+02 -0.47562016617E+02 -0.29199636397E+03  0.29610460602E+03  0.00000000000E+00 0.  1.
         11    1    3    3    0    0 -0.71277001505E+02  0.23685234393E+02 -0.33216928333E+03  0.34055518504E+03  0.00000000000E+00 0. -1.
</event>
<event>
 7    1  0.6684706E-006  0.1850771E+03  0.7561462E-02  0.1162978E+00
          1   -1    0    0  501    0  0.00000000000E+00  0.00000000000E+00  0.26687504640E+04  0.26687504640E+04  0.00000000000E+00 0. -1.
         -1   -1    0    0    0  501 -0.00000000000E+00 -0.00000000000E+00 -0.25846490486E+02  0.25846490486E+02  0.00000000000E+00 0.  1.
         23    2    1    2    0    0  0.10563714961E+02 -0.70019889363E+01  0.13398290576E+03  0.15974114213E+03  0.86053434153E+02 0.  0.
          5    1    1    2  502    0 -0.10205787306E+03  0.10824010025E+03  0.20664524115E+04  0.20718047133E+04  0.41800000000E+01 0. -1.
         -5    1    1    2    0  502  0.91494158100E+02 -0.10123811131E+03  0.44246865622E+03  0.46305109900E+03  0.41800000000E+01 0.  1.
        -11    1    3    3    0    0  0.14029146040E+02 -0.44751810043E+02  0.56093003660E+02  0.73116116557E+02  0.00000000000E+00 0.  1.
         11    1    3    3    0    0 -0.34654310790E+01  0.37749821106E+02  0.77889902096E+02  0.86625025568E+02  0.00000000000E+00 0. -1.
</event>
<event>
 7    1  0.6684706E-006  0.1246631E+03  0.7561462E-02  0.1235597E+00
         -1   -1    0    0    0  501 -0.00000000000E+00  0.00000000000E+00  0.10439493837E+03  0.10439493837E+03  0.00000000000E+00 0.  1.
          1   -1    0    0  501    0  0.00000000000E+00 -0.00000000000E+00 -0.24593984442E+03  0.24593984442E+03  0.00000000000E+00 0. -1.
         23    2    1    2    0    0  0.99933801822E+02  0.66485263908E+01  0.14184231957E+01  0.13559280958E+03  0.91391632197E+02 0.  0.
          5    1    1    2  502    0  0.21064350773E+02  0.85576883788E+01  0.42792334232E+01  0.23510107243E+02  0.41800000000E+01 0.  1.
         -5    1    1    2    0  502 -0.12099815259E+03 -0.15206214770E+02 -0.14724256267E+03  0.19123186596E+03  0.41800000000E+01 0.  1.
        -11    1    3    3    0    0  0.11381530146E+02  0.10591344941E+02  0.36956859534E+02  0.40093955688E+02  0.00000000000E+00 0. -1.
         11    1    3    3    0    0  0.88552271676E+02 -0.39428185507E+01 -0.35538436338E+02  0.95498853891E+02  0.00000000000E+00 0.  1.
</event>
<event>
 7    1  0.6684706E-006  0.2286083E+03  0.7561462E-02  0.1127623E+00
          2   -1    0    0  501    0  0.00000000000E+00  0.00000000000E+00  0.22520491001E+04  0.22520491001E+04  0.00000000000E+00 0. -1.
         -2   -1    0    0    0  501 -0.00000000000E+00 -0.00000000000E+00 -0.34575941864E+02  0.34575941864E+02  0.00000000000E+00 0.  1.
         23    2    1    2    0    0 -0.35005078139E+02  0.15824343657E+03  0.33817305416E+03  0.38560347601E+03  0.89792457581E+02 0.  0.
          5    1    1    2  502    0  0.63135595631E+02  0.46732350842E+02  0.58977143396E+03  0.59499397708E+03  0.41800000000E+01 0. -1.
         -5    1    1    2    0  502 -0.28130517492E+02 -0.20497578741E+03  0.12895286702E+04  0.13060275889E+04  0.41800000000E+01 0.  1.
        -11    1    3    3    0    0  0.14983367108E+02  0.53463558759E+02  0.18656251999E+03  0.19464949851E+03  0.00000000000E+00 0. -1.
         11    1    3    3    0    0 -0.49988445247E+02  0.10477987781E+03  0.15161053418E+03  0.19095397751E+03  0.00000000000E+00 0.  1.
</event>
<event>
 7    1  0.6684706E-006  0.1202998E+03  0.7561462E-02  0.1242603E+00
          2   -1    0    0  501    0  0.00000000000E+00  0.00000000000E+00  0.10394142889E+03  0.10394142889E+03  0.00000000000E+00 0. -1.
         -2   -1    0    0    0  501 -0.00000000000E+00 -0.00000000000E+00 -0.24356441161E+03  0.24356441161E+03  0.00000000000E+00 0.  1.
         23    2    1    2    0    0  0.78271293064E+02  0.36762191195E+02 -0.14941780797E+03  0.19512121595E+03  0.90932686957E+02 0.  0.
          5    1    1    2  502    0  0.36704478186E+01 -0.39344814050E+02 -0.39992954034E+02  0.56377259176E+02  0.41800000000E+01 0. -1.
         -5    1    1    2    0  502 -0.81941740883E+02  0.25826228551E+01  0.49787779280E+02  0.96007365370E+02  0.41800000000E+01 0. -1.
        -11    1    3    3    0    0  0.47786100994E+02  0.62640393916E+02 -0.66637531981E+02  0.10318861888E+03  0.00000000000E+00 0. -1.
         11    1    3    3    0    0  0.30485192070E+02 -0.25878202721E+02 -0.82780275987E+02  0.91932597070E+02  0.00000000000E+00 0.  1.
</event>
<event>
 7    1  0.6684706E-006  0.8603540E+02  0.7561462E-02  0.1312747E+00
          2   -1    0    0  501    0  0.00000000000E+00  0.00000000000E+00  0.15405830709E+03  0.15405830709E+03  0.00000000000E+00 0. -1.
         -2   -1    0    0    0  501 -0.00000000000E+00 -0.00000000000E+00 -0.86934810381E+02  0.86934810381E+02  0.00000000000E+00 0.  1.
         23    2    1    2    0    0  0.10467388953E+02 -0.29601986937E+02 -0.51928571854E+01  0.93352710927E+02  0.87760577765E+02 0.  0.
          5    1    1    2  502    0 -0.39394323478E+02  0.33800625589E+02 -0.16032672446E+02  0.54487741725E+02  0.41800000000E+01 0.  1.
         -5    1    1    2    0  502  0.28926934524E+02 -0.41986386523E+01  0.88349026341E+02  0.93152664819E+02  0.41800000000E+01 0.  1.
        -11    1    3    3    0    0 -0.20384214175E+02  0.22222341778E+02  0.88496846720E+01  0.31427147189E+02  0.00000000000E+00 0. -1.
         11    1    3    3    0    0  0.30851603129E+02 -0.51824328716E+02 -0.14042541857E+02  0.61925563738E+02  0.00000000000E+00 0.  1.
</event>
<event>
 7    1  0.6684706E-006  0.1151823E+03  0.7561462E-02  0.1251263E+00
         -1   -1    0    0    0  501 -0.00000000000E+00  0.00000000000E+00  0.20599051425E+03  0.20599051425E+03  0.00000000000E+00 0.  1.
          1   -1    0    0  501    0  0.00000000000E+00 -0.00000000000E+00 -0.73652271269E+02  0.73652271269E+02  0.00000000000E+00 0. -1.
         23    2    1    2    0    0  0.49548572360E+02  0.31165046533E+02  0.68376197443E+02  0.12743848237E+03  0.90216080960E+02 0.  0.
          5    1    1    2  502    0 -0.54233362767E+02 -0.75561501218E+02  0.46685825215E+02  0.10415294897E+03  0.41800000000E+01 0. -1.
         -5    1    1    2    0  502  0.46847904070E+01  0.44396454685E+02  0.17276220324E+02  0.48051354179E+02  0.41800000000E+01 0. -1.
        -11    1    3    3    0    0  0.66568980379E+02  0.34653560715E+02  0.77442653320E+02  0.10784091511E+03  0.00000000000E+00 0.  1.
         11    1    3    3    0    0 -0.17020408019E+02 -0.34885141816E+01 -0.90664558766E+01  0.19597567259E+02  0.00000000000E+00 0. -1.
</event>
<event>
 7    1  0.6684706E-006  0.1009697E+03  0.7561462E-02  0.1278270E+00
         -2   -1    0    0    0  501 -0.00000000000E+00  0.00000000000E+00  0.64009100903E+02  0.64009100903E+02  0.00000000000E+00 0. -1.
          2   -1    0    0  501    0  0.00000000000E+00 -0.00000000000E+00 -0.23796525340E+03  0.23796525340E+03  0.00000000000E+00 0.  1.
         23    2    1    2    0    0  0.26812554511E+02  0.37808436291E+02 -0.34849249168E+02  0.10924692207E+03  0.92585251957E+02 0.  0.
          5    1    1    2  502    0  0.47929936828E+02 -0.19874608268E+02 -0.32982252374E+02  0.61624510301E+02  0.41800000000E+01 0.  1.
         -5    1    1    2    0  502 -0.74742491339E+02 -0.17933828023E+02 -0.10612465096E+03  0.13110292194E+03  0.41800000000E+01 0.  1.
        -11    1    3    3    0    0 -0.16149805252E+02  0.74623504392E+00 -0.48300826846E+02  0.50934692995E+02  0.00000000000E+00 0.  1.
         11    1    3    3    0    0  0.42962359763E+02  0.37062201247E+02  0.13451577678E+02  0.58312229075E+02  0.00000000000E+00 0. -1.
</event>
<event>
 7    1  0.6684706E-006  0.9467785E+02  0.7561462E-02  0.1291903E+00
         -1   -1    0    0    0  501 -0.00000000000E+00  0.00000000000E+00  0.89894920248E+02  0.89894920248E+02  0.00000000000E+00 0.  1.
          1   -1    0    0  501    0  0.00000000000E+00 -0.00000000000E+00 -0.13929515184E+03  0.13929515184E+03  0.00000000000E+00 0. -1.
         23    2    1    2    0    0 -0.78405696455E+01  0.24267134199E+02 -0.11106895080E+02  0.95945783792E+02  0.91825170703E+02 0.  0.
          5    1    1    2  502    0 -0.50215621731E+02 -0.35342066835E+02  0.20177698641E+01  0.61580956060E+02  0.41800000000E+01 0. -1.
         -5    1    1    2    0  502  0.58056191376E+02  0.11074932636E+02 -0.40311106375E+02  0.71663332236E+02  0.41800000000E+01 0. -1.
        -11    1    3    3    0    0  0.21232077464E+02 -0.10125554226E+02  0.27811277718E+02  0.36425199109E+02  0.00000000000E+00 0.  1.
         11    1    3    3    0    0 -0.29072647109E+02  0.34392688425E+02 -0.38918172799E+02  0.59520584683E+02  0.00000000000E+00 0. -1.
</event>
<event>
 7    1  0.6684706E-006  0.1050741E+03  0.7561462E-02  0.1269974E+00
          2   -1    0    0  501    0  0.00000000000E+00  0.00000000000E+00  0.26893021434E+03  0.26893021434E+03  0.00000000000E+00 0. -1.
         -2   -1    0    0    0  501 -0.00000000000E+00 -0.00000000000E+00 -0.55164654889E+02  0.55164654889E+02  0.00000000000E+00 0.  1.
         23    2    1    2    0    0 -0.34711513240E+02  0.26030662243E+02  0.63146661714E+02  0.12356616903E+03  0.96946442512E+02 0.  0.
          5    1    1    2  502    0  0.42001495200E+02 -0.60496563662E+02  0.14749890301E+03  0.16491621692E+03  0.41800000000E+01 0. -1.
         -5    1    1    2    0  502 -0.72899819604E+01  0.34465901419E+02  0.31199947202E+01  0.35612483270E+02  0.41800000000E+01 0. -1.
        -11    1    3    3    0    0  0.31310951403E+02  0.11070901112E+02  0.35954489547E+01  0.33404607203E+02  0.00000000000E+00 0.  1.
         11    1    3    3    0    0 -0.66022464643E+02  0.14959761132E+02  0.59551212759E+02  0.90161561831E+02  0.00000000000E+00 0. -1.
</event>
<event>
 7    1  0.6684706E-006  0.9246295E+02  0.7561462E-02  0.1296995E+00
          3   -1    0    0  501    0  0.00000000000E+00  0.00000000000E+00  0.12000510246E+04  0.12000510246E+04  0.00000000000E+00 0. -1.
         -3   -1    0    0    0  501 -0.00000000000E+00 -0.00000000000E+00 -0.17967785541E+02  0.17967785541E+02  0.00000000000E+00 0.  1.
         23    2    1    2    0    0  0.81838338237E+00  0.16677633392E+02  0.13858267924E+03  0.16691485865E+03  0.91523755635E+02 0.  0.
          5    1    1    2  502    0 -0.28235948453E+02 -0.59814346964E+02  0.76924873876E+03  0.77209851662E+03  0.41800000000E+01 0. -1.
         -5    1    1    2    0  502  0.27417565071E+02  0.43136713573E+02  0.27425182103E+03  0.27900543484E+03  0.41800000000E+01 0. -1.
        -11    1    3    3    0    0  0.30419006196E+02  0.21669521511E+02  0.13062503325E+03  0.13585942518E+03  0.00000000000E+00 0. -1.
         11    1    3    3    0    0 -0.29600622813E+02 -0.49918881198E+01  0.79576459921E+01  0.31055433464E+02  0.00000000000E+00 0.  1.
</event>
<event>
 7    1  0.6684706E-006  0.9389534E+02  0.7561462E-02  0.1293684E+00
         -1   -1    0    0    0  501 -0.00000000000E+00  0.00000000000E+00  0.25589664220E+03  0.25589664220E+03  0.00000000000E+00 0.  1.
          1   -1    0    0  501    0  0.00000000000E+00 -0.00000000000E+00 -0.82856068742E+02  0.82856068742E+02  0.00000000000E+00 0. -1.
         23    2    1    2    0    0 -0.35510538198E+02  0.74750007554E+02  0.13623353700E+03  0.18431528813E+03  0.92541811537E+02 0.  0.
          5    1    1    2  502    0  0.12925468504E+02 -0.32305870893E+02 -0.46460015010E+02  0.58195725143E+02  0.41800000000E+01 0.  1.
         -5    1    1    2    0  502  0.22585069694E+02 -0.42444136661E+02  0.83267051460E+02  0.96241697662E+02  0.41800000000E+01 0.  1.
        -11    1    3    3    0    0  0.78586920499E+01  0.57137500372E+02  0.23553607700E+02  0.62299481741E+02  0.00000000000E+00 0. -1.
         11    1    3    3    0    0 -0.43369230248E+02  0.17612507182E+02  0.11267992930E+03  0.12201580639E+03  0.00000000000E+00 0.  1.
</event>
<event>
 7    1  0.6684706E-006  0.8695596E+02  0.7561462E-02  0.1310395E+00
         -2   -1    0    0    0  501 -0.00000000000E+00  0.00000000000E+00  0.14807708841E+02  0.14807708841E+02  0.00000000000E+00 0.  1.
          2   -1    0    0  501    0  0.00000000000E+00 -0.00000000000E+00 -0.13794724116E+04  0.13794724116E+04  0.00000000000E+00 0. -1.
         23    2    1    2    0    0 -0.45353940445E+00 -0.32829981272E+02 -0.20434600195E+03  0.22677629986E+03  0.92694057512E+02 0.  0.
          5    1    1    2  502    0 -0.39236679053E+02 -0.12806097258E+02 -0.86666468841E+03  0.86765699885E+03  0.41800000000E+01 0.  1.
         -5    1    1    2    0  502  0.39690218457E+02  0.45636078530E+02 -0.29365401235E+03  0.29984682169E+03  0.41800000000E+01 0.  1.
        -11    1    3    3    0    0  0.27158792408E+02  0.21418975645E+01 -0.12771726105E+02  0.30088282070E+02  0.00000000000E+00 0.  1.
         11    1    3    3    0    0 -0.27612331812E+02 -0.34971878836E+02 -0.19157427585E+03  0.19668801779E+03  0.00000000000E+00 0. -1.
</event>
<event>
 7    1  0.6684706E-006  0.2094596E+03  0.7561462E-02  0.1141995E+00
          2   -1    0    0  501    0  0.00000000000E+00  0.00000000000E+00  0.44609199627E+03  0.44609199627E+03  0.00000000000E+00 0. -1.
         -2   -1    0    0    0  501 -0.00000000000E+00 -0.00000000000E+00 -0.12346178810E+03  0.12346178810E+03  0.00000000000E+00 0.  1.
         23    2    1    2    0    0  0.83288644398E+02 -0.16131648470E+03  0.34574608896E+02  0.20681007604E+03  0.92817010552E+02 0.  0.
          5    1    1    2  502    0  0.33044570304E+02  0.42925196357E+02  0.66301466563E+02  0.85719735051E+02  0.41800000000E+01 0. -1.
         -5    1    1    2    0  502 -0.11633321470E+03  0.11839128834E+03  0.22175413271E+03  0.27702397328E+03  0.41800000000E+01 0. -1.
        -11    1    3    3    0    0 -0.16231578793E+02 -0.21846154804E+02 -0.11252565235E+02  0.29450617212E+02  0.00000000000E+00 0.  1.
         11    1    3    3    0    0  0.99520223190E+02 -0.13947032990E+03  0.45827174131E+02  0.17735945882E+03  0.00000000000E+00 0. -1.
</event>
<event>
 7    1  0.6684706E-006  0.1412896E+03  0.7561462E-02  0.1211604E+00
          2   -1    0    0  501    0  0.00000000000E+00  0.00000000000E+00  0.19037413541E+04  0.19037413541E+04  0.00000000000E+00 0. -1.
         -2   -1    0    0    0  501 -0.00000000000E+00 -0.00000000000E+00 -0.16975857816E+02  0.16975857816E+02  0.00000000000E+00 0.  1.
         23    2    1    2    0    0 -0.38240187228E+01  0.12716627905E+03  0.53417630204E+03  0.55641134929E+03  0.89796337988E+02 0.  0.
          5    1    1    2  502    0 -0.14270242136E+02  0.84478943317E+01  0.29070985410E+02  0.33728345972E+02  0.41800000000E+01 0.  1.
         -5    1    1    2    0  502  0.18094260859E+02 -0.13561417338E+03  0.13235182089E+04  0.13305775167E+04  0.41800000000E+01 0.  1.
        -11    1    3    3    0    0  0.62232523632E+01  0.85919151554E+02  0.47956213189E+03  0.48723779391E+03  0.00000000000E+00 0.  1.
         11    1    3    3    0    0 -0.10047271086E+02  0.41247127498E+02  0.54614170149E+02  0.69173555382E+02  0.00000000000E+00 0. -1.
</event>
<event>
 7    1  0.6684706E-006  0.9733799E+02  0.7561462E-02  0.1285995E+00
         -1   -1    0    0    0  501 -0.00000000000E+00  0.00000000000E+00  0.18328354648E+02  0.18328354648E+02  0.00000000000E+00 0.  1.
          1   -1    0    0  501    0  0.00000000000E+00 -0.00000000000E+00 -0.81856228196E+03  0.81856228196E+03  0.00000000000E+00 0. -1.
         23    2    1    2    0    0 -0.28511732211E+02  0.26383988668E+02 -0.20682014577E+03  0.22919157306E+03  0.90802922481E+02 0.  0.
          5    1    1    2  502    0  0.27251659609E+02 -0.61157313107E+02 -0.16880709475E+03  0.18164849995E+03  0.41800000000E+01 0. -1.
         -5    1    1    2    0  502  0.12600726021E+01  0.34773324439E+02 -0.42460668679E+03  0.42605056360E+03  0.41800000000E+01 0. -1.
        -11    1    3    3    0    0 -0.48768324192E+02 -0.11029339420E+02 -0.15062992016E+03  0.15871158943E+03  0.00000000000E+00 0. -1.
         11    1    3    3    0    0  0.20256591981E+02  0.37413328088E+02 -0.56190225610E+02  0.70479983623E+02  0.00000000000E+00 0.  1.
</event>
<event>
 7    1  0.6684706E-006  0.1020598E+03  0.7561462E-02  0.1276023E+00
         -2   -1    0    0    0  501 -0.00000000000E+00  0.00000000000E+00  0.70793321975E+02  0.70793321975E+02  0.00000000000E+00 0.  1.
          2   -1    0    0  501    0  0.00000000000E+00 -0.00000000000E+00 -0.53379350953E+03  0.53379350953E+03  0.00000000000E+00 0. -1.
         23    2    1    2    0    0 -0.23934051640E+02 -0.32575132091E+02  0.22004958082E+02  0.10208136913E+03  0.91117559696E+02 0.  0.
          5    1    1    2  502    0 -0.50031888067E+02  0.16925636314E+02 -0.25187302267E+03  0.25738523449E+03  0.41800000000E+01 0. -1.
         -5    1    1    2    0  502  0.73965939708E+02  0.15649495777E+02 -0.23313212297E+03  0.24512022787E+03  0.41800000000E+01 0. -1.
        -11    1    3    3    0    0 -0.45857906811E+02 -0.19044035795E+02 -0.19404271433E+02  0.53311806068E+02  0.00000000000E+00 0. -1.
         11    1    3    3    0    0  0.21923855170E+02 -0.13531096297E+02  0.41409229514E+02  0.48769563064E+02  0.00000000000E+00 0.  1.
</event>
<event>
 7    1  0.6684706E-006  0.1070940E+03  0.7561462E-02  0.1266048E+00
          2   -1    0    0  501    0  0.00000000000E+00  0.00000000000E+00  0.11517922173E+04  0.11517922173E+04  0.00000000000E+00 0. -1.
         -2   -1    0    0    0  501 -0.00000000000E+00 -0.00000000000E+00 -0.16439570824E+02  0.16439570824E+02  0.00000000000E+00 0.  1.
         23    2    1    2    0    0  0.46455982177E+02  0.52793148924E+02  0.31599179788E+03  0.33639925681E+03  0.91478788811E+02 0.  0.
          5    1    1    2  502    0 -0.36456145431E+02  0.22042095512E+02  0.10369470694E+03  0.11218274895E+03  0.41800000000E+01 0. -1.
         -5    1    1    2    0  502 -0.99998367463E+01 -0.74835244436E+02  0.71566614170E+03  0.71964978241E+03  0.41800000000E+01 0. -1.
        -11    1    3    3    0    0 -0.16615178878E+02  0.82455935344E+01  0.10530756875E+02  0.21329576232E+02  0.00000000000E+00 0.  1.
         11    1    3    3    0    0  0.63071161055E+02  0.44547555390E+02  0.30546104100E+03  0.31506968058E+03  0.00000000000E+00 0. -1.
</event>
<event>
 7    1  0.6684706E-006  0.1511885E+03  0.7561462E-02  0.1199020E+00
          1   -1    0    0  501    0  0.00000000000E+00  0.00000000000E+00  0.82725035692E+03  0.82725035692E+03  0.00000000000E+00 0. -1.
         -1   -1    0    0    0  501 -0.00000000000E+00 -0.00000000000E+00 -0.31286123050E+02  0.31286123050E+02  0.00000000000E+00 0.  1.
         23    2    1    2    0    0  0.53489376739E+02  0.10514340422E+03  0.31507213236E+03  0.34896400616E+03  0.92677829760E+02 0.  0.
          5    1    1    2  502    0 -0.43749493142E+02  0.12460583651E+02  0.85673422979E+02  0.97091153562E+02  0.41800000000E+01 0. -1.
         -5    1    1    2    0  502 -0.97398835965E+01 -0.11760398787E+03  0.39521867853E+03  0.41248132025E+03  0.41800000000E+01 0.  1.
        -11    1    3    3    0    0  0.71907750849E+02  0.84007769618E+02  0.29334532644E+03  0.31349563080E+03  0.00000000000E+00 0. -1.
         11    1    3    3    0    0 -0.18418374111E+02  0.21135634601E+02  0.21726805922E+02  0.35468375356E+02  0.00000000000E+00 0.  1.
</event>
<event>
 7    1  0.6684706E-006  0.1143054E+03  0.7561462E-02  0.1252798E+00
         -2   -1    0    0    0  501 -0.00000000000E+00  0.00000000000E+00  0.42084840733E+03  0.42084840733E+03  0.00000000000E+00 0.  1.
          2   -1    0    0  501    0  0.00000000000E+00 -0.00000000000E+00 -0.47097725359E+02  0.47097725359E+02  0.00000000000E+00 0. -1.
         23    2    1    2    0    0 -0.30994738534E+02  0.82068852347E+02  0.21775212881E+03  0.24959075178E+03  0.84756022989E+02 0.  0.
          5    1    1    2  502    0  0.46702528258E+02 -0.24352570418E+02  0.17531184468E+01  0.52865108115E+02  0.41800000000E+01 0.  1.
         -5    1    1    2    0  502 -0.15707789725E+02 -0.57716281929E+02  0.15424543472E+03  0.16549027279E+03  0.41800000000E+01 0.  1.
        -11    1    3    3    0    0 -0.56276246858E+02  0.59895959712E+02  0.18597023243E+03  0.20332109900E+03  0.00000000000E+00 0. -1.
         11    1    3    3    0    0  0.25281508324E+02  0.22172892635E+02  0.31781896381E+02  0.46269652781E+02  0.00000000000E+00 0.  1.
</event>
<event>
 7    1  0.6684706E-006  0.7754870E+02  0.7561462E-02  0.1336155E+00
         -2   -1    0    0    0  501 -0.00000000000E+00  0.00000000000E+00  0.16988667628E+02  0.16988667628E+02  0.00000000000E+00 0.  1.
          2   -1    0    0  501    0  0.00000000000E+00 -0.00000000000E+00 -0.77417517850E+03  0.77417517850E+03  0.00000000000E+00 0. -1.
         23    2    1    2    0    0  0.13790813007E+02  0.60322936966E+01 -0.20225558197E+03  0.22210818327E+03  0.90543633381E+02 0.  0.
          5    1    1    2  502    0 -0.35574245721E+02 -0.35280667393E+02 -0.50274469479E+03  0.50525236564E+03  0.41800000000E+01 0.  1.
         -5    1    1    2    0  502  0.21783432714E+02  0.29248373697E+02 -0.52186234112E+02  0.63803297215E+02  0.41800000000E+01 0.  1.
        -11    1    3    3    0    0  0.10363404184E+01  0.35754712049E+02 -0.29540752645E+02  0.46391049805E+02  0.00000000000E+00 0.  1.
         11    1    3    3    0    0  0.12754472588E+02 -0.29722418352E+02 -0.17271482933E+03  0.17571713346E+03  0.00000000000E+00 0. -1.
</event>
<event>
 7    1  0.6684706E-006  0.2214910E+03  0.7561462E-02  0.1132776E+00
          1   -1    0    0  501    0  0.00000000000E+00  0.00000000000E+00  0.92021563344E+02  0.92021563344E+02  0.00000000000E+00 0. -1.
         -1   -1    0    0    0  501 -0.00000000000E+00 -0.00000000000E+00 -0.66773219244E+03  0.66773219244E+03  0.00000000000E+00 0.  1.
         23    2    1    2    0    0 -0.20405918511E+03  0.67161877630E+02 -0.19251080968E+03  0.30298248946E+03  0.92666651186E+02 0.  0.
          5    1    1    2  502    0  0.88935776587E+02 -0.65569652811E+02 -0.92807358221E+02  0.14435937748E+03  0.41800000000E+01 0. -1.
         -5    1    1    2    0  502  0.11512340852E+03 -0.15922248190E+01 -0.29039246120E+03  0.31241188884E+03  0.41800000000E+01 0. -1.
        -11    1    3    3    0    0 -0.11134261938E+03  0.53331457484E+02 -0.16345793367E+03  0.20484120515E+03  0.00000000000E+00 0.  1.
         11    1    3    3    0    0 -0.92716565729E+02  0.13830420147E+02 -0.29052876013E+02  0.98141284313E+02  0.00000000000E+00 0. -1.
</event>
<event>
 7    1  0.6684706E-006  0.1188034E+03  0.7561462E-02  0.1245084E+00
          2   -1    0    0  501    0  0.00000000000E+00  0.00000000000E+00  0.63303817485E+02  0.63303817485E+02  0.00000000000E+00 0. -1.
         -2   -1    0    0    0  501 -0.00000000000E+00 -0.00000000000E+00 -0.25734898476E+03  0.25734898476E+03  0.00000000000E+00 0.  1.
         23    2    1    2    0    0  0.11761252200E+02 -0.54706530206E+02 -0.13470899699E+03  0.17132404489E+03  0.89857014124E+02 0.  0.
          5    1    1    2  502    0 -0.51185943305E+02  0.75061069100E+02 -0.50033563932E+02  0.10380267244E+03  0.41800000000E+01 0.  1.
         -5    1    1    2    0  502  0.39424691104E+02 -0.20354538894E+02 -0.93026063503E+01  0.45526084909E+02  0.41800000000E+01 0.  1.
        -11    1    3    3    0    0  0.43532811428E+02 -0.60063783795E+01 -0.81070944598E+02  0.92215401697E+02  0.00000000000E+00 0.  1.
         11    1    3    3    0    0 -0.31771559228E+02 -0.48700151827E+02 -0.53638052396E+02  0.79108643197E+02  0.00000000000E+00 0. -1.
</event>
<event>
 7    1  0.6684706E-006  0.1243773E+03  0.7561462E-02  0.1236046E+00
          2   -1    0    0  501    0  0.00000000000E+00  0.00000000000E+00  0.73459703833E+03  0.73459703833E+03  0.00000000000E+00 0.  1.
         -2   -1    0    0    0  501 -0.00000000000E+00 -0.00000000000E+00 -0.35838808237E+02  0.35838808237E+02  0.00000000000E+00 0. -1.
         23    2    1    2    0    0 -0.11669472619E+02  0.82231132600E+02  0.11971206205E+03  0.17223761504E+03  0.91851415206E+02 0.  0.
          5    1    1    2  502    0  0.60773579544E+02 -0.69889177615E+02  0.45122240313E+03  0.46064851525E+03  0.41800000000E+01 0. -1.
         -5    1    1    2    0  502 -0.49104106925E+02 -0.12341954984E+02  0.12782376491E+03  0.13754971627E+03  0.41800000000E+01 0. -1.
        -11    1    3    3    0    0 -0.37411886311E+02  0.33927374447E+02  0.10347909004E+03  0.11514615951E+03  0.00000000000E+00 0. -1.
         11    1    3    3    0    0  0.25742413693E+02  0.48303758153E+02  0.16232972007E+02  0.57091455531E+02  0.00000000000E+00 0.  1.
</event>
<event>
 7    1  0.6684706E-006  0.1312453E+03  0.7561462E-02  0.1225620E+00
         -2   -1    0    0    0  501 -0.00000000000E+00  0.00000000000E+00  0.13695461466E+02  0.13695461466E+02  0.00000000000E+00 0.  1.
          2   -1    0    0  501    0  0.00000000000E+00 -0.00000000000E+00 -0.15455288555E+04  0.15455288555E+04  0.00000000000E+00 0. -1.
         23    2    1    2    0    0  0.77489979892E+02  0.60885119765E+01 -0.39149592986E+03  0.40941566698E+03  0.91161166678E+02 0.  0.
          5    1    1    2  502    0  0.21158974216E+02  0.30911635795E+02 -0.19504621735E+03  0.19865480292E+03  0.41800000000E+01 0. -1.
         -5    1    1    2    0  502 -0.98648954108E+02 -0.37000147772E+02 -0.94529124678E+03  0.95115384703E+03  0.41800000000E+01 0. -1.
        -11    1    3    3    0    0  0.67716882671E+02  0.43635307478E+02 -0.24721958691E+03  0.26001373119E+03  0.00000000000E+00 0.  1.
         11    1    3    3    0    0  0.97730972212E+01 -0.37546795501E+02 -0.14427634296E+03  0.14940193580E+03  0.00000000000E+00 0. -1.
</event>
<event>
 7    1  0.6684706E-006  0.1295253E+03  0.7561462E-02  0.1228162E+00
          2   -1    0    0  501    0  0.00000000000E+00  0.00000000000E+00  0.16522064371E+03  0.16522064371E+03  0.00000000000E+00 0. -1.
         -2   -1    0    0    0  501 -0.00000000000E+00 -0.00000000000E+00 -0.13910510518E+03  0.13910510518E+03  0.00000000000E+00 0.  1.
         23    2    1    2    0    0  0.49751421766E+02 -0.90665563872E+02 -0.11960260457E+02  0.13761758926E+03  0.90000581124E+02 0.  0.
          5    1    1    2  502    0 -0.68506175801E+02  0.10453199126E+03  0.38868805701E+01  0.12511040549E+03  0.41800000000E+01 0. -1.
         -5    1    1    2    0  502  0.18754754036E+02 -0.13866427391E+02  0.34188918420E+02  0.41597754149E+02  0.41800000000E+01 0. -1.
        -11    1    3    3    0    0  0.30402951873E+02 -0.84802153601E+02 -0.43589504126E+02  0.10007891690E+03  0.00000000000E+00 0.  1.
         11    1    3    3    0    0  0.19348469892E+02 -0.58634102715E+01  0.31629243670E+02  0.37538672357E+02  0.00000000000E+00 0. -1.
</event>
<event>
 7    1  0.6684706E-006  0.1083317E+03  0.7561462E-02  0.1263691E+00
          2   -1    0    0  501    0  0.00000000000E+00  0.00000000000E+00  0.19604471739E+03  0.19604471739E+03  0.00000000000E+00 0. -1.
         -2   -1    0    0    0  501 -0.00000000000E+00 -0.00000000000E+00 -0.87814329713E+02  0.87814329713E+02  0.00000000000E+00 0.  1.
         23    2    1    2    0    0 -0.53838727657E+02  0.30894117331E+02  0.42874007535E+01  0.10977300961E+03  0.90436036796E+02 0.  0.
          5    1    1    2  502    0 -0.25796400377E+02  0.98520288917E+01 -0.95511729961E+01  0.29516335330E+02  0.41800000000E+01 0. -1.
         -5    1    1    2    0  502  0.79635128034E+02 -0.40746146222E+02  0.11349415992E+03  0.14456970217E+03  0.41800000000E+01 0. -1.
        -11    1    3    3    0    0 -0.60036185305E+01  0.48006001467E+02  0.25534915097E+02  0.54705132313E+02  0.00000000000E+00 0.  1.
         11    1    3    3    0    0 -0.47835109126E+02 -0.17111884137E+02 -0.21247514343E+02  0.55067877293E+02  0.00000000000E+00 0. -1.
</event>
<event>
 7    1  0.6684706E-006  0.1392460E+03  0.7561462E-02  0.1214347E+00
         -1   -1    0    0    0  501 -0.00000000000E+00  0.00000000000E+00  0.26434207428E+02  0.26434207428E+02  0.00000000000E+00 0.  1.
          1   -1    0    0  501    0  0.00000000000E+00 -0.00000000000E+00 -0.11358169686E+04  0.11358169686E+04  0.00000000000E+00 0. -1.
         23    2    1    2    0    0 -0.48169032286E+02  0.10086737333E+03 -0.27051977519E+03  0.30678593752E+03  0.91881336606E+02 0.  0.
          5    1    1    2  502    0  0.82565231186E+02 -0.91427469328E+02 -0.74181057876E+03  0.75198165318E+03  0.41800000000E+01 0.  1.
         -5    1    1    2    0  502 -0.34396198900E+02 -0.94399039992E+01 -0.97052407201E+02  0.10348358532E+03  0.41800000000E+01 0.  1.
        -11    1    3    3    0    0 -0.34028864073E+02  0.25207980995E+02 -0.24319955922E+02  0.48835091400E+02  0.00000000000E+00 0.  1.
         11    1    3    3    0    0 -0.14140168212E+02  0.75659392332E+02 -0.24619981927E+03  0.25795084612E+03  0.00000000000E+00 0. -1.
</event>
<event>
 7    1  0.6684706E-006  0.1242897E+03  0.7561462E-02  0.1236184E+00
         -2   -1    0    0    0  501 -0.00000000000E+00  0.00000000000E+00  0.11452616119E+03  0.11452616119E+03  0.00000000000E+00 0.  1.
          2   -1    0    0  501    0  0.00000000000E+00 -0.00000000000E+00 -0.18929938602E+03  0.18929938602E+03  0.00000000000E+00 0. -1.
         23    2    1    2    0    0  0.38618507079E+02  0.55262230965E+02  0.40850138587E+02  0.12062774357E+03  0.91307258401E+02 0.  0.
          5    1    1    2  502    0  0.42328275593E+02 -0.25676312702E+02 -0.69283204027E+02  0.85256030337E+02  0.41800000000E+01 0. -1.
         -5    1    1    2    0  502 -0.80946782672E+02 -0.29585918263E+02 -0.46340159397E+02  0.97941773301E+02  0.41800000000E+01 0. -1.
        -11    1    3    3    0    0 -0.26409475445E+02  0.36269728832E+02  0.89582815359E+01  0.45751551131E+02  0.00000000000E+00 0.  1.
         11    1    3    3    0    0  0.65027982524E+02  0.18992502132E+02  0.31891857051E+02  0.74876192441E+02  0.00000000000E+00 0. -1.
</event>
<event>
 7    1  0.6684706E-006  0.1158195E+03  0.7561462E-02  0.1250157E+00
          3   -1    0    0  501    0  0.00000000000E+00  0.00000000000E+00  0.35338582532E+02  0.35338582532E+02  0.00000000000E+00 0. -1.
         -3   -1    0    0    0  501 -0.00000000000E+00 -0.00000000000E+00 -0.51492488506E+03  0.51492488506E+03  0.00000000000E+00 0.  1.
         23    2    1    2    0    0  0.66010359829E+02 -0.49069716195E+02 -0.22459297812E+03  0.25456927972E+03  0.87168272351E+02 0.  0.
          5    1    1    2  502    0  0.13280538075E+02  0.46353200134E+02 -0.29657458992E+02  0.56762920363E+02  0.41800000000E+01 0.  1.
         -5    1    1    2    0  502 -0.79290897904E+02  0.27165160609E+01 -0.22533586541E+03  0.23893126750E+03  0.41800000000E+01 0.  1.
        -11    1    3    3    0    0  0.71257211091E+02 -0.19661583298E+02 -0.88853603537E+02  0.11558170639E+03  0.00000000000E+00 0. -1.
         11    1    3    3    0    0 -0.52468512616E+01 -0.29408132897E+02 -0.13573937458E+03  0.13898757333E+03  0.00000000000E+00 0.  1.
</event>
<event>
 7    1  0.6684706E-006  0.1245329E+03  0.7561462E-02  0.1235801E+00
         -2   -1    0    0    0  501 -0.00000000000E+00  0.00000000000E+00  0.33412871580E+02  0.33412871580E+02  0.00000000000E+00 0.  1.
          2   -1    0    0  501    0  0.00000000000E+00 -0.00000000000E+00 -0.15859769402E+04  0.15859769402E+04  0.00000000000E+00 0. -1.
         23    2    1    2    0    0 -0.59523193330E+02  0.48062978451E+02 -0.11856341759E+03  0.17884226764E+03  0.10988272049E+03 0.  0.
          5    1    1    2  502    0  0.66231056117E+02 -0.68259943955E+02 -0.13626939819E+04  0.13660154954E+04  0.41800000000E+01 0. -1.
         -5    1    1    2    0  502 -0.67078627872E+01  0.20196965504E+02 -0.71306669112E+02  0.74532048802E+02  0.41800000000E+01 0.  1.
        -11    1    3    3    0    0 -0.76831399522E+02  0.70201728762E+02 -0.80731595976E+02  0.13171536457E+03  0.00000000000E+00 0.  1.
         11    1    3    3    0    0  0.17308206192E+02 -0.22138750311E+02 -0.37831821614E+02  0.47126903077E+02  0.00000000000E+00 0. -1.
</event>
<event>
 7    1  0.6684706E-006  0.1009314E+03  0.7561462E-02  0.1278349E+00
         -1   -1    0    0    0  501 -0.00000000000E+00  0.00000000000E+00  0.76200881621E+02  0.76200881621E+02  0.00000000000E+00 0.  1.
          1   -1    0    0  501    0  0.00000000000E+00 -0.00000000000E+00 -0.16545361878E+03  0.16545361878E+03  0.00000000000E+00 0. -1.
         23    2    1    2    0    0  0.79150442377E+01  0.78864191069E+01 -0.16718364625E+02  0.96598442629E+02  0.94482336291E+02 0.  0.
          5    1    1    2  502    0  0.55477138491E+02  0.83461170988E+01 -0.51293689406E+02  0.76130713504E+02  0.41800000000E+01 0.  1.
         -5    1    1    2    0  502 -0.63392182728E+02 -0.16232536206E+02 -0.21240683129E+02  0.68925344268E+02  0.41800000000E+01 0.  1.
        -11    1    3    3    0    0  0.38751487213E+02 -0.15083676123E+02 -0.34690998077E+02  0.54154043194E+02  0.00000000000E+00 0. -1.
         11    1    3    3    0    0 -0.30836442975E+02  0.22970095230E+02  0.17972633453E+02  0.42444399436E+02  0.00000000000E+00 0.  1.
</event>
<event>
 7    1  0.6684706E-006  0.9709541E+02  0.7561462E-02  0.1286525E+00
         -1   -1    0    0    0  501 -0.00000000000E+00  0.00000000000E+00  0.30195315301E+03  0.30195315301E+03  0.00000000000E+00 0.  1.
          1   -1    0    0  501    0  0.00000000000E+00 -0.00000000000E+00 -0.39643719874E+02  0.39643719874E+02  0.00000000000E+00 0. -1.
         23    2    1    2    0    0  0.15497425797E+02  0.18023089520E+02  0.14000423925E+03  0.16505530014E+03  0.84125282364E+02 0.  0.
          5    1    1    2  502    0 -0.14463275474E+02  0.53132616806E+02  0.63298427606E+02  0.84002527602E+02  0.41800000000E+01 0. -1.
         -5    1    1    2    0  502 -0.10341503238E+01 -0.71155706326E+02  0.59006766282E+02  0.92539045147E+02  0.41800000000E+01 0. -1.
        -11    1    3    3    0    0  0.23807950743E+02  0.38677054487E+02  0.33988073146E+02  0.56726732486E+02  0.00000000000E+00 0. -1.
         11    1    3    3    0    0 -0.83105249455E+01 -0.20653964967E+02  0.10601616610E+03  0.10832856765E+03  0.00000000000E+00 0.  1.
</event>
<event>
 7    1  0.6684706E-006  0.1276870E+03  0.7561462E-02  0.1230929E+00
          1   -1    0    0  501    0  0.00000000000E+00  0.00000000000E+00  0.11562881256E+03  0.11562881256E+03  0.00000000000E+00 0. -1.
         -1   -1    0    0    0  501 -0.00000000000E+00 -0.00000000000E+00 -0.18827850351E+03  0.18827850351E+03  0.00000000000E+00 0.  1.
         23    2    1    2    0    0  0.48144249618E+02 -0.65142148229E+02 -0.10098435270E+03  0.15220717752E+03  0.80048842276E+02 0.  0.
          5    1    1    2  502    0 -0.77625403694E+02  0.83465696446E+02  0.21016513324E+02  0.11598013629E+03  0.41800000000E+01 0. -1.
         -5    1    1    2    0  502  0.29481154076E+02 -0.18323548217E+02  0.73181484264E+01  0.35720002258E+02  0.41800000000E+01 0. -1.
        -11    1    3    3    0    0  0.30692649968E+02  0.75387635855E+01 -0.57815757062E+02  0.65890314031E+02  0.00000000000E+00 0.  1.
         11    1    3    3    0    0  0.17451599650E+02 -0.72680911814E+02 -0.43168595639E+02  0.86316863485E+02  0.00000000000E+00 0. -1.
</event>
<event>
 7    1  0.6684706E-006  0.1090898E+03  0.7561462E-02  0.1262265E+00
         -1   -1    0    0    0  501 -0.00000000000E+00  0.00000000000E+00  0.57605024217E+02  0.57605024217E+02  0.00000000000E+00 0.  1.
          1   -1    0    0  501    0  0.00000000000E+00 -0.00000000000E+00 -0.29080475706E+03  0.29080475706E+03  0.00000000000E+00 0. -1.
         23    2    1    2    0    0  0.17842127901E+02 -0.59524546370E+02 -0.57473873504E+02  0.12393632426E+03  0.90528742323E+02 0.  0.
          5    1    1    2  502    0 -0.53204819101E+02  0.55443921866E+02 -0.17200909321E+03  0.18843933187E+03  0.41800000000E+01 0.  1.
         -5    1    1    2    0  502  0.35362691200E+02  0.40806245033E+01 -0.37167661318E+01  0.36034125155E+02  0.41800000000E+01 0.  1.
        -11    1    3    3    0    0 -0.34034452504E+02 -0.31716282410E+02 -0.83381496974E+01  0.47263001042E+02  0.00000000000E+00 0.  1.
         11    1    3    3    0    0  0.51876580405E+02 -0.27808263960E+02 -0.49135723807E+02  0.76673323216E+02  0.00000000000E+00 0. -1.
</event>
<event>
 7    1  0.6684706E-006  0.1587083E+03  0.7561462E-02  0.1190163E+00
         -2   -1    0    0    0  501 -0.00000000000E+00  0.00000000000E+00  0.22174915552E+02  0.22174915552E+02  0.00000000000E+00 0.  1.
          2   -1    0    0  501    0  0.00000000000E+00 -0.00000000000E+00 -0.13961305595E+04  0.13961305595E+04  0.00000000000E+00 0. -1.
         23    2    1    2    0    0 -0.10054076454E+03  0.84041415613E+02 -0.47599921799E+03  0.50225685288E+03  0.92278306590E+02 0.  0.
          5    1    1    2  502    0  0.12313251546E+03 -0.93773240649E+02 -0.72908643880E+03  0.74534525199E+03  0.41800000000E+01 0. -1.
         -5    1    1    2    0  502 -0.22591750916E+02  0.97318250362E+01 -0.16886998719E+03  0.17070337022E+03  0.41800000000E+01 0. -1.
        -11    1    3    3    0    0 -0.40586898864E+02  0.61287524898E+02 -0.12151331293E+03  0.14201740135E+03  0.00000000000E+00 0. -1.
         11    1    3    3    0    0 -0.59953865675E+02  0.22753890715E+02 -0.35448590506E+03  0.36023945153E+03  0.00000000000E+00 0.  1.
</event>
<event>
 7    1  0.6684706E-006  0.9495567E+02  0.7561462E-02  0.1291276E+00
         -1   -1    0    0    0  501 -0.00000000000E+00  0.00000000000E+00  0.56404598876E+03  0.56404598876E+03  0.00000000000E+00 0.  1.
          1   -1    0    0  501    0  0.00000000000E+00 -0.00000000000E+00 -0.22881589900E+02  0.22881589900E+02  0.00000000000E+00 0. -1.
         23    2    1    2    0    0 -0.21739003726E+02 -0.32566219924E+02  0.23707066361E+03  0.25578661162E+03  0.87699191412E+02 0.  0.
          5    1    1    2  502    0  0.74068452060E+02  0.16030320877E+02  0.18377695788E+03  0.19883296866E+03  0.41800000000E+01 0. -1.
         -5    1    1    2    0  502 -0.52329448334E+02  0.16535899046E+02  0.12031677737E+03  0.13230799839E+03  0.41800000000E+01 0. -1.
        -11    1    3    3    0    0 -0.25089297099E+02 -0.42022105993E+02  0.24031117963E+03  0.24524435422E+03  0.00000000000E+00 0.  1.
         11    1    3    3    0    0  0.33502933729E+01  0.94558860690E+01 -0.32405160169E+01  0.10542257400E+02  0.00000000000E+00 0. -1.
</event>
<event>
 7    1  0.6684706E-006  0.1691222E+03  0.7561462E-02  0.1178766E+00
          1   -1    0    0  501    0  0.00000000000E+00  0.00000000000E+00  0.16686624271E+04  0.16686624271E+04  0.00000000000E+00 0. -1.
         -1   -1    0    0    0  501 -0.00000000000E+00 -0.00000000000E+00 -0.19690181781E+02  0.19690181781E+02  0.00000000000E+00 0.  1.
         23    2    1    2    0    0 -0.65273632024E+02  0.12298421532E+03  0.60040078690E+03  0.62320695495E+03  0.92304060215E+02 0.  0.
          5    1    1    2  502    0 -0.26135039034E+02 -0.38040985198E+02  0.51857765075E+03  0.52064422505E+03  0.41800000000E+01 0.  1.
         -5    1    1    2    0  502  0.91408671058E+02 -0.84943230119E+02  0.52999380770E+03  0.54450142892E+03  0.41800000000E+01 0.  1.
        -11    1    3    3    0    0  0.16002531009E+02 -0.38018557468E+01  0.59986879517E+02  0.62200971214E+02  0.00000000000E+00 0. -1.
         11    1    3    3    0    0 -0.81276163033E+02  0.12678607106E+03  0.54041390738E+03  0.56100598373E+03  0.00000000000E+00 0.  1.
</event>
<event>
 7    1  0.6684706E-006  0.2742199E+03  0.7561462E-02  0.1098888E+00
          2   -1    0    0  501    0  0.00000000000E+00  0.00000000000E+00  0.18352381425E+03  0.18352381425E+03  0.00000000000E+00 0. -1.
         -2   -1    0    0    0  501 -0.00000000000E+00 -0.00000000000E+00 -0.99633274859E+03  0.99633274859E+03  0.00000000000E+00 0.  1.
         23    2    1    2    0    0 -0.34974895059E+02  0.22754632574E+03 -0.82329333289E+03  0.85985984721E+03  0.92447126572E+02 0.  0.
          5    1    1    2  502    0  0.89198238963E+02 -0.20926089318E+02 -0.40626892003E+02  0.10031073623E+03  0.41800000000E+01 0. -1.
         -5    1    1    2    0  502 -0.54223343904E+02 -0.20662023643E+03  0.51111290562E+02  0.21968597941E+03  0.41800000000E+01 0.  1.
        -11    1    3    3    0    0  0.24383179826E+02  0.90308949651E+02 -0.23680703731E+03  0.25461307658E+03  0.00000000000E+00 0. -1.
         11    1    3    3    0    0 -0.59358074885E+02  0.13723737609E+03 -0.58648629558E+03  0.60524677063E+03  0.00000000000E+00 0.  1.
</event>
<event>
 7    1  0.6684706E-006  0.2151172E+03  0.7561462E-02  0.1137577E+00
         -2   -1    0    0    0  501 -0.00000000000E+00  0.00000000000E+00  0.13308794965E+03  0.13308794965E+03  0.00000000000E+00 0.  1.
          2   -1    0    0  501    0  0.00000000000E+00 -0.00000000000E+00 -0.40475504582E+03  0.40475504582E+03  0.00000000000E+00 0. -1.
         23    2    1    2    0    0  0.17608993522E+03 -0.10426540215E+03 -0.13775042639E+03  0.26314482897E+03  0.91602847508E+02 0.  0.
          5    1    1    2  502    0 -0.73559649996E+02  0.97605630103E+02 -0.24835883990E+02  0.12478851978E+03  0.41800000000E+01 0. -1.
         -5    1    1    2    0  502 -0.10253028522E+03  0.66597720488E+01 -0.10908078579E+03  0.14990964672E+03  0.41800000000E+01 0. -1.
        -11    1    3    3    0    0  0.90610018944E+02 -0.61675726347E+02 -0.19806939725E+02  0.11138395582E+03  0.00000000000E+00 0.  1.
         11    1    3    3    0    0  0.85479916273E+02 -0.42589675805E+02 -0.11794348666E+03  0.15176087314E+03  0.00000000000E+00 0. -1.
</event>
<event>
 7    1  0.6684706E-006  0.2324978E+03  0.7561462E-02  0.1124894E+00
          2   -1    0    0  501    0  0.00000000000E+00  0.00000000000E+00  0.11792821255E+04  0.11792821255E+04  0.00000000000E+00 0. -1.
         -2   -1    0    0    0  501 -0.00000000000E+00 -0.00000000000E+00 -0.12127073403E+03  0.12127073403E+03  0.00000000000E+00 0.  1.
         23    2    1    2    0    0 -0.47125572849E+02 -0.13928194341E+02 -0.57265557395E+02  0.11988198959E+03  0.93153277722E+02 0.  0.
          5    1    1    2  502    0  0.21282964532E+02 -0.17133091172E+03  0.75736768936E+03  0.77680791395E+03  0.41800000000E+01 0. -1.
         -5    1    1    2    0  502  0.25842608317E+02  0.18525910606E+03  0.35790925948E+03  0.40386295597E+03  0.41800000000E+01 0.  1.
        -11    1    3    3    0    0  0.27887788357E+02 -0.11440005823E+02 -0.19052048595E+02  0.35659262869E+02  0.00000000000E+00 0. -1.
         11    1    3    3    0    0 -0.75013361206E+02 -0.24881885182E+01 -0.38213508800E+02  0.84222726721E+02  0.00000000000E+00 0.  1.
</event>
<event>
 7    1  0.6684706E-006  0.1246938E+03  0.7561462E-02  0.1235549E+00
          1   -1    0    0  501    0  0.00000000000E+00  0.00000000000E+00  0.88250587460E+02  0.88250587460E+02  0.00000000000E+00 0. -1.
         -1   -1    0    0    0  501 -0.00000000000E+00 -0.00000000000E+00 -0.22916623547E+03  0.22916623547E+03  0.00000000000E+00 0.  1.
         23    2    1    2    0    0  0.87965289947E+02 -0.22066283168E+02 -0.50162058371E+02  0.13823039533E+03  0.91469104092E+02 0.  0.
          5    1    1    2  502    0 -0.10949451942E+03 -0.15826194954E+02 -0.64049153236E+02  0.12790341927E+03  0.41800000000E+01 0.  1.
         -5    1    1    2    0  502  0.21529229477E+02  0.37892478122E+02 -0.26704436400E+02  0.51283008332E+02  0.41800000000E+01 0.  1.
        -11    1    3    3    0    0  0.73087403401E+01 -0.11392002446E+02 -0.55083355185E+02  0.56721877821E+02  0.00000000000E+00 0.  1.
         11    1    3    3    0    0  0.80656549607E+02 -0.10674280722E+02  0.49212968142E+01  0.81508517505E+02  0.00000000000E+00 0. -1.
</event>
<event>
 7    1  0.6684706E-006  0.9601060E+02  0.7561462E-02  0.1288916E+00
          1   -1    0    0  501    0  0.00000000000E+00  0.00000000000E+00  0.15552043852E+03  0.15552043852E+03  0.00000000000E+00 0. -1.
         -1   -1    0    0    0  501 -0.00000000000E+00 -0.00000000000E+00 -0.92148317290E+02  0.92148317290E+02  0.00000000000E+00 0.  1.
         23    2    1    2    0    0  0.18449118562E+02 -0.33826211762E+02 -0.18713542118E+01  0.99174655714E+02  0.91364806088E+02 0.  0.
          5    1    1    2  502    0 -0.42801872385E+02 -0.36257024641E+02  0.43376523907E+02  0.71032157097E+02  0.41800000000E+01 0. -1.
         -5    1    1    2    0  502  0.24352753824E+02  0.70083236403E+02  0.21866951532E+02  0.77461942997E+02  0.41800000000E+01 0.  1.
        -11    1    3    3    0    0  0.30299450057E+02 -0.38262419925E+02 -0.37381649667E+02  0.61477289987E+02  0.00000000000E+00 0.  1.
         11    1    3    3    0    0 -0.11850331495E+02  0.44362081630E+01  0.35510295456E+02  0.37697365727E+02  0.00000000000E+00 0. -1.
</event>
<event>
 7    1  0.6684706E-006  0.1119527E+03  0.7561462E-02  0.1256996E+00
         -1   -1    0    0    0  501 -0.00000000000E+00  0.00000000000E+00  0.91507093703E+02  0.91507093703E+02  0.00000000000E+00 0.  1.
          1   -1    0    0  501    0  0.00000000000E+00 -0.00000000000E+00 -0.37648988093E+03  0.37648988093E+03  0.00000000000E+00 0. -1.
         23    2    1    2    0    0  0.44199425463E+02 -0.39644081874E+02  0.38320892825E+02  0.11629001524E+03  0.92356019722E+02 0.  0.
          5    1    1    2  502    0 -0.32362178986E+02  0.73167408563E+02 -0.29609967617E+03  0.30674626474E+03  0.41800000000E+01 0. -1.
         -5    1    1    2    0  502 -0.11837246477E+02 -0.33523326689E+02 -0.27204003885E+02  0.44960694655E+02  0.41800000000E+01 0. -1.
        -11    1    3    3    0    0  0.65507459408E+02 -0.29639221048E+01  0.33384807527E+02  0.73583676491E+02  0.00000000000E+00 0.  1.
         11    1    3    3    0    0 -0.21308033945E+02 -0.36680159769E+02  0.49360852980E+01  0.42706338749E+02  0.00000000000E+00 0. -1.
</event>
<event>
 7    1  0.6684706E-006  0.1141101E+03  0.7561462E-02  0.1253143E+00
         -1   -1    0    0    0  501 -0.00000000000E+00  0.00000000000E+00  0.25624262671E+02  0.25624262671E+02  0.00000000000E+00 0.  1.
          1   -1    0    0  501    0  0.00000000000E+00 -0.00000000000E+00 -0.79979131492E+03  0.79979131492E+03  0.00000000000E+00 0. -1.
         23    2    1    2    0    0 -0.14533728208E+01 -0.27612236352E+02 -0.14898833435E+03  0.18724599548E+03  0.10999541428E+03 0.  0.
          5    1    1    2  502    0  0.50633859502E+02  0.46598810706E+02 -0.25190100433E+03  0.26116436447E+03  0.41800000000E+01 0.  1.
         -5    1    1    2    0  502 -0.49180486681E+02 -0.18986574354E+02 -0.37327771357E+03  0.37700521764E+03  0.41800000000E+01 0.  1.
        -11    1    3    3    0    0 -0.18869718811E+02  0.35890594593E+02 -0.90517547378E+02  0.99184814622E+02  0.00000000000E+00 0.  1.
         11    1    3    3    0    0  0.17416345990E+02 -0.63502830945E+02 -0.58470786968E+02  0.88061180859E+02  0.00000000000E+00 0. -1.
</event>
<event>
 7    1  0.6684706E-006  0.9268010E+02  0.7561462E-02  0.1296488E+00
         -1   -1    0    0    0  501 -0.00000000000E+00  0.00000000000E+00  0.28575430163E+02  0.28575430163E+02  0.00000000000E+00 0.  1.
          1   -1    0    0  501    0  0.00000000000E+00 -0.00000000000E+00 -0.40070942223E+03  0.40070942223E+03  0.00000000000E+00 0. -1.
         23    2    1    2    0    0  0.95107061945E+00 -0.95039390789E+00 -0.13474810380E+03  0.16095431862E+03  0.88019505913E+02 0.  0.
          5    1    1    2  502    0 -0.29262549643E+01 -0.61861342195E+02 -0.11428140058E+03  0.13005037311E+03  0.41800000000E+01 0.  1.
         -5    1    1    2    0  502  0.19751843449E+01  0.62811736103E+02 -0.12310448768E+03  0.13828016066E+03  0.41800000000E+01 0.  1.
        -11    1    3    3    0    0 -0.25070773306E+02  0.15543578516E+02 -0.80680606743E+01  0.30581695674E+02  0.00000000000E+00 0.  1.
         11    1    3    3    0    0  0.26021843926E+02 -0.16493972424E+02 -0.12668004313E+03  0.13037262295E+03  0.00000000000E+00 0. -1.
</event>
<event>
 7    1  0.6684706E-006  0.7502198E+02  0.7561462E-02  0.1343803E+00
         -2   -1    0    0    0  501 -0.00000000000E+00  0.00000000000E+00  0.33519191847E+02  0.33519191847E+02  0.00000000000E+00 0.  1.
          2   -1    0    0  501    0  0.00000000000E+00 -0.00000000000E+00 -0.48480819930E+03  0.48480819930E+03  0.00000000000E+00 0. -1.
         23    2    1    2    0    0 -0.29054259064E+02 -0.20929413960E-01 -0.14108079117E+03  0.18258764400E+03  0.11220654035E+03 0.  0.
          5    1    1    2  502    0  0.13169099065E+02  0.14390028940E+02 -0.31309134167E+03  0.31372624808E+03  0.41800000000E+01 0. -1.
         -5    1    1    2    0  502  0.15885159999E+02 -0.14369099526E+02  0.28831253840E+01  0.22013499071E+02  0.41800000000E+01 0. -1.
        -11    1    3    3    0    0  0.38346161077E+02  0.11187585219E+02 -0.22809061827E+02  0.45998298162E+02  0.00000000000E+00 0.  1.
         11    1    3    3    0    0 -0.67400420141E+02 -0.11208514633E+02 -0.11827172934E+03  0.13658934584E+03  0.00000000000E+00 0. -1.
</event>
<event>
 7    1  0.6684706E-006  0.2144585E+03  0.7561462E-02  0.1138083E+00
          2   -1    0    0  501    0  0.00000000000E+00  0.00000000000E+00  0.12656243581E+04  0.12656243581E+04  0.00000000000E+00 0. -1.
         -2   -1    0    0    0  501 -0.00000000000E+00 -0.00000000000E+00 -0.43725939981E+02  0.43725939981E+02  0.00000000000E+00 0.  1.
         23    2    1    2    0    0  0.11816502348E+03 -0.16317732039E+03  0.44528283265E+03  0.49733459464E+03  0.92060237377E+02 0.  0.
          5    1    1    2  502    0 -0.83280054901E+02  0.32631207511E+02  0.19027129342E+03  0.21028789967E+03  0.41800000000E+01 0. -1.
         -5    1    1    2    0  502 -0.34884968580E+02  0.13054611288E+03  0.58634429207E+03  0.60172780380E+03  0.41800000000E+01 0. -1.
        -11    1    3    3    0    0  0.59377031002E+02 -0.54365888896E+02  0.88089313607E+02  0.11933569817E+03  0.00000000000E+00 0.  1.
         11    1    3    3    0    0  0.58787992479E+02 -0.10881143149E+03  0.35719351905E+03  0.37799889647E+03  0.00000000000E+00 0. -1.
</event>
<event>
 7    1  0.6684706E-006  0.1122873E+03  0.7561462E-02  0.1256392E+00
         -2   -1    0    0    0  501 -0.00000000000E+00  0.00000000000E+00  0.22290190964E+02  0.22290190964E+02  0.00000000000E+00 0. -1.
          2   -1    0    0  501    0  0.00000000000E+00 -0.00000000000E+00 -0.11386896865E+04  0.11386896865E+04  0.00000000000E+00 0.  1.
         23    2    1    2    0    0  0.56165050533E+02  0.34631544191E+02 -0.16994122541E+03  0.20401345629E+03  0.91583915064E+02 0.  0.
          5    1    1    2  502    0 -0.21612314418E+02  0.35890897235E+02 -0.60949825811E+03  0.61095077353E+03  0.41800000000E+01 0.  1.
         -5    1    1    2    0  502 -0.34552736115E+02 -0.70522441426E+02 -0.33696001205E+03  0.34601564768E+03  0.41800000000E+01 0.  1.
        -11    1    3    3    0    0  0.12243790636E+02 -0.26128611617E+02 -0.16509768372E+02  0.33244356000E+02  0.00000000000E+00 0. -1.
         11    1    3    3    0    0  0.43921259897E+02  0.60760155807E+02 -0.15343145703E+03  0.17076910029E+03  0.00000000000E+00 0.  1.
</event>
<event>
 7    1  0.6684706E-006  0.1110940E+03  0.7561462E-02  0.1258557E+00
         -2   -1    0    0    0  501 -0.00000000000E+00  0.00000000000E+00  0.25879791494E+02  0.25879791494E+02  0.00000000000E+00 0.  1.
          2   -1    0    0  501    0  0.00000000000E+00 -0.00000000000E+00 -0.59139443934E+03  0.59139443934E+03  0.00000000000E+00 0. -1.
         23    2    1    2    0    0 -0.16131707500E+02 -0.41914020759E+02 -0.15302290500E+03  0.18389948951E+03  0.91575082113E+02 0.  0.
          5    1    1    2  502    0  0.23172186131E+02 -0.35403520891E+02 -0.67848172515E+02  0.80070009462E+02  0.41800000000E+01 0.  1.
         -5    1    1    2    0  502 -0.70404786311E+01  0.77317541650E+02 -0.34464357033E+03  0.35330473187E+03  0.41800000000E+01 0.  1.
        -11    1    3    3    0    0  0.36374903060E+02 -0.32079745260E+02 -0.69288333757E+02  0.84576100781E+02  0.00000000000E+00 0. -1.
         11    1    3    3    0    0 -0.52506610560E+02 -0.98342754983E+01 -0.83734571242E+02  0.99323388727E+02  0.00000000000E+00 0.  1.
</event>
<event>
 7    1  0.6684706E-006  0.9638771E+02  0.7561462E-02  0.1288081E+00
          1   -1    0    0  501    0  0.00000000000E+00  0.00000000000E+00  0.18809031119E+03  0.18809031119E+03  0.00000000000E+00 0. -1.
         -1   -1    0    0    0  501 -0.00000000000E+00 -0.00000000000E+00 -0.10271810240E+03  0.10271810240E+03  0.00000000000E+00 0.  1.
         23    2    1    2    0    0 -0.59926943955E+02  0.42615896158E+02 -0.60362861343E+01  0.11931320388E+03  0.93764868970E+02 0.  0.
          5    1    1    2  502    0  0.63572024475E+02 -0.12537912618E+02  0.11554097027E+03  0.13253599421E+03  0.41800000000E+01 0.  1.
         -5    1    1    2    0  502 -0.36450805204E+01 -0.30077983540E+02 -0.24132475355E+02  0.38959215502E+02  0.41800000000E+01 0.  1.
        -11    1    3    3    0    0  0.48522942248E+01  0.31085185790E+02  0.30697284005E+02  0.43956305352E+02  0.00000000000E+00 0. -1.
         11    1    3    3    0    0 -0.64779238179E+02  0.11530710367E+02 -0.36733570140E+02  0.75356898529E+02  0.00000000000E+00 0.  1.
</event>
<event>
 7    1  0.6684706E-006  0.1211909E+03  0.7561462E-02  0.1241145E+00
          2   -1    0    0  501    0  0.00000000000E+00  0.00000000000E+00  0.17970704174E+03  0.17970704174E+03  0.00000000000E+00 0. -1.
         -2   -1    0    0    0  501 -0.00000000000E+00 -0.00000000000E+00 -0.10549902019E+03  0.10549902019E+03  0.00000000000E+00 0.  1.
         23    2    1    2    0    0  0.49392741966E+02  0.77371716492E+01 -0.20713675953E+02  0.12040964472E+03  0.10756355975E+03 0.  0.
          5    1    1    2  502    0 -0.69386049585E+02  0.41153762373E+02  0.47642935065E+02  0.93783674998E+02  0.41800000000E+01 0. -1.
         -5    1    1    2    0  502  0.19993307619E+02 -0.48890934023E+02  0.47278762440E+02  0.71012742216E+02  0.41800000000E+01 0. -1.
        -11    1    3    3    0    0 -0.13359493641E+01  0.45408673484E+02 -0.32858962522E+02  0.56066423163E+02  0.00000000000E+00 0.  1.
         11    1    3    3    0    0  0.50728691330E+02 -0.37671501834E+02  0.12145286569E+02  0.64343221557E+02  0.00000000000E+00 0. -1.
</event>
<event>
 7    1  0.6684706E-006  0.1434416E+03  0.7561462E-02  0.1208772E+00
          2   -1    0    0  501    0  0.00000000000E+00  0.00000000000E+00  0.17346430599E+04  0.17346430599E+04  0.00000000000E+00 0.  1.
         -2   -1    0    0    0  501 -0.00000000000E+00 -0.00000000000E+00 -0.25420268829E+02  0.25420268829E+02  0.00000000000E+00 0. -1.
         23    2    1    2    0    0 -0.48022251567E+02  0.96879855523E+02  0.19558107220E+03  0.23741728669E+03  0.80144676443E+02 0.  0.
          5    1    1    2  502    0 -0.21862512007E+02 -0.77150845595E+02  0.50086139195E+03  0.50725716234E+03  0.41800000000E+01 0. -1.
         -5    1    1    2    0  502  0.69884763573E+02 -0.19729009928E+02  0.10127803270E+04  0.10153888797E+04  0.41800000000E+01 0. -1.
        -11    1    3    3    0    0  0.21718907217E+02  0.31447833848E+02  0.45042761167E+02  0.59072222897E+02  0.00000000000E+00 0. -1.
         11    1    3    3    0    0 -0.69741158783E+02  0.65432021675E+02  0.15053831104E+03  0.17834506379E+03  0.00000000000E+00 0.  1.
</event>
<event>
 6    1  0.6684706E-006  0.3474011E+02  0.7561462E-02  0.1550921E+00
         -1   -1    0    0    0  501 -0.00000000000E+00  0.00000000000E+00  0.72961485673E+02  0.72961485673E+02  0.00000000000E+00 0.  1.
          1   -1    0    0  501    0  0.00000000000E+00 -0.00000000000E+00 -0.12995881455E+03  0.12995881455E+03  0.00000000000E+00 0. -1.
          5    1    1    2  502    0 -0.14953023515E+01 -0.20060662504E+02  0.39339987587E+02  0.44382126274E+02  0.41800000000E+01 0.  1.
         -5    1    1    2    0  502 -0.39333183770E+01 -0.11490412189E+02 -0.95426689844E+02  0.96287206317E+02  0.41800000000E+01 0.  1.
        -11    1    1    2    0    0  0.11474660637E+02  0.20870325365E+02 -0.25423842116E+02  0.34836906658E+02  0.00000000000E+00 0. -1.
         11    1    1    2    0    0 -0.60460399083E+01  0.10680749327E+02  0.24513215500E+02  0.27414060971E+02  0.00000000000E+00 0.  1.
</event>
<event>
 7    1  0.6684706E-006  0.3992455E+03  0.7561462E-02  0.1044041E+00
          2   -1    0    0  501    0  0.00000000000E+00  0.00000000000E+00  0.19556748916E+04  0.19556748916E+04  0.00000000000E+00 0. -1.
         -2   -1    0    0    0  501 -0.00000000000E+00 -0.00000000000E+00 -0.98374561281E+02  0.98374561281E+02  0.00000000000E+00 0.  1.
         23    2    1    2    0    0 -0.24929311145E+03  0.31070816819E+03  0.57456112091E+03  0.70506689996E+03  0.91171435002E+02 0.  0.
          5    1    1    2  502    0  0.12803520572E+03 -0.14368134442E+03  0.42197202228E+03  0.46380513432E+03  0.41800000000E+01 0. -1.
         -5    1    1    2    0  502  0.12125790573E+03 -0.16702682377E+03  0.86076718718E+03  0.88517741865E+03  0.41800000000E+01 0. -1.
        -11    1    3    3    0    0 -0.35637656392E+02  0.28758827459E+02  0.12424866908E+03  0.13241919981E+03  0.00000000000E+00 0. -1.
         11    1    3    3    0    0 -0.21365545506E+03  0.28194934073E+03  0.45031245183E+03  0.57264770015E+03  0.00000000000E+00 0.  1.
</event>
<event>
 7    1  0.6684706E-006  0.1225580E+03  0.7561462E-02  0.1238936E+00
          2   -1    0    0  501    0  0.00000000000E+00  0.00000000000E+00  0.12874292178E+04  0.12874292178E+04  0.00000000000E+00 0. -1.
         -2   -1    0    0    0  501 -0.00000000000E+00 -0.00000000000E+00 -0.18104611547E+02  0.18104611547E+02  0.00000000000E+00 0.  1.
         23    2    1    2    0    0 -0.60716775942E+02 -0.58956725946E+02  0.22021427193E+03  0.24560805053E+03  0.68312272000E+02 0.  0.
          5    1    1    2  502    0  0.54801797774E+02 -0.29430776973E+02  0.43058174055E+03  0.43507185081E+03  0.41800000000E+01 0.  1.
         -5    1    1    2    0  502  0.59149781682E+01  0.88387502919E+02  0.61852859381E+03  0.62485392805E+03  0.41800000000E+01 0.  1.
        -11    1    3    3    0    0 -0.46409877080E+02 -0.16452501939E+02  0.17550589755E+03  0.18228242259E+03  0.00000000000E+00 0. -1.
         11    1    3    3    0    0 -0.14306898862E+02 -0.42504224007E+02  0.44708374379E+02  0.63325627933E+02  0.00000000000E+00 0.  1.
</event>
<event>
 7    1  0.6684706E-006  0.1622689E+03  0.7561462E-02  0.1186159E+00
         -2   -1    0    0    0  501 -0.00000000000E+00  0.00000000000E+00  0.52715065613E+02  0.52715065613E+02  0.00000000000E+00 0.  1.
          2   -1    0    0  501    0  0.00000000000E+00 -0.00000000000E+00 -0.55341178623E+03  0.55341178623E+03  0.00000000000E+00 0. -1.
         23    2    1    2    0    0  0.11407924951E+03 -0.59361313865E+02 -0.18026474234E+03  0.23889186440E+03  0.89644323823E+02 0.  0.
          5    1    1    2  502    0 -0.16803891060E+02  0.69368389695E+02 -0.78105763180E+02  0.10588827549E+03  0.41800000000E+01 0. -1.
         -5    1    1    2    0  502 -0.97275358446E+02 -0.10007075830E+02 -0.24232621510E+03  0.26134671196E+03  0.41800000000E+01 0. -1.
        -11    1    3    3    0    0  0.51475020484E+02 -0.74689407316E+02 -0.12184640593E+03  0.15190369297E+03  0.00000000000E+00 0.  1.
         11    1    3    3    0    0  0.62604229022E+02  0.15328093451E+02 -0.58418336412E+02  0.86988171434E+02  0.00000000000E+00 0. -1.
</event>
<event>
 7    1  0.6684706E-006  0.1844045E+03  0.7561462E-02  0.1163607E+00
         -1   -1    0    0    0  501 -0.00000000000E+00  0.00000000000E+00  0.49194943178E+02  0.49194943178E+02  0.00000000000E+00 0.  1.
          1   -1    0    0  501    0  0.00000000000E+00 -0.00000000000E+00 -0.72342516555E+03  0.72342516555E+03  0.00000000000E+00 0. -1.
         23    2    1    2    0    0 -0.36319428302E+02 -0.14897863611E+03 -0.29340355598E+03  0.34345205037E+03  0.91432649271E+02 0.  0.
          5    1    1    2  502    0 -0.26647280103E+02  0.12778876969E+03 -0.26896230123E+03  0.29899538304E+03  0.41800000000E+01 0.  1.
         -5    1    1    2    0  502  0.62966708405E+02  0.21189866424E+02 -0.11186436516E+03  0.13017267532E+03  0.41800000000E+01 0.  1.
        -11    1    3    3    0    0  0.12190760983E+02 -0.10638366975E+03 -0.13438947510E+03  0.17183314832E+03  0.00000000000E+00 0.  1.
         11    1    3    3    0    0 -0.48510189285E+02 -0.42594966358E+02 -0.15901408088E+03  0.17161890205E+03  0.00000000000E+00 0. -1.
</event>
<event>
 7    1  0.6684706E-006  0.1000378E+03  0.7561462E-02  0.1280216E+00
          1   -1    0    0  501    0  0.00000000000E+00  0.00000000000E+00  0.21094115072E+02  0.21094115072E+02  0.00000000000E+00 0. -1.
         -1   -1    0    0    0  501 -0.00000000000E+00 -0.00000000000E+00 -0.58892050674E+03  0.58892050674E+03  0.00000000000E+00 0.  1.
         23    2    1    2    0    0  0.14067908450E+02 -0.21995530396E+02 -0.23922475060E+03  0.25745296535E+03  0.91497752231E+02 0.  0.
          5    1    1    2  502    0  0.22686060349E+01  0.73297647204E+02 -0.20115375571E+03  0.21414480497E+03  0.41800000000E+01 0.  1.
         -5    1    1    2    0  502 -0.16336514485E+02 -0.51302116808E+02 -0.12744788536E+03  0.13841685150E+03  0.41800000000E+01 0.  1.
        -11    1    3    3    0    0  0.38813969212E+02  0.10191298294E+01 -0.41384352427E+02  0.56747048006E+02  0.00000000000E+00 0.  1.
         11    1    3    3    0    0 -0.24746060762E+02 -0.23014660225E+02 -0.19784039817E+03  0.20070591734E+03  0.00000000000E+00 0. -1.
</event>
<event>
 7    1  0.6684706E-006  0.1552300E+03  0.7561462E-02  0.1194190E+00
         -1   -1    0    0    0  501 -0.00000000000E+00  0.00000000000E+00  0.59760744935E+02  0.59760744935E+02  0.00000000000E+00 0.  1.
          1   -1    0    0  501    0  0.00000000000E+00 -0.00000000000E+00 -0.74164797919E+03  0.74164797919E+03  0.00000000000E+00 0. -1.
         23    2    1    2    0    0 -0.14903303705E+03  0.27764566075E+02 -0.13218565947E+03  0.21762747388E+03  0.83108071562E+02 0.  0.
          5    1    1    2  502    0  0.71723977891E+02 -0.27444575395E+02 -0.93549639342E+02  0.12110549593E+03  0.41800000000E+01 0.  1.
         -5    1    1    2    0  502  0.77309059154E+02 -0.31999068087E+00 -0.45615193545E+03  0.46267575432E+03  0.41800000000E+01 0.  1.
        -11    1    3    3    0    0 -0.72274130722E+02 -0.54754503851E+01 -0.10887180507E+03  0.13079220339E+03  0.00000000000E+00 0. -1.
         11    1    3    3    0    0 -0.76758906324E+02  0.33240016461E+02 -0.23313854397E+02  0.86835270490E+02  0.00000000000E+00 0.  1.
</event>
<event>
 7    1  0.6684706E-006  0.1037325E+03  0.7561462E-02  0.1272637E+00
          1   -1    0    0  501    0  0.00000000000E+00  0.00000000000E+00  0.10194039678E+04  0.10194039678E+04  0.00000000000E+00 0. -1.
         -1   -1    0    0    0  501 -0.00000000000E+00 -0.00000000000E+00 -0.15303034589E+02  0.15303034589E+02  0.00000000000E+00 0.  1.
         23    2    1    2    0    0  0.25552057337E+02 -0.44074203401E+02  0.24680090320E+03  0.26545271701E+03  0.83420717509E+02 0.  0.
          5    1    1    2  502    0  0.27561623674E+02 -0.30200606823E+02  0.30978003536E+03  0.31249457989E+03  0.41800000000E+01 0.  1.
         -5    1    1    2    0  502 -0.53113681011E+02  0.74274810225E+02  0.44751999466E+03  0.45675970550E+03  0.41800000000E+01 0.  1.
        -11    1    3    3    0    0  0.78006191185E+01 -0.54040254882E+02  0.23633915202E+03  0.24256420507E+03  0.00000000000E+00 0. -1.
         11    1    3    3    0    0  0.17751438218E+02  0.99660514801E+01  0.10461751177E+02  0.22888511935E+02  0.00000000000E+00 0.  1.
</event>
<event>
 7    1  0.6684706E-006  0.1118905E+03  0.7561462E-02  0.1257109E+00
          1   -1    0    0  501    0  0.00000000000E+00  0.00000000000E+00  0.15012869542E+04  0.15012869542E+04  0.00000000000E+00 0. -1.
         -1   -1    0    0    0  501 -0.00000000000E+00 -0.00000000000E+00 -0.12422873976E+02  0.12422873976E+02  0.00000000000E+00 0.  1.
         23    2    1    2    0    0 -0.24081733574E+02 -0.55221516496E+02  0.36233880708E+03  0.37866122823E+03  0.92008526089E+02 0.  0.
          5    1    1    2  502    0  0.37154724488E+01  0.80826420251E+02  0.10271996304E+04  0.10303898622E+04  0.41800000000E+01 0.  1.
         -5    1    1    2    0  502  0.20366261125E+02 -0.25604903755E+02  0.99325642759E+02  0.10465873780E+03  0.41800000000E+01 0.  1.
        -11    1    3    3    0    0 -0.35310828786E+02  0.15217262257E+02  0.13795460881E+03  0.14321275708E+03  0.00000000000E+00 0. -1.
         11    1    3    3    0    0  0.11229095212E+02 -0.70438778753E+02  0.22438419828E+03  0.23544847115E+03  0.00000000000E+00 0.  1.
</event>
<event>
 7    1  0.6684706E-006  0.1689212E+03  0.7561462E-02  0.1178978E+00
          1   -1    0    0  501    0  0.00000000000E+00  0.00000000000E+00  0.45406743877E+03  0.45406743877E+03  0.00000000000E+00 0. -1.
         -1   -1    0    0    0  501 -0.00000000000E+00 -0.00000000000E+00 -0.73028029800E+02  0.73028029800E+02  0.00000000000E+00 0.  1.
         23    2    1    2    0    0 -0.37821808502E+02 -0.14081594849E+03  0.18956251214E+03  0.25585394178E+03  0.90926745049E+02 0.  0.
          5    1    1    2  502    0 -0.12920454154E+02  0.13889119723E+03  0.12396592095E+03  0.18666206031E+03  0.41800000000E+01 0. -1.
         -5    1    1    2    0  502  0.50742262656E+02  0.19247512589E+01  0.67510975874E+02  0.84579466481E+02  0.41800000000E+01 0. -1.
        -11    1    3    3    0    0 -0.38366430298E+02 -0.10966461193E+03  0.77788829801E+02  0.13981921229E+03  0.00000000000E+00 0.  1.
         11    1    3    3    0    0  0.54462179606E+00 -0.31151336555E+02  0.11177368234E+03  0.11603472949E+03  0.00000000000E+00 0. -1.
</event>
<event>
 7    1  0.6684706E-006  0.1264700E+03  0.7561462E-02  0.1232790E+00
         -2   -1    0    0    0  501 -0.00000000000E+00  0.00000000000E+00  0.60835770096E+02  0.60835770096E+02  0.00000000000E+00 0.  1.
          2   -1    0    0  501    0  0.00000000000E+00 -0.00000000000E+00 -0.46117764852E+03  0.46117764852E+03  0.00000000000E+00 0. -1.
         23    2    1    2    0    0  0.68325978664E+02 -0.91018394606E+02 -0.95726596864E+02  0.17360233245E+03  0.89562274244E+02 0.  0.
          5    1    1    2  502    0 -0.33775455467E+02  0.58291584331E+02 -0.37820378260E+02  0.77372757528E+02  0.41800000000E+01 0. -1.
         -5    1    1    2    0  502 -0.34550523197E+02  0.32726810275E+02 -0.26679490330E+03  0.27103832864E+03  0.41800000000E+01 0. -1.
        -11    1    3    3    0    0 -0.46192717723E+01 -0.56987953752E+02 -0.13939662115E+02  0.58849628074E+02  0.00000000000E+00 0.  1.
         11    1    3    3    0    0  0.72945250436E+02 -0.34030440854E+02 -0.81786934749E+02  0.11475270438E+03  0.00000000000E+00 0. -1.
</event>
<event>
 7    1  0.6684706E-006  0.1333567E+03  0.7561462E-02  0.1222558E+00
          1   -1    0    0  501    0  0.00000000000E+00  0.00000000000E+00  0.70960498323E+03  0.70960498323E+03  0.00000000000E+00 0. -1.
         -1   -1    0    0    0  501 -0.00000000000E+00 -0.00000000000E+00 -0.51010110416E+02  0.51010110416E+02  0.00000000000E+00 0.  1.
         23    2    1    2    0    0  0.46539602866E+02  0.20180707673E+02  0.36033862186E+02  0.11226508521E+03  0.93444178717E+02 0.  0.
          5    1    1    2  502    0  0.23181093101E+02  0.61686224975E+02  0.15344289997E+03  0.16704714718E+03  0.41800000000E+01 0. -1.
         -5    1    1    2    0  502 -0.69720695967E+02 -0.81866932648E+02  0.46911811067E+03  0.48130286126E+03  0.41800000000E+01 0.  1.
        -11    1    3    3    0    0 -0.10110913017E+02 -0.20815539050E+02  0.35449624031E+02  0.42334301363E+02  0.00000000000E+00 0.  1.
         11    1    3    3    0    0  0.56650515883E+02  0.40996246723E+02  0.58423815518E+00  0.69930783847E+02  0.00000000000E+00 0. -1.
</event>
<event>
 7    1  0.6684706E-006  0.1134020E+03  0.7561462E-02  0.1254397E+00
          2   -1    0    0  501    0  0.00000000000E+00  0.00000000000E+00  0.14672323575E+04  0.14672323575E+04  0.00000000000E+00 0. -1.
         -2   -1    0    0    0  501 -0.00000000000E+00 -0.00000000000E+00 -0.96554917389E+01  0.96554917389E+01  0.00000000000E+00 0.  1.
         23    2    1    2    0    0  0.45906146214E+02  0.42923209708E+01  0.54650545699E+03  0.55611490043E+03  0.92031351592E+02 0.  0.
          5    1    1    2  502    0 -0.72062714837E+02 -0.37552822643E+02  0.41626236246E+03  0.42414039676E+03  0.41800000000E+01 0. -1.
         -5    1    1    2    0  502  0.26156568623E+02  0.33260501672E+02  0.49480904627E+03  0.49663255202E+03  0.41800000000E+01 0. -1.
        -11    1    3    3    0    0  0.55442919671E+02  0.38438128050E+02  0.35326498941E+03  0.35964921767E+03  0.00000000000E+00 0.  1.
         11    1    3    3    0    0 -0.95367734572E+01 -0.34145807079E+02  0.19324046758E+03  0.19646568276E+03  0.00000000000E+00 0. -1.
</event>
<event>
 7    1  0.6684706E-006  0.1272197E+03  0.7561462E-02  0.1231640E+00
         -1   -1    0    0    0  501 -0.00000000000E+00  0.00000000000E+00  0.22192298661E+02  0.22192298661E+02  0.00000000000E+00 0.  1.
          1   -1    0    0  501    0  0.00000000000E+00 -0.00000000000E+00 -0.10219244663E+04  0.10219244663E+04  0.00000000000E+00 0. -1.
         23    2    1    2    0    0  0.64808474463E+02  0.71681558932E+02 -0.32436455237E+03  0.35049793354E+03  0.91093656875E+02 0.  0.
          5    1    1    2  502    0 -0.42930818623E+02 -0.10232348745E+03 -0.38189726939E+03  0.39771365081E+03  0.41800000000E+01 0.  1.
         -5    1    1    2    0  502 -0.21877655840E+02  0.30641928515E+02 -0.29347034586E+03  0.29590518061E+03  0.41800000000E+01 0.  1.
        -11    1    3    3    0    0  0.21350196840E+02  0.54940352214E+02 -0.68231799619E+02  0.90165690180E+02  0.00000000000E+00 0.  1.
         11    1    3    3    0    0  0.43458277623E+02  0.16741206718E+02 -0.25613275276E+03  0.26033224336E+03  0.00000000000E+00 0. -1.
</event>
<event>
 7    1  0.6684706E-006  0.1099539E+03  0.7561462E-02  0.1260655E+00
         -2   -1    0    0    0  501 -0.00000000000E+00  0.00000000000E+00  0.76722439767E+02  0.76722439767E+02  0.00000000000E+00 0.  1.
          2   -1    0    0  501    0  0.00000000000E+00 -0.00000000000E+00 -0.22797493051E+03  0.22797493051E+03  0.00000000000E+00 0. -1.
         23    2    1    2    0    0  0.52905488788E+02 -0.20023265494E+02 -0.10564166966E+02  0.10812515254E+03  0.91539745919E+02 0.  0.
          5    1    1    2  502    0  0.31466847388E+02 -0.19851960471E+02 -0.15858737194E+02  0.40659989725E+02  0.41800000000E+01 0. -1.
         -5    1    1    2    0  502 -0.84372336176E+02  0.39875225965E+02 -0.12482958658E+03  0.15591222801E+03  0.41800000000E+01 0. -1.
        -11    1    3    3    0    0  0.65597393816E+02 -0.30739810966E+02  0.18393507275E+02  0.74741388558E+02  0.00000000000E+00 0.  1.
         11    1    3    3    0    0 -0.12691905028E+02  0.10716545472E+02 -0.28957674241E+02  0.33383763981E+02  0.00000000000E+00 0. -1.
</event>
<event>
 7    1  0.6684706E-006  0.6733132E+02  0.7561462E-02  0.1369411E+00
          2   -1    0    0  501    0  0.00000000000E+00  0.00000000000E+00  0.75878014557E+02  0.75878014557E+02  0.00000000000E+00 0. -1.
         -2   -1    0    0    0  501 -0.00000000000E+00 -0.00000000000E+00 -0.16674309206E+03  0.16674309206E+03  0.00000000000E+00 0.  1.
         23    2    1    2    0    0 -0.29256318092E+02 -0.75293147173E+01 -0.28588381131E+02  0.99656629964E+02  0.90562274881E+02 0.  0.
          5    1    1    2  502    0 -0.20337609894E+02 -0.34447694591E+00  0.30786679753E+02  0.37135280944E+02  0.41800000000E+01 0. -1.
         -5    1    1    2    0  502  0.49593927987E+02  0.78737916632E+01 -0.93063376126E+02  0.10582919571E+03  0.41800000000E+01 0. -1.
        -11    1    3    3    0    0 -0.21182579868E+02 -0.31643154537E+02 -0.52429778087E+02  0.64798707929E+02  0.00000000000E+00 0.  1.
         11    1    3    3    0    0 -0.80737382241E+01  0.24113839820E+02  0.23841396957E+02  0.34857922035E+02  0.00000000000E+00 0. -1.
</event>
<event>
 7    1  0.6684706E-006  0.1066685E+03  0.7561462E-02  0.1266867E+00
         -1   -1    0    0    0  501 -0.00000000000E+00  0.00000000000E+00  0.98545143889E+02  0.98545143889E+02  0.00000000000E+00 0.  1.
          1   -1    0    0  501    0  0.00000000000E+00 -0.00000000000E+00 -0.19086019071E+03  0.19086019071E+03  0.00000000000E+00 0. -1.
         23    2    1    2    0    0 -0.62212557441E+02  0.38778032538E+02  0.12971200506E+01  0.11682363548E+03  0.90950212615E+02 0.  0.
          5    1    1    2  502    0  0.54677586714E+02  0.26577380560E+02 -0.87153961178E+02  0.10634510330E+03  0.41800000000E+01 0.  1.
         -5    1    1    2    0  502  0.75349707268E+01 -0.65355413098E+02 -0.64582056891E+01  0.66236595820E+02  0.41800000000E+01 0.  1.
        -11    1    3    3    0    0 -0.56694231365E+01  0.28437125581E+02  0.38615897051E+02  0.48290785613E+02  0.00000000000E+00 0.  1.
         11    1    3    3    0    0 -0.56543134305E+02  0.10340906957E+02 -0.37318777001E+02  0.68532849864E+02  0.00000000000E+00 0. -1.
</event>
<event>
 7    1  0.7423276E-006  0.3557446E+03  0.7561462E-02  0.1060282E+00
         -2   -1    0    0    0  501 -0.00000000000E+00  0.00000000000E+00  0.16643758665E+03  0.16643758665E+03  0.00000000000E+00 0.  1.
          2   -1    0    0  501    0  0.00000000000E+00 -0.00000000000E+00 -0.95941381203E+03  0.95941381203E+03  0.00000000000E+00 0. -1.
         23    2    1    2    0    0  0.25879503050E+03 -0.24141287122E+03 -0.17938391820E+03  0.40654697765E+03  0.88582237087E+02 0.  0.
          5    1    1    2  502    0 -0.13611690491E+02  0.83801015432E+01  0.22432704015E+01  0.16673598352E+02  0.41800000000E+01 0.  1.
         -5    1    1    2    0  502 -0.24518334000E+03  0.23303276967E+03 -0.61583557759E+03  0.70263082268E+03  0.41800000000E+01 0.  1.
        -11    1    3    3    0    0  0.19969623262E+03 -0.15896874907E+03 -0.16540035077E+03  0.30414951017E+03  0.00000000000E+00 0. -1.
         11    1    3    3    0    0  0.59098797874E+02 -0.82444122151E+02 -0.13983567428E+02  0.10239746748E+03  0.00000000000E+00 0.  1.
</event>
<event>
 7    1  0.6684706E-006  0.1146661E+03  0.7561462E-02  0.1252165E+00
         -1   -1    0    0    0  501 -0.00000000000E+00  0.00000000000E+00  0.62298114100E+02  0.62298114100E+02  0.00000000000E+00 0.  1.
          1   -1    0    0  501    0  0.00000000000E+00 -0.00000000000E+00 -0.37748525204E+03  0.37748525204E+03  0.00000000000E+00 0. -1.
         23    2    1    2    0    0 -0.80598076034E+02  0.73799129517E+02 -0.10004948946E+03  0.16798453894E+03  0.79161503289E+02 0.  0.
          5    1    1    2  502    0 -0.30715301469E+01 -0.19442157056E+02 -0.15270561839E+03  0.15402567986E+03  0.41800000000E+01 0.  1.
         -5    1    1    2    0  502  0.83669606181E+02 -0.54356972461E+02 -0.62432030090E+02  0.11777314734E+03  0.41800000000E+01 0.  1.
        -11    1    3    3    0    0 -0.25341704345E+02  0.20857734689E+02  0.96683541096E+01  0.34215846426E+02  0.00000000000E+00 0.  1.
         11    1    3    3    0    0 -0.55256371690E+02  0.52941394829E+02 -0.10971784357E+03  0.13376869251E+03  0.00000000000E+00 0. -1.
</event>
<event>
 7    1  0.6684706E-006  0.1278134E+03  0.7561462E-02  0.1230737E+00
          1   -1    0    0  501    0  0.00000000000E+00  0.00000000000E+00  0.24605904290E+03  0.24605904290E+03  0.00000000000E+00 0. -1.
         -1   -1    0    0    0  501 -0.00000000000E+00 -0.00000000000E+00 -0.99281008736E+02  0.99281008736E+02  0.00000000000E+00 0.  1.
         23    2    1    2    0    0  0.32167933469E+02  0.99554877718E+02  0.24736808650E+02  0.14165492186E+03  0.92240216623E+02 0.  0.
          5    1    1    2  502    0  0.27698877825E+02 -0.80094079976E+02  0.25944143161E+02  0.88729140897E+02  0.41800000000E+01 0. -1.
         -5    1    1    2    0  502 -0.59866811294E+02 -0.19460797742E+02  0.96097082352E+02  0.11495598888E+03  0.41800000000E+01 0. -1.
        -11    1    3    3    0    0  0.17794301170E+02  0.19693639450E+02 -0.32791146097E+02  0.42186915641E+02  0.00000000000E+00 0.  1.
         11    1    3    3    0    0  0.14373632299E+02  0.79861238268E+02  0.57527954746E+02  0.99468006215E+02  0.00000000000E+00 0. -1.
</event>
<event>
 7    1  0.6684706E-006  0.1086201E+03  0.7561462E-02  0.1263147E+00
          2   -1    0    0  501    0  0.00000000000E+00  0.00000000000E+00  0.74161687356E+03  0.74161687356E+03  0.00000000000E+00 0. -1.
         -2   -1    0    0    0  501 -0.00000000000E+00 -0.00000000000E+00 -0.57865376329E+02  0.57865376329E+02  0.00000000000E+00 0.  1.
         23    2    1    2    0    0 -0.49985426440E+02 -0.86402076611E+00 -0.20137183236E+02  0.82048011790E+02  0.61863403574E+02 0.  0.
          5    1    1    2  502    0  0.18117748335E+02 -0.63565902362E+02  0.36843664655E+03  0.37434197156E+03  0.41800000000E+01 0. -1.
         -5    1    1    2    0  502  0.31867678106E+02  0.64429923128E+02  0.33545203391E+03  0.34309226654E+03  0.41800000000E+01 0.  1.
        -11    1    3    3    0    0  0.69223794888E+01  0.17816166704E+02 -0.88344264829E+00  0.19134147609E+02  0.00000000000E+00 0. -1.
         11    1    3    3    0    0 -0.56907805929E+02 -0.18680187470E+02 -0.19253740587E+02  0.62913864181E+02  0.00000000000E+00 0.  1.
</event>
<event>
 7    1  0.6684706E-006  0.1207979E+03  0.7561462E-02  0.1241787E+00
         -3   -1    0    0    0  501 -0.00000000000E+00  0.00000000000E+00  0.23739623452E+03  0.23739623452E+03  0.00000000000E+00 0.  1.
          3   -1    0    0  501    0  0.00000000000E+00 -0.00000000000E+00 -0.82338262210E+02  0.82338262210E+02  0.00000000000E+00 0. -1.
         23    2    1    2    0    0 -0.69155975696E+02 -0.15675657191E+02  0.13091609191E+03  0.17392863926E+03  0.89910362188E+02 0.  0.
          5    1    1    2  502    0  0.98061713336E+02  0.33279863076E+02  0.35980969720E+02  0.10970757262E+03  0.41800000000E+01 0.  1.
         -5    1    1    2    0  502 -0.28905737640E+02 -0.17604205885E+02 -0.11839089322E+02  0.36098284853E+02  0.41800000000E+01 0.  1.
        -11    1    3    3    0    0 -0.41195055954E+02  0.29540341381E+02  0.27555189515E+02  0.57697078549E+02  0.00000000000E+00 0.  1.
         11    1    3    3    0    0 -0.27960919743E+02 -0.45215998572E+02  0.10336090240E+03  0.11623156071E+03  0.00000000000E+00 0. -1.
</event>
<event>
 7    1  0.6684706E-006  0.1441704E+03  0.7561462E-02  0.1207825E+00
         -2   -1    0    0    0  501 -0.00000000000E+00  0.00000000000E+00  0.33062525705E+02  0.33062525705E+02  0.00000000000E+00 0.  1.
          2   -1    0    0  501    0  0.00000000000E+00 -0.00000000000E+00 -0.88647598962E+03  0.88647598962E+03  0.00000000000E+00 0. -1.
         23    2    1    2    0    0  0.72328826119E+01  0.11322861407E+03 -0.22300469748E+03  0.26690168993E+03  0.92910620245E+02 0.  0.
          5    1    1    2  502    0 -0.55613481869E+02 -0.10413924773E+03 -0.47995043180E+03  0.49427495553E+03  0.41800000000E+01 0.  1.
         -5    1    1    2    0  502  0.48380599257E+02 -0.90893663448E+01 -0.15045833463E+03  0.15836186986E+03  0.41800000000E+01 0.  1.
        -11    1    3    3    0    0  0.15170084131E+02  0.12208430075E+02  0.25421839474E+01  0.19637716687E+02  0.00000000000E+00 0.  1.
         11    1    3    3    0    0 -0.79372015195E+01  0.10102018400E+03 -0.22554688143E+03  0.24726397325E+03  0.00000000000E+00 0. -1.
</event>
<event>
 7    1  0.7077902E-006  0.9587800E+02  0.7561462E-02  0.1289211E+00
          2   -1    0    0  501    0  0.00000000000E+00  0.00000000000E+00  0.28651127120E+03  0.28651127120E+03  0.00000000000E+00 0.  1.
         -2   -1    0    0    0  501 -0.00000000000E+00 -0.00000000000E+00 -0.43869209345E+02  0.43869209345E+02  0.00000000000E+00 0. -1.
         23    2    1    2    0    0  0.17454027609E+02  0.43314939520E+02  0.63255301515E+02  0.10675530079E+03  0.72212422828E+02 0.  0.
          5    1    1    2  502    0 -0.53213089158E+02 -0.55809680356E+01  0.15868169093E+03  0.16751158617E+03  0.41800000000E+01 0. -1.
         -5    1    1    2    0  502  0.35759061549E+02 -0.37733971484E+02  0.20705069405E+02  0.56113593593E+02  0.41800000000E+01 0. -1.
        -11    1    3    3    0    0 -0.25772575527E+02  0.15375182350E+01  0.20893652831E+02  0.33213466248E+02  0.00000000000E+00 0.  1.
         11    1    3    3    0    0  0.43226603136E+02  0.41777421285E+02  0.42361648684E+02  0.73541834537E+02  0.00000000000E+00 0. -1.
</event>
<event>
 7    1  0.6684706E-006  0.8608924E+02  0.7561462E-02  0.1312608E+00
         -1   -1    0    0    0  501 -0.00000000000E+00  0.00000000000E+00  0.20004034876E+03  0.20004034876E+03  0.00000000000E+00 0.  1.
          1   -1    0    0  501    0  0.00000000000E+00 -0.00000000000E+00 -0.73554331654E+02  0.73554331654E+02  0.00000000000E+00 0. -1.
         23    2    1    2    0    0  0.50501650913E+02  0.20000804511E+02  0.51009261633E+02  0.11772623640E+03  0.91143145861E+02 0.  0.
          5    1    1    2  502    0 -0.68038576266E+02  0.67972079571E+01 -0.54632354296E+01  0.68722407101E+02  0.41800000000E+01 0.  1.
         -5    1    1    2    0  502  0.17536925353E+02 -0.26798012468E+02  0.80939990903E+02  0.87146036918E+02  0.41800000000E+01 0.  1.
        -11    1    3    3    0    0  0.14940186396E+02  0.30781871964E+02  0.68564904028E+02  0.76628185908E+02  0.00000000000E+00 0.  1.
         11    1    3    3    0    0  0.35561464517E+02 -0.10781067453E+02 -0.17555642395E+02  0.41098050488E+02  0.00000000000E+00 0. -1.
</event>
<event>
 7    1  0.6684706E-006  0.1556913E+03  0.7561462E-02  0.1193649E+00
         -1   -1    0    0    0  501 -0.00000000000E+00  0.00000000000E+00  0.46281351561E+02  0.46281351561E+02  0.00000000000E+00 0.  1.
          1   -1    0    0  501    0  0.00000000000E+00 -0.00000000000E+00 -0.62845861248E+03  0.62845861248E+03  0.00000000000E+00 0. -1.
         23    2    1    2    0    0 -0.87171724835E+02  0.70956904721E+02 -0.13887972831E+03  0.20061434551E+03  0.91240039190E+02 0.  0.
          5    1    1    2  502    0  0.50472648899E+01  0.33541742724E+02 -0.11337398138E+03  0.11841307125E+03  0.41800000000E+01 0. -1.
         -5    1    1    2    0  502  0.82124459945E+02 -0.10449864745E+03 -0.32992355124E+03  0.35571254729E+03  0.41800000000E+01 0. -1.
        -11    1    3    3    0    0 -0.88638077291E+02  0.16996296376E+02 -0.95131503713E+02  0.13113194056E+03  0.00000000000E+00 0. -1.
         11    1    3    3    0    0  0.14663524558E+01  0.53960608345E+02 -0.43748224592E+02  0.69482404948E+02  0.00000000000E+00 0.  1.
</event>
<event>
 7    1  0.6684706E-006  0.8541945E+02  0.7561462E-02  0.1314339E+00
          2   -1    0    0  501    0  0.00000000000E+00  0.00000000000E+00  0.12701345673E+03  0.12701345673E+03  0.00000000000E+00 0. -1.
         -2   -1    0    0    0  501 -0.00000000000E+00 -0.00000000000E+00 -0.97909297061E+02  0.97909297061E+02  0.00000000000E+00 0.  1.
         23    2    1    2    0    0  0.34736781438E+02 -0.22339789039E+01  0.14026318828E+02  0.94206891262E+02  0.86409294031E+02 0.  0.
          5    1    1    2  502    0 -0.25683742953E+02 -0.47910495145E+02 -0.30283679723E+02  0.62367009345E+02  0.41800000000E+01 0.  1.
         -5    1    1    2    0  502 -0.90530384842E+01  0.50144474049E+02  0.45361520562E+02  0.68348853180E+02  0.41800000000E+01 0.  1.
        -11    1    3    3    0    0 -0.78251639282E+01  0.16826155722E+02 -0.26548955316E+02  0.32391352785E+02  0.00000000000E+00 0.  1.
         11    1    3    3    0    0  0.42561945366E+02 -0.19060134626E+02  0.40575274144E+02  0.61815538477E+02  0.00000000000E+00 0. -1.
</event>
<event>
 7    1  0.6684706E-006  0.1033574E+03  0.7561462E-02  0.1273390E+00
          1   -1    0    0  501    0  0.00000000000E+00  0.00000000000E+00  0.76177319983E+02  0.76177319983E+02  0.00000000000E+00 0. -1.
         -1   -1    0    0    0  501 -0.00000000000E+00 -0.00000000000E+00 -0.18504390342E+03  0.18504390342E+03  0.00000000000E+00 0.  1.
         23    2    1    2    0    0  0.50108355604E+01  0.48294234398E+02 -0.45639336753E+02  0.11289329665E+03  0.91129061341E+02 0.  0.
          5    1    1    2  502    0 -0.44396036231E+02  0.12837426638E+02 -0.59413919060E+02  0.75387623213E+02  0.41800000000E+01 0. -1.
         -5    1    1    2    0  502  0.39385200670E+02 -0.61131661035E+02 -0.38133276270E+01  0.72940303539E+02  0.41800000000E+01 0. -1.
        -11    1    3    3    0    0  0.31517285123E+02 -0.96579737003E+00 -0.47396288189E+02  0.56926972167E+02  0.00000000000E+00 0.  1.
         11    1    3    3    0    0 -0.26506449562E+02  0.49260031768E+02  0.17569514357E+01  0.55966324486E+02  0.00000000000E+00 0. -1.
</event>
<event>
 7    1  0.6684706E-006  0.1787598E+03  0.7561462E-02  0.1169009E+00
         -2   -1    0    0    0  501 -0.00000000000E+00  0.00000000000E+00  0.48909046841E+02  0.48909046841E+02  0.00000000000E+00 0.  1.
          2   -1    0    0  501    0  0.00000000000E+00 -0.00000000000E+00 -0.79082654404E+03  0.79082654404E+03  0.00000000000E+00 0. -1.
         23    2    1    2    0    0  0.10319557077E+03 -0.11350752289E+03 -0.23879959709E+03  0.29907998585E+03  0.94288423395E+02 0.  0.
          5    1    1    2  502    0 -0.37877945599E+02  0.10645387541E+03 -0.41816424853E+03  0.43318122939E+03  0.41800000000E+01 0. -1.
         -5    1    1    2    0  502 -0.65317625175E+02  0.70536474811E+01 -0.84953651589E+02  0.10747437564E+03  0.41800000000E+01 0. -1.
        -11    1    3    3    0    0  0.38405575645E+02 -0.10678629499E+03 -0.13298554118E+03  0.17482406929E+03  0.00000000000E+00 0.  1.
         11    1    3    3    0    0  0.64789995129E+02 -0.67212278975E+01 -0.10581405590E+03  0.12425591656E+03  0.00000000000E+00 0. -1.
</event>
<event>
 7    1  0.6684706E-006  0.7490448E+02  0.7561462E-02  0.1344167E+00
         -1   -1    0    0    0  501 -0.00000000000E+00  0.00000000000E+00  0.17953117972E+02  0.17953117972E+02  0.00000000000E+00 0.  1.
          1   -1    0    0  501    0  0.00000000000E+00 -0.00000000000E+00 -0.91095766829E+03  0.91095766829E+03  0.00000000000E+00 0. -1.
         23    2    1    2    0    0 -0.57755034113E+02 -0.15746681071E+02 -0.28538143759E+03  0.30566382282E+03  0.91674455188E+02 0.  0.
          5    1    1    2  502    0  0.77712927261E+01  0.19218451578E+01  0.36667147463E+01  0.97469829422E+01  0.41800000000E+01 0. -1.
         -5    1    1    2    0  502  0.49983741387E+02  0.13824835913E+02 -0.61128982748E+03  0.61349998050E+03  0.41800000000E+01 0. -1.
        -11    1    3    3    0    0 -0.20878083107E+02 -0.39644520424E+02 -0.23310210903E+03  0.23736928105E+03  0.00000000000E+00 0. -1.
         11    1    3    3    0    0 -0.36876951006E+02  0.23897839354E+02 -0.52279328559E+02  0.68294541772E+02  0.00000000000E+00 0.  1.
</event>
<event>
 7    1  0.6684706E-006  0.8314078E+02  0.7561462E-02  0.1320367E+00
          3   -1    0    0  501    0  0.00000000000E+00  0.00000000000E+00  0.38606111088E+03  0.38606111088E+03  0.00000000000E+00 0. -1.
         -3   -1    0    0    0  501 -0.00000000000E+00 -0.00000000000E+00 -0.38927952552E+02  0.38927952552E+02  0.00000000000E+00 0.  1.
         23    2    1    2    0    0 -0.81903507179E+01 -0.54194286126E+02  0.13578557019E+03  0.17335740798E+03  0.92795298037E+02 0.  0.
          5    1    1    2  502    0 -0.17871106684E+02  0.17324265938E+02  0.20416900824E+03  0.20572302489E+03  0.41800000000E+01 0.  1.
         -5    1    1    2    0  502  0.26061457402E+02  0.36870020189E+02  0.71785799031E+01  0.45908630562E+02  0.41800000000E+01 0.  1.
        -11    1    3    3    0    0  0.34912634924E+02 -0.17306634545E+02  0.97273589763E+02  0.10478818131E+03  0.00000000000E+00 0. -1.
         11    1    3    3    0    0 -0.43102985642E+02 -0.36887651581E+02  0.38511980423E+02  0.68569226673E+02  0.00000000000E+00 0.  1.
</event>
<event>
 7    1  0.6684706E-006  0.1000351E+03  0.7561462E-02  0.1280222E+00
          2   -1    0    0  501    0  0.00000000000E+00  0.00000000000E+00  0.14535343425E+04  0.14535343425E+04  0.00000000000E+00 0. -1.
         -2   -1    0    0    0  501 -0.00000000000E+00 -0.00000000000E+00 -0.24133892581E+02  0.24133892581E+02  0.00000000000E+00 0.  1.
         23    2    1    2    0    0  0.77810696918E+01  0.14968050230E+02  0.83573679237E+02  0.12593526430E+03  0.92685184146E+02 0.  0.
          5    1    1    2  502    0 -0.33989386175E+02  0.36396583134E+02  0.98820840549E+03  0.98947122986E+03  0.41800000000E+01 0. -1.
         -5    1    1    2    0  502  0.26208316483E+02 -0.51364633364E+02  0.35761836521E+03  0.36226174094E+03  0.41800000000E+01 0. -1.
        -11    1    3    3    0    0  0.36512327899E+02  0.40010768921E+02  0.61250500170E+02  0.81765735423E+02  0.00000000000E+00 0. -1.
         11    1    3    3    0    0 -0.28731258207E+02 -0.25042718692E+02  0.22323179067E+02  0.44169528878E+02  0.00000000000E+00 0.  1.
</event>
<event>
 7    1  0.6684706E-006  0.1738758E+03  0.7561462E-02  0.1173865E+00
          1   -1    0    0  501    0  0.00000000000E+00  0.00000000000E+00  0.16359201504E+03  0.16359201504E+03  0.00000000000E+00 0.  1.
         -1   -1    0    0    0  501 -0.00000000000E+00 -0.00000000000E+00 -0.25500235253E+03  0.25500235253E+03  0.00000000000E+00 0. -1.
         23    2    1    2    0    0 -0.10076042769E+03 -0.13388346038E+03 -0.87485868462E+02  0.20945385719E+03  0.90220265812E+02 0.  0.
          5    1    1    2  502    0  0.94763364698E+02  0.11578796695E+03 -0.51039165621E+02  0.15814366066E+03  0.41800000000E+01 0.  1.
         -5    1    1    2    0  502  0.59970629883E+01  0.18095493429E+02  0.47114696592E+02  0.50996849725E+02  0.41800000000E+01 0.  1.
        -11    1    3    3    0    0 -0.20400335370E+02  0.21961494158E+01 -0.39133576566E+02  0.44186350497E+02  0.00000000000E+00 0.  1.
         11    1    3    3    0    0 -0.80360092317E+02 -0.13607960979E+03 -0.48352291896E+02  0.16526750670E+03  0.00000000000E+00 0. -1.
</event>
<event>
 7    1  0.6684706E-006  0.1901388E+03  0.7561462E-02  0.1158336E+00
          1   -1    0    0  501    0  0.00000000000E+00  0.00000000000E+00  0.32083974233E+03  0.32083974233E+03  0.00000000000E+00 0. -1.
         -1   -1    0    0    0  501 -0.00000000000E+00 -0.00000000000E+00 -0.12301172344E+03  0.12301172344E+03  0.00000000000E+00 0.  1.
         23    2    1    2    0    0  0.71002533908E+01  0.16224228118E+03  0.56260181984E+02  0.19472940195E+03  0.91549770652E+02 0.  0.
          5    1    1    2  502    0 -0.28047152806E+02 -0.17068506728E+03  0.14518927240E+03  0.22587038803E+03  0.41800000000E+01 0. -1.
         -5    1    1    2    0  502  0.20946899415E+02  0.84427861005E+01 -0.36214354939E+01  0.23251675795E+02  0.41800000000E+01 0. -1.
        -11    1    3    3    0    0  0.39111645128E+02  0.13985781328E+03  0.56057396525E+02  0.15566746746E+03  0.00000000000E+00 0.  1.
         11    1    3    3    0    0 -0.32011391737E+02  0.22384467893E+02  0.20278545979E+00  0.39061934486E+02  0.00000000000E+00 0. -1.
</event>
<event>
 7    1  0.6684706E-006  0.9026887E+02  0.7561462E-02  0.1302202E+00
         -2   -1    0    0    0  501 -0.00000000000E+00  0.00000000000E+00  0.85282397965E+02  0.85282397965E+02  0.00000000000E+00 0.  1.
          2   -1    0    0  501    0  0.00000000000E+00 -0.00000000000E+00 -0.17879436828E+03  0.17879436828E+03  0.00000000000E+00 0. -1.
         23    2    1    2    0    0  0.20798705629E+02 -0.17389192157E+02  0.19701625559E+02  0.93192740279E+02  0.86958395979E+02 0.  0.
          5    1    1    2  502    0  0.18151652995E+02 -0.25683086907E+02 -0.10784487712E+03  0.11241482723E+03  0.41800000000E+01 0.  1.
         -5    1    1    2    0  502 -0.38950358624E+02  0.43072279063E+02 -0.53687187596E+01  0.58469198744E+02  0.41800000000E+01 0.  1.
        -11    1    3    3    0    0  0.51066429275E+02 -0.28337490745E+02  0.17327831161E+02  0.60918365978E+02  0.00000000000E+00 0.  1.
         11    1    3    3    0    0 -0.30267723646E+02  0.10948298589E+02  0.23737943979E+01  0.32274374301E+02  0.00000000000E+00 0. -1.
</event>
<event>
 7    1  0.6684706E-006  0.1190459E+03  0.7561462E-02  0.1244679E+00
          3   -1    0    0  501    0  0.00000000000E+00  0.00000000000E+00  0.10089272856E+03  0.10089272856E+03  0.00000000000E+00 0. -1.
         -3   -1    0    0    0  501 -0.00000000000E+00 -0.00000000000E+00 -0.24447198071E+03  0.24447198071E+03  0.00000000000E+00 0.  1.
         23    2    1    2    0    0 -0.89270472345E+02  0.83980694955E+01 -0.14055218429E+03  0.19142756619E+03  0.94073650851E+02 0.  0.
          5    1    1    2  502    0  0.19793340643E+02 -0.58027273342E+02 -0.23907865353E+02  0.65939360105E+02  0.41800000000E+01 0. -1.
         -5    1    1    2    0  502  0.69477131702E+02  0.49629203846E+02  0.20880797501E+02  0.87997782974E+02  0.41800000000E+01 0. -1.
        -11    1    3    3    0    0 -0.70750279002E+02  0.13316511429E+02 -0.15264385069E+03  0.16876929996E+03  0.00000000000E+00 0.  1.
         11    1    3    3    0    0 -0.18520193343E+02 -0.49184419336E+01  0.12091666394E+02  0.22658266234E+02  0.00000000000E+00 0. -1.
</event>
<event>
 7    1  0.6684706E-006  0.1705118E+03  0.7561462E-02  0.1177315E+00
          1   -1    0    0  501    0  0.00000000000E+00  0.00000000000E+00  0.49623731274E+03  0.49623731274E+03  0.00000000000E+00 0. -1.
         -1   -1    0    0    0  501 -0.00000000000E+00 -0.00000000000E+00 -0.97674034252E+02  0.97674034252E+02  0.00000000000E+00 0.  1.
         23    2    1    2    0    0  0.11141119366E+03 -0.11925596945E+03  0.58542839360E+02  0.19655036922E+03  0.92576148548E+02 0.  0.
          5    1    1    2  502    0 -0.52297873733E+02  0.49704808601E+02  0.27722245907E+03  0.28648804479E+03  0.41800000000E+01 0. -1.
         -5    1    1    2    0  502 -0.59113319924E+02  0.69551160847E+02  0.62797980058E+02  0.11087293298E+03  0.41800000000E+01 0. -1.
        -11    1    3    3    0    0  0.11509965544E+03 -0.85398531589E+02  0.71431711260E+02  0.16013534667E+03  0.00000000000E+00 0. -1.
         11    1    3    3    0    0 -0.36884617801E+01 -0.33857437860E+02 -0.12888871900E+02  0.36415022554E+02  0.00000000000E+00 0.  1.
</event>
<event>
 7    1  0.2765141E-005  0.2160256E+03  0.7561462E-02  0.1136881E+00
         -2   -1    0    0    0  501 -0.00000000000E+00  0.00000000000E+00  0.79834631977E+02  0.79834631977E+02  0.00000000000E+00 0.  1.
          2   -1    0    0  501    0  0.00000000000E+00 -0.00000000000E+00 -0.65409862826E+03  0.65409862826E+03  0.00000000000E+00 0. -1.
         23    2    1    2    0    0  0.29783264394E+02 -0.20134113668E+03 -0.25861101247E+03  0.33806755601E+03  0.77360975313E+02 0.  0.
          5    1    1    2  502    0  0.27646526249E+02  0.13113503725E+03 -0.11904749147E+03  0.17930562187E+03  0.41800000000E+01 0.  1.
         -5    1    1    2    0  502 -0.57429790643E+02  0.70206099425E+02 -0.19660549234E+03  0.21656008235E+03  0.41800000000E+01 0.  1.
        -11    1    3    3    0    0  0.39244360283E+02 -0.15711451217E+03 -0.15133307110E+03  0.22164563645E+03  0.00000000000E+00 0.  1.
         11    1    3    3    0    0 -0.94610958895E+01 -0.44226624511E+02 -0.10727794137E+03  0.11642191956E+03  0.00000000000E+00 0. -1.
</event>
<event>
 7    1  0.6684706E-006  0.1041817E+03  0.7561462E-02  0.1271740E+00
          1   -1    0    0  501    0  0.00000000000E+00  0.00000000000E+00  0.17212886071E+03  0.17212886071E+03  0.00000000000E+00 0. -1.
         -1   -1    0    0    0  501 -0.00000000000E+00 -0.00000000000E+00 -0.11599641325E+03  0.11599641325E+03  0.00000000000E+00 0.  1.
         23    2    1    2    0    0  0.73926141544E+02 -0.25122511444E+02  0.10923115346E+02  0.13389102332E+03  0.10821865224E+03 0.  0.
          5    1    1    2  502    0 -0.78278999560E+02  0.35976278824E+02  0.79785764998E+02  0.11749525568E+03  0.41800000000E+01 0.  1.
         -5    1    1    2    0  502  0.43528580157E+01 -0.10853767379E+02 -0.34576432892E+02  0.36738994961E+02  0.41800000000E+01 0.  1.
        -11    1    3    3    0    0  0.28824353828E+02  0.27877667557E+02 -0.32711488175E+02  0.51749871310E+02  0.00000000000E+00 0.  1.
         11    1    3    3    0    0  0.45101787716E+02 -0.53000179001E+02  0.43634603520E+02  0.82141152011E+02  0.00000000000E+00 0. -1.
</event>
<event>
 7    1  0.6684706E-006  0.1877283E+03  0.7561462E-02  0.1160526E+00
          2   -1    0    0  501    0  0.00000000000E+00  0.00000000000E+00  0.33007590992E+03  0.33007590992E+03  0.00000000000E+00 0. -1.
         -2   -1    0    0    0  501 -0.00000000000E+00 -0.00000000000E+00 -0.12183749904E+03  0.12183749904E+03  0.00000000000E+00 0.  1.
         23    2    1    2    0    0  0.14870977751E+03 -0.73454666895E+02  0.69542945486E+02  0.20212674743E+03  0.92243236853E+02 0.  0.
          5    1    1    2  502    0 -0.12527361080E+03  0.10348093520E+03  0.13499735602E+03  0.21129017972E+03  0.41800000000E+01 0.  1.
         -5    1    1    2    0  502 -0.23436166707E+02 -0.30026268307E+02  0.36981093839E+01  0.38496481805E+02  0.41800000000E+01 0.  1.
        -11    1    3    3    0    0  0.13946595483E+03 -0.47964073777E+02  0.85688288422E+02  0.17056901155E+03  0.00000000000E+00 0. -1.
         11    1    3    3    0    0  0.92438226813E+01 -0.25490593119E+02 -0.16145342936E+02  0.31557735879E+02  0.00000000000E+00 0.  1.
</event>
<event>
 7    1  0.6684706E-006  0.6140668E+02  0.7561462E-02  0.1392022E+00
          2   -1    0    0  501    0  0.00000000000E+00  0.00000000000E+00  0.22768324929E+04  0.22768324929E+04  0.00000000000E+00 0. -1.
         -2   -1    0    0    0  501 -0.00000000000E+00 -0.00000000000E+00 -0.61429319027E+02  0.61429319027E+02  0.00000000000E+00 0.  1.
         23    2    1    2    0    0  0.99566035623E+01  0.41236176633E+02 -0.16916354412E+02  0.10238830757E+03  0.91638672307E+02 0.  0.
          5    1    1    2  502    0 -0.15581382611E+02 -0.38534339732E+02  0.22249799337E+04  0.22253720706E+04  0.41800000000E+01 0. -1.
         -5    1    1    2    0  502  0.56247790484E+01 -0.27018369008E+01  0.73395945173E+01  0.10501433695E+02  0.41800000000E+01 0.  1.
        -11    1    3    3    0    0  0.35128490143E+02  0.18982071141E+02  0.26177051346E+02  0.47744820260E+02  0.00000000000E+00 0. -1.
         11    1    3    3    0    0 -0.25171886581E+02  0.22254105492E+02 -0.43093405758E+02  0.54643487307E+02  0.00000000000E+00 0.  1.
</event>
<event>
 7    1  0.6684706E-006  0.1031675E+03  0.7561462E-02  0.1273773E+00
         -1   -1    0    0    0  501 -0.00000000000E+00  0.00000000000E+00  0.96867792426E+02  0.96867792426E+02  0.00000000000E+00 0.  1.
          1   -1    0    0  501    0  0.00000000000E+00 -0.00000000000E+00 -0.27117907371E+03  0.27117907371E+03  0.00000000000E+00 0. -1.
         23    2    1    2    0    0 -0.44436616913E+02  0.30900722395E+02  0.45829898761E+02  0.10912795776E+03  0.82940122843E+02 0.  0.
          5    1    1    2  502    0  0.62553670935E+02  0.89984296821E+01 -0.20131570884E+03  0.21104364599E+03  0.41800000000E+01 0. -1.
         -5    1    1    2    0  502 -0.18117054021E+02 -0.39899152077E+02 -0.18825471201E+02  0.47875262389E+02  0.41800000000E+01 0. -1.
        -11    1    3    3    0    0 -0.64816392747E+02  0.40525240109E+02  0.36937938124E+02  0.84899182136E+02  0.00000000000E+00 0.  1.
         11    1    3    3    0    0  0.20379775834E+02 -0.96245177138E+01  0.88919606367E+01  0.24228775623E+02  0.00000000000E+00 0. -1.
</event>
<event>
 7    1  0.6684706E-006  0.1728955E+03  0.7561462E-02  0.1174862E+00
         -3   -1    0    0    0  501 -0.00000000000E+00  0.00000000000E+00  0.74252307819E+02  0.74252307819E+02  0.00000000000E+00 0.  1.
          3   -1    0    0  501    0  0.00000000000E+00 -0.00000000000E+00 -0.46266035878E+03  0.46266035878E+03  0.00000000000E+00 0. -1.
         23    2    1    2    0    0 -0.10661922182E+03 -0.91020348388E+02 -0.14418141953E+03  0.22877939224E+03  0.10908421653E+03 0.  0.
          5    1    1    2  502    0  0.57828585994E+02  0.11221645419E+03 -0.12593802259E+03  0.17836629694E+03  0.41800000000E+01 0. -1.
         -5    1    1    2    0  502  0.48790635824E+02 -0.21196105806E+02 -0.11828860884E+03  0.12976697741E+03  0.41800000000E+01 0. -1.
        -11    1    3    3    0    0 -0.48773439003E+02  0.99283774620E+01 -0.92725115923E+01  0.50630035576E+02  0.00000000000E+00 0.  1.
         11    1    3    3    0    0 -0.57845782816E+02 -0.10094872585E+03 -0.13490890794E+03  0.17814935667E+03  0.00000000000E+00 0. -1.
</event>
<event>
 7    1  0.6684706E-006  0.1144869E+03  0.7561462E-02  0.1252479E+00
          1   -1    0    0  501    0  0.00000000000E+00  0.00000000000E+00  0.68428964583E+03  0.68428964583E+03  0.00000000000E+00 0. -1.
         -1   -1    0    0    0  501 -0.00000000000E+00 -0.00000000000E+00 -0.25081241032E+02  0.25081241032E+02  0.00000000000E+00 0.  1.
         23    2    1    2    0    0  0.34128853935E+02 -0.65259699893E+02  0.29645797220E+03  0.31865610534E+03  0.90723630253E+02 0.  0.
          5    1    1    2  502    0 -0.38214593687E+02 -0.22497873564E+02  0.20801058143E+03  0.21272607709E+03  0.41800000000E+01 0. -1.
         -5    1    1    2    0  502  0.40857397512E+01  0.87757573457E+02  0.15473985117E+03  0.17798870444E+03  0.41800000000E+01 0. -1.
        -11    1    3    3    0    0 -0.18427378540E+02 -0.18938238258E+02  0.19143772840E+02  0.32629881807E+02  0.00000000000E+00 0.  1.
         11    1    3    3    0    0  0.52556232476E+02 -0.46321461635E+02  0.27731419936E+03  0.28602622353E+03  0.00000000000E+00 0. -1.
</event>
<event>
 7    1  0.6684706E-006  0.1068322E+03  0.7561462E-02  0.1266551E+00
         -1   -1    0    0    0  501 -0.00000000000E+00  0.00000000000E+00  0.15620486620E+02  0.15620486620E+02  0.00000000000E+00 0.  1.
          1   -1    0    0  501    0  0.00000000000E+00 -0.00000000000E+00 -0.97364031745E+03  0.97364031745E+03  0.00000000000E+00 0. -1.
         23    2    1    2    0    0 -0.52731183599E+02  0.36260149752E+01 -0.31340599658E+03  0.33049701322E+03  0.90615844887E+02 0.  0.
          5    1    1    2  502    0  0.37790070216E+02 -0.59372145473E+02 -0.45769368814E+03  0.46309191920E+03  0.41800000000E+01 0.  1.
         -5    1    1    2    0  502  0.14941113384E+02  0.55746130498E+02 -0.18692014610E+03  0.19567187165E+03  0.41800000000E+01 0.  1.
        -11    1    3    3    0    0 -0.48362809403E+02  0.31085996493E+02 -0.28502416213E+03  0.29076463593E+03  0.00000000000E+00 0. -1.
         11    1    3    3    0    0 -0.43683741960E+01 -0.27459981518E+02 -0.28381834460E+02  0.39732377293E+02  0.00000000000E+00 0.  1.
</event>
<event>
 7    1  0.6684706E-006  0.1210934E+03  0.7561462E-02  0.1241304E+00
          1   -1    0    0  501    0  0.00000000000E+00  0.00000000000E+00  0.62681615964E+02  0.62681615964E+02  0.00000000000E+00 0. -1.
         -1   -1    0    0    0  501 -0.00000000000E+00 -0.00000000000E+00 -0.23784525369E+03  0.23784525369E+03  0.00000000000E+00 0.  1.
         23    2    1    2    0    0  0.26634597658E+02  0.47971716319E+02 -0.83434051573E+02  0.13599065291E+03  0.92312130078E+02 0.  0.
          5    1    1    2  502    0  0.49111337555E+02 -0.28713420189E+02 -0.27689551536E+02  0.63407946187E+02  0.41800000000E+01 0. -1.
         -5    1    1    2    0  502 -0.75745935212E+02 -0.19258296130E+02 -0.64040034616E+02  0.10112827055E+03  0.41800000000E+01 0. -1.
        -11    1    3    3    0    0 -0.30927741206E+02 -0.15173613516E+01 -0.30359680480E+02  0.43365167594E+02  0.00000000000E+00 0.  1.
         11    1    3    3    0    0  0.57562338864E+02  0.49489077670E+02 -0.53074371093E+02  0.92625485321E+02  0.00000000000E+00 0. -1.
</event>
<event>
 7    1  0.6684706E-006  0.8233530E+02  0.7561462E-02  0.1322552E+00
         -1   -1    0    0    0  501 -0.00000000000E+00  0.00000000000E+00  0.21910344757E+02  0.21910344757E+02  0.00000000000E+00 0.  1.
          1   -1    0    0  501    0  0.00000000000E+00 -0.00000000000E+00 -0.72215514443E+03  0.72215514443E+03  0.00000000000E+00 0. -1.
         23    2    1    2    0    0  0.21792191079E+02 -0.50475873525E+02 -0.20770117803E+03  0.23292010002E+03  0.89940426043E+02 0.  0.
          5    1    1    2  502    0  0.26217757847E+01  0.18610131101E+02 -0.45688152445E+03  0.45728701104E+03  0.41800000000E+01 0.  1.
         -5    1    1    2    0  502 -0.24413966864E+02  0.31865742424E+02 -0.35662097200E+02  0.53858378131E+02  0.41800000000E+01 0.  1.
        -11    1    3    3    0    0  0.52224246862E+02 -0.80430693668E+01 -0.94897487831E+02  0.10861673960E+03  0.00000000000E+00 0. -1.
         11    1    3    3    0    0 -0.30432055783E+02 -0.42432804158E+02 -0.11280369020E+03  0.12430336041E+03  0.00000000000E+00 0.  1.
</event>
<event>
 7    1  0.6684706E-006  0.1537532E+03  0.7561462E-02  0.1195936E+00
         -2   -1    0    0    0  501 -0.00000000000E+00  0.00000000000E+00  0.49614032904E+02  0.49614032904E+02  0.00000000000E+00 0.  1.
          2   -1    0    0  501    0  0.00000000000E+00 -0.00000000000E+00 -0.56979743638E+03  0.56979743638E+03  0.00000000000E+00 0. -1.
         23    2    1    2    0    0  0.11450154365E+03  0.14167209427E+02 -0.14061551757E+03  0.20344232935E+03  0.91130369625E+02 0.  0.
          5    1    1    2  502    0 -0.29428920588E+01 -0.49808671760E+02 -0.15142650105E+03  0.15948988061E+03  0.41800000000E+01 0.  1.
         -5    1    1    2    0  502 -0.11155865159E+03  0.35641462333E+02 -0.22814138485E+03  0.25647925933E+03  0.41800000000E+01 0.  1.
        -11    1    3    3    0    0 -0.39069947212E+01  0.21270362460E+02 -0.49002403680E+02  0.53562379459E+02  0.00000000000E+00 0. -1.
         11    1    3    3    0    0  0.11840853837E+03 -0.71031530332E+01 -0.91613113893E+02  0.14987994989E+03  0.00000000000E+00 0.  1.
</event>
<event>
 7    1  0.6684706E-006  0.1409858E+03  0.7561462E-02  0.1212009E+00
          3   -1    0    0  501    0  0.00000000000E+00  0.00000000000E+00  0.87696265406E+02  0.87696265406E+02  0.00000000000E+00 0. -1.
         -3   -1    0    0    0  501 -0.00000000000E+00 -0.00000000000E+00 -0.40602093804E+03  0.40602093804E+03  0.00000000000E+00 0.  1.
         23    2    1    2    0    0 -0.40850382435E+01  0.99894170763E+02 -0.30859272446E+03  0.33661559031E+03  0.89916923671E+02 0.  0.
          5    1    1    2  502    0  0.26759079711E+02 -0.11882102195E+03 -0.23719232643E+02  0.12415537846E+03  0.41800000000E+01 0. -1.
         -5    1    1    2    0  502 -0.22674041467E+02  0.18926851187E+02  0.13987284466E+02  0.32946234672E+02  0.41800000000E+01 0.  1.
        -11    1    3    3    0    0  0.37709717666E+02  0.67785568045E+02 -0.22291199928E+03  0.23602259524E+03  0.00000000000E+00 0. -1.
         11    1    3    3    0    0 -0.41794755910E+02  0.32108602718E+02 -0.85680725178E+02  0.10059299507E+03  0.00000000000E+00 0.  1.
</event>
<event>
 7    1  0.6684706E-006  0.1338909E+03  0.7561462E-02  0.1221794E+00
          2   -1    0    0  501    0  0.00000000000E+00  0.00000000000E+00  0.39780107427E+03  0.39780107427E+03  0.00000000000E+00 0. -1.
         -2   -1    0    0    0  501 -0.00000000000E+00 -0.00000000000E+00 -0.59317349064E+02  0.59317349064E+02  0.00000000000E+00 0.  1.
         23    2    1    2    0    0 -0.93627217508E+02  0.40093371817E+02  0.95843968903E+02  0.16575100931E+03  0.88959521080E+02 0.  0.
          5    1    1    2  502    0 -0.19512362257E+02  0.19866323024E+02  0.20138243289E+02  0.34618265613E+02  0.41800000000E+01 0.  1.
         -5    1    1    2    0  502  0.11313957976E+03 -0.59959694842E+02  0.22250151302E+03  0.25674914841E+03  0.41800000000E+01 0.  1.
        -11    1    3    3    0    0 -0.54052513936E+02 -0.15320193980E+01  0.68894110830E-01  0.54074264606E+02  0.00000000000E+00 0.  1.
         11    1    3    3    0    0 -0.39574703572E+02  0.41625391215E+02  0.95775074792E+02  0.11167674471E+03  0.00000000000E+00 0. -1.
</event>
<event>
 7    1  0.6684706E-006  0.1609893E+03  0.7561462E-02  0.1187584E+00
          1   -1    0    0  501    0  0.00000000000E+00  0.00000000000E+00  0.40213478416E+03  0.40213478416E+03  0.00000000000E+00 0. -1.
         -1   -1    0    0    0  501 -0.00000000000E+00 -0.00000000000E+00 -0.72837241846E+02  0.72837241846E+02  0.00000000000E+00 0.  1.
         23    2    1    2    0    0  0.46029846491E+01  0.12849813237E+03  0.18934260548E+03  0.24744758865E+03  0.94057053904E+02 0.  0.
          5    1    1    2  502    0 -0.41398709030E+02 -0.14241993750E+02  0.11847049267E+01  0.43995038597E+02  0.41800000000E+01 0. -1.
         -5    1    1    2    0  502  0.36795724381E+02 -0.11425613862E+03  0.13877023190E+03  0.18352939875E+03  0.41800000000E+01 0. -1.
        -11    1    3    3    0    0 -0.35170335987E+02  0.10710141451E+03  0.14938261944E+03  0.18714388185E+03  0.00000000000E+00 0.  1.
         11    1    3    3    0    0  0.39773320636E+02  0.21396717862E+02  0.39959986040E+02  0.60303706801E+02  0.00000000000E+00 0. -1.
</event>
<event>
 7    1  0.6684706E-006  0.3096898E+03  0.7561462E-02  0.1080495E+00
         -1   -1    0    0    0  501 -0.00000000000E+00  0.00000000000E+00  0.39801983470E+03  0.39801983470E+03  0.00000000000E+00 0.  1.
          1   -1    0    0  501    0  0.00000000000E+00 -0.00000000000E+00 -0.99245563801E+03  0.99245563801E+03  0.00000000000E+00 0. -1.
         23    2    1    2    0    0  0.14530194197E+03 -0.16776591341E+03  0.30615083790E+03  0.38857032197E+03  0.89445533874E+02 0.  0.
          5    1    1    2  502    0 -0.24504432248E+03  0.14328718047E+03 -0.83001544628E+03  0.87722348893E+03  0.41800000000E+01 0. -1.
         -5    1    1    2    0  502  0.99742380508E+02  0.24478732942E+02 -0.70571194934E+02  0.12468166180E+03  0.41800000000E+01 0.  1.
        -11    1    3    3    0    0  0.12335569556E+03 -0.92183353349E+02  0.24289110656E+03  0.28759431133E+03  0.00000000000E+00 0.  1.
         11    1    3    3    0    0  0.21946246412E+02 -0.75582560064E+02  0.63259731338E+02  0.10097601065E+03  0.00000000000E+00 0. -1.
</event>
<event>
 7    1  0.6684706E-006  0.8159617E+02  0.7561462E-02  0.1324582E+00
          2   -1    0    0  501    0  0.00000000000E+00  0.00000000000E+00  0.30293819585E+03  0.30293819585E+03  0.00000000000E+00 0. -1.
         -2   -1    0    0    0  501 -0.00000000000E+00 -0.00000000000E+00 -0.74053292460E+02  0.74053292460E+02  0.00000000000E+00 0.  1.
         23    2    1    2    0    0  0.31801737540E+02  0.15865010406E+02 -0.11594751861E+02  0.10260043108E+03  0.95547690294E+02 0.  0.
          5    1    1    2  502    0 -0.22362523473E+02 -0.41329301673E+02  0.18432081711E+02  0.50649853593E+02  0.41800000000E+01 0. -1.
         -5    1    1    2    0  502 -0.94392140663E+01  0.25464291267E+02  0.22204757354E+03  0.22374120364E+03  0.41800000000E+01 0.  1.
        -11    1    3    3    0    0  0.58601316173E+01  0.47367769739E+02 -0.31509067067E+02  0.57191503390E+02  0.00000000000E+00 0.  1.
         11    1    3    3    0    0  0.25941605922E+02 -0.31502759333E+02  0.19914315207E+02  0.45408927686E+02  0.00000000000E+00 0. -1.
</event>
<event>
 7    1  0.6684706E-006  0.9617745E+02  0.7561462E-02  0.1288546E+00
          1   -1    0    0  501    0  0.00000000000E+00  0.00000000000E+00  0.54165731190E+03  0.54165731190E+03  0.00000000000E+00 0. -1.
         -1   -1    0    0    0  501 -0.00000000000E+00 -0.00000000000E+00 -0.36567662298E+02  0.36567662298E+02  0.00000000000E+00 0.  1.
         23    2    1    2    0    0 -0.12748569152E+02  0.63137933641E+02  0.96631945968E+02  0.14621368706E+03  0.88835717045E+02 0.  0.
          5    1    1    2  502    0  0.25200637091E+02 -0.69966145842E+02  0.41037880655E+03  0.41708341005E+03  0.41800000000E+01 0. -1.
         -5    1    1    2    0  502 -0.12452067939E+02  0.68282122009E+01 -0.19211029171E+01  0.14927877084E+02  0.41800000000E+01 0. -1.
        -11    1    3    3    0    0 -0.27164262920E+02 -0.96791951550E+01  0.52381400822E+02  0.59794608042E+02  0.00000000000E+00 0. -1.
         11    1    3    3    0    0  0.14415693769E+02  0.72817128796E+02  0.44250545146E+02  0.86419079020E+02  0.00000000000E+00 0.  1.
</event>
<event>
 7    1  0.6684706E-006  0.9459720E+02  0.7561462E-02  0.1292086E+00
          2   -1    0    0  501    0  0.00000000000E+00  0.00000000000E+00  0.16011670080E+03  0.16011670080E+03  0.00000000000E+00 0. -1.
         -2   -1    0    0    0  501 -0.00000000000E+00 -0.00000000000E+00 -0.10207914625E+03  0.10207914625E+03  0.00000000000E+00 0.  1.
         23    2    1    2    0    0  0.50883148532E+01 -0.25864430616E+02 -0.38583675354E+02  0.10195087689E+03  0.90611376633E+02 0.  0.
          5    1    1    2  502    0 -0.41443776793E+02 -0.35415062999E+02  0.28842385862E+02  0.61815604376E+02  0.41800000000E+01 0. -1.
         -5    1    1    2    0  502  0.36355461940E+02  0.61279493616E+02  0.67778844034E+02  0.98429365787E+02  0.41800000000E+01 0. -1.
        -11    1    3    3    0    0  0.17021449677E+02 -0.40694089484E+02  0.13797790712E+02  0.46218153323E+02  0.00000000000E+00 0. -1.
         11    1    3    3    0    0 -0.11933134824E+02  0.14829658868E+02 -0.52381466065E+02  0.55732723565E+02  0.00000000000E+00 0.  1.
</event>
<event>
 7    1  0.6684706E-006  0.1308467E+03  0.7561462E-02  0.1226205E+00
         -1   -1    0    0    0  501 -0.00000000000E+00  0.00000000000E+00  0.38681580286E+02  0.38681580286E+02  0.00000000000E+00 0.  1.
          1   -1    0    0  501    0  0.00000000000E+00 -0.00000000000E+00 -0.50202090131E+03  0.50202090131E+03  0.00000000000E+00 0. -1.
         23    2    1    2    0    0  0.78104068572E+02  0.32145528929E+02 -0.19158326025E+03  0.22984395228E+03  0.94818332792E+02 0.  0.
          5    1    1    2  502    0 -0.36697435327E+02  0.38182398533E+02 -0.44307988742E+02  0.69175628538E+02  0.41800000000E+01 0.  1.
         -5    1    1    2    0  502 -0.41406633246E+02 -0.70327927461E+02 -0.22744807203E+03  0.24168290078E+03  0.41800000000E+01 0.  1.
        -11    1    3    3    0    0 -0.13360808593E+02  0.32764886768E+02 -0.48873284532E+02  0.60337773842E+02  0.00000000000E+00 0. -1.
         11    1    3    3    0    0  0.91464877165E+02 -0.61935783968E+00 -0.14270997572E+03  0.16950617844E+03  0.00000000000E+00 0.  1.
</event>
<event>
 7    1  0.6684706E-006  0.1959336E+03  0.7561462E-02  0.1153216E+00
          2   -1    0    0  501    0  0.00000000000E+00  0.00000000000E+00  0.12677757599E+04  0.12677757599E+04  0.00000000000E+00 0. -1.
         -2   -1    0    0    0  501 -0.00000000000E+00 -0.00000000000E+00 -0.40627703608E+02  0.40627703608E+02  0.00000000000E+00 0.  1.
         23    2    1    2    0    0  0.64219448644E+02  0.15257281373E+03  0.27225033823E+03  0.33122282380E+03  0.90474920664E+02 0.  0.
          5    1    1    2  502    0 -0.95665966341E+02 -0.13982961497E+03  0.85384755869E+03  0.87050412074E+03  0.41800000000E+01 0. -1.
         -5    1    1    2    0  502  0.31446517697E+02 -0.12743198753E+02  0.10105015934E+03  0.10667651894E+03  0.41800000000E+01 0. -1.
        -11    1    3    3    0    0  0.79207815930E+02  0.74608152252E+02  0.16851380301E+03  0.20059201453E+03  0.00000000000E+00 0. -1.
         11    1    3    3    0    0 -0.14988367286E+02  0.77964661474E+02  0.10373653521E+03  0.13063080927E+03  0.00000000000E+00 0.  1.
</event>
<event>
 7    1  0.6684706E-006  0.9987824E+02  0.7561462E-02  0.1280552E+00
         -2   -1    0    0    0  501 -0.00000000000E+00  0.00000000000E+00  0.98645920292E+02  0.98645920292E+02  0.00000000000E+00 0.  1.
          2   -1    0    0  501    0  0.00000000000E+00 -0.00000000000E+00 -0.14196889337E+03  0.14196889337E+03  0.00000000000E+00 0. -1.
         23    2    1    2    0    0  0.18387189407E+02  0.36374024561E+02  0.79323269108E+01  0.99421355043E+02  0.90335627696E+02 0.  0.
          5    1    1    2  502    0 -0.49302962759E+02  0.24167273843E+02  0.14338287557E+01  0.55085093507E+02  0.41800000000E+01 0.  1.
         -5    1    1    2    0  502  0.30915773352E+02 -0.60541298404E+02 -0.52689128745E+02  0.86108365112E+02  0.41800000000E+01 0.  1.
        -11    1    3    3    0    0  0.35647601305E+01  0.53679573923E+02  0.34892219950E+02  0.64122314247E+02  0.00000000000E+00 0.  1.
         11    1    3    3    0    0  0.14822429277E+02 -0.17305549363E+02 -0.26959893039E+02  0.35299040796E+02  0.00000000000E+00 0. -1.
</event>
<event>
 7    1  0.6684706E-006  0.1983101E+03  0.7561462E-02  0.1151173E+00
         -2   -1    0    0    0  501 -0.00000000000E+00  0.00000000000E+00  0.83418300474E+02  0.83418300474E+02  0.00000000000E+00 0.  1.
          2   -1    0    0  501    0  0.00000000000E+00 -0.00000000000E+00 -0.57380375096E+03  0.57380375096E+03  0.00000000000E+00 0. -1.
         23    2    1    2    0    0  0.13991604013E+03  0.11857049083E+03 -0.30724778231E+03  0.36943370369E+03  0.91894516209E+02 0.  0.
          5    1    1    2  502    0 -0.33090271515E+02 -0.63356094956E+02 -0.36383598935E+01  0.71691498099E+02  0.41800000000E+01 0. -1.
         -5    1    1    2    0  502 -0.10682576861E+03 -0.55214395871E+02 -0.17949930828E+03  0.21609684964E+03  0.41800000000E+01 0. -1.
        -11    1    3    3    0    0  0.12859045250E+02  0.65921289596E+02 -0.11235823166E+03  0.13090203851E+03  0.00000000000E+00 0. -1.
         11    1    3    3    0    0  0.12705699488E+03  0.52649201231E+02 -0.19488955066E+03  0.23853166518E+03  0.00000000000E+00 0.  1.
</event>
<event>
 7    1  0.6684706E-006  0.9869687E+02  0.7561462E-02  0.1283060E+00
         -1   -1    0    0    0  501 -0.00000000000E+00  0.00000000000E+00  0.16087954219E+02  0.16087954219E+02  0.00000000000E+00 0. -1.
          1   -1    0    0  501    0  0.00000000000E+00 -0.00000000000E+00 -0.74109681691E+03  0.74109681691E+03  0.00000000000E+00 0.  1.
         23    2    1    2    0    0  0.10801567935E+02 -0.50773582916E+00 -0.30615816031E+03  0.31992337403E+03  0.92202030667E+02 0.  0.
          5    1    1    2  502    0 -0.33789326368E+02 -0.46074560577E+02 -0.10979381744E+03  0.12384158613E+03  0.41800000000E+01 0.  1.
         -5    1    1    2    0  502  0.22987758432E+02  0.46582296406E+02 -0.30905688494E+03  0.31341981096E+03  0.41800000000E+01 0.  1.
        -11    1    3    3    0    0  0.49298765300E+02  0.26095472931E+01 -0.11922365923E+03  0.12904053207E+03  0.00000000000E+00 0. -1.
         11    1    3    3    0    0 -0.38497197365E+02 -0.31172831223E+01 -0.18693450108E+03  0.19088284196E+03  0.00000000000E+00 0.  1.
</event>
<event>
 7    1  0.6684706E-006  0.1191277E+03  0.7561462E-02  0.1244543E+00
          1   -1    0    0  501    0  0.00000000000E+00  0.00000000000E+00  0.19830167165E+03  0.19830167165E+03  0.00000000000E+00 0. -1.
         -1   -1    0    0    0  501 -0.00000000000E+00 -0.00000000000E+00 -0.91616616916E+02  0.91616616916E+02  0.00000000000E+00 0.  1.
         23    2    1    2    0    0 -0.44035514501E+02 -0.53391999914E+02  0.86507649676E+01  0.11657192294E+03  0.93404203825E+02 0.  0.
          5    1    1    2  502    0 -0.23252386047E+01 -0.27914496482E+02 -0.10285073913E+02  0.30131063602E+02  0.41800000000E+01 0.  1.
         -5    1    1    2    0  502  0.46360753105E+02  0.81306496396E+02  0.10831936368E+03  0.14321530202E+03  0.41800000000E+01 0.  1.
        -11    1    3    3    0    0 -0.52766937711E+02  0.87547947367E+01  0.34390587647E+01  0.53598724532E+02  0.00000000000E+00 0.  1.
         11    1    3    3    0    0  0.87314232105E+01 -0.62146794651E+02  0.52117062029E+01  0.62973198412E+02  0.00000000000E+00 0. -1.
</event>
<event>
 7    1  0.6684706E-006  0.1133477E+03  0.7561462E-02  0.1254493E+00
         -1   -1    0    0    0  501 -0.00000000000E+00  0.00000000000E+00  0.62791416420E+02  0.62791416420E+02  0.00000000000E+00 0.  1.
          1   -1    0    0  501    0  0.00000000000E+00 -0.00000000000E+00 -0.24589497895E+03  0.24589497895E+03  0.00000000000E+00 0. -1.
         23    2    1    2    0    0 -0.84081030659E+01  0.51045344772E+02 -0.42543662469E+02  0.11354299476E+03  0.91682741140E+02 0.  0.
          5    1    1    2  502    0 -0.36621732378E+02  0.18779837205E+02 -0.86632818493E+02  0.96002870831E+02  0.41800000000E+01 0. -1.
         -5    1    1    2    0  502  0.45029835444E+02 -0.69825181977E+02 -0.53927081569E+02  0.99140529778E+02  0.41800000000E+01 0. -1.
        -11    1    3    3    0    0  0.21329594214E+02 -0.17389462226E+02  0.25947588179E+00  0.27521124861E+02  0.00000000000E+00 0.  1.
         11    1    3    3    0    0 -0.29737697280E+02  0.68434806998E+02 -0.42803138351E+02  0.86021869900E+02  0.00000000000E+00 0. -1.
</event>
<event>
 7    1  0.6684706E-006  0.1104722E+03  0.7561462E-02  0.1259698E+00
         -1   -1    0    0    0  501 -0.00000000000E+00  0.00000000000E+00  0.39201397761E+02  0.39201397761E+02  0.00000000000E+00 0.  1.
          1   -1    0    0  501    0  0.00000000000E+00 -0.00000000000E+00 -0.51545781941E+03  0.51545781941E+03  0.00000000000E+00 0. -1.
         23    2    1    2    0    0 -0.66896218689E+02  0.32257378535E+02 -0.10458615764E+03  0.15553295687E+03  0.87957909009E+02 0.  0.
          5    1    1    2  502    0  0.40040793526E+01 -0.70264584544E+02 -0.20922052630E+03  0.22078008406E+03  0.41800000000E+01 0.  1.
         -5    1    1    2    0  502  0.62892139336E+02  0.38007206009E+02 -0.16244973772E+03  0.17834617625E+03  0.41800000000E+01 0.  1.
        -11    1    3    3    0    0 -0.27125970566E+02  0.26451137104E+01  0.11284940598E+02  0.29498555727E+02  0.00000000000E+00 0.  1.
         11    1    3    3    0    0 -0.39770248123E+02  0.29612264824E+02 -0.11587109824E+03  0.12603440114E+03  0.00000000000E+00 0. -1.
</event>
<event>
 7    1  0.6684706E-006  0.2806647E+03  0.7561462E-02  0.1095326E+00
         -1   -1    0    0    0  501 -0.00000000000E+00  0.00000000000E+00  0.84231314174E+02  0.84231314174E+02  0.00000000000E+00 0.  1.
          1   -1    0    0  501    0  0.00000000000E+00 -0.00000000000E+00 -0.98437854369E+03  0.98437854369E+03  0.00000000000E+00 0. -1.
         23    2    1    2    0    0 -0.18444025570E+03 -0.18915029021E+03 -0.37588970218E+03  0.46836847062E+03  0.90994042967E+02 0.  0.
          5    1    1    2  502    0  0.84069801187E+02  0.17026879001E+03 -0.35000206287E+03  0.39821866950E+03  0.41800000000E+01 0.  1.
         -5    1    1    2    0  502  0.10037045452E+03  0.18881500199E+02 -0.17425546446E+03  0.20202271774E+03  0.41800000000E+01 0.  1.
        -11    1    3    3    0    0 -0.42220839888E+02 -0.16111396280E+02 -0.23805768494E+02  0.51077304397E+02  0.00000000000E+00 0. -1.
         11    1    3    3    0    0 -0.14221941582E+03 -0.17303889393E+03 -0.35208393369E+03  0.41729116622E+03  0.00000000000E+00 0.  1.
</event>
<event>
 7    1  0.6684706E-006  0.1363166E+03  0.7561462E-02  0.1218373E+00
         -2   -1    0    0    0  501 -0.00000000000E+00  0.00000000000E+00  0.34718818642E+03  0.34718818642E+03  0.00000000000E+00 0.  1.
          2   -1    0    0  501    0  0.00000000000E+00 -0.00000000000E+00 -0.59604729033E+02  0.59604729033E+02  0.00000000000E+00 0. -1.
         23    2    1    2    0    0 -0.24263792161E+02  0.88489525354E+02  0.16047565689E+03  0.20623784290E+03  0.91446616568E+02 0.  0.
          5    1    1    2  502    0  0.33245957940E+02  0.23538909861E+02  0.21376599993E+02  0.46193131785E+02  0.41800000000E+01 0. -1.
         -5    1    1    2    0  502 -0.89821657791E+01 -0.11202843521E+03  0.10573120051E+03  0.15436194077E+03  0.41800000000E+01 0. -1.
        -11    1    3    3    0    0  0.19455882192E+02  0.68382849217E+02  0.53630471466E+02  0.89056009840E+02  0.00000000000E+00 0. -1.
         11    1    3    3    0    0 -0.43719674353E+02  0.20106676137E+02  0.10684518542E+03  0.11718183306E+03  0.00000000000E+00 0.  1.
</event>
<event>
 7    1  0.6684706E-006  0.1160908E+03  0.7561462E-02  0.1249689E+00
         -1   -1    0    0    0  501 -0.00000000000E+00  0.00000000000E+00  0.27312693837E+02  0.27312693837E+02  0.00000000000E+00 0.  1.
          1   -1    0    0  501    0  0.00000000000E+00 -0.00000000000E+00 -0.77596001713E+03  0.77596001713E+03  0.00000000000E+00 0. -1.
         23    2    1    2    0    0 -0.15827245873E+02 -0.93450526348E+02 -0.23936390596E+03  0.27352918875E+03  0.92410145757E+02 0.  0.
          5    1    1    2  502    0 -0.49278560327E+01  0.60941592722E+02 -0.91281828605E+02  0.10994546886E+03  0.41800000000E+01 0. -1.
         -5    1    1    2    0  502  0.20755101906E+02  0.32508933627E+02 -0.41800158874E+03  0.41979805336E+03  0.41800000000E+01 0.  1.
        -11    1    3    3    0    0 -0.45057760401E+02 -0.92461505910E+02 -0.17881437533E+03  0.20628599728E+03  0.00000000000E+00 0.  1.
         11    1    3    3    0    0  0.29230514528E+02 -0.98902043802E+00 -0.60549530626E+02  0.67243191478E+02  0.00000000000E+00 0. -1.
</event>
<event>
 7    1  0.6684706E-006  0.1018761E+03  0.7561462E-02  0.1276399E+00
          1   -1    0    0  501    0  0.00000000000E+00  0.00000000000E+00  0.24850807199E+03  0.24850807199E+03  0.00000000000E+00 0. -1.
         -1   -1    0    0    0  501 -0.00000000000E+00 -0.00000000000E+00 -0.60348723457E+02  0.60348723457E+02  0.00000000000E+00 0.  1.
         23    2    1    2    0    0  0.47363203154E+02 -0.13701978788E+02  0.40185754416E+02  0.10892071536E+03  0.88418381242E+02 0.  0.
          5    1    1    2  502    0 -0.25782096685E+02 -0.46403274182E+02  0.11760312456E+03  0.12909666018E+03  0.41800000000E+01 0.  1.
         -5    1    1    2    0  502 -0.21581106469E+02  0.60105252971E+02  0.30370469562E+02  0.70839419905E+02  0.41800000000E+01 0.  1.
        -11    1    3    3    0    0 -0.18864950880E+02 -0.61750903671E+01  0.37241436812E+02  0.42201217146E+02  0.00000000000E+00 0.  1.
         11    1    3    3    0    0  0.66228154034E+02 -0.75268884213E+01  0.29443176035E+01  0.66719498216E+02  0.00000000000E+00 0. -1.
</event>
<event>
 7    1  0.6684706E-006  0.2934031E+03  0.7561462E-02  0.1088586E+00
         -2   -1    0    0    0  501 -0.00000000000E+00  0.00000000000E+00  0.45375257308E+02  0.45375257308E+02  0.00000000000E+00 0.  1.
          2   -1    0    0  501    0  0.00000000000E+00 -0.00000000000E+00 -0.20850364784E+04  0.20850364784E+04  0.00000000000E+00 0. -1.
         23    2    1    2    0    0  0.41708170072E+02 -0.28244339295E+03 -0.89002313455E+03  0.93926534191E+03  0.92543831749E+02 0.  0.
          5    1    1    2  502    0 -0.24474319023E+01  0.23845606143E+03 -0.10354880542E+04  0.10626007086E+04  0.41800000000E+01 0.  1.
         -5    1    1    2    0  502 -0.39260738169E+02  0.43987331520E+02 -0.11415003228E+03  0.12854568513E+03  0.41800000000E+01 0.  1.
        -11    1    3    3    0    0  0.59820211893E+01 -0.18987916304E+03 -0.45492470921E+03  0.49299733487E+03  0.00000000000E+00 0.  1.
         11    1    3    3    0    0  0.35726148882E+02 -0.92564229911E+02 -0.43509842534E+03  0.44626800704E+03  0.00000000000E+00 0. -1.
</event>
<event>
 7    1  0.6684706E-006  0.9297528E+02  0.7561462E-02  0.1295802E+00
          1   -1    0    0  501    0  0.00000000000E+00  0.00000000000E+00  0.22894361825E+03  0.22894361825E+03  0.00000000000E+00 0. -1.
         -1   -1    0    0    0  501 -0.00000000000E+00 -0.00000000000E+00 -0.56170934730E+02  0.56170934730E+02  0.00000000000E+00 0.  1.
         23    2    1    2    0    0 -0.20043516483E+02 -0.27478859811E+02  0.58467134489E+02  0.11228439378E+03  0.89624488736E+02 0.  0.
          5    1    1    2  502    0 -0.27798772459E+02  0.34521557723E+02 -0.42513844403E+01  0.44721989754E+02  0.41800000000E+01 0. -1.
         -5    1    1    2    0  502  0.47842288942E+02 -0.70426979123E+01  0.11855693348E+03  0.12810816945E+03  0.41800000000E+01 0. -1.
        -11    1    3    3    0    0  0.17516659436E+02 -0.47288800190E+02  0.45402128362E+02  0.67855856350E+02  0.00000000000E+00 0. -1.
         11    1    3    3    0    0 -0.37560175919E+02  0.19809940379E+02  0.13065006127E+02  0.44428537428E+02  0.00000000000E+00 0.  1.
</event>
<event>
 7    1  0.6684706E-006  0.1194858E+03  0.7561462E-02  0.1243948E+00
          1   -1    0    0  501    0  0.00000000000E+00  0.00000000000E+00  0.12420891507E+03  0.12420891507E+03  0.00000000000E+00 0. -1.
         -1   -1    0    0    0  501 -0.00000000000E+00 -0.00000000000E+00 -0.13188127046E+03  0.13188127046E+03  0.00000000000E+00 0.  1.
         23    2    1    2    0    0  0.50290480529E+01  0.24571826310E+02 -0.42495823227E+02  0.10300478015E+03  0.90415838043E+02 0.  0.
          5    1    1    2  502    0 -0.40419414238E+02 -0.74753908145E+02  0.33733187834E+02  0.91527461408E+02  0.41800000000E+01 0. -1.
         -5    1    1    2    0  502  0.35390366185E+02  0.50182081835E+02  0.10902799990E+01  0.61557943975E+02  0.41800000000E+01 0.  1.
        -11    1    3    3    0    0  0.44277477195E+02  0.28866612815E+02 -0.33280381922E+02  0.62460868894E+02  0.00000000000E+00 0.  1.
         11    1    3    3    0    0 -0.39248429142E+02 -0.42947865047E+01 -0.92154413046E+01  0.40543911253E+02  0.00000000000E+00 0. -1.
</event>
<event>
 7    1  0.6684706E-006  0.1377350E+03  0.7561462E-02  0.1216410E+00
         -1   -1    0    0    0  501 -0.00000000000E+00  0.00000000000E+00  0.23671431822E+02  0.23671431822E+02  0.00000000000E+00 0.  1.
          1   -1    0    0  501    0  0.00000000000E+00 -0.00000000000E+00 -0.87699240726E+03  0.87699240726E+03  0.00000000000E+00 0. -1.
         23    2    1    2    0    0 -0.35300013494E+02 -0.86515284419E+02 -0.37699643323E+03  0.39940159052E+03  0.93082406757E+02 0.  0.
          5    1    1    2  502    0  0.71358568276E+02  0.29604704325E+02 -0.34541740182E+03  0.35397618234E+03  0.41800000000E+01 0. -1.
         -5    1    1    2    0  502 -0.36058554783E+02  0.56910580093E+02 -0.13090714039E+03  0.14728606622E+03  0.41800000000E+01 0. -1.
        -11    1    3    3    0    0 -0.54937345171E+02 -0.15736496640E+02 -0.13775114877E+03  0.14913459762E+03  0.00000000000E+00 0.  1.
         11    1    3    3    0    0  0.19637331677E+02 -0.70778787779E+02 -0.23924528446E+03  0.25026699290E+03  0.00000000000E+00 0. -1.
</event>
<event>
 7    1  0.6684706E-006  0.1027672E+03  0.7561462E-02  0.1274582E+00
          2   -1    0    0  501    0  0.00000000000E+00  0.00000000000E+00  0.32231617396E+03  0.32231617396E+03  0.00000000000E+00 0. -1.
         -2   -1    0    0    0  501 -0.00000000000E+00 -0.00000000000E+00 -0.35452668029E+02  0.35452668029E+02  0.00000000000E+00 0.  1.
         23    2    1    2    0    0  0.24606279431E+02  0.10371681960E+01  0.95886470657E+02  0.13547975070E+03  0.92487852654E+02 0.  0.
          5    1    1    2  502    0 -0.17301544544E+01 -0.54834259686E+02  0.87246271074E+02  0.10314637020E+03  0.41800000000E+01 0. -1.
         -5    1    1    2    0  502 -0.22876124977E+02  0.53797091490E+02  0.10373076420E+03  0.11914272108E+03  0.41800000000E+01 0.  1.
        -11    1    3    3    0    0 -0.11169203033E+02  0.38510234669E+02  0.23541864836E+02  0.46497404988E+02  0.00000000000E+00 0.  1.
         11    1    3    3    0    0  0.35775482464E+02 -0.37473066473E+02  0.72344605821E+02  0.88982345709E+02  0.00000000000E+00 0. -1.
</event>
<event>
 7    1  0.6684706E-006  0.1306822E+03  0.7561462E-02  0.1226447E+00
         -1   -1    0    0    0  501 -0.00000000000E+00  0.00000000000E+00  0.25335628469E+02  0.25335628469E+02  0.00000000000E+00 0.  1.
          1   -1    0    0  501    0  0.00000000000E+00 -0.00000000000E+00 -0.15667839553E+04  0.15667839553E+04  0.00000000000E+00 0. -1.
         23    2    1    2    0    0 -0.71023134620E+02  0.43519101075E+02 -0.15784095478E+03  0.20035908090E+03  0.91059302010E+02 0.  0.
          5    1    1    2  502    0 -0.36254247045E+02 -0.11815715810E+02 -0.32901039773E+03  0.33123903119E+03  0.41800000000E+01 0.  1.
         -5    1    1    2    0  502  0.10727738166E+03 -0.31703385265E+02 -0.10545969744E+04  0.10605214717E+04  0.41800000000E+01 0.  1.
        -11    1    3    3    0    0 -0.64687189388E+02 -0.23775909238E+01 -0.46320131820E+02  0.79596733735E+02  0.00000000000E+00 0.  1.
         11    1    3    3    0    0 -0.63359452320E+01  0.45896691999E+02 -0.11152082296E+03  0.12076234716E+03  0.00000000000E+00 0. -1.
</event>
<event>
 7    1  0.6684706E-006  0.1003222E+03  0.7561462E-02  0.1279620E+00
          2   -1    0    0  501    0  0.00000000000E+00  0.00000000000E+00  0.15135864096E+03  0.15135864096E+03  0.00000000000E+00 0.  1.
         -2   -1    0    0    0  501 -0.00000000000E+00 -0.00000000000E+00 -0.96275651030E+02  0.96275651030E+02  0.00000000000E+00 0. -1.
         23    2    1    2    0    0 -0.23644343819E+02 -0.47023585071E+02  0.26972614096E+02  0.10904030445E+03  0.91607824646E+02 0.  0.
          5    1    1    2  502    0  0.25061825691E+02 -0.40096723720E+02  0.18044690340E+02  0.50783123274E+02  0.41800000000E+01 0. -1.
         -5    1    1    2    0  502 -0.14174818725E+01  0.87120308791E+02  0.10065685498E+02  0.87810864266E+02  0.41800000000E+01 0. -1.
        -11    1    3    3    0    0 -0.12718598597E+02 -0.52289945444E+02  0.55948229540E+02  0.77628638616E+02  0.00000000000E+00 0.  1.
         11    1    3    3    0    0 -0.10925745221E+02  0.52663603724E+01 -0.28975615444E+02  0.31411665836E+02  0.00000000000E+00 0. -1.
</event>
<event>
 7    1  0.9261802E-006  0.1823189E+03  0.7561462E-02  0.1165577E+00
         -2   -1    0    0    0  501 -0.00000000000E+00  0.00000000000E+00  0.45243099023E+03  0.45243099023E+03  0.00000000000E+00 0.  1.
          2   -1    0    0  501    0  0.00000000000E+00 -0.00000000000E+00 -0.83289345869E+02  0.83289345869E+02  0.00000000000E+00 0. -1.
         23    2    1    2    0    0 -0.15021104353E+03  0.65020690847E+02  0.18295523739E+03  0.25804458184E+03  0.79519428371E+02 0.  0.
          5    1    1    2  502    0  0.16242915961E+03 -0.73055755990E+02  0.13290097798E+03  0.22226227237E+03  0.41800000000E+01 0. -1.
         -5    1    1    2    0  502 -0.12218116072E+02  0.80350651425E+01  0.53285428991E+02  0.55413481887E+02  0.41800000000E+01 0. -1.
        -11    1    3    3    0    0 -0.10854554220E+03  0.20801036163E+02  0.15694441924E+03  0.19195407932E+03  0.00000000000E+00 0.  1.
         11    1    3    3    0    0 -0.41665501330E+02  0.44219654684E+02  0.26010818148E+02  0.66090502512E+02  0.00000000000E+00 0. -1.
</event>
<event>
 7    1  0.6684706E-006  0.1082078E+03  0.7561462E-02  0.1263925E+00
          2   -1    0    0  501    0  0.00000000000E+00  0.00000000000E+00  0.93826921372E+03  0.93826921372E+03  0.00000000000E+00 0. -1.
         -2   -1    0    0    0  501 -0.00000000000E+00 -0.00000000000E+00 -0.18882906661E+02  0.18882906661E+02  0.00000000000E+00 0.  1.
         23    2    1    2    0    0  0.31135938071E+02 -0.26631185469E+01  0.15984007854E+03  0.18674053757E+03  0.91359941016E+02 0.  0.
          5    1    1    2  502    0 -0.24696434371E+02  0.63144363236E+02  0.39133116125E+03  0.39718342695E+03  0.41800000000E+01 0.  1.
         -5    1    1    2    0  502 -0.64395037007E+01 -0.60481244689E+02  0.36821506727E+03  0.37322815587E+03  0.41800000000E+01 0.  1.
        -11    1    3    3    0    0  0.27930658498E+02  0.37760409665E+02  0.45378638593E+02  0.65308430258E+02  0.00000000000E+00 0.  1.
         11    1    3    3    0    0  0.32052795735E+01 -0.40423528212E+02  0.11446143995E+03  0.12143210731E+03  0.00000000000E+00 0. -1.
</event>
<event>
 7    1  0.6684706E-006  0.6479518E+02  0.7561462E-02  0.1378744E+00
          1   -1    0    0  501    0  0.00000000000E+00  0.00000000000E+00  0.67036262658E+02  0.67036262658E+02  0.00000000000E+00 0. -1.
         -1   -1    0    0    0  501 -0.00000000000E+00 -0.00000000000E+00 -0.18486145501E+03  0.18486145501E+03  0.00000000000E+00 0.  1.
         23    2    1    2    0    0 -0.19086119277E+02 -0.28926111394E+01 -0.63171913481E+02  0.11403287539E+03  0.92952454880E+02 0.  0.
          5    1    1    2  502    0 -0.10730411579E+02 -0.27431981093E+02  0.30489725897E+02  0.42599895594E+02  0.41800000000E+01 0.  1.
         -5    1    1    2    0  502  0.29816530856E+02  0.30324592232E+02 -0.85143004769E+02  0.95264946688E+02  0.41800000000E+01 0.  1.
        -11    1    3    3    0    0  0.12177080175E+02 -0.18512622280E+02 -0.74158737191E+02  0.77398428712E+02  0.00000000000E+00 0.  1.
         11    1    3    3    0    0 -0.31263199452E+02  0.15620011140E+02  0.10986823710E+02  0.36634446676E+02  0.00000000000E+00 0. -1.
</event>
<event>
 7    1  0.6684706E-006  0.3167703E+03  0.7561462E-02  0.1077145E+00
          1   -1    0    0  501    0  0.00000000000E+00  0.00000000000E+00  0.25312506057E+03  0.25312506057E+03  0.00000000000E+00 0. -1.
         -1   -1    0    0    0  501 -0.00000000000E+00 -0.00000000000E+00 -0.44176389929E+03  0.44176389929E+03  0.00000000000E+00 0.  1.
         23    2    1    2    0    0 -0.12689810629E+03 -0.28745301573E+03 -0.54466565699E+02  0.33104548463E+03  0.88837719919E+02 0.  0.
          5    1    1    2  502    0  0.43545954115E+02  0.10653817851E+03 -0.11651054104E+03  0.16382555409E+03  0.41800000000E+01 0.  1.
         -5    1    1    2    0  502  0.83352152176E+02  0.18091483722E+03 -0.17661731989E+02  0.20001792114E+03  0.41800000000E+01 0.  1.
        -11    1    3    3    0    0 -0.72713560688E+02 -0.97653808385E+02  0.13017549693E+02  0.12244584436E+03  0.00000000000E+00 0. -1.
         11    1    3    3    0    0 -0.54184545603E+02 -0.18979920735E+03 -0.67484115392E+02  0.20859964027E+03  0.00000000000E+00 0.  1.
</event>
<event>
 7    1  0.6684706E-006  0.1083504E+03  0.7561462E-02  0.1263656E+00
         -2   -1    0    0    0  501 -0.00000000000E+00  0.00000000000E+00  0.15981006742E+02  0.15981006742E+02  0.00000000000E+00 0.  1.
          2   -1    0    0  501    0  0.00000000000E+00 -0.00000000000E+00 -0.98442380909E+03  0.98442380909E+03  0.00000000000E+00 0. -1.
         23    2    1    2    0    0  0.16905699669E+02  0.29433419947E+02 -0.20910214773E+03  0.23008192450E+03  0.89787832741E+02 0.  0.
          5    1    1    2  502    0  0.14078235617E+02  0.42900579230E+02 -0.17888119999E+03  0.18453891873E+03  0.41800000000E+01 0.  1.
         -5    1    1    2    0  502 -0.30983935286E+02 -0.72333999177E+02 -0.58045945463E+03  0.58578397259E+03  0.41800000000E+01 0.  1.
        -11    1    3    3    0    0  0.48240768515E+02 -0.18505684852E+01 -0.78276822368E+02  0.91966609542E+02  0.00000000000E+00 0.  1.
         11    1    3    3    0    0 -0.31335068845E+02  0.31283988432E+02 -0.13082532536E+03  0.13811531496E+03  0.00000000000E+00 0. -1.
</event>
<event>
 7    1  0.6684706E-006  0.3362500E+03  0.7561462E-02  0.1068404E+00
         -2   -1    0    0    0  501 -0.00000000000E+00  0.00000000000E+00  0.29131770502E+03  0.29131770502E+03  0.00000000000E+00 0.  1.
          2   -1    0    0  501    0  0.00000000000E+00 -0.00000000000E+00 -0.54507425728E+03  0.54507425728E+03  0.00000000000E+00 0. -1.
         23    2    1    2    0    0  0.68702679381E+02 -0.31911460606E+03  0.85609641757E+02  0.34918490630E+03  0.89704504189E+02 0.  0.
          5    1    1    2  502    0 -0.52364386896E+02  0.38942949924E+02 -0.93330786008E+02  0.11395916102E+03  0.41800000000E+01 0.  1.
         -5    1    1    2    0  502 -0.16338292485E+02  0.28017165614E+03 -0.24603540802E+03  0.37324789497E+03  0.41800000000E+01 0.  1.
        -11    1    3    3    0    0  0.33881522267E+02 -0.15390376577E+03  0.87665513625E+02  0.18033183010E+03  0.00000000000E+00 0.  1.
         11    1    3    3    0    0  0.34821157114E+02 -0.16521084029E+03 -0.20558718683E+01  0.16885307620E+03  0.00000000000E+00 0. -1.
</event>
<event>
 7    1  0.6684706E-006  0.1100001E+03  0.7561462E-02  0.1260570E+00
          1   -1    0    0  501    0  0.00000000000E+00  0.00000000000E+00  0.14855404002E+03  0.14855404002E+03  0.00000000000E+00 0. -1.
         -1   -1    0    0    0  501 -0.00000000000E+00 -0.00000000000E+00 -0.11336923597E+03  0.11336923597E+03  0.00000000000E+00 0.  1.
         23    2    1    2    0    0 -0.13356249404E+02 -0.18552559409E+02 -0.52597561280E+02  0.10741251570E+03  0.90820472454E+02 0.  0.
          5    1    1    2  502    0 -0.19812143146E+02 -0.47926831880E+02  0.44246692558E+02  0.68298934343E+02  0.41800000000E+01 0. -1.
         -5    1    1    2    0  502  0.33168392550E+02  0.66479391288E+02  0.43535672768E+02  0.86211825951E+02  0.41800000000E+01 0. -1.
        -11    1    3    3    0    0 -0.47700465038E+02  0.10188096462E+02 -0.29817379007E+02  0.57168240880E+02  0.00000000000E+00 0. -1.
         11    1    3    3    0    0  0.34344215634E+02 -0.28740655871E+02 -0.22780182272E+02  0.50244274816E+02  0.00000000000E+00 0.  1.
</event>
<event>
 7    1  0.6684706E-006  0.2619121E+03  0.7561462E-02  0.1106000E+00
          1   -1    0    0  501    0  0.00000000000E+00  0.00000000000E+00  0.52323560275E+03  0.52323560275E+03  0.00000000000E+00 0. -1.
         -1   -1    0    0    0  501 -0.00000000000E+00 -0.00000000000E+00 -0.16653876552E+03  0.16653876552E+03  0.00000000000E+00 0.  1.
         23    2    1    2    0    0 -0.33499207919E+02  0.21295866475E+03  0.17484728429E+03  0.29331901952E+03  0.94820275078E+02 0.  0.
          5    1    1    2  502    0  0.11522466568E+03 -0.18886764042E+03  0.31390321111E+02  0.22349616068E+03  0.41800000000E+01 0. -1.
         -5    1    1    2    0  502 -0.81725457760E+02 -0.24091024330E+02  0.15045923183E+03  0.17295918808E+03  0.41800000000E+01 0.  1.
        -11    1    3    3    0    0 -0.38124109683E+02  0.19516962925E+03  0.11283535149E+03  0.22864043489E+03  0.00000000000E+00 0.  1.
         11    1    3    3    0    0  0.46249017640E+01  0.17789035499E+02  0.62011932800E+02  0.64678584631E+02  0.00000000000E+00 0. -1.
</event>
<event>
 7    1  0.6684706E-006  0.1430591E+03  0.7561462E-02  0.1209271E+00
         -1   -1    0    0    0  501 -0.00000000000E+00  0.00000000000E+00  0.13052349387E+03  0.13052349387E+03  0.00000000000E+00 0.  1.
          1   -1    0    0  501    0  0.00000000000E+00 -0.00000000000E+00 -0.16178554455E+03  0.16178554455E+03  0.00000000000E+00 0. -1.
         23    2    1    2    0    0 -0.93415804790E+02 -0.20553062021E+02 -0.12490301399E+02  0.13372485862E+03  0.92614195680E+02 0.  0.
          5    1    1    2  502    0  0.53033023321E+02 -0.49077875926E+02  0.98620089837E+01  0.73047047094E+02  0.41800000000E+01 0. -1.
         -5    1    1    2    0  502  0.40382781469E+02  0.69630937948E+02 -0.28633758272E+02  0.85537132705E+02  0.41800000000E+01 0. -1.
        -11    1    3    3    0    0 -0.73895974591E+02  0.29382013949E+02 -0.78627012543E+01  0.79910824521E+02  0.00000000000E+00 0. -1.
         11    1    3    3    0    0 -0.19519830198E+02 -0.49935075971E+02 -0.46276001445E+01  0.53814034101E+02  0.00000000000E+00 0.  1.
</event>
<event>
 7    1  0.6684706E-006  0.1852993E+03  0.7561462E-02  0.1162771E+00
          1   -1    0    0  501    0  0.00000000000E+00  0.00000000000E+00  0.33465568551E+03  0.33465568551E+03  0.00000000000E+00 0. -1.
         -1   -1    0    0    0  501 -0.00000000000E+00 -0.00000000000E+00 -0.10371735985E+03  0.10371735985E+03  0.00000000000E+00 0.  1.
         23    2    1    2    0    0  0.96856498126E+02  0.11308714677E+03  0.13176657030E+03  0.22007884324E+03  0.94352446698E+02 0.  0.
          5    1    1    2  502    0 -0.96314389555E+02 -0.16642331155E+02  0.46435186480E+02  0.10829186380E+03  0.41800000000E+01 0.  1.
         -5    1    1    2    0  502 -0.54210857112E+00 -0.96444815614E+02  0.52736568879E+02  0.11000233833E+03  0.41800000000E+01 0.  1.
        -11    1    3    3    0    0  0.89600721361E+02  0.32492756330E+02  0.68850680073E+02  0.11757756856E+03  0.00000000000E+00 0. -1.
         11    1    3    3    0    0  0.72557767643E+01  0.80594390440E+02  0.62915890231E+02  0.10250127468E+03  0.00000000000E+00 0.  1.
</event>
<event>
 7    1  0.6684706E-006  0.1087378E+03  0.7561462E-02  0.1262925E+00
         -1   -1    0    0    0  501 -0.00000000000E+00  0.00000000000E+00  0.20109205608E+03  0.20109205608E+03  0.00000000000E+00 0.  1.
          1   -1    0    0  501    0  0.00000000000E+00 -0.00000000000E+00 -0.14400621998E+03  0.14400621998E+03  0.00000000000E+00 0. -1.
         23    2    1    2    0    0  0.11676718567E+02 -0.19020370553E+02  0.15747228390E+03  0.18316333806E+03  0.90846947996E+02 0.  0.
          5    1    1    2  502    0 -0.65905707103E+02  0.24429610714E+02 -0.70498890155E+02  0.99639018570E+02  0.41800000000E+01 0.  1.
         -5    1    1    2    0  502  0.54228988536E+02 -0.54092401605E+01 -0.29887557638E+02  0.62295919436E+02  0.41800000000E+01 0.  1.
        -11    1    3    3    0    0  0.11526940982E+02 -0.55116521221E+02  0.10947499724E+03  0.12310758019E+03  0.00000000000E+00 0.  1.
         11    1    3    3    0    0  0.14977758508E+00  0.36096150668E+02  0.47997286655E+02  0.60055757864E+02  0.00000000000E+00 0. -1.
</event>
<event>
 7    1  0.6684706E-006  0.1241204E+03  0.7561462E-02  0.1236450E+00
          1   -1    0    0  501    0  0.00000000000E+00  0.00000000000E+00  0.14989228174E+03  0.14989228174E+03  0.00000000000E+00 0. -1.
         -1   -1    0    0    0  501 -0.00000000000E+00 -0.00000000000E+00 -0.13327354286E+03  0.13327354286E+03  0.00000000000E+00 0.  1.
         23    2    1    2    0    0 -0.25946050686E+02  0.58078304667E+02 -0.54727876979E+02  0.12573731080E+03  0.93639968968E+02 0.  0.
          5    1    1    2  502    0  0.69308083226E+02 -0.23634764151E+01  0.31904715591E+02  0.76449850871E+02  0.41800000000E+01 0.  1.
         -5    1    1    2    0  502 -0.43362032540E+02 -0.55714828252E+02  0.39441900276E+02  0.80978662934E+02  0.41800000000E+01 0.  1.
        -11    1    3    3    0    0 -0.51071362267E+02  0.75689537042E+01 -0.75131016754E+01  0.52172979604E+02  0.00000000000E+00 0.  1.
         11    1    3    3    0    0  0.25125311580E+02  0.50509350963E+02 -0.47214775304E+02  0.73564331192E+02  0.00000000000E+00 0. -1.
</event>
<event>
 6    1  0.6684706E-006  0.1977756E+03  0.7561462E-02  0.1151629E+00
          2   -1    0    0  501    0  0.00000000000E+00  0.00000000000E+00  0.17519995805E+04  0.17519995805E+04  0.00000000000E+00 0. -1.
         -2   -1    0    0    0  501 -0.00000000000E+00 -0.00000000000E+00 -0.25327781924E+02  0.25327781924E+02  0.00000000000E+00 0.  1.
          5    1    1    2  502    0 -0.10394802473E+02 -0.17399192052E+03  0.53075873526E+03  0.55866228419E+03  0.41800000000E+01 0.  1.
         -5    1    1    2    0  502 -0.91128840056E+01  0.10435438065E+02  0.20789578211E+03  0.20839882831E+03  0.41800000000E+01 0.  1.
        -11    1    1    2    0    0 -0.50466069332E+02  0.10083218620E+03  0.63621348440E+03  0.64612812326E+03  0.00000000000E+00 0. -1.
         11    1    1    2    0    0  0.69973755810E+02  0.62724296258E+02  0.35180379677E+03  0.36413812662E+03  0.00000000000E+00 0.  1.
</event>
<event>
 7    1  0.6684706E-006  0.1058158E+03  0.7561462E-02  0.1268521E+00
         -4   -1    0    0    0  501 -0.00000000000E+00  0.00000000000E+00  0.51580951699E+03  0.51580951699E+03  0.00000000000E+00 0.  1.
          4   -1    0    0  501    0  0.00000000000E+00 -0.00000000000E+00 -0.24164246211E+02  0.24164246211E+02  0.00000000000E+00 0. -1.
         23    2    1    2    0    0 -0.20929897028E+02  0.12318166257E+02  0.21117761309E+03  0.23191647780E+03  0.92733330539E+02 0.  0.
          5    1    1    2  502    0 -0.42414929065E+02 -0.35469754811E+02  0.87391909829E+02  0.10349854114E+03  0.41800000000E+01 0. -1.
         -5    1    1    2    0  502  0.63344826093E+02  0.23151588554E+02  0.19307574785E+03  0.20455874426E+03  0.41800000000E+01 0. -1.
        -11    1    3    3    0    0 -0.50531388905E+02  0.25034381289E+02  0.17301349009E+03  0.18197200132E+03  0.00000000000E+00 0.  1.
         11    1    3    3    0    0  0.29601491877E+02 -0.12716215032E+02  0.38164123003E+02  0.49944476478E+02  0.00000000000E+00 0. -1.
</event>
<event>
 7    1  0.6684706E-006  0.1253191E+03  0.7561462E-02  0.1234571E+00
         -1   -1    0    0    0  501 -0.00000000000E+00  0.00000000000E+00  0.21089133314E+02  0.21089133314E+02  0.00000000000E+00 0.  1.
          1   -1    0    0  501    0  0.00000000000E+00 -0.00000000000E+00 -0.98413120964E+03  0.98413120964E+03  0.00000000000E+00 0. -1.
         23    2    1    2    0    0  0.91800736821E+02  0.12883400422E+02 -0.42128884721E+03  0.44153816576E+03  0.94224740674E+02 0.  0.
          5    1    1    2  502    0 -0.79996877077E+02 -0.40658093084E+02 -0.18528185371E+03  0.20591119102E+03  0.41800000000E+01 0.  1.
         -5    1    1    2    0  502 -0.11803859744E+02  0.27774692662E+02 -0.35647137541E+03  0.35777098617E+03  0.41800000000E+01 0.  1.
        -11    1    3    3    0    0  0.38455318264E+02 -0.39813708787E+02 -0.14346734874E+03  0.15377523554E+03  0.00000000000E+00 0.  1.
         11    1    3    3    0    0  0.53345418557E+02  0.52697109209E+02 -0.27782149847E+03  0.28776293023E+03  0.00000000000E+00 0. -1.
</event>
<event>
 7    1  0.6684706E-006  0.1366875E+03  0.7561462E-02  0.1217857E+00
         -2   -1    0    0    0  501 -0.00000000000E+00  0.00000000000E+00  0.40203941961E+02  0.40203941961E+02  0.00000000000E+00 0. -1.
          2   -1    0    0  501    0  0.00000000000E+00 -0.00000000000E+00 -0.74676061264E+03  0.74676061264E+03  0.00000000000E+00 0.  1.
         23    2    1    2    0    0  0.94278207287E+02 -0.40278403212E+02 -0.13453599297E+03  0.19257648174E+03  0.92059968388E+02 0.  0.
          5    1    1    2  502    0 -0.10646787370E+03  0.61057584729E+02 -0.34790959451E+03  0.36894714410E+03  0.41800000000E+01 0. -1.
         -5    1    1    2    0  502  0.12189666411E+02 -0.20779181517E+02 -0.22411108320E+03  0.22544092877E+03  0.41800000000E+01 0. -1.
        -11    1    3    3    0    0  0.31009327172E+02 -0.53169226591E+02 -0.27149418795E+02  0.67272847188E+02  0.00000000000E+00 0. -1.
         11    1    3    3    0    0  0.63268880115E+02  0.12890823379E+02 -0.10738657417E+03  0.12530363455E+03  0.00000000000E+00 0.  1.
</event>
<event>
 7    1  0.6684706E-006  0.1507257E+03  0.7561462E-02  0.1199584E+00
          1   -1    0    0  501    0  0.00000000000E+00  0.00000000000E+00  0.12395483405E+03  0.12395483405E+03  0.00000000000E+00 0. -1.
         -1   -1    0    0    0  501 -0.00000000000E+00 -0.00000000000E+00 -0.23943015714E+03  0.23943015714E+03  0.00000000000E+00 0.  1.
         23    2    1    2    0    0  0.46513028815E+02  0.11783800356E+03 -0.94040946188E+02  0.18406552851E+03  0.94800645011E+02 0.  0.
          5    1    1    2  502    0  0.89497419000E+01  0.21642029990E+02  0.10164122404E+02  0.25870004376E+02  0.41800000000E+01 0. -1.
         -5    1    1    2    0  502 -0.55462770715E+02 -0.13948003355E+03 -0.31598499303E+02  0.15344945830E+03  0.41800000000E+01 0. -1.
        -11    1    3    3    0    0  0.25342872342E+02  0.44962641679E+02 -0.95063035292E+02  0.10817061063E+03  0.00000000000E+00 0.  1.
         11    1    3    3    0    0  0.21170156473E+02  0.72875361879E+02  0.10220891041E+01  0.75894917882E+02  0.00000000000E+00 0. -1.
</event>
<event>
 7    1  0.6684706E-006  0.1704022E+03  0.7561462E-02  0.1177429E+00
          1   -1    0    0  501    0  0.00000000000E+00  0.00000000000E+00  0.74747387485E+03  0.74747387485E+03  0.00000000000E+00 0. -1.
         -1   -1    0    0    0  501 -0.00000000000E+00 -0.00000000000E+00 -0.54312616538E+02  0.54312616538E+02  0.00000000000E+00 0.  1.
         23    2    1    2    0    0  0.10211882149E+02 -0.15882779126E+03  0.21611656863E+03  0.28357256876E+03  0.91523115665E+02 0.  0.
          5    1    1    2  502    0  0.33225380220E+01  0.13376268768E+03  0.46983452970E+03  0.48853398405E+03  0.41800000000E+01 0.  1.
         -5    1    1    2    0  502 -0.13534420171E+02  0.25065103581E+02  0.72101599781E+01  0.29679938575E+02  0.41800000000E+01 0.  1.
        -11    1    3    3    0    0  0.40298616211E+02 -0.13136897464E+03  0.13411840626E+03  0.19201440796E+03  0.00000000000E+00 0. -1.
         11    1    3    3    0    0 -0.30086734062E+02 -0.27458816628E+02  0.81998162374E+02  0.91558160804E+02  0.00000000000E+00 0.  1.
</event>
<event>
 7    1  0.6684706E-006  0.1074961E+03  0.7561462E-02  0.1265278E+00
          2   -1    0    0  501    0  0.00000000000E+00  0.00000000000E+00  0.53804366910E+03  0.53804366910E+03  0.00000000000E+00 0.  1.
         -2   -1    0    0    0  501 -0.00000000000E+00 -0.00000000000E+00 -0.32478000324E+02  0.32478000324E+02  0.00000000000E+00 0. -1.
         23    2    1    2    0    0  0.48495132535E+02 -0.17222690860E+02  0.10497924395E+03  0.14771587736E+03  0.90282555359E+02 0.  0.
          5    1    1    2  502    0 -0.21534327444E+02  0.70686679584E+02  0.24905355339E+03  0.25981816485E+03  0.41800000000E+01 0.  1.
         -5    1    1    2    0  502 -0.26960805091E+02 -0.53463988724E+02  0.15153287144E+03  0.16298762722E+03  0.41800000000E+01 0.  1.
        -11    1    3    3    0    0 -0.14519161561E+02 -0.97772710207E+01  0.75944832244E+02  0.77935990567E+02  0.00000000000E+00 0.  1.
         11    1    3    3    0    0  0.63014294096E+02 -0.74454198395E+01  0.29034411707E+02  0.69779886789E+02  0.00000000000E+00 0. -1.
</event>
<event>
 7    1  0.6684706E-006  0.7621563E+02  0.7561462E-02  0.1340147E+00
          2   -1    0    0  501    0  0.00000000000E+00  0.00000000000E+00  0.79275249605E+02  0.79275249605E+02  0.00000000000E+00 0. -1.
         -2   -1    0    0    0  501 -0.00000000000E+00 -0.00000000000E+00 -0.18238749095E+03  0.18238749095E+03  0.00000000000E+00 0.  1.
         23    2    1    2    0    0  0.39818297864E+02 -0.31787925682E+02 -0.43936021845E+02  0.11420163710E+03  0.92280392488E+02 0.  0.
          5    1    1    2  502    0 -0.64451981342E+02  0.29636422027E+02  0.11934814663E+02  0.72057529867E+02  0.41800000000E+01 0. -1.
         -5    1    1    2    0  502  0.24633683478E+02  0.21515036549E+01 -0.71111034165E+02  0.75403573587E+02  0.41800000000E+01 0. -1.
        -11    1    3    3    0    0  0.23548972031E+01 -0.15093251433E+02  0.27712694092E+02  0.31644038830E+02  0.00000000000E+00 0. -1.
         11    1    3    3    0    0  0.37463400661E+02 -0.16694674249E+02 -0.71648715937E+02  0.82557598274E+02  0.00000000000E+00 0.  1.
</event>
<event>
 7    1  0.6684706E-006  0.1232650E+03  0.7561462E-02  0.1237806E+00
         -2   -1    0    0    0  501 -0.00000000000E+00  0.00000000000E+00  0.27919314394E+02  0.27919314394E+02  0.00000000000E+00 0.  1.
          2   -1    0    0  501    0  0.00000000000E+00 -0.00000000000E+00 -0.59949247349E+03  0.59949247349E+03  0.00000000000E+00 0. -1.
         23    2    1    2    0    0 -0.52652335317E+02 -0.14105251481E+02 -0.21526565761E+03  0.24587175634E+03  0.10555752311E+03 0.  0.
          5    1    1    2  502    0  0.86914476443E+02 -0.81589317314E+01 -0.17464730757E+03  0.19529426214E+03  0.41800000000E+01 0. -1.
         -5    1    1    2    0  502 -0.34262141126E+02  0.22264183212E+02 -0.18166019391E+03  0.18624576941E+03  0.41800000000E+01 0. -1.
        -11    1    3    3    0    0 -0.80878467253E+02 -0.29276950525E+02 -0.16843822289E+03  0.18912932408E+03  0.00000000000E+00 0. -1.
         11    1    3    3    0    0  0.28226131936E+02  0.15171699045E+02 -0.46827434725E+02  0.56742432261E+02  0.00000000000E+00 0.  1.
</event>
<event>
 7    1  0.6684706E-006  0.1036008E+03  0.7561462E-02  0.1272901E+00
          2   -1    0    0  501    0  0.00000000000E+00  0.00000000000E+00  0.10264841599E+04  0.10264841599E+04  0.00000000000E+00 0. -1.
         -2   -1    0    0    0  501 -0.00000000000E+00 -0.00000000000E+00 -0.12889478738E+02  0.12889478738E+02  0.00000000000E+00 0.  1.
         23    2    1    2    0    0 -0.29546515574E+02 -0.44563210308E+01  0.30350274948E+03  0.31772883390E+03  0.89133818349E+02 0.  0.
          5    1    1    2  502    0  0.53831225828E+02  0.49180886834E+02  0.50691706371E+03  0.51215128857E+03  0.41800000000E+01 0. -1.
         -5    1    1    2    0  502 -0.24284710254E+02 -0.44724565804E+02  0.20317486798E+03  0.20949351617E+03  0.41800000000E+01 0. -1.
        -11    1    3    3    0    0 -0.51484182061E+02 -0.21025130975E+02  0.26274628300E+03  0.26856709844E+03  0.00000000000E+00 0. -1.
         11    1    3    3    0    0  0.21937666487E+02  0.16568809944E+02  0.40756466476E+02  0.49161735460E+02  0.00000000000E+00 0.  1.
</event>
<event>
 7    1  0.6684706E-006  0.1793915E+03  0.7561462E-02  0.1168393E+00
         -2   -1    0    0    0  501 -0.00000000000E+00  0.00000000000E+00  0.44119939414E+03  0.44119939414E+03  0.00000000000E+00 0. -1.
          2   -1    0    0  501    0  0.00000000000E+00 -0.00000000000E+00 -0.77764993011E+02  0.77764993011E+02  0.00000000000E+00 0.  1.
         23    2    1    2    0    0 -0.14549352805E+03 -0.34697796425E+02  0.16312293470E+03  0.23941992771E+03  0.91326371750E+02 0.  0.
          5    1    1    2  502    0  0.13484465143E+03 -0.14358902093E+02  0.17958957781E+03  0.22507586931E+03  0.41800000000E+01 0.  1.
         -5    1    1    2    0  502  0.10648876620E+02  0.49056698518E+02  0.20721888625E+02  0.54468590132E+02  0.41800000000E+01 0.  1.
        -11    1    3    3    0    0 -0.71383803377E+02 -0.61205808125E+02  0.10870917564E+03  0.14373407112E+03  0.00000000000E+00 0.  1.
         11    1    3    3    0    0 -0.74109724677E+02  0.26508011700E+02  0.54413759058E+02  0.95685856587E+02  0.00000000000E+00 0. -1.
</event>
<event>
 7    1  0.6684706E-006  0.9203443E+02  0.7561462E-02  0.1297999E+00
          2   -1    0    0  501    0  0.00000000000E+00  0.00000000000E+00  0.41222336277E+03  0.41222336277E+03  0.00000000000E+00 0.  1.
         -2   -1    0    0    0  501 -0.00000000000E+00 -0.00000000000E+00 -0.33056676385E+02  0.33056676385E+02  0.00000000000E+00 0. -1.
         23    2    1    2    0    0 -0.25634251814E+02 -0.29510236164E+02  0.15927638787E+03  0.18929749142E+03  0.94533611059E+02 0.  0.
          5    1    1    2  502    0  0.61730375725E+02  0.35979185597E+02  0.20327357201E+03  0.21550582025E+03  0.41800000000E+01 0.  1.
         -5    1    1    2    0  502 -0.36096123911E+02 -0.64689494327E+01  0.16616726501E+02  0.40476727484E+02  0.41800000000E+01 0.  1.
        -11    1    3    3    0    0  0.13369406870E+01  0.19553632756E+02 -0.89788171152E+00  0.19619840874E+02  0.00000000000E+00 0. -1.
         11    1    3    3    0    0 -0.26971192501E+02 -0.49063868920E+02  0.16017426958E+03  0.16967765054E+03  0.00000000000E+00 0.  1.
</event>
<event>
 7    1  0.6684706E-006  0.8387717E+02  0.7561462E-02  0.1318395E+00
         -1   -1    0    0    0  501 -0.00000000000E+00  0.00000000000E+00  0.25202324153E+02  0.25202324153E+02  0.00000000000E+00 0.  1.
          1   -1    0    0  501    0  0.00000000000E+00 -0.00000000000E+00 -0.84595943255E+03  0.84595943255E+03  0.00000000000E+00 0. -1.
         23    2    1    2    0    0 -0.25203037713E+02  0.74502230548E+01 -0.93037444093E+02  0.13128344494E+03  0.88818229988E+02 0.  0.
          5    1    1    2  502    0 -0.24208703466E+02 -0.27053351159E+02 -0.60465489472E+03  0.60575816894E+03  0.41800000000E+01 0. -1.
         -5    1    1    2    0  502  0.49411741179E+02  0.19603128104E+02 -0.12306476959E+03  0.13412014282E+03  0.41800000000E+01 0.  1.
        -11    1    3    3    0    0 -0.19538574304E+01 -0.32020265695E+02 -0.75852613369E+02  0.82357355038E+02  0.00000000000E+00 0.  1.
         11    1    3    3    0    0 -0.23249180283E+02  0.39470488750E+02 -0.17184830725E+02  0.48926089901E+02  0.00000000000E+00 0. -1.
</event>
<event>
 7    1  0.6684706E-006  0.9613190E+02  0.7561462E-02  0.1288647E+00
          1   -1    0    0  501    0  0.00000000000E+00  0.00000000000E+00  0.35196897380E+03  0.35196897380E+03  0.00000000000E+00 0. -1.
         -1   -1    0    0    0  501 -0.00000000000E+00 -0.00000000000E+00 -0.68732340429E+02  0.68732340429E+02  0.00000000000E+00 0.  1.
         23    2    1    2    0    0 -0.39300026073E+01 -0.36644919561E+02 -0.14879318528E+02  0.99491740808E+02  0.91208098977E+02 0.  0.
          5    1    1    2  502    0 -0.34476710879E+02  0.63574912253E+02  0.18549998410E+03  0.19914348988E+03  0.41800000000E+01 0. -1.
         -5    1    1    2    0  502  0.38406713486E+02 -0.26929992692E+02  0.11261596779E+03  0.12206608353E+03  0.41800000000E+01 0.  1.
        -11    1    3    3    0    0 -0.22011246292E+02 -0.46994932663E+02 -0.40959779992E+02  0.66111438014E+02  0.00000000000E+00 0.  1.
         11    1    3    3    0    0  0.18081243685E+02  0.10350013101E+02  0.26080461464E+02  0.33380302793E+02  0.00000000000E+00 0. -1.
</event>
<event>
 7    1  0.6684706E-006  0.8729423E+02  0.7561462E-02  0.1309540E+00
          2   -1    0    0  501    0  0.00000000000E+00  0.00000000000E+00  0.19269194377E+03  0.19269194377E+03  0.00000000000E+00 0. -1.
         -2   -1    0    0    0  501 -0.00000000000E+00 -0.00000000000E+00 -0.66087632380E+02  0.66087632380E+02  0.00000000000E+00 0.  1.
         23    2    1    2    0    0  0.44495802159E+01  0.65616814390E+01  0.14323050591E+02  0.90500804142E+02  0.89007816200E+02 0.  0.
          5    1    1    2  502    0  0.65506389043E+01 -0.46680753472E+02 -0.12024905762E+01  0.47338377649E+02  0.41800000000E+01 0.  1.
         -5    1    1    2    0  502 -0.11000219120E+02  0.40119072033E+02  0.11348375138E+03  0.12094039436E+03  0.41800000000E+01 0.  1.
        -11    1    3    3    0    0 -0.10674532369E+02 -0.37437762671E+02  0.19760600157E+02  0.43657909177E+02  0.00000000000E+00 0.  1.
         11    1    3    3    0    0  0.15124112585E+02  0.43999444110E+02 -0.54375495657E+01  0.46842894966E+02  0.00000000000E+00 0. -1.
</event>
<event>
 7    1  0.6684706E-006  0.1096786E+03  0.7561462E-02  0.1261166E+00
         -1   -1    0    0    0  501 -0.00000000000E+00  0.00000000000E+00  0.13368756475E+03  0.13368756475E+03  0.00000000000E+00 0.  1.
          1   -1    0    0  501    0  0.00000000000E+00 -0.00000000000E+00 -0.15720694699E+03  0.15720694699E+03  0.00000000000E+00 0. -1.
         23    2    1    2    0    0  0.62668607932E+02 -0.22183804928E+02  0.58525052475E+02  0.12719144523E+03  0.91285301949E+02 0.  0.
          5    1    1    2  502    0  0.29203608601E+02 -0.87652296061E+01  0.74875049669E+01  0.31673571570E+02  0.41800000000E+01 0.  1.
         -5    1    1    2    0  502 -0.91872216533E+02  0.30949034534E+02 -0.89531939679E+02  0.13202949493E+03  0.41800000000E+01 0.  1.
        -11    1    3    3    0    0  0.16151082800E+02  0.22065162240E+02 -0.13676483657E+02  0.30574091410E+02  0.00000000000E+00 0. -1.
         11    1    3    3    0    0  0.46517525133E+02 -0.44248967168E+02  0.72201536132E+02  0.96617353823E+02  0.00000000000E+00 0.  1.
</event>
<event>
 7    1  0.6684706E-006  0.6874746E+02  0.7561462E-02  0.1364405E+00
         -1   -1    0    0    0  501 -0.00000000000E+00  0.00000000000E+00  0.32533544343E+02  0.32533544343E+02  0.00000000000E+00 0.  1.
          1   -1    0    0  501    0  0.00000000000E+00 -0.00000000000E+00 -0.82428494560E+03  0.82428494560E+03  0.00000000000E+00 0. -1.
         23    2    1    2    0    0 -0.20303976864E+02  0.36063749690E+02 -0.70084771742E+02  0.12322236125E+03  0.92515023444E+02 0.  0.
          5    1    1    2  502    0 -0.22804302222E+02 -0.14931574672E+02 -0.62476008111E+03  0.62536838701E+03  0.41800000000E+01 0.  1.
         -5    1    1    2    0  502  0.43108279086E+02 -0.21132175018E+02 -0.96906548405E+02  0.10822774169E+03  0.41800000000E+01 0.  1.
        -11    1    3    3    0    0 -0.23058644548E+02 -0.23837101701E+01  0.16494043995E+02  0.28450600167E+02  0.00000000000E+00 0.  1.
         11    1    3    3    0    0  0.27546676841E+01  0.38447459860E+02 -0.86578815737E+02  0.94771761080E+02  0.00000000000E+00 0. -1.
</event>
<event>
 7    1  0.6684706E-006  0.8920665E+02  0.7561462E-02  0.1304784E+00
          2   -1    0    0  501    0  0.00000000000E+00  0.00000000000E+00  0.31003897755E+03  0.31003897755E+03  0.00000000000E+00 0. -1.
         -2   -1    0    0    0  501 -0.00000000000E+00 -0.00000000000E+00 -0.44657321337E+02  0.44657321337E+02  0.00000000000E+00 0.  1.
         23    2    1    2    0    0  0.60098807504E+01 -0.11002624581E+02  0.36111142395E+02  0.97922468001E+02  0.90153306762E+02 0.  0.
          5    1    1    2  502    0  0.34867977700E+02 -0.16013388434E+02  0.18988935803E+03  0.19377214756E+03  0.41800000000E+01 0. -1.
         -5    1    1    2    0  502 -0.40877858450E+02  0.27016013015E+02  0.39381155794E+02  0.63001683330E+02  0.41800000000E+01 0.  1.
        -11    1    3    3    0    0 -0.96069593017E+00 -0.50511837367E+02  0.15667561614E+02  0.52894622957E+02  0.00000000000E+00 0. -1.
         11    1    3    3    0    0  0.69705766805E+01  0.39509212786E+02  0.20443580781E+02  0.45027845045E+02  0.00000000000E+00 0.  1.
</event>
<event>
 7    1  0.6684706E-006  0.1302283E+03  0.7561462E-02  0.1227117E+00
          2   -1    0    0  501    0  0.00000000000E+00  0.00000000000E+00  0.21870093460E+03  0.21870093460E+03  0.00000000000E+00 0. -1.
         -2   -1    0    0    0  501 -0.00000000000E+00 -0.00000000000E+00 -0.80189567634E+02  0.80189567634E+02  0.00000000000E+00 0.  1.
         23    2    1    2    0    0  0.43682746946E+02  0.61765242463E+02  0.50841811091E+02  0.12843147901E+03  0.90479983915E+02 0.  0.
          5    1    1    2  502    0 -0.81998211858E+02 -0.11661713609E+02  0.47673322095E+02  0.95655216020E+02  0.41800000000E+01 0.  1.
         -5    1    1    2    0  502  0.38315464913E+02 -0.50103528854E+02  0.39996233778E+02  0.74803807200E+02  0.41800000000E+01 0.  1.
        -11    1    3    3    0    0  0.24443368198E+02 -0.19207796531E+02  0.35704924519E+00  0.31089309748E+02  0.00000000000E+00 0.  1.
         11    1    3    3    0    0  0.19239378748E+02  0.80973038995E+02  0.50484761845E+02  0.97342169265E+02  0.00000000000E+00 0. -1.
</event>
<event>
 7    1  0.6684706E-006  0.1217492E+03  0.7561462E-02  0.1240239E+00
          1   -1    0    0  501    0  0.00000000000E+00  0.00000000000E+00  0.10609829258E+04  0.10609829258E+04  0.00000000000E+00 0. -1.
         -1   -1    0    0    0  501 -0.00000000000E+00 -0.00000000000E+00 -0.19559224860E+02  0.19559224860E+02  0.00000000000E+00 0.  1.
         23    2    1    2    0    0  0.78163270444E+02 -0.36027339625E+02  0.39463583144E+03  0.41617088619E+03  0.10026615086E+03 0.  0.
          5    1    1    2  502    0 -0.33867917224E+02 -0.39724544413E+02  0.12970023838E+03  0.13987386990E+03  0.41800000000E+01 0.  1.
         -5    1    1    2    0  502 -0.44295353219E+02  0.75751884038E+02  0.51708763117E+03  0.52449739461E+03  0.41800000000E+01 0.  1.
        -11    1    3    3    0    0  0.56110379975E+02 -0.51640716297E+02  0.37523885067E+03  0.38290904060E+03  0.00000000000E+00 0. -1.
         11    1    3    3    0    0  0.22052890468E+02  0.15613376672E+02  0.19396980774E+02  0.33261845593E+02  0.00000000000E+00 0.  1.
</event>
<event>
 7    1  0.6684706E-006  0.1369693E+03  0.7561462E-02  0.1217466E+00
          3   -1    0    0  501    0  0.00000000000E+00  0.00000000000E+00  0.51150697523E+03  0.51150697523E+03  0.00000000000E+00 0. -1.
         -3   -1    0    0    0  501 -0.00000000000E+00 -0.00000000000E+00 -0.44353283378E+02  0.44353283378E+02  0.00000000000E+00 0.  1.
         23    2    1    2    0    0  0.11967534083E+02  0.91448719546E+02  0.12092005478E+03  0.17634604140E+03  0.89275844944E+02 0.  0.
          5    1    1    2  502    0 -0.61135106017E+02 -0.12954553659E+02  0.13423065482E+03  0.14812380882E+03  0.41800000000E+01 0.  1.
         -5    1    1    2    0  502  0.49167571934E+02 -0.78494165887E+02  0.21200298225E+03  0.23139040839E+03  0.41800000000E+01 0.  1.
        -11    1    3    3    0    0 -0.30321588086E+02  0.22703948173E+02  0.10014716925E+02  0.39181150083E+02  0.00000000000E+00 0.  1.
         11    1    3    3    0    0  0.42289122169E+02  0.68744771373E+02  0.11090533786E+03  0.13716489132E+03  0.00000000000E+00 0. -1.
</event>
<event>
 7    1  0.6684706E-006  0.1736684E+03  0.7561462E-02  0.1174075E+00
         -2   -1    0    0    0  501 -0.00000000000E+00  0.00000000000E+00  0.20487254522E+03  0.20487254522E+03  0.00000000000E+00 0.  1.
          2   -1    0    0  501    0  0.00000000000E+00 -0.00000000000E+00 -0.16206641512E+03  0.16206641512E+03  0.00000000000E+00 0. -1.
         23    2    1    2    0    0  0.52819676671E+02 -0.13303754534E+03  0.51423963321E+02  0.17663588482E+03  0.89815951200E+02 0.  0.
          5    1    1    2  502    0  0.19879926140E+02 -0.14917436921E+02 -0.10397992050E+01  0.25224887909E+02  0.41800000000E+01 0. -1.
         -5    1    1    2    0  502 -0.72699602811E+02  0.14795498226E+03 -0.75780340217E+01  0.16507818761E+03  0.41800000000E+01 0. -1.
        -11    1    3    3    0    0  0.41202790809E+02 -0.24221538162E+02  0.47120406695E+02  0.67116954702E+02  0.00000000000E+00 0.  1.
         11    1    3    3    0    0  0.11616885862E+02 -0.10881600718E+03  0.43035566257E+01  0.10951893012E+03  0.00000000000E+00 0. -1.
</event>
<event>
 7    1  0.6684706E-006  0.1004724E+03  0.7561462E-02  0.1279306E+00
         -3   -1    0    0    0  501 -0.00000000000E+00  0.00000000000E+00  0.17729809824E+03  0.17729809824E+03  0.00000000000E+00 0.  1.
          3   -1    0    0  501    0  0.00000000000E+00 -0.00000000000E+00 -0.10305174383E+03  0.10305174383E+03  0.00000000000E+00 0. -1.
         23    2    1    2    0    0  0.68158745358E+02  0.20995115646E+02  0.75331522308E+02  0.13633864655E+03  0.88470214424E+02 0.  0.
          5    1    1    2  502    0 -0.24447282613E+02  0.17508214150E+02 -0.56093959085E+02  0.63782535507E+02  0.41800000000E+01 0.  1.
         -5    1    1    2    0  502 -0.43711462745E+02 -0.38503329796E+02  0.55008791177E+02  0.80228660013E+02  0.41800000000E+01 0.  1.
        -11    1    3    3    0    0 -0.16817997572E+02  0.21386275665E+02  0.94062441485E+01  0.28787067550E+02  0.00000000000E+00 0.  1.
         11    1    3    3    0    0  0.84976742929E+02 -0.39116001913E+00  0.65925278159E+02  0.10755157900E+03  0.00000000000E+00 0. -1.
</event>
<event>
 7    1  0.6684706E-006  0.1808982E+03  0.7561462E-02  0.1166937E+00
         -2   -1    0    0    0  501 -0.00000000000E+00  0.00000000000E+00  0.20859324956E+02  0.20859324956E+02  0.00000000000E+00 0.  1.
          2   -1    0    0  501    0  0.00000000000E+00 -0.00000000000E+00 -0.18145257760E+04  0.18145257760E+04  0.00000000000E+00 0. -1.
         23    2    1    2    0    0 -0.10297325356E+03  0.12273755449E+03 -0.76742359801E+03  0.78920625239E+03  0.90771866765E+02 0.  0.
          5    1    1    2  502    0  0.11106354565E+03 -0.87990690015E+02 -0.96357425784E+03  0.97394573539E+03  0.41800000000E+01 0. -1.
         -5    1    1    2    0  502 -0.80902920883E+01 -0.34746864471E+02 -0.62668595200E+02  0.72233113189E+02  0.41800000000E+01 0. -1.
        -11    1    3    3    0    0  0.88088391181E+01  0.49966437670E+02 -0.21678508503E+03  0.22264324295E+03  0.00000000000E+00 0.  1.
         11    1    3    3    0    0 -0.11178209268E+03  0.72771116816E+02 -0.55063851297E+03  0.56656300943E+03  0.00000000000E+00 0. -1.
</event>
<event>
 7    1  0.6684706E-006  0.8044013E+02  0.7561462E-02  0.1327807E+00
         -2   -1    0    0    0  501 -0.00000000000E+00  0.00000000000E+00  0.18122481559E+03  0.18122481559E+03  0.00000000000E+00 0.  1.
          2   -1    0    0  501    0  0.00000000000E+00 -0.00000000000E+00 -0.10993226106E+03  0.10993226106E+03  0.00000000000E+00 0. -1.
         23    2    1    2    0    0 -0.21615424797E+02 -0.41129000914E+02  0.11135811011E+03  0.15182742752E+03  0.92152687180E+02 0.  0.
          5    1    1    2  502    0  0.34434187430E+01 -0.11627868873E+02 -0.73189612575E+02  0.74305156322E+02  0.41800000000E+01 0.  1.
         -5    1    1    2    0  502  0.18172006054E+02  0.52756869787E+02  0.33124056997E+02  0.65024492814E+02  0.41800000000E+01 0.  1.
        -11    1    3    3    0    0 -0.23183873115E+02  0.20199594082E+02  0.73663381602E+02  0.79823614067E+02  0.00000000000E+00 0.  1.
         11    1    3    3    0    0  0.15684483175E+01 -0.61328594995E+02  0.37694728503E+02  0.72003813449E+02  0.00000000000E+00 0. -1.
</event>
<event>
 7    1  0.6684706E-006  0.1999028E+03  0.7561462E-02  0.1149821E+00
          1   -1    0    0  501    0  0.00000000000E+00  0.00000000000E+00  0.22132707321E+03  0.22132707321E+03  0.00000000000E+00 0. -1.
         -1   -1    0    0    0  501 -0.00000000000E+00 -0.00000000000E+00 -0.26194533779E+03  0.26194533779E+03  0.00000000000E+00 0.  1.
         23    2    1    2    0    0 -0.72880249591E+02  0.15176920615E+03 -0.15336734944E+03  0.24514284782E+03  0.90708595224E+02 0.  0.
          5    1    1    2  502    0  0.10463663305E+03 -0.14164778710E+03  0.94689579693E+02  0.19999127348E+03  0.41800000000E+01 0. -1.
         -5    1    1    2    0  502 -0.31756383462E+02 -0.10121419051E+02  0.18059505172E+02  0.38138289701E+02  0.41800000000E+01 0. -1.
        -11    1    3    3    0    0 -0.92799598152E+02  0.13604742526E+03 -0.14151999683E+03  0.21713723043E+03  0.00000000000E+00 0.  1.
         11    1    3    3    0    0  0.19919348561E+02  0.15721780892E+02 -0.11847352611E+02  0.28005617390E+02  0.00000000000E+00 0. -1.
</event>
<event>
 7    1  0.6684706E-006  0.1900982E+03  0.7561462E-02  0.1158373E+00
         -4   -1    0    0    0  501 -0.00000000000E+00  0.00000000000E+00  0.30415168048E+03  0.30415168048E+03  0.00000000000E+00 0.  1.
          4   -1    0    0  501    0  0.00000000000E+00 -0.00000000000E+00 -0.13816025273E+03  0.13816025273E+03  0.00000000000E+00 0. -1.
         23    2    1    2    0    0  0.61746958335E+02  0.16046314638E+03  0.99917755152E+02  0.21964958042E+03  0.93280609853E+02 0.  0.
          5    1    1    2  502    0 -0.46534962482E+02  0.42996949440E-01 -0.38427217335E+01  0.46880096974E+02  0.41800000000E+01 0.  1.
         -5    1    1    2    0  502 -0.15211995853E+02 -0.16050614333E+03  0.69916394337E+02  0.17578225582E+03  0.41800000000E+01 0.  1.
        -11    1    3    3    0    0  0.23701352739E+02  0.74737744413E+02  0.98440637839E+02  0.12584928979E+03  0.00000000000E+00 0.  1.
         11    1    3    3    0    0  0.38045605596E+02  0.85725401963E+02  0.14771173124E+01  0.93800290631E+02  0.00000000000E+00 0. -1.
</event>
<event>
 7    1  0.6684706E-006  0.9509591E+02  0.7561462E-02  0.1290960E+00
         -1   -1    0    0    0  501 -0.00000000000E+00  0.00000000000E+00  0.20996152263E+03  0.20996152263E+03  0.00000000000E+00 0.  1.
          1   -1    0    0  501    0  0.00000000000E+00 -0.00000000000E+00 -0.83828646589E+02  0.83828646589E+02  0.00000000000E+00 0. -1.
         23    2    1    2    0    0 -0.73184271813E+02 -0.53109502487E+01  0.78847259802E+02  0.14124657440E+03  0.91375929919E+02 0.  0.
          5    1    1    2  502    0  0.22964519674E+02 -0.28191203894E+02  0.76904861443E+02  0.85170084270E+02  0.41800000000E+01 0. -1.
         -5    1    1    2    0  502  0.50219752139E+02  0.33502154143E+02 -0.29619245204E+02  0.67373510548E+02  0.41800000000E+01 0. -1.
        -11    1    3    3    0    0  0.27971828269E+01 -0.16093866828E+02 -0.13487297215E+02  0.21183577776E+02  0.00000000000E+00 0. -1.
         11    1    3    3    0    0 -0.75981454640E+02  0.10782916579E+02  0.92334557017E+02  0.12006299663E+03  0.00000000000E+00 0.  1.
</event>
<event>
 7    1  0.6684706E-006  0.1274099E+03  0.7561462E-02  0.1231350E+00
         -2   -1    0    0    0  501 -0.00000000000E+00  0.00000000000E+00  0.32755030098E+03  0.32755030098E+03  0.00000000000E+00 0.  1.
          2   -1    0    0  501    0  0.00000000000E+00 -0.00000000000E+00 -0.64866776307E+02  0.64866776307E+02  0.00000000000E+00 0. -1.
         23    2    1    2    0    0 -0.42488738542E+02 -0.79966135552E+02  0.15152968897E+03  0.20215362821E+03  0.98513791015E+02 0.  0.
          5    1    1    2  502    0  0.68602677366E+02  0.25477110130E+01  0.30020430056E+02  0.75043432716E+02  0.41800000000E+01 0.  1.
         -5    1    1    2    0  502 -0.26113938824E+02  0.77418424539E+02  0.81133405648E+02  0.11522001636E+03  0.41800000000E+01 0.  1.
        -11    1    3    3    0    0 -0.49562395807E+02 -0.40128383118E+02  0.23632324587E+02  0.68008859534E+02  0.00000000000E+00 0. -1.
         11    1    3    3    0    0  0.70736572655E+01 -0.39837752434E+02  0.12789736438E+03  0.13414476867E+03  0.00000000000E+00 0.  1.
</event>
<event>
 7    1  0.6684706E-006  0.2752643E+03  0.7561462E-02  0.1098304E+00
         -2   -1    0    0    0  501 -0.00000000000E+00  0.00000000000E+00  0.39994716764E+03  0.39994716764E+03  0.00000000000E+00 0.  1.
          2   -1    0    0  501    0  0.00000000000E+00 -0.00000000000E+00 -0.35702454719E+03  0.35702454719E+03  0.00000000000E+00 0. -1.
         23    2    1    2    0    0 -0.19956646210E+02  0.26572530352E+03  0.26670595576E+03  0.38719405818E+03  0.88198453456E+02 0.  0.
          5    1    1    2  502    0 -0.13133518187E+02 -0.12663889535E+03 -0.33472220136E+02  0.13171089946E+03  0.41800000000E+01 0. -1.
         -5    1    1    2    0  502  0.33090164397E+02 -0.13908640817E+03 -0.19031111518E+03  0.23806675719E+03  0.41800000000E+01 0. -1.
        -11    1    3    3    0    0 -0.52749160188E+02  0.19738277672E+03  0.18323800508E+03  0.27444234540E+03  0.00000000000E+00 0. -1.
         11    1    3    3    0    0  0.32792513978E+02  0.68342526802E+02  0.83467950683E+02  0.11275171278E+03  0.00000000000E+00 0.  1.
</event>
<event>
 7    1  0.6684706E-006  0.1557282E+03  0.7561462E-02  0.1193606E+00
         -1   -1    0    0    0  501 -0.00000000000E+00  0.00000000000E+00  0.28983349209E+02  0.28983349209E+02  0.00000000000E+00 0.  1.
          1   -1    0    0  501    0  0.00000000000E+00 -0.00000000000E+00 -0.10040555316E+04  0.10040555316E+04  0.00000000000E+00 0. -1.
         23    2    1    2    0    0  0.77128123414E+02 -0.98723519543E+02 -0.34014845205E+03  0.37389421563E+03  0.91656065373E+02 0.  0.
          5    1    1    2  502    0 -0.12306966840E+02  0.90923215018E+02 -0.50920385092E+03  0.51742103422E+03  0.41800000000E+01 0.  1.
         -5    1    1    2    0  502 -0.64821156574E+02  0.78003045251E+01 -0.12571987944E+03  0.14172363098E+03  0.41800000000E+01 0.  1.
        -11    1    3    3    0    0  0.83233204560E+02 -0.35200399156E+02 -0.22028158168E+03  0.23809831934E+03  0.00000000000E+00 0. -1.
         11    1    3    3    0    0 -0.61050811453E+01 -0.63523120387E+02 -0.11986687036E+03  0.13579589629E+03  0.00000000000E+00 0.  1.
</event>
<event>
 7    1  0.6684706E-006  0.9681914E+02  0.7561462E-02  0.1287131E+00
          1   -1    0    0  501    0  0.00000000000E+00  0.00000000000E+00  0.26882383234E+03  0.26882383234E+03  0.00000000000E+00 0. -1.
         -1   -1    0    0    0  501 -0.00000000000E+00 -0.00000000000E+00 -0.50926489994E+02  0.50926489994E+02  0.00000000000E+00 0.  1.
         23    2    1    2    0    0  0.25057227399E+01 -0.36688354463E+02  0.59094411955E+02  0.11429261864E+03  0.90655055857E+02 0.  0.
          5    1    1    2  502    0  0.12430941864E+01 -0.43894244749E+02  0.29737382324E+02  0.53198066814E+02  0.41800000000E+01 0. -1.
         -5    1    1    2    0  502 -0.37488169264E+01  0.80582599212E+02  0.12906554807E+03  0.15225963688E+03  0.41800000000E+01 0. -1.
        -11    1    3    3    0    0 -0.19440374364E+02 -0.41902896038E+02  0.74015405085E+02  0.87247126266E+02  0.00000000000E+00 0. -1.
         11    1    3    3    0    0  0.21946097104E+02  0.52145415754E+01 -0.14920993130E+02  0.27045492377E+02  0.00000000000E+00 0.  1.
</event>
<event>
 7    1  0.6684706E-006  0.1662741E+03  0.7561462E-02  0.1181790E+00
          4   -1    0    0  501    0  0.00000000000E+00  0.00000000000E+00  0.86027372293E+02  0.86027372293E+02  0.00000000000E+00 0. -1.
         -4   -1    0    0    0  501 -0.00000000000E+00 -0.00000000000E+00 -0.32404899378E+03  0.32404899378E+03  0.00000000000E+00 0.  1.
         23    2    1    2    0    0  0.39538777159E+02  0.12010961350E+03 -0.11864265423E+03  0.19586051080E+03  0.91080327922E+02 0.  0.
          5    1    1    2  502    0  0.28487954629E+02  0.94621749116E+01 -0.11743217681E+02  0.32503413275E+02  0.41800000000E+01 0.  1.
         -5    1    1    2    0  502 -0.68026731788E+02 -0.12957178841E+03 -0.10763574958E+03  0.18171244200E+03  0.41800000000E+01 0.  1.
        -11    1    3    3    0    0  0.47750299038E+02  0.14492496948E+02 -0.37811797346E+02  0.62608749745E+02  0.00000000000E+00 0.  1.
         11    1    3    3    0    0 -0.82115218792E+01  0.10561711655E+03 -0.80830856882E+02  0.13325176105E+03  0.00000000000E+00 0. -1.
</event>
<event>
 7    1  0.6684706E-006  0.2112801E+03  0.7561462E-02  0.1140556E+00
         -2   -1    0    0    0  501 -0.00000000000E+00  0.00000000000E+00  0.40973166215E+02  0.40973166215E+02  0.00000000000E+00 0.  1.
          2   -1    0    0  501    0  0.00000000000E+00 -0.00000000000E+00 -0.21217498439E+04  0.21217498439E+04  0.00000000000E+00 0. -1.
         23    2    1    2    0    0 -0.18142647918E+03 -0.94920629767E+02 -0.45383978134E+03  0.50610083895E+03  0.90785564644E+02 0.  0.
          5    1    1    2  502    0  0.29541138532E+02  0.44543380076E+02 -0.11913009706E+04  0.11925067155E+04  0.41800000000E+01 0. -1.
         -5    1    1    2    0  502  0.15188534065E+03  0.50377249691E+02 -0.43563592574E+03  0.46411545566E+03  0.41800000000E+01 0.  1.
        -11    1    3    3    0    0 -0.13403248391E+03 -0.48518312800E+02 -0.38484210860E+03  0.41039271676E+03  0.00000000000E+00 0.  1.
         11    1    3    3    0    0 -0.47393995270E+02 -0.46402316967E+02 -0.68997672743E+02  0.95708122181E+02  0.00000000000E+00 0. -1.
</event>
<event>
 7    1  0.6684706E-006  0.1467966E+03  0.7561462E-02  0.1204466E+00
         -3   -1    0    0    0  501 -0.00000000000E+00  0.00000000000E+00  0.76441969784E+03  0.76441969784E+03  0.00000000000E+00 0.  1.
          3   -1    0    0  501    0  0.00000000000E+00 -0.00000000000E+00 -0.44252834834E+02  0.44252834834E+02  0.00000000000E+00 0. -1.
         23    2    1    2    0    0 -0.12734573116E+03  0.36862746003E+02  0.50110793784E+03  0.52369819362E+03  0.74664819995E+02 0.  0.
          5    1    1    2  502    0  0.10791892716E+03 -0.65367341095E+02  0.10029776436E+03  0.16123429553E+03  0.41800000000E+01 0.  1.
         -5    1    1    2    0  502  0.19426803997E+02  0.28504595092E+02  0.11876116080E+03  0.12374004352E+03  0.41800000000E+01 0.  1.
        -11    1    3    3    0    0 -0.68651770489E+02  0.18392140541E+02  0.13609846064E+03  0.15353868377E+03  0.00000000000E+00 0. -1.
         11    1    3    3    0    0 -0.58693960666E+02  0.18470605462E+02  0.36500947720E+03  0.37015950985E+03  0.00000000000E+00 0.  1.
</event>
<event>
 7    1  0.6684706E-006  0.1063353E+03  0.7561462E-02  0.1267511E+00
         -2   -1    0    0    0  501 -0.00000000000E+00  0.00000000000E+00  0.22097518028E+02  0.22097518028E+02  0.00000000000E+00 0.  1.
          2   -1    0    0  501    0  0.00000000000E+00 -0.00000000000E+00 -0.60577233998E+03  0.60577233998E+03  0.00000000000E+00 0. -1.
         23    2    1    2    0    0 -0.13379290890E+02  0.19162717446E+02 -0.15131773621E+03  0.17717396891E+03  0.89147870434E+02 0.  0.
          5    1    1    2  502    0  0.63281979502E+02 -0.33749731265E+02 -0.29880223548E+03  0.30731726541E+03  0.41800000000E+01 0.  1.
         -5    1    1    2    0  502 -0.49902688612E+02  0.14587013819E+02 -0.13355485027E+03  0.14337862370E+03  0.41800000000E+01 0.  1.
        -11    1    3    3    0    0  0.11568560112E+01  0.52390161911E+02 -0.64629837642E+02  0.83205067722E+02  0.00000000000E+00 0.  1.
         11    1    3    3    0    0 -0.14536146901E+02 -0.33227444465E+02 -0.86687898565E+02  0.93968901186E+02  0.00000000000E+00 0. -1.
</event>
<event>
 7    1  0.6684706E-006  0.3606933E+03  0.7561462E-02  0.1058310E+00
          1   -1    0    0  501    0  0.00000000000E+00  0.00000000000E+00  0.11343848928E+04  0.11343848928E+04  0.00000000000E+00 0. -1.
         -1   -1    0    0    0  501 -0.00000000000E+00 -0.00000000000E+00 -0.12319310438E+03  0.12319310438E+03  0.00000000000E+00 0.  1.
         23    2    1    2    0    0 -0.34367652775E+03 -0.90722861787E+02  0.56438036531E+03  0.67308513360E+03  0.90411320908E+02 0.  0.
          5    1    1    2  502    0  0.31026937052E+03  0.70167990946E+02  0.44224484474E+03  0.54478308007E+03  0.41800000000E+01 0.  1.
         -5    1    1    2    0  502  0.33407157234E+02  0.20554870841E+02  0.45665783856E+01  0.39709783529E+02  0.41800000000E+01 0.  1.
        -11    1    3    3    0    0 -0.14277522038E+03 -0.77546253985E+02  0.29496010315E+03  0.33674864144E+03  0.00000000000E+00 0.  1.
         11    1    3    3    0    0 -0.20090130737E+03 -0.13176607802E+02  0.26942026217E+03  0.33633649217E+03  0.00000000000E+00 0. -1.
</event>
<event>
 7    1  0.6684706E-006  0.1584333E+03  0.7561462E-02  0.1190477E+00
          1   -1    0    0  501    0  0.00000000000E+00  0.00000000000E+00  0.97280641986E+02  0.97280641986E+02  0.00000000000E+00 0. -1.
         -1   -1    0    0    0  501 -0.00000000000E+00 -0.00000000000E+00 -0.29920651624E+03  0.29920651624E+03  0.00000000000E+00 0.  1.
         23    2    1    2    0    0 -0.50077995730E+02 -0.11843312809E+03 -0.12319000125E+03  0.20057902184E+03  0.92314441499E+02 0.  0.
          5    1    1    2  502    0  0.47495204854E+02  0.82707871409E+01 -0.70258646728E+02  0.85310903430E+02  0.41800000000E+01 0.  1.
         -5    1    1    2    0  502  0.25827908756E+01  0.11016234095E+03 -0.84772262762E+01  0.11059723296E+03  0.41800000000E+01 0.  1.
        -11    1    3    3    0    0  0.23665094911E+02 -0.71807452920E+01 -0.21726842220E+02  0.32918923023E+02  0.00000000000E+00 0.  1.
         11    1    3    3    0    0 -0.73743090641E+02 -0.11125238280E+03 -0.10146315903E+03  0.16766009882E+03  0.00000000000E+00 0. -1.
</event>
<event>
 7    1  0.6684706E-006  0.1171435E+03  0.7561462E-02  0.1247885E+00
          2   -1    0    0  501    0  0.00000000000E+00  0.00000000000E+00  0.19355505434E+03  0.19355505434E+03  0.00000000000E+00 0. -1.
         -2   -1    0    0    0  501 -0.00000000000E+00 -0.00000000000E+00 -0.96979758146E+02  0.96979758146E+02  0.00000000000E+00 0.  1.
         23    2    1    2    0    0 -0.68262110510E+02 -0.52137520293E+01 -0.76488965458E+01  0.11390790746E+03  0.90717180418E+02 0.  0.
          5    1    1    2  502    0  0.96501859347E+02 -0.17695690193E+02  0.99366065226E+02  0.13970266149E+03  0.41800000000E+01 0.  1.
         -5    1    1    2    0  502 -0.28239748837E+02  0.22909442222E+02  0.48581275109E+01  0.36924243529E+02  0.41800000000E+01 0.  1.
        -11    1    3    3    0    0 -0.23029100907E+02 -0.37432689150E+02  0.23910327650E+02  0.50032484187E+02  0.00000000000E+00 0. -1.
         11    1    3    3    0    0 -0.45233009604E+02  0.32218937121E+02 -0.31559224196E+02  0.63875423277E+02  0.00000000000E+00 0.  1.
</event>
<event>
 6    1  0.6684706E-006  0.2206151E+03  0.7561462E-02  0.1133425E+00
         -1   -1    0    0    0  501 -0.00000000000E+00  0.00000000000E+00  0.32074905014E+03  0.32074905014E+03  0.00000000000E+00 0.  1.
          1   -1    0    0  501    0  0.00000000000E+00 -0.00000000000E+00 -0.15715798947E+03  0.15715798947E+03  0.00000000000E+00 0. -1.
          5    1    1    2  502    0 -0.15598314430E+03 -0.13398120528E+02  0.43418024440E+02  0.16252030084E+03  0.41800000000E+01 0. -1.
         -5    1    1    2    0  502 -0.26525213800E+02 -0.76424030291E+02  0.40739574429E+02  0.90671962026E+02  0.41800000000E+01 0. -1.
        -11    1    1    2    0    0  0.85208754606E+02  0.46939775649E+02  0.65957324023E+02  0.11753400781E+03  0.00000000000E+00 0.  1.
         11    1    1    2    0    0  0.97299603492E+02  0.42882375170E+02  0.13476137776E+02  0.10718076893E+03  0.00000000000E+00 0. -1.
</event>
<event>
 7    1  0.6684706E-006  0.1057534E+03  0.7561462E-02  0.1268642E+00
          2   -1    0    0  501    0  0.00000000000E+00  0.00000000000E+00  0.12709986579E+04  0.12709986579E+04  0.00000000000E+00 0. -1.
         -2   -1    0    0    0  501 -0.00000000000E+00 -0.00000000000E+00 -0.21111530543E+02  0.21111530543E+02  0.00000000000E+00 0.  1.
         23    2    1    2    0    0  0.32540617790E+02 -0.43911996797E+02  0.16918735338E+03  0.20282194700E+03  0.97597266221E+02 0.  0.
          5    1    1    2  502    0  0.17913984712E+02  0.59288106658E+02  0.86381836198E+03  0.86604597183E+03  0.41800000000E+01 0.  1.
         -5    1    1    2    0  502 -0.50454602502E+02 -0.15376109861E+02  0.21688141202E+03  0.22324226963E+03  0.41800000000E+01 0.  1.
        -11    1    3    3    0    0 -0.23769234863E+02 -0.30439708405E+02  0.12250210321E+03  0.12844577714E+03  0.00000000000E+00 0. -1.
         11    1    3    3    0    0  0.56309852653E+02 -0.13472288392E+02  0.46685250166E+02  0.74376169862E+02  0.00000000000E+00 0.  1.
</event>
<event>
 7    1  0.1031949E-005  0.1099510E+03  0.7561462E-02  0.1260661E+00
          1   -1    0    0  501    0  0.00000000000E+00  0.00000000000E+00  0.56992659147E+02  0.56992659147E+02  0.00000000000E+00 0. -1.
         -1   -1    0    0    0  501 -0.00000000000E+00 -0.00000000000E+00 -0.23194405258E+03  0.23194405258E+03  0.00000000000E+00 0.  1.
         23    2    1    2    0    0 -0.31433094995E+02 -0.22428600591E+02 -0.10303053380E+03  0.13956753287E+03  0.85864566337E+02 0.  0.
          5    1    1    2  502    0 -0.46001932456E+02  0.69348733715E+01 -0.73674503808E+01  0.47286594120E+02  0.41800000000E+01 0. -1.
         -5    1    1    2    0  502  0.77435027450E+02  0.15493727220E+02 -0.64553409250E+02  0.10208258473E+03  0.41800000000E+01 0. -1.
        -11    1    3    3    0    0  0.29382985368E+02 -0.14550242537E+02 -0.37727315128E+02  0.49984194440E+02  0.00000000000E+00 0. -1.
         11    1    3    3    0    0 -0.60816080362E+02 -0.78783580544E+01 -0.65303218671E+02  0.89583338434E+02  0.00000000000E+00 0.  1.
</event>
<event>
 7    1  0.6684706E-006  0.1914113E+03  0.7561462E-02  0.1157195E+00
          1   -1    0    0  501    0  0.00000000000E+00  0.00000000000E+00  0.25094255655E+03  0.25094255655E+03  0.00000000000E+00 0. -1.
         -1   -1    0    0    0  501 -0.00000000000E+00 -0.00000000000E+00 -0.15636269988E+03  0.15636269988E+03  0.00000000000E+00 0.  1.
         23    2    1    2    0    0  0.15624949744E+03  0.30942083162E+02 -0.47052532499E+01  0.18174976458E+03  0.87404345187E+02 0.  0.
          5    1    1    2  502    0 -0.64876805706E+02 -0.75745549351E+02  0.59512484132E+02  0.11621358067E+03  0.41800000000E+01 0.  1.
         -5    1    1    2    0  502 -0.91372691730E+02  0.44803466190E+02  0.39772625789E+02  0.10934191117E+03  0.41800000000E+01 0.  1.
        -11    1    3    3    0    0  0.16676272265E+03  0.23824984597E+02 -0.76880523156E+00  0.16845778883E+03  0.00000000000E+00 0. -1.
         11    1    3    3    0    0 -0.10513225212E+02  0.71170985650E+01 -0.39364480183E+01  0.13291975750E+02  0.00000000000E+00 0.  1.
</event>
<event>
 7    1  0.6684706E-006  0.8227243E+02  0.7561462E-02  0.1322724E+00
         -1   -1    0    0    0  501 -0.00000000000E+00  0.00000000000E+00  0.41101746670E+02  0.41101746670E+02  0.00000000000E+00 0.  1.
          1   -1    0    0  501    0  0.00000000000E+00 -0.00000000000E+00 -0.39504857945E+03  0.39504857945E+03  0.00000000000E+00 0. -1.
         23    2    1    2    0    0 -0.18392996621E+02  0.66241031310E+02 -0.16859447400E+03  0.20220710736E+03  0.87962725356E+02 0.  0.
          5    1    1    2  502    0  0.54798268660E+01  0.45405190606E+01  0.17131218675E+02  0.19015674301E+02  0.41800000000E+01 0. -1.
         -5    1    1    2    0  502  0.12913169756E+02 -0.70781550371E+02 -0.20248357746E+03  0.21492754446E+03  0.41800000000E+01 0. -1.
        -11    1    3    3    0    0 -0.33053998774E+02  0.28189184058E+02 -0.15216263652E+03  0.15824242442E+03  0.00000000000E+00 0. -1.
         11    1    3    3    0    0  0.14661002152E+02  0.38051847253E+02 -0.16431837473E+02  0.43964682942E+02  0.00000000000E+00 0.  1.
</event>
<event>
 7    1  0.6684706E-006  0.9943943E+02  0.7561462E-02  0.1281479E+00
          1   -1    0    0  501    0  0.00000000000E+00  0.00000000000E+00  0.57141076695E+03  0.57141076695E+03  0.00000000000E+00 0. -1.
         -1   -1    0    0    0  501 -0.00000000000E+00 -0.00000000000E+00 -0.24205502888E+02  0.24205502888E+02  0.00000000000E+00 0.  1.
         23    2    1    2    0    0  0.18405742085E+02  0.32115140969E+02  0.16875179414E+03  0.19532403824E+03  0.91127154388E+02 0.  0.
          5    1    1    2  502    0  0.36720718426E+02 -0.25528783995E+02  0.50247432519E+02  0.67397380133E+02  0.41800000000E+01 0. -1.
         -5    1    1    2    0  502 -0.55126460511E+02 -0.65863569743E+01  0.32820603741E+03  0.33289485147E+03  0.41800000000E+01 0. -1.
        -11    1    3    3    0    0  0.34299769275E+02 -0.22753862816E+02  0.66989584679E+02  0.78624531165E+02  0.00000000000E+00 0.  1.
         11    1    3    3    0    0 -0.15894027190E+02  0.54869003785E+02  0.10176220946E+03  0.11669950707E+03  0.00000000000E+00 0. -1.
</event>
<event>
 7    1  0.6684706E-006  0.9011151E+02  0.7561462E-02  0.1302582E+00
          2   -1    0    0  501    0  0.00000000000E+00  0.00000000000E+00  0.19874663061E+02  0.19874663061E+02  0.00000000000E+00 0. -1.
         -2   -1    0    0    0  501 -0.00000000000E+00 -0.00000000000E+00 -0.72821722259E+03  0.72821722259E+03  0.00000000000E+00 0.  1.
         23    2    1    2    0    0 -0.37692382676E+02 -0.25955193052E+02 -0.40007309231E+03  0.41228460987E+03  0.88463170780E+02 0.  0.
          5    1    1    2  502    0  0.57071260150E+02  0.45615989881E+01 -0.50692426913E+02  0.76584146315E+02  0.41800000000E+01 0.  1.
         -5    1    1    2    0  502 -0.19378877474E+02  0.21393594064E+02 -0.25757704030E+03  0.25922312947E+03  0.41800000000E+01 0.  1.
        -11    1    3    3    0    0 -0.63830301782E+02 -0.17668196477E+02 -0.33795793005E+03  0.34438646180E+03  0.00000000000E+00 0.  1.
         11    1    3    3    0    0  0.26137919106E+02 -0.82869965755E+01 -0.62115162266E+02  0.67898148066E+02  0.00000000000E+00 0. -1.
</event>
<event>
 7    1  0.6684706E-006  0.2004442E+03  0.7561462E-02  0.1149365E+00
          2   -1    0    0  501    0  0.00000000000E+00  0.00000000000E+00  0.22859818111E+03  0.22859818111E+03  0.00000000000E+00 0. -1.
         -2   -1    0    0    0  501 -0.00000000000E+00 -0.00000000000E+00 -0.19667901300E+03  0.19667901300E+03  0.00000000000E+00 0.  1.
         23    2    1    2    0    0 -0.17833031348E+03 -0.20118045225E+02  0.43648997669E+02  0.20620711504E+03  0.91704432001E+02 0.  0.
          5    1    1    2  502    0  0.17393053034E+02  0.50855632594E+02 -0.11725933426E+02  0.55170495513E+02  0.41800000000E+01 0. -1.
         -5    1    1    2    0  502  0.16093726044E+03 -0.30737587369E+02 -0.38961391916E-02  0.16389958356E+03  0.41800000000E+01 0. -1.
        -11    1    3    3    0    0 -0.92790321114E+02  0.77507540526E+01 -0.20962931013E+02  0.95444027354E+02  0.00000000000E+00 0.  1.
         11    1    3    3    0    0 -0.85539992361E+02 -0.27868799278E+02  0.64611928682E+02  0.11076308769E+03  0.00000000000E+00 0. -1.
</event>
<event>
 7    1  0.6684706E-006  0.1047695E+03  0.7561462E-02  0.1270575E+00
         -1   -1    0    0    0  501 -0.00000000000E+00  0.00000000000E+00  0.56689933930E+03  0.56689933930E+03  0.00000000000E+00 0.  1.
          1   -1    0    0  501    0  0.00000000000E+00 -0.00000000000E+00 -0.29488218854E+02  0.29488218854E+02  0.00000000000E+00 0. -1.
         23    2    1    2    0    0  0.52456073441E+01  0.52812266002E+02  0.34276845222E+03  0.35902004819E+03  0.92674329363E+02 0.  0.
          5    1    1    2  502    0 -0.50345172555E+02 -0.15041809842E+02  0.16113726456E+03  0.16953932544E+03  0.41800000000E+01 0.  1.
         -5    1    1    2    0  502  0.45099565211E+02 -0.37770456159E+02  0.33505403661E+02  0.67828184519E+02  0.41800000000E+01 0.  1.
        -11    1    3    3    0    0 -0.38468662499E+02  0.28091169202E+02  0.23946189478E+03  0.24415353946E+03  0.00000000000E+00 0.  1.
         11    1    3    3    0    0  0.43714269843E+02  0.24721096800E+02  0.10330655744E+03  0.11486650872E+03  0.00000000000E+00 0. -1.
</event>
<event>
 7    1  0.6684706E-006  0.1202316E+03  0.7561462E-02  0.1242715E+00
          1   -1    0    0  501    0  0.00000000000E+00  0.00000000000E+00  0.88690277706E+02  0.88690277706E+02  0.00000000000E+00 0. -1.
         -1   -1    0    0    0  501 -0.00000000000E+00 -0.00000000000E+00 -0.27078179618E+03  0.27078179618E+03  0.00000000000E+00 0.  1.
         23    2    1    2    0    0 -0.70827054367E+01 -0.65563672005E+02 -0.15911248447E+03  0.19431862560E+03  0.89967692751E+02 0.  0.
          5    1    1    2  502    0 -0.74667371433E+01 -0.40992994542E+02  0.23386697763E+02  0.47964443053E+02  0.41800000000E+01 0. -1.
         -5    1    1    2    0  502  0.14549442580E+02  0.10655666655E+03 -0.46365731770E+02  0.11718900523E+03  0.41800000000E+01 0.  1.
        -11    1    3    3    0    0  0.24058351688E+02 -0.51395017269E+02 -0.37580581235E+02  0.68062854568E+02  0.00000000000E+00 0.  1.
         11    1    3    3    0    0 -0.31141057124E+02 -0.14168654736E+02 -0.12153190323E+03  0.12625577103E+03  0.00000000000E+00 0. -1.
</event>
<event>
 7    1  0.6684706E-006  0.5742630E+02  0.7561462E-02  0.1408961E+00
         -1   -1    0    0    0  501 -0.00000000000E+00  0.00000000000E+00  0.12426085095E+03  0.12426085095E+03  0.00000000000E+00 0.  1.
          1   -1    0    0  501    0  0.00000000000E+00 -0.00000000000E+00 -0.10184297115E+03  0.10184297115E+03  0.00000000000E+00 0. -1.
         23    2    1    2    0    0  0.89658190651E+00 -0.28533575754E+02  0.10367452853E+02  0.97242216206E+02  0.92377463321E+02 0.  0.
          5    1    1    2  502    0  0.13055595089E+02  0.30109359685E+02 -0.52837667300E+02  0.62340304695E+02  0.41800000000E+01 0.  1.
         -5    1    1    2    0  502 -0.13952176995E+02 -0.15757839310E+01  0.64888094250E+02  0.66521301199E+02  0.41800000000E+01 0.  1.
        -11    1    3    3    0    0  0.15678531494E+02  0.14661207020E+02 -0.29600849013E+02  0.36564704338E+02  0.00000000000E+00 0. -1.
         11    1    3    3    0    0 -0.14781949587E+02 -0.43194782774E+02  0.39968301865E+02  0.60677511868E+02  0.00000000000E+00 0.  1.
</event>
<event>
 7    1  0.6684706E-006  0.7472200E+02  0.7561462E-02  0.1344734E+00
         -2   -1    0    0    0  501 -0.00000000000E+00  0.00000000000E+00  0.91628385497E+02  0.91628385497E+02  0.00000000000E+00 0.  1.
          2   -1    0    0  501    0  0.00000000000E+00 -0.00000000000E+00 -0.30542769666E+03  0.30542769666E+03  0.00000000000E+00 0. -1.
         23    2    1    2    0    0 -0.55733408729E+02  0.13307867496E+01  0.34842380921E+02  0.11319237667E+03  0.92144119652E+02 0.  0.
          5    1    1    2  502    0  0.41490192210E+01 -0.16820810988E+02  0.94544261947E+01  0.20174553712E+02  0.41800000000E+01 0. -1.
         -5    1    1    2    0  502  0.51584389508E+02  0.15490024239E+02 -0.25809611828E+03  0.26368915178E+03  0.41800000000E+01 0. -1.
        -11    1    3    3    0    0  0.58417357596E+01 -0.13111393965E+02  0.46689574002E+02  0.48846195849E+02  0.00000000000E+00 0.  1.
         11    1    3    3    0    0 -0.61575144489E+02  0.14442180714E+02 -0.11847193081E+02  0.64346180823E+02  0.00000000000E+00 0. -1.
</event>
<event>
 7    1  0.6684706E-006  0.1082687E+03  0.7561462E-02  0.1263810E+00
          1   -1    0    0  501    0  0.00000000000E+00  0.00000000000E+00  0.27713332301E+03  0.27713332301E+03  0.00000000000E+00 0. -1.
         -1   -1    0    0    0  501 -0.00000000000E+00 -0.00000000000E+00 -0.65769368067E+02  0.65769368067E+02  0.00000000000E+00 0.  1.
         23    2    1    2    0    0 -0.76639976176E+01 -0.54804016434E+02  0.21011797159E+02  0.10849864398E+03  0.90929879846E+02 0.  0.
          5    1    1    2  502    0 -0.43427678485E+02  0.45633348700E+02  0.38679090430E+02  0.74039923073E+02  0.41800000000E+01 0.  1.
         -5    1    1    2    0  502  0.51091676103E+02  0.91706677343E+01  0.15167306735E+03  0.16036412402E+03  0.41800000000E+01 0.  1.
        -11    1    3    3    0    0  0.38758997283E+02 -0.23281101678E+02 -0.70485681746E+01  0.45759718957E+02  0.00000000000E+00 0.  1.
         11    1    3    3    0    0 -0.46422994901E+02 -0.31522914756E+02  0.28060365334E+02  0.62738925022E+02  0.00000000000E+00 0. -1.
</event>
<event>
 7    1  0.6684706E-006  0.9226439E+02  0.7561462E-02  0.1297459E+00
         -1   -1    0    0    0  501 -0.00000000000E+00  0.00000000000E+00  0.94256413238E+02  0.94256413238E+02  0.00000000000E+00 0.  1.
          1   -1    0    0  501    0  0.00000000000E+00 -0.00000000000E+00 -0.15861556691E+03  0.15861556691E+03  0.00000000000E+00 0. -1.
         23    2    1    2    0    0 -0.53289608451E+02 -0.10819163120E+02 -0.40582221848E+02  0.11441389086E+03  0.92123748464E+02 0.  0.
          5    1    1    2  502    0 -0.13564603369E+02  0.23763382171E+02  0.37599247797E+02  0.46689106135E+02  0.41800000000E+01 0.  1.
         -5    1    1    2    0  502  0.66854211820E+02 -0.12944219051E+02 -0.61376179623E+02  0.91768983159E+02  0.41800000000E+01 0.  1.
        -11    1    3    3    0    0 -0.64065284240E+01  0.27399139736E+02 -0.45745890490E+02  0.53707010357E+02  0.00000000000E+00 0. -1.
         11    1    3    3    0    0 -0.46883080027E+02 -0.38218302856E+02  0.51636686424E+01  0.60706880499E+02  0.00000000000E+00 0.  1.
</event>
<event>
 7    1  0.6684706E-006  0.1104380E+03  0.7561462E-02  0.1259761E+00
         -1   -1    0    0    0  501 -0.00000000000E+00  0.00000000000E+00  0.72911952382E+02  0.72911952382E+02  0.00000000000E+00 0.  1.
          1   -1    0    0  501    0  0.00000000000E+00 -0.00000000000E+00 -0.18078173932E+03  0.18078173932E+03  0.00000000000E+00 0. -1.
         23    2    1    2    0    0 -0.34774972769E+02 -0.15677608660E+02 -0.51556686366E+02  0.11130730694E+03  0.90973284677E+02 0.  0.
          5    1    1    2  502    0  0.16599491779E+02 -0.51613573515E+02 -0.47125265676E+02  0.71956703394E+02  0.41800000000E+01 0.  1.
         -5    1    1    2    0  502  0.18175480991E+02  0.67291182175E+02 -0.91878348992E+01  0.70429681370E+02  0.41800000000E+01 0.  1.
        -11    1    3    3    0    0  0.28812905102E+02  0.61089494951E+01 -0.26349501277E+02  0.39519602502E+02  0.00000000000E+00 0.  1.
         11    1    3    3    0    0 -0.63587877872E+02 -0.21786558155E+02 -0.25207185088E+02  0.71787704438E+02  0.00000000000E+00 0. -1.
</event>
<event>
 7    1  0.6684706E-006  0.1675679E+03  0.7561462E-02  0.1180408E+00
         -4   -1    0    0    0  501 -0.00000000000E+00  0.00000000000E+00  0.38778876412E+02  0.38778876412E+02  0.00000000000E+00 0. -1.
          4   -1    0    0  501    0  0.00000000000E+00 -0.00000000000E+00 -0.10429376181E+04  0.10429376181E+04  0.00000000000E+00 0.  1.
         23    2    1    2    0    0 -0.40514192234E+02  0.14992833495E+03 -0.30171678431E+03  0.35151606031E+03  0.91709417876E+02 0.  0.
          5    1    1    2  502    0  0.39685370099E+02 -0.43666770578E+02 -0.84340807708E+02  0.10301727864E+03  0.41800000000E+01 0.  1.
         -5    1    1    2    0  502  0.82882213548E+00 -0.10626156437E+03 -0.61810114969E+03  0.62718315559E+03  0.41800000000E+01 0.  1.
        -11    1    3    3    0    0 -0.56538769260E+02  0.80435195660E+02 -0.23113667431E+03  0.25117845318E+03  0.00000000000E+00 0.  1.
         11    1    3    3    0    0  0.16024577026E+02  0.69493139287E+02 -0.70580110005E+02  0.10033760713E+03  0.00000000000E+00 0. -1.
</event>
<event>
 7    1  0.6684706E-006  0.9980299E+02  0.7561462E-02  0.1280711E+00
         -2   -1    0    0    0  501 -0.00000000000E+00  0.00000000000E+00  0.14412627158E+02  0.14412627158E+02  0.00000000000E+00 0.  1.
          2   -1    0    0  501    0  0.00000000000E+00 -0.00000000000E+00 -0.90448957060E+03  0.90448957060E+03  0.00000000000E+00 0. -1.
         23    2    1    2    0    0  0.14786160143E+02 -0.34185302565E+01 -0.23518740168E+03  0.25200101193E+03  0.89224880068E+02 0.  0.
          5    1    1    2  502    0 -0.60932264391E+02  0.29774156594E+02 -0.45414158889E+03  0.45919635931E+03  0.41800000000E+01 0. -1.
         -5    1    1    2    0  502  0.46146104248E+02 -0.26355626338E+02 -0.20074795287E+03  0.20770482652E+03  0.41800000000E+01 0. -1.
        -11    1    3    3    0    0  0.22204994778E+02 -0.37441583844E+02 -0.19016276236E+03  0.19508154752E+03  0.00000000000E+00 0. -1.
         11    1    3    3    0    0 -0.74188346349E+01  0.34023053587E+02 -0.45024639315E+02  0.56919464405E+02  0.00000000000E+00 0.  1.
</event>
<event>
 7    1  0.6684706E-006  0.8083502E+02  0.7561462E-02  0.1326698E+00
          1   -1    0    0  501    0  0.00000000000E+00  0.00000000000E+00  0.17298162799E+03  0.17298162799E+03  0.00000000000E+00 0. -1.
         -1   -1    0    0    0  501 -0.00000000000E+00 -0.00000000000E+00 -0.91756530628E+02  0.91756530628E+02  0.00000000000E+00 0.  1.
         23    2    1    2    0    0 -0.40268858025E+02 -0.79037602626E+01 -0.14924465574E+02  0.10171724547E+03  0.91867339133E+02 0.  0.
          5    1    1    2  502    0 -0.89899737334E+01  0.51868562539E+02  0.78395800454E+02  0.94522702757E+02  0.41800000000E+01 0. -1.
         -5    1    1    2    0  502  0.49258831759E+02 -0.43964802276E+02  0.17753762484E+02  0.68498210398E+02  0.41800000000E+01 0. -1.
        -11    1    3    3    0    0 -0.21197980627E+02  0.18611413084E+01  0.38592705094E+02  0.44070569727E+02  0.00000000000E+00 0. -1.
         11    1    3    3    0    0 -0.19070877398E+02 -0.97649015710E+01 -0.53517170667E+02  0.57646675738E+02  0.00000000000E+00 0.  1.
</event>
<event>
 7    1  0.6684706E-006  0.1092455E+03  0.7561462E-02  0.1261973E+00
          2   -1    0    0  501    0  0.00000000000E+00  0.00000000000E+00  0.70551938718E+03  0.70551938718E+03  0.00000000000E+00 0. -1.
         -2   -1    0    0    0  501 -0.00000000000E+00 -0.00000000000E+00 -0.21620260646E+02  0.21620260646E+02  0.00000000000E+00 0.  1.
         23    2    1    2    0    0  0.50438230620E+02  0.38443758310E+01  0.21335721567E+03  0.23763205992E+03  0.91590938922E+02 0.  0.
          5    1    1    2  502    0  0.23710760714E+02 -0.41425369932E+02  0.11983029835E+03  0.12905438486E+03  0.41800000000E+01 0. -1.
         -5    1    1    2    0  502 -0.74148991333E+02  0.37580994102E+02  0.35071161251E+03  0.36045320305E+03  0.41800000000E+01 0. -1.
        -11    1    3    3    0    0  0.23778949334E+02  0.37502820495E+02  0.42515777406E+02  0.61477567494E+02  0.00000000000E+00 0.  1.
         11    1    3    3    0    0  0.26659281285E+02 -0.33658444664E+02  0.17084143826E+03  0.17615449243E+03  0.00000000000E+00 0. -1.
</event>
<event>
 7    1  0.6684706E-006  0.1114579E+03  0.7561462E-02  0.1257894E+00
         -3   -1    0    0    0  501 -0.00000000000E+00  0.00000000000E+00  0.21218954000E+03  0.21218954000E+03  0.00000000000E+00 0.  1.
          3   -1    0    0  501    0  0.00000000000E+00 -0.00000000000E+00 -0.89977793319E+02  0.89977793319E+02  0.00000000000E+00 0. -1.
         23    2    1    2    0    0  0.31286407939E+02 -0.79116163003E+02  0.62894823021E+02  0.13967105305E+03  0.91181345276E+02 0.  0.
          5    1    1    2  502    0 -0.33591993071E+02  0.14029182622E+02 -0.33086459118E+02  0.49370296136E+02  0.41800000000E+01 0. -1.
         -5    1    1    2    0  502  0.23055851321E+01  0.65086980381E+02  0.92403382774E+02  0.11312598413E+03  0.41800000000E+01 0. -1.
        -11    1    3    3    0    0  0.61299061268E+02 -0.57268915442E+02  0.27242684353E+02  0.88201289327E+02  0.00000000000E+00 0. -1.
         11    1    3    3    0    0 -0.30012653329E+02 -0.21847247561E+02  0.35652138668E+02  0.51469763720E+02  0.00000000000E+00 0.  1.
</event>
<event>
 7    1  0.6684706E-006  0.1000608E+03  0.7561462E-02  0.1280168E+00
         -4   -1    0    0    0  501 -0.00000000000E+00  0.00000000000E+00  0.39932146724E+03  0.39932146724E+03  0.00000000000E+00 0.  1.
          4   -1    0    0  501    0  0.00000000000E+00 -0.00000000000E+00 -0.32419001677E+02  0.32419001677E+02  0.00000000000E+00 0. -1.
         23    2    1    2    0    0  0.16393159701E+02 -0.15241883961E+02  0.21598980227E+03  0.23444789127E+03  0.88392128202E+02 0.  0.
          5    1    1    2  502    0  0.48769371882E+02 -0.21370871982E+01  0.10421205498E+03  0.11515486780E+03  0.41800000000E+01 0. -1.
         -5    1    1    2    0  502 -0.65162531583E+02  0.17378971159E+02  0.46700608320E+02  0.82137709843E+02  0.41800000000E+01 0. -1.
        -11    1    3    3    0    0  0.31611918885E+02  0.25148273180E+02  0.58085570786E+02  0.70750848710E+02  0.00000000000E+00 0. -1.
         11    1    3    3    0    0 -0.15218759185E+02 -0.40390157141E+02  0.15790423148E+03  0.16369704256E+03  0.00000000000E+00 0.  1.
</event>
<event>
 7    1  0.6684706E-006  0.1269170E+03  0.7561462E-02  0.1232103E+00
         -3   -1    0    0    0  501 -0.00000000000E+00  0.00000000000E+00  0.53517773989E+02  0.53517773989E+02  0.00000000000E+00 0.  1.
          3   -1    0    0  501    0  0.00000000000E+00 -0.00000000000E+00 -0.32822736791E+03  0.32822736791E+03  0.00000000000E+00 0. -1.
         23    2    1    2    0    0 -0.67993859736E+02  0.48281177273E+01 -0.89282016776E+02  0.14791268601E+03  0.96231016213E+02 0.  0.
          5    1    1    2  502    0  0.30422222939E+02  0.56354492172E+02 -0.53406495887E+02  0.83492913708E+02  0.41800000000E+01 0. -1.
         -5    1    1    2    0  502  0.37571636797E+02 -0.61182609899E+02 -0.13202108126E+03  0.15033954218E+03  0.41800000000E+01 0. -1.
        -11    1    3    3    0    0  0.20889505802E+02 -0.16158004484E+02 -0.23617609390E+02  0.35429423293E+02  0.00000000000E+00 0. -1.
         11    1    3    3    0    0 -0.88883365538E+02  0.20986122211E+02 -0.65664407385E+02  0.11248326272E+03  0.00000000000E+00 0.  1.
</event>
<event>
 7    1  0.6684706E-006  0.4172169E+02  0.7561462E-02  0.1495911E+00
         -1   -1    0    0    0  501 -0.00000000000E+00  0.00000000000E+00  0.40739755542E+02  0.40739755542E+02  0.00000000000E+00 0.  1.
          1   -1    0    0  501    0  0.00000000000E+00 -0.00000000000E+00 -0.31834654736E+03  0.31834654736E+03  0.00000000000E+00 0. -1.
         23    2    1    2    0    0  0.13103737742E+01 -0.80260121661E+01 -0.11590874317E+03  0.15448961756E+03  0.10181390496E+03 0.  0.
          5    1    1    2  502    0  0.48015545382E+01  0.16202065040E+02 -0.18128413354E+03  0.18211801479E+03  0.41800000000E+01 0.  1.
         -5    1    1    2    0  502 -0.61119283124E+01 -0.81760528742E+01  0.19586084888E+02  0.22478670547E+02  0.41800000000E+01 0.  1.
        -11    1    3    3    0    0  0.31798675835E+01 -0.31397785399E+02  0.44480441211E+01  0.31870324478E+02  0.00000000000E+00 0.  1.
         11    1    3    3    0    0 -0.18694938094E+01  0.23371773233E+02 -0.12035678729E+03  0.12261929309E+03  0.00000000000E+00 0. -1.
</event>
<event>
 7    1  0.6684706E-006  0.1183017E+03  0.7561462E-02  0.1245925E+00
          1   -1    0    0  501    0  0.00000000000E+00  0.00000000000E+00  0.37172513547E+03  0.37172513547E+03  0.00000000000E+00 0. -1.
         -1   -1    0    0    0  501 -0.00000000000E+00 -0.00000000000E+00 -0.58873091578E+02  0.58873091578E+02  0.00000000000E+00 0.  1.
         23    2    1    2    0    0 -0.43197041239E+02  0.31581967736E+02  0.21816899251E+02  0.10933086783E+03  0.92810864178E+02 0.  0.
          5    1    1    2  502    0 -0.18395313141E+02  0.34653278897E+02  0.49381657370E+02  0.63208051453E+02  0.41800000000E+01 0.  1.
         -5    1    1    2    0  502  0.61592354379E+02 -0.66235246633E+02  0.24165348727E+03  0.25805930776E+03  0.41800000000E+01 0.  1.
        -11    1    3    3    0    0 -0.44228838566E+02 -0.24467345138E+02  0.15761924639E+02  0.52946004640E+02  0.00000000000E+00 0. -1.
         11    1    3    3    0    0  0.10317973277E+01  0.56049312873E+02  0.60549746120E+01  0.56384863189E+02  0.00000000000E+00 0.  1.
</event>
<event>
 7    1  0.6684706E-006  0.2427840E+03  0.7561462E-02  0.1117952E+00
          1   -1    0    0  501    0  0.00000000000E+00  0.00000000000E+00  0.13412724464E+04  0.13412724464E+04  0.00000000000E+00 0. -1.
         -1   -1    0    0    0  501 -0.00000000000E+00 -0.00000000000E+00 -0.46129536830E+02  0.46129536830E+02  0.00000000000E+00 0.  1.
         23    2    1    2    0    0 -0.18200750858E+03  0.12773072120E+03  0.56254325531E+03  0.61164961842E+03  0.90655784670E+02 0.  0.
          5    1    1    2  502    0  0.84527553983E+02 -0.12205653322E+03  0.33735909737E+03  0.36860729464E+03  0.41800000000E+01 0.  1.
         -5    1    1    2    0  502  0.97479954596E+02 -0.56741879760E+01  0.39524055690E+03  0.40714507018E+03  0.41800000000E+01 0.  1.
        -11    1    3    3    0    0 -0.36387239189E+02 -0.11171088035E+02  0.72271142807E+02  0.81681959246E+02  0.00000000000E+00 0.  1.
         11    1    3    3    0    0 -0.14562026939E+03  0.13890180923E+03  0.49027211251E+03  0.52996765917E+03  0.00000000000E+00 0. -1.
</event>
<event>
 7    1  0.6684706E-006  0.1060803E+03  0.7561462E-02  0.1268006E+00
          1   -1    0    0  501    0  0.00000000000E+00  0.00000000000E+00  0.28122698323E+03  0.28122698323E+03  0.00000000000E+00 0. -1.
         -1   -1    0    0    0  501 -0.00000000000E+00 -0.00000000000E+00 -0.47657369888E+02  0.47657369888E+02  0.00000000000E+00 0.  1.
         23    2    1    2    0    0  0.11922940486E+02 -0.28724425894E+02  0.58255729019E+02  0.11128422257E+03  0.89572311997E+02 0.  0.
          5    1    1    2  502    0  0.34319345032E+00 -0.43682653899E+02  0.25632536375E+02  0.50821170337E+02  0.41800000000E+01 0. -1.
         -5    1    1    2    0  502 -0.12266133937E+02  0.72407079793E+02  0.14968134795E+03  0.16677896021E+03  0.41800000000E+01 0. -1.
        -11    1    3    3    0    0  0.11661741247E+02 -0.61170621043E+02  0.35874718548E+02  0.71866797052E+02  0.00000000000E+00 0.  1.
         11    1    3    3    0    0  0.26119923983E+00  0.32446195149E+02  0.22381010471E+02  0.39417425517E+02  0.00000000000E+00 0. -1.
</event>
<event>
 7    1  0.6684706E-006  0.1450873E+03  0.7561462E-02  0.1206643E+00
         -1   -1    0    0    0  501 -0.00000000000E+00  0.00000000000E+00  0.73761350496E+02  0.73761350496E+02  0.00000000000E+00 0.  1.
          1   -1    0    0  501    0  0.00000000000E+00 -0.00000000000E+00 -0.37194814473E+03  0.37194814473E+03  0.00000000000E+00 0. -1.
         23    2    1    2    0    0  0.97820557520E+02  0.67337555602E+02 -0.90884492535E+02  0.17602821931E+03  0.92858683716E+02 0.  0.
          5    1    1    2  502    0 -0.11211581049E+03 -0.58767988413E+02 -0.21602148642E+03  0.25041243264E+03  0.41800000000E+01 0.  1.
         -5    1    1    2    0  502  0.14295252969E+02 -0.85695671892E+01  0.87191847203E+01  0.19268843282E+02  0.41800000000E+01 0.  1.
        -11    1    3    3    0    0  0.42695727559E+02 -0.16690303725E+02 -0.49152123615E+02  0.67211774609E+02  0.00000000000E+00 0. -1.
         11    1    3    3    0    0  0.55124829961E+02  0.84027859327E+02 -0.41732368920E+02  0.10881644470E+03  0.00000000000E+00 0.  1.
</event>
<event>
 7    1  0.6684706E-006  0.1163786E+03  0.7561462E-02  0.1249194E+00
         -2   -1    0    0    0  501 -0.00000000000E+00  0.00000000000E+00  0.43256543418E+02  0.43256543418E+02  0.00000000000E+00 0.  1.
          2   -1    0    0  501    0  0.00000000000E+00 -0.00000000000E+00 -0.36255375714E+03  0.36255375714E+03  0.00000000000E+00 0. -1.
         23    2    1    2    0    0 -0.42428195834E+02  0.28949267964E+02 -0.11749784403E+03  0.16289134186E+03  0.10044717011E+03 0.  0.
          5    1    1    2  502    0  0.24893343414E+02 -0.78145799520E+02 -0.11082287846E+03  0.13793341625E+03  0.41800000000E+01 0. -1.
         -5    1    1    2    0  502  0.17534852421E+02  0.49196531556E+02 -0.90976491228E+02  0.10498554245E+03  0.41800000000E+01 0. -1.
        -11    1    3    3    0    0 -0.62923129622E+02  0.40388180751E+02 -0.11767455910E+03  0.13941960854E+03  0.00000000000E+00 0. -1.
         11    1    3    3    0    0  0.20494933788E+02 -0.11438912787E+02  0.17671506989E+00  0.23471733317E+02  0.00000000000E+00 0.  1.
</event>
<event>
 7    1  0.6684706E-006  0.1049869E+03  0.7561462E-02  0.1270145E+00
          1   -1    0    0  501    0  0.00000000000E+00  0.00000000000E+00  0.35078552300E+03  0.35078552300E+03  0.00000000000E+00 0. -1.
         -1   -1    0    0    0  501 -0.00000000000E+00 -0.00000000000E+00 -0.57835276646E+02  0.57835276646E+02  0.00000000000E+00 0.  1.
         23    2    1    2    0    0  0.13429000934E+02 -0.70621474838E+02  0.45855187603E+02  0.12248986442E+03  0.87939398915E+02 0.  0.
          5    1    1    2  502    0 -0.57216897765E+02  0.11393179632E+02  0.16836935182E+03  0.17823941473E+03  0.41800000000E+01 0.  1.
         -5    1    1    2    0  502  0.43787896831E+02  0.59228295206E+02  0.78725706927E+02  0.10789152049E+03  0.41800000000E+01 0.  1.
        -11    1    3    3    0    0  0.22874111154E+02 -0.47071983169E+02 -0.16740175752E+02  0.54947520825E+02  0.00000000000E+00 0.  1.
         11    1    3    3    0    0 -0.94451102206E+01 -0.23549491668E+02  0.62595363355E+02  0.67542343596E+02  0.00000000000E+00 0. -1.
</event>
<event>
 7    1  0.6684706E-006  0.1293675E+03  0.7561462E-02  0.1228397E+00
         -1   -1    0    0    0  501 -0.00000000000E+00  0.00000000000E+00  0.47128263986E+03  0.47128263986E+03  0.00000000000E+00 0.  1.
          1   -1    0    0  501    0  0.00000000000E+00 -0.00000000000E+00 -0.55081463574E+02  0.55081463574E+02  0.00000000000E+00 0. -1.
         23    2    1    2    0    0  0.74483936314E+02 -0.29985164544E+02  0.33740305923E+03  0.35813283957E+03  0.89282358462E+02 0.  0.
          5    1    1    2  502    0 -0.69592364308E+01  0.69100153064E+02  0.27847865694E+02  0.74941564895E+02  0.41800000000E+01 0. -1.
         -5    1    1    2    0  502 -0.67524699884E+02 -0.39114988520E+02  0.50950251357E+02  0.93289698974E+02  0.41800000000E+01 0. -1.
        -11    1    3    3    0    0  0.25067745502E+02 -0.51375500940E+02  0.24123641910E+03  0.24791701003E+03  0.00000000000E+00 0. -1.
         11    1    3    3    0    0  0.49416190812E+02  0.21390336396E+02  0.96166640130E+02  0.11021582953E+03  0.00000000000E+00 0.  1.
</event>
<event>
 7    1  0.6684706E-006  0.1110017E+03  0.7561462E-02  0.1258726E+00
         -1   -1    0    0    0  501 -0.00000000000E+00  0.00000000000E+00  0.86880884718E+02  0.86880884718E+02  0.00000000000E+00 0.  1.
          1   -1    0    0  501    0  0.00000000000E+00 -0.00000000000E+00 -0.16412314809E+03  0.16412314809E+03  0.00000000000E+00 0. -1.
         23    2    1    2    0    0  0.28927571761E+02  0.39900473970E+02 -0.37562907126E+02  0.11082246686E+03  0.91879241064E+02 0.  0.
          5    1    1    2  502    0  0.37971561416E+02 -0.32783579468E+02  0.15927079339E+02  0.52799117563E+02  0.41800000000E+01 0.  1.
         -5    1    1    2    0  502 -0.66899133177E+02 -0.71168945023E+01 -0.55606435590E+02  0.87382448388E+02  0.41800000000E+01 0.  1.
        -11    1    3    3    0    0 -0.33682921759E+02  0.15133598273E+02 -0.12793419851E+02  0.39079874697E+02  0.00000000000E+00 0. -1.
         11    1    3    3    0    0  0.62610493520E+02  0.24766875697E+02 -0.24769487275E+02  0.71742592164E+02  0.00000000000E+00 0.  1.
</event>
<event>
 7    1  0.6684706E-006  0.9546904E+02  0.7561462E-02  0.1290123E+00
         -2   -1    0    0    0  501 -0.00000000000E+00  0.00000000000E+00  0.65367128106E+03  0.65367128106E+03  0.00000000000E+00 0.  1.
          2   -1    0    0  501    0  0.00000000000E+00 -0.00000000000E+00 -0.19166541236E+02  0.19166541236E+02  0.00000000000E+00 0. -1.
         23    2    1    2    0    0  0.40745911453E+01  0.10903743191E+02  0.32031053574E+03  0.33445842372E+03  0.95541111475E+02 0.  0.
          5    1    1    2  502    0 -0.48590614767E+02 -0.14309673774E+02  0.27233274440E+03  0.27703503511E+03  0.41800000000E+01 0. -1.
         -5    1    1    2    0  502  0.44516023622E+02  0.34059305830E+01  0.41861459688E+02  0.61344363469E+02  0.41800000000E+01 0. -1.
        -11    1    3    3    0    0 -0.25783593109E+02 -0.33184132659E+02  0.11806491945E+03  0.12532081048E+03  0.00000000000E+00 0.  1.
         11    1    3    3    0    0  0.29858184254E+02  0.44087875850E+02  0.20224561629E+03  0.20913761324E+03  0.00000000000E+00 0. -1.
</event>
<event>
 7    1  0.6684706E-006  0.1219583E+03  0.7561462E-02  0.1239901E+00
          1   -1    0    0  501    0  0.00000000000E+00  0.00000000000E+00  0.17691787514E+04  0.17691787514E+04  0.00000000000E+00 0. -1.
         -1   -1    0    0    0  501 -0.00000000000E+00 -0.00000000000E+00 -0.99467989549E+01  0.99467989549E+01  0.00000000000E+00 0.  1.
         23    2    1    2    0    0 -0.29149437130E+02  0.50067502889E+02  0.46400935200E+03  0.47658750478E+03  0.92057191128E+02 0.  0.
          5    1    1    2  502    0 -0.47356380834E+02 -0.88366045144E+01  0.35101540213E+03  0.35433035054E+03  0.41800000000E+01 0.  1.
         -5    1    1    2    0  502  0.76505817964E+02 -0.41230898375E+02  0.94420719829E+03  0.94820769500E+03  0.41800000000E+01 0.  1.
        -11    1    3    3    0    0 -0.42238974317E+02 -0.12958218702E+02  0.17422268943E+03  0.17973756396E+03  0.00000000000E+00 0.  1.
         11    1    3    3    0    0  0.13089537187E+02  0.63025721591E+02  0.28978666256E+03  0.29684994082E+03  0.00000000000E+00 0. -1.
</event>
<event>
 7    1  0.6684706E-006  0.2549715E+03  0.7561462E-02  0.1110203E+00
          1   -1    0    0  501    0  0.00000000000E+00  0.00000000000E+00  0.48003762039E+03  0.48003762039E+03  0.00000000000E+00 0. -1.
         -1   -1    0    0    0  501 -0.00000000000E+00 -0.00000000000E+00 -0.14586225125E+03  0.14586225125E+03  0.00000000000E+00 0.  1.
         23    2    1    2    0    0  0.23572649789E+03  0.44826586894E+02  0.13170759455E+03  0.28793890920E+03  0.89361738278E+02 0.  0.
          5    1    1    2  502    0 -0.50973114994E+02  0.41651090048E+02  0.59430923597E+02  0.88783888369E+02  0.41800000000E+01 0.  1.
         -5    1    1    2    0  502 -0.18475338290E+03 -0.86477676941E+02  0.14303685098E+03  0.24917707407E+03  0.41800000000E+01 0.  1.
        -11    1    3    3    0    0  0.98949568650E+02  0.18829637186E+02  0.10624860680E+03  0.14640470901E+03  0.00000000000E+00 0. -1.
         11    1    3    3    0    0  0.13677692924E+03  0.25996949707E+02  0.25458987753E+02  0.14153420019E+03  0.00000000000E+00 0.  1.
</event>
<event>
 7    1  0.6684706E-006  0.1371403E+03  0.7561462E-02  0.1217230E+00
          1   -1    0    0  501    0  0.00000000000E+00  0.00000000000E+00  0.41760007664E+03  0.41760007664E+03  0.00000000000E+00 0. -1.
         -1   -1    0    0    0  501 -0.00000000000E+00 -0.00000000000E+00 -0.45683590575E+02  0.45683590575E+02  0.00000000000E+00 0.  1.
         23    2    1    2    0    0 -0.55431876126E+02  0.60630926502E+02  0.17811420997E+03  0.21842582297E+03  0.96106015462E+02 0.  0.
          5    1    1    2  502    0  0.72823506698E+02  0.11591144911E+02  0.79901296517E+02  0.10880858125E+03  0.41800000000E+01 0.  1.
         -5    1    1    2    0  502 -0.17391630572E+02 -0.72222071412E+02  0.11390097957E+03  0.13604926299E+03  0.41800000000E+01 0.  1.
        -11    1    3    3    0    0  0.24937110356E+02  0.32289806191E+02  0.66143893873E+02  0.77714257080E+02  0.00000000000E+00 0. -1.
         11    1    3    3    0    0 -0.80368986482E+02  0.28341120310E+02  0.11197031610E+03  0.14071156589E+03  0.00000000000E+00 0.  1.
</event>
<event>
 7    1  0.6684706E-006  0.9492570E+02  0.7561462E-02  0.1291344E+00
          1   -1    0    0  501    0  0.00000000000E+00  0.00000000000E+00  0.21108018383E+03  0.21108018383E+03  0.00000000000E+00 0. -1.
         -1   -1    0    0    0  501 -0.00000000000E+00 -0.00000000000E+00 -0.72649064557E+02  0.72649064557E+02  0.00000000000E+00 0.  1.
         23    2    1    2    0    0 -0.54860825213E+02 -0.17166227371E+02  0.43875966443E+02  0.11672252688E+03  0.91622368145E+02 0.  0.
          5    1    1    2  502    0 -0.35616688829E+02  0.14459694386E+02  0.39544460948E+01  0.38868256056E+02  0.41800000000E+01 0.  1.
         -5    1    1    2    0  502  0.90477514042E+02  0.27065329847E+01  0.90600706737E+02  0.12813846545E+03  0.41800000000E+01 0.  1.
        -11    1    3    3    0    0 -0.42006354253E+02 -0.21259784526E+02 -0.20208323463E+02  0.51233666401E+02  0.00000000000E+00 0.  1.
         11    1    3    3    0    0 -0.12854470960E+02  0.40935571549E+01  0.64084289906E+02  0.65488860477E+02  0.00000000000E+00 0. -1.
</event>
<event>
 7    1  0.6684706E-006  0.1099469E+03  0.7561462E-02  0.1260668E+00
         -2   -1    0    0    0  501 -0.00000000000E+00  0.00000000000E+00  0.11924222017E+03  0.11924222017E+03  0.00000000000E+00 0.  1.
          2   -1    0    0  501    0  0.00000000000E+00 -0.00000000000E+00 -0.19466997826E+03  0.19466997826E+03  0.00000000000E+00 0. -1.
         23    2    1    2    0    0 -0.28107283658E+02 -0.31042487023E+02  0.60259786126E+02  0.12466588804E+03  0.10078038708E+03 0.  0.
          5    1    1    2  502    0 -0.38368043053E+01  0.76193362163E+02 -0.81182660797E+02  0.11148204483E+03  0.41800000000E+01 0. -1.
         -5    1    1    2    0  502  0.31944087963E+02 -0.45150875140E+02 -0.54504883427E+02  0.77764265567E+02  0.41800000000E+01 0. -1.
        -11    1    3    3    0    0 -0.42066898064E+02 -0.49449119813E+02  0.73477922683E+02  0.98050214099E+02  0.00000000000E+00 0.  1.
         11    1    3    3    0    0  0.13959614406E+02  0.18406632790E+02 -0.13218136557E+02  0.26615673937E+02  0.00000000000E+00 0. -1.
</event>
<event>
 7    1  0.6684706E-006  0.6953024E+02  0.7561462E-02  0.1361698E+00
          2   -1    0    0  501    0  0.00000000000E+00  0.00000000000E+00  0.10990961717E+04  0.10990961717E+04  0.00000000000E+00 0. -1.
         -2   -1    0    0    0  501 -0.00000000000E+00 -0.00000000000E+00 -0.17417542243E+02  0.17417542243E+02  0.00000000000E+00 0.  1.
         23    2    1    2    0    0 -0.12047643826E+00  0.20330821091E+02  0.14888633658E+03  0.17515169952E+03  0.89986775836E+02 0.  0.
          5    1    1    2  502    0 -0.91217766658E+01  0.10587635554E+02  0.87434846666E+03  0.87447013579E+03  0.41800000000E+01 0.  1.
         -5    1    1    2    0  502  0.92422531041E+01 -0.30918456645E+02  0.58443826222E+02  0.66891878634E+02  0.41800000000E+01 0.  1.
        -11    1    3    3    0    0 -0.44241398453E+02  0.23938642685E+01  0.79069290203E+02  0.90636552099E+02  0.00000000000E+00 0.  1.
         11    1    3    3    0    0  0.44120922015E+02  0.17936956823E+02  0.69817046372E+02  0.84515147421E+02  0.00000000000E+00 0. -1.
</event>
<event>
 7    1  0.6684706E-006  0.1232565E+03  0.7561462E-02  0.1237819E+00
          1   -1    0    0  501    0  0.00000000000E+00  0.00000000000E+00  0.35880588209E+03  0.35880588209E+03  0.00000000000E+00 0. -1.
         -1   -1    0    0    0  501 -0.00000000000E+00 -0.00000000000E+00 -0.45753036595E+02  0.45753036595E+02  0.00000000000E+00 0.  1.
         23    2    1    2    0    0  0.16057032642E+02 -0.64467263533E+02  0.12003383688E+03  0.16514805544E+03  0.91934225695E+02 0.  0.
          5    1    1    2  502    0 -0.36379562882E+02 -0.27897016638E+02  0.50680925349E+02  0.68467106898E+02  0.41800000000E+01 0.  1.
         -5    1    1    2    0  502  0.20322530241E+02  0.92364280171E+02  0.14233808326E+03  0.17094375634E+03  0.41800000000E+01 0.  1.
        -11    1    3    3    0    0  0.49457258036E+02 -0.46509472470E+02  0.10349778495E+03  0.12377779644E+03  0.00000000000E+00 0.  1.
         11    1    3    3    0    0 -0.33400225394E+02 -0.17957791063E+02  0.16536051933E+02  0.41370259000E+02  0.00000000000E+00 0. -1.
</event>
<event>
 7    1  0.6684706E-006  0.1042898E+03  0.7561462E-02  0.1271525E+00
          2   -1    0    0  501    0  0.00000000000E+00  0.00000000000E+00  0.18287384958E+03  0.18287384958E+03  0.00000000000E+00 0. -1.
         -2   -1    0    0    0  501 -0.00000000000E+00 -0.00000000000E+00 -0.10502022111E+03  0.10502022111E+03  0.00000000000E+00 0.  1.
         23    2    1    2    0    0  0.29581340347E+02 -0.14757368342E+01 -0.49268320691E+02  0.10710317899E+03  0.90368634103E+02 0.  0.
          5    1    1    2  502    0  0.31652254016E+02 -0.34798831295E+02  0.86976657724E+02  0.98970880730E+02  0.41800000000E+01 0.  1.
         -5    1    1    2    0  502 -0.61233594363E+02  0.36274568129E+02  0.40145291439E+02  0.81820010977E+02  0.41800000000E+01 0.  1.
        -11    1    3    3    0    0 -0.96826128197E+01  0.35092671847E+02 -0.34868619316E+01  0.36570573068E+02  0.00000000000E+00 0. -1.
         11    1    3    3    0    0  0.39263953167E+02 -0.36568408681E+02 -0.45781458759E+02  0.70532605920E+02  0.00000000000E+00 0.  1.
</event>
<event>
 7    1  0.6684706E-006  0.1429717E+03  0.7561462E-02  0.1209385E+00
          1   -1    0    0  501    0  0.00000000000E+00  0.00000000000E+00  0.15637987188E+03  0.15637987188E+03  0.00000000000E+00 0. -1.
         -1   -1    0    0    0  501 -0.00000000000E+00 -0.00000000000E+00 -0.14464492618E+03  0.14464492618E+03  0.00000000000E+00 0.  1.
         23    2    1    2    0    0 -0.69353246122E+02  0.68431342243E+02 -0.29707401227E+02  0.13714313913E+03  0.91831310429E+02 0.  0.
          5    1    1    2  502    0  0.88613101535E+02 -0.91956302319E+02  0.35627217122E+02  0.13264619972E+03  0.41800000000E+01 0. -1.
         -5    1    1    2    0  502 -0.19259855413E+02  0.23524960076E+02  0.58151297984E+01  0.31235459204E+02  0.41800000000E+01 0. -1.
        -11    1    3    3    0    0 -0.43298444543E+02 -0.10337780532E+02  0.92806154145E+01  0.45472572268E+02  0.00000000000E+00 0. -1.
         11    1    3    3    0    0 -0.26054801579E+02  0.78769122775E+02 -0.38988016641E+02  0.91670566866E+02  0.00000000000E+00 0.  1.
</event>
<event>
 7    1  0.6684706E-006  0.8799322E+02  0.7561462E-02  0.1307785E+00
          1   -1    0    0  501    0  0.00000000000E+00  0.00000000000E+00  0.20159626333E+03  0.20159626333E+03  0.00000000000E+00 0. -1.
         -1   -1    0    0    0  501 -0.00000000000E+00 -0.00000000000E+00 -0.60178666335E+02  0.60178666335E+02  0.00000000000E+00 0.  1.
         23    2    1    2    0    0  0.84587591767E+01  0.16956397925E+02  0.53471496572E+02  0.10769275387E+03  0.91539380885E+02 0.  0.
          5    1    1    2  502    0 -0.41079315421E+02  0.71125293392E+01  0.10255887785E+03  0.11078760786E+03  0.41800000000E+01 0.  1.
         -5    1    1    2    0  502  0.32620556244E+02 -0.24068927264E+02 -0.14612777423E+02  0.43294567943E+02  0.41800000000E+01 0.  1.
        -11    1    3    3    0    0 -0.41160699837E+02  0.86602142306E+00  0.20597236560E+02  0.46034762496E+02  0.00000000000E+00 0. -1.
         11    1    3    3    0    0  0.49619459014E+02  0.16090376502E+02  0.32874260012E+02  0.61657991372E+02  0.00000000000E+00 0.  1.
</event>
<event>
 7    1  0.6684706E-006  0.7448106E+02  0.7561462E-02  0.1345486E+00
         -2   -1    0    0    0  501 -0.00000000000E+00  0.00000000000E+00  0.12882819675E+03  0.12882819675E+03  0.00000000000E+00 0.  1.
          2   -1    0    0  501    0  0.00000000000E+00 -0.00000000000E+00 -0.12893610397E+03  0.12893610397E+03  0.00000000000E+00 0. -1.
         23    2    1    2    0    0 -0.40222414085E+02 -0.19722802804E+02  0.58734442473E+02  0.11215546255E+03  0.84393610550E+02 0.  0.
          5    1    1    2  502    0 -0.24780290942E+02  0.72516331959E+00  0.26535042215E+02  0.36553652982E+02  0.41800000000E+01 0.  1.
         -5    1    1    2    0  502  0.65002705027E+02  0.18997639484E+02 -0.85377391906E+02  0.10905518518E+03  0.41800000000E+01 0.  1.
        -11    1    3    3    0    0 -0.29420509874E+02  0.42030659087E+01  0.75410450775E+02  0.81055340666E+02  0.00000000000E+00 0.  1.
         11    1    3    3    0    0 -0.10801904210E+02 -0.23925868713E+02 -0.16676008302E+02  0.31100121883E+02  0.00000000000E+00 0. -1.
</event>
<event>
 7    1  0.6684706E-006  0.2134026E+03  0.7561462E-02  0.1138899E+00
         -2   -1    0    0    0  501 -0.00000000000E+00  0.00000000000E+00  0.12836814836E+03  0.12836814836E+03  0.00000000000E+00 0.  1.
          2   -1    0    0  501    0  0.00000000000E+00 -0.00000000000E+00 -0.52383960977E+03  0.52383960977E+03  0.00000000000E+00 0. -1.
         23    2    1    2    0    0  0.63027580207E+02 -0.19770907037E+03 -0.52161728157E+02  0.23198076452E+03  0.89626317833E+02 0.  0.
          5    1    1    2  502    0 -0.45485599016E+02  0.10201455050E+03 -0.74510259968E+02  0.13433227264E+03  0.41800000000E+01 0. -1.
         -5    1    1    2    0  502 -0.17541981191E+02  0.95694519871E+02 -0.26879947328E+03  0.28589472097E+03  0.41800000000E+01 0. -1.
        -11    1    3    3    0    0 -0.10727283187E+02 -0.64521115436E+02  0.12468526126E+02  0.66584631000E+02  0.00000000000E+00 0.  1.
         11    1    3    3    0    0  0.73754863394E+02 -0.13318795494E+03 -0.64630254283E+02  0.16539613352E+03  0.00000000000E+00 0. -1.
</event>
<event>
 7    1  0.6684706E-006  0.1078397E+03  0.7561462E-02  0.1264623E+00
          2   -1    0    0  501    0  0.00000000000E+00  0.00000000000E+00  0.48388535911E+02  0.48388535911E+02  0.00000000000E+00 0. -1.
         -2   -1    0    0    0  501 -0.00000000000E+00 -0.00000000000E+00 -0.35189713537E+03  0.35189713537E+03  0.00000000000E+00 0.  1.
         23    2    1    2    0    0 -0.45569910909E+02 -0.41645106697E+02 -0.79812681662E+02  0.13666087658E+03  0.92169405676E+02 0.  0.
          5    1    1    2  502    0  0.60770506164E+02 -0.95454788885E+00 -0.20609525120E+03  0.21491088978E+03  0.41800000000E+01 0.  1.
         -5    1    1    2    0  502 -0.15200595255E+02  0.42599654586E+02 -0.17600666594E+02  0.48713904909E+02  0.41800000000E+01 0.  1.
        -11    1    3    3    0    0 -0.31610238157E+02 -0.70510033819E+02 -0.45380935528E+02  0.89611948617E+02  0.00000000000E+00 0.  1.
         11    1    3    3    0    0 -0.13959672753E+02  0.28864927122E+02 -0.34431746134E+02  0.47048927968E+02  0.00000000000E+00 0. -1.
</event>
<event>
 7    1  0.6684706E-006  0.1690839E+03  0.7561462E-02  0.1178807E+00
          1   -1    0    0  501    0  0.00000000000E+00  0.00000000000E+00  0.13076821438E+03  0.13076821438E+03  0.00000000000E+00 0. -1.
         -1   -1    0    0    0  501 -0.00000000000E+00 -0.00000000000E+00 -0.23995701982E+03  0.23995701982E+03  0.00000000000E+00 0.  1.
         23    2    1    2    0    0  0.24677855592E+02  0.13398111850E+03 -0.83227060963E+02  0.18395994562E+03  0.91403398432E+02 0.  0.
          5    1    1    2  502    0  0.50057635371E+01  0.19670941354E+02  0.14230525455E+02  0.25139289112E+02  0.41800000000E+01 0.  1.
         -5    1    1    2    0  502 -0.29683619130E+02 -0.15365205985E+03 -0.40192269931E+02  0.16162599947E+03  0.41800000000E+01 0.  1.
        -11    1    3    3    0    0 -0.20265257877E+02  0.10607424195E+03 -0.72244174570E+02  0.12992938944E+03  0.00000000000E+00 0.  1.
         11    1    3    3    0    0  0.44943113469E+02  0.27906876547E+02 -0.10982886393E+02  0.54030556174E+02  0.00000000000E+00 0. -1.
</event>
<event>
 7    1  0.6684706E-006  0.1316331E+03  0.7561462E-02  0.1225052E+00
         -2   -1    0    0    0  501 -0.00000000000E+00  0.00000000000E+00  0.20645377702E+03  0.20645377702E+03  0.00000000000E+00 0.  1.
          2   -1    0    0  501    0  0.00000000000E+00 -0.00000000000E+00 -0.13405945915E+03  0.13405945915E+03  0.00000000000E+00 0. -1.
         23    2    1    2    0    0  0.29136574499E+02  0.11832612798E+03  0.60779106527E+02  0.16549337431E+03  0.94042249093E+02 0.  0.
          5    1    1    2  502    0 -0.25133830825E+02 -0.83395132944E+02 -0.52494701614E+02  0.10178223690E+03  0.41800000000E+01 0.  1.
         -5    1    1    2    0  502 -0.40027436740E+01 -0.34930995032E+02  0.64109912960E+02  0.73237624966E+02  0.41800000000E+01 0.  1.
        -11    1    3    3    0    0  0.47880989343E+02  0.11034531506E+03  0.73982357358E+02  0.14121638324E+03  0.00000000000E+00 0.  1.
         11    1    3    3    0    0 -0.18744414844E+02  0.79808129139E+01 -0.13203250831E+02  0.24276991063E+02  0.00000000000E+00 0. -1.
</event>
<event>
 7    1  0.6684706E-006  0.1115124E+03  0.7561462E-02  0.1257794E+00
         -4   -1    0    0    0  501 -0.00000000000E+00  0.00000000000E+00  0.59444826270E+03  0.59444826270E+03  0.00000000000E+00 0.  1.
          4   -1    0    0  501    0  0.00000000000E+00 -0.00000000000E+00 -0.29727981106E+02  0.29727981106E+02  0.00000000000E+00 0. -1.
         23    2    1    2    0    0 -0.58606167198E+02 -0.53280035897E+02  0.33951073318E+03  0.36042430116E+03  0.91458700299E+02 0.  0.
          5    1    1    2  502    0  0.50172678718E+02 -0.11784629310E+02  0.34837879577E+02  0.62348419636E+02  0.41800000000E+01 0. -1.
         -5    1    1    2    0  502  0.84334884800E+01  0.65064665207E+02  0.19037166883E+03  0.20140352301E+03  0.41800000000E+01 0.  1.
        -11    1    3    3    0    0  0.69766631242E+01 -0.37470049926E+02  0.48434191067E+02  0.61632372452E+02  0.00000000000E+00 0. -1.
         11    1    3    3    0    0 -0.65582830322E+02 -0.15809985970E+02  0.29107654212E+03  0.29879192871E+03  0.00000000000E+00 0.  1.
</event>
<event>
 7    1  0.6684706E-006  0.9276727E+02  0.7561462E-02  0.1296285E+00
         -2   -1    0    0    0  501 -0.00000000000E+00  0.00000000000E+00  0.20856543183E+02  0.20856543183E+02  0.00000000000E+00 0.  1.
          2   -1    0    0  501    0  0.00000000000E+00 -0.00000000000E+00 -0.82117198349E+03  0.82117198349E+03  0.00000000000E+00 0. -1.
         23    2    1    2    0    0 -0.34493580629E+02 -0.28073747065E+02 -0.17131573560E+03  0.19917100648E+03  0.91334912161E+02 0.  0.
          5    1    1    2  502    0  0.19517830139E+02  0.64922465613E+02 -0.18525075492E+03  0.19730987515E+03  0.41800000000E+01 0. -1.
         -5    1    1    2    0  502  0.14975750490E+02 -0.36848718548E+02 -0.44374894979E+03  0.44554764504E+03  0.41800000000E+01 0. -1.
        -11    1    3    3    0    0  0.15036720491E+02 -0.23471004563E+02 -0.88273039323E+01  0.29238883581E+02  0.00000000000E+00 0.  1.
         11    1    3    3    0    0 -0.49530301121E+02 -0.46027425018E+01 -0.16248843166E+03  0.16993212290E+03  0.00000000000E+00 0. -1.
</event>
<event>
 7    1  0.6684706E-006  0.1918086E+03  0.7561462E-02  0.1156840E+00
          2   -1    0    0  501    0  0.00000000000E+00  0.00000000000E+00  0.14222482693E+04  0.14222482693E+04  0.00000000000E+00 0.  1.
         -2   -1    0    0    0  501 -0.00000000000E+00 -0.00000000000E+00 -0.53667322647E+02  0.53667322647E+02  0.00000000000E+00 0. -1.
         23    2    1    2    0    0  0.14608180603E+03 -0.11198483937E+03  0.20226029713E+03  0.28855287366E+03  0.92049089089E+02 0.  0.
          5    1    1    2  502    0 -0.88574904657E+02  0.26473604865E+02  0.84122682377E+03  0.84630160517E+03  0.41800000000E+01 0.  1.
         -5    1    1    2    0  502 -0.57506901376E+02  0.85511234504E+02  0.32509382574E+03  0.34106111309E+03  0.41800000000E+01 0.  1.
        -11    1    3    3    0    0  0.11038964317E+03 -0.62270345680E+02  0.18626731887E+03  0.22529754404E+03  0.00000000000E+00 0. -1.
         11    1    3    3    0    0  0.35692162861E+02 -0.49714493690E+02  0.15992978262E+02  0.63255329627E+02  0.00000000000E+00 0.  1.
</event>
<event>
 7    1  0.6684706E-006  0.2288593E+03  0.7561462E-02  0.1127445E+00
          1   -1    0    0  501    0  0.00000000000E+00  0.00000000000E+00  0.28675165591E+02  0.28675165591E+02  0.00000000000E+00 0. -1.
         -1   -1    0    0    0  501 -0.00000000000E+00 -0.00000000000E+00 -0.20381222424E+04  0.20381222424E+04  0.00000000000E+00 0.  1.
         23    2    1    2    0    0  0.16636154952E+03  0.13710404339E+03 -0.97725671039E+03  0.10049406445E+04  0.91658808421E+02 0.  0.
          5    1    1    2  502    0 -0.11166932021E+03 -0.49427010345E+02 -0.77628992908E+03  0.78584769060E+03  0.41800000000E+01 0. -1.
         -5    1    1    2    0  502 -0.54692229309E+02 -0.87677033047E+02 -0.25590043736E+03  0.27600907288E+03  0.41800000000E+01 0. -1.
        -11    1    3    3    0    0  0.62694193948E+02  0.32171828660E+01 -0.32886181199E+03  0.33479994565E+03  0.00000000000E+00 0.  1.
         11    1    3    3    0    0  0.10366735557E+03  0.13388686053E+03 -0.64839489840E+03  0.67014069889E+03  0.00000000000E+00 0. -1.
</event>
<event>
 6    1  0.6684706E-006  0.3991736E+03  0.7561462E-02  0.1044066E+00
         -2   -1    0    0    0  501 -0.00000000000E+00  0.00000000000E+00  0.22688329415E+03  0.22688329415E+03  0.00000000000E+00 0. -1.
          2   -1    0    0  501    0  0.00000000000E+00 -0.00000000000E+00 -0.93631193966E+03  0.93631193966E+03  0.00000000000E+00 0.  1.
          5    1    1    2  502    0  0.13118746305E+03 -0.19318143224E+02 -0.20717204292E+03  0.24601030240E+03  0.41800000000E+01 0. -1.
         -5    1    1    2    0  502  0.16351466288E+03  0.11443477210E+03 -0.24163456320E+03  0.31342797669E+03  0.41800000000E+01 0. -1.
        -11    1    1    2    0    0 -0.75906307283E+02  0.13100575770E+03  0.52116382744E+02  0.16012617958E+03  0.00000000000E+00 0. -1.
         11    1    1    2    0    0 -0.21879581865E+03 -0.22612238658E+03 -0.31273842214E+03  0.44363077514E+03  0.00000000000E+00 0.  1.
</event>
<event>
 7    1  0.6684706E-006  0.1085625E+03  0.7561462E-02  0.1263255E+00
          2   -1    0    0  501    0  0.00000000000E+00  0.00000000000E+00  0.51618665523E+03  0.51618665523E+03  0.00000000000E+00 0. -1.
         -2   -1    0    0    0  501 -0.00000000000E+00 -0.00000000000E+00 -0.40937126267E+02  0.40937126267E+02  0.00000000000E+00 0.  1.
         23    2    1    2    0    0  0.16028685888E+02  0.90173020115E+02  0.15904727280E+03  0.20496299271E+03  0.91245279694E+02 0.  0.
          5    1    1    2  502    0 -0.22487574074E+02 -0.61843740078E+02  0.46069334962E+02  0.80437523572E+02  0.41800000000E+01 0. -1.
         -5    1    1    2    0  502  0.64588881860E+01 -0.28329280037E+02  0.27013292120E+03  0.27172326521E+03  0.41800000000E+01 0. -1.
        -11    1    3    3    0    0  0.48571158986E+02  0.62209502439E+02  0.67473455338E+02  0.10383567236E+03  0.00000000000E+00 0.  1.
         11    1    3    3    0    0 -0.32542473098E+02  0.27963517676E+02  0.91573817466E+02  0.10112732035E+03  0.00000000000E+00 0. -1.
</event>
<event>
 7    1  0.6684706E-006  0.9328294E+02  0.7561462E-02  0.1295091E+00
          2   -1    0    0  501    0  0.00000000000E+00  0.00000000000E+00  0.20579702613E+03  0.20579702613E+03  0.00000000000E+00 0. -1.
         -2   -1    0    0    0  501 -0.00000000000E+00 -0.00000000000E+00 -0.67106357113E+02  0.67106357113E+02  0.00000000000E+00 0.  1.
         23    2    1    2    0    0  0.74786214679E-01 -0.47842973857E+01  0.36948736928E+01  0.91141131746E+02  0.90940412963E+02 0.  0.
          5    1    1    2  502    0  0.43610736098E+02  0.22186392801E+02  0.12388458319E+03  0.13326287810E+03  0.41800000000E+01 0. -1.
         -5    1    1    2    0  502 -0.43685522313E+02 -0.17402095416E+02  0.11111212137E+02  0.48499373396E+02  0.41800000000E+01 0.  1.
        -11    1    3    3    0    0 -0.44350147981E+02  0.53805834399E+01 -0.42639987894E+01  0.44878368840E+02  0.00000000000E+00 0.  1.
         11    1    3    3    0    0  0.44424934196E+02 -0.10164880826E+02  0.79588724822E+01  0.46262762906E+02  0.00000000000E+00 0. -1.
</event>
<event>
 7    1  0.6684706E-006  0.1902948E+03  0.7561462E-02  0.1158196E+00
          2   -1    0    0  501    0  0.00000000000E+00  0.00000000000E+00  0.20015283992E+04  0.20015283992E+04  0.00000000000E+00 0. -1.
         -2   -1    0    0    0  501 -0.00000000000E+00 -0.00000000000E+00 -0.22499355116E+02  0.22499355116E+02  0.00000000000E+00 0.  1.
         23    2    1    2    0    0  0.78372818897E+02  0.16292673116E+03  0.83195590342E+03  0.85607549515E+03  0.89594696781E+02 0.  0.
          5    1    1    2  502    0 -0.21278434927E+02 -0.55803445091E+02  0.75801153577E+03  0.76037211747E+03  0.41800000000E+01 0. -1.
         -5    1    1    2    0  502 -0.57094383969E+02 -0.10712328607E+03  0.38906160493E+03  0.40758014173E+03  0.41800000000E+01 0. -1.
        -11    1    3    3    0    0  0.93671465415E+02  0.11159630389E+03  0.54357621898E+03  0.56276387972E+03  0.00000000000E+00 0.  1.
         11    1    3    3    0    0 -0.15298646518E+02  0.51330427269E+02  0.28837968444E+03  0.29331161543E+03  0.00000000000E+00 0. -1.
</event>
<event>
 7    1  0.6684706E-006  0.1079573E+03  0.7561462E-02  0.1264400E+00
         -2   -1    0    0    0  501 -0.00000000000E+00  0.00000000000E+00  0.11313938293E+02  0.11313938293E+02  0.00000000000E+00 0.  1.
          2   -1    0    0  501    0  0.00000000000E+00 -0.00000000000E+00 -0.16002966292E+04  0.16002966292E+04  0.00000000000E+00 0. -1.
         23    2    1    2    0    0  0.66420802826E+02 -0.86209215082E+01 -0.46086174774E+03  0.47461090559E+03  0.91520040609E+02 0.  0.
          5    1    1    2  502    0 -0.61086789628E+02 -0.27092534250E+02 -0.10330299182E+04  0.10351975104E+04  0.41800000000E+01 0.  1.
         -5    1    1    2    0  502 -0.53340131978E+01  0.35713455758E+02 -0.95091024972E+02  0.10180215150E+03  0.41800000000E+01 0.  1.
        -11    1    3    3    0    0  0.80910440816E+02  0.17459646031E+02 -0.31230815683E+03  0.32309089046E+03  0.00000000000E+00 0.  1.
         11    1    3    3    0    0 -0.14489637990E+02 -0.26080567539E+02 -0.14855359091E+03  0.15152001513E+03  0.00000000000E+00 0. -1.
</event>
<event>
 7    1  0.6684706E-006  0.2328224E+03  0.7561462E-02  0.1124669E+00
          2   -1    0    0  501    0  0.00000000000E+00  0.00000000000E+00  0.12593394703E+04  0.12593394703E+04  0.00000000000E+00 0. -1.
         -2   -1    0    0    0  501 -0.00000000000E+00 -0.00000000000E+00 -0.11190660267E+03  0.11190660267E+03  0.00000000000E+00 0.  1.
         23    2    1    2    0    0  0.16896482642E+03 -0.15015163250E+03  0.57668520607E+02  0.25127105126E+03  0.93364113145E+02 0.  0.
          5    1    1    2  502    0 -0.73553617804E+02  0.60202209853E+02  0.74573474888E+03  0.75177937512E+03  0.41800000000E+01 0. -1.
         -5    1    1    2    0  502 -0.95411208617E+02  0.89949422645E+02  0.34402959813E+03  0.36819564657E+03  0.41800000000E+01 0. -1.
        -11    1    3    3    0    0  0.75038790056E+02 -0.11837335506E+03  0.80289918191E+01  0.14038353148E+03  0.00000000000E+00 0.  1.
         11    1    3    3    0    0  0.93926036366E+02 -0.31778277433E+02  0.49639528788E+02  0.11088751978E+03  0.00000000000E+00 0. -1.
</event>
<event>
 7    1  0.6684706E-006  0.1119921E+03  0.7561462E-02  0.1256925E+00
          2   -1    0    0  501    0  0.00000000000E+00  0.00000000000E+00  0.46753820698E+03  0.46753820698E+03  0.00000000000E+00 0. -1.
         -2   -1    0    0    0  501 -0.00000000000E+00 -0.00000000000E+00 -0.57135215501E+02  0.57135215501E+02  0.00000000000E+00 0.  1.
         23    2    1    2    0    0  0.83641523104E+02  0.16113813761E+02  0.53322435523E+02  0.13685037907E+03  0.92893405262E+02 0.  0.
          5    1    1    2  502    0  0.59371703546E+01 -0.44287091328E+01 -0.80194294739E+01  0.11689615284E+02  0.41800000000E+01 0.  1.
         -5    1    1    2    0  502 -0.89578693459E+02 -0.11685104628E+02  0.36509998543E+03  0.37613342812E+03  0.41800000000E+01 0.  1.
        -11    1    3    3    0    0  0.56277738527E+02 -0.35561491623E+02  0.19820346318E+02  0.69459698159E+02  0.00000000000E+00 0.  1.
         11    1    3    3    0    0  0.27363784577E+02  0.51675305384E+02  0.33502089205E+02  0.67390680914E+02  0.00000000000E+00 0. -1.
</event>
<event>
 7    1  0.6684706E-006  0.1072396E+03  0.7561462E-02  0.1265769E+00
          1   -1    0    0  501    0  0.00000000000E+00  0.00000000000E+00  0.12222288782E+04  0.12222288782E+04  0.00000000000E+00 0. -1.
         -1   -1    0    0    0  501 -0.00000000000E+00 -0.00000000000E+00 -0.15781231037E+02  0.15781231037E+02  0.00000000000E+00 0.  1.
         23    2    1    2    0    0  0.21007222274E+02 -0.76559126113E+02  0.36576595244E+03  0.38437268178E+03  0.87492990291E+02 0.  0.
          5    1    1    2  502    0  0.21164822004E+02  0.49755818106E+02  0.12570315785E+03  0.13690269325E+03  0.41800000000E+01 0. -1.
         -5    1    1    2    0  502 -0.42172044278E+02  0.26803308008E+02  0.71497853690E+03  0.71673473424E+03  0.41800000000E+01 0. -1.
        -11    1    3    3    0    0  0.39887824200E+02 -0.10284248883E+02  0.21062685125E+03  0.21461704211E+03  0.00000000000E+00 0.  1.
         11    1    3    3    0    0 -0.18880601926E+02 -0.66274877230E+02  0.15513910119E+03  0.16975563967E+03  0.00000000000E+00 0. -1.
</event>
<event>
 7    1  0.6684706E-006  0.1394237E+03  0.7561462E-02  0.1214106E+00
          1   -1    0    0  501    0  0.00000000000E+00  0.00000000000E+00  0.24366470360E+03  0.24366470360E+03  0.00000000000E+00 0. -1.
         -1   -1    0    0    0  501 -0.00000000000E+00 -0.00000000000E+00 -0.98266394571E+02  0.98266394571E+02  0.00000000000E+00 0.  1.
         23    2    1    2    0    0  0.40457008885E+02 -0.66170505845E+02 -0.10641468701E+01  0.13429345799E+03  0.10962798474E+03 0.  0.
          5    1    1    2  502    0  0.43380345585E+02  0.96505552049E+01  0.32407578288E+02  0.55160775279E+02  0.41800000000E+01 0. -1.
         -5    1    1    2    0  502 -0.83837354471E+02  0.56519950640E+02  0.11405487761E+03  0.15247686491E+03  0.41800000000E+01 0. -1.
        -11    1    3    3    0    0  0.13637810667E+02 -0.93637487308E+02 -0.91351191959E+01  0.95065342328E+02  0.00000000000E+00 0.  1.
         11    1    3    3    0    0  0.26819198219E+02  0.27466981464E+02  0.80709723257E+01  0.39228115658E+02  0.00000000000E+00 0. -1.
</event>
<event>
 7    1  0.6684706E-006  0.1479183E+03  0.7561462E-02  0.1203055E+00
          2   -1    0    0  501    0  0.00000000000E+00  0.00000000000E+00  0.75894456573E+03  0.75894456573E+03  0.00000000000E+00 0. -1.
         -2   -1    0    0    0  501 -0.00000000000E+00 -0.00000000000E+00 -0.64242396485E+02  0.64242396485E+02  0.00000000000E+00 0.  1.
         23    2    1    2    0    0 -0.12378900905E+03  0.59531672523E+02  0.82275138419E+02  0.18471840020E+03  0.92108361043E+02 0.  0.
          5    1    1    2  502    0  0.11155925345E+03 -0.61064444334E+02  0.61237266689E+03  0.62545350662E+03  0.41800000000E+01 0. -1.
         -5    1    1    2    0  502  0.12229755605E+02  0.15327718107E+01  0.54363937941E-01  0.13015055398E+02  0.41800000000E+01 0.  1.
        -11    1    3    3    0    0 -0.52445940454E+02 -0.12793084553E+02 -0.10085709388E-01  0.53983699245E+02  0.00000000000E+00 0.  1.
         11    1    3    3    0    0 -0.71343068599E+02  0.72324757076E+02  0.82285224129E+02  0.13073470095E+03  0.00000000000E+00 0. -1.
</event>
<event>
 7    1  0.6684706E-006  0.3284428E+03  0.7561462E-02  0.1071828E+00
          2   -1    0    0  501    0  0.00000000000E+00  0.00000000000E+00  0.49214099611E+03  0.49214099611E+03  0.00000000000E+00 0. -1.
         -2   -1    0    0    0  501 -0.00000000000E+00 -0.00000000000E+00 -0.33855178416E+03  0.33855178416E+03  0.00000000000E+00 0.  1.
         23    2    1    2    0    0 -0.92983868397E+02  0.13507477746E+02 -0.10183839152E+03  0.16569910428E+03  0.90866294278E+02 0.  0.
          5    1    1    2  502    0 -0.10151341527E+03  0.20950767831E+03  0.28448844541E+03  0.36762696952E+03  0.41800000000E+01 0. -1.
         -5    1    1    2    0  502  0.19449728367E+03 -0.22301515605E+03 -0.29060841944E+02  0.29736670647E+03  0.41800000000E+01 0.  1.
        -11    1    3    3    0    0 -0.10538568381E+03 -0.53587862185E+01 -0.69851439560E+02  0.12654676033E+03  0.00000000000E+00 0.  1.
         11    1    3    3    0    0  0.12401815411E+02  0.18866263965E+02 -0.31986951955E+02  0.39152343951E+02  0.00000000000E+00 0. -1.
</event>
<event>
 7    1  0.6684706E-006  0.1133807E+03  0.7561462E-02  0.1254434E+00
         -2   -1    0    0    0  501 -0.00000000000E+00  0.00000000000E+00  0.29423427549E+02  0.29423427549E+02  0.00000000000E+00 0.  1.
          2   -1    0    0  501    0  0.00000000000E+00 -0.00000000000E+00 -0.54846864557E+03  0.54846864557E+03  0.00000000000E+00 0. -1.
         23    2    1    2    0    0  0.10026647560E+02 -0.49588834162E+02 -0.94273563649E+02  0.13230177934E+03  0.77824609727E+02 0.  0.
          5    1    1    2  502    0 -0.61184848024E+02 -0.18890660332E+01 -0.21475860022E+03  0.22335147854E+03  0.41800000000E+01 0. -1.
         -5    1    1    2    0  502  0.51158200465E+02  0.51477900195E+02 -0.21001305416E+03  0.22223881524E+03  0.41800000000E+01 0.  1.
        -11    1    3    3    0    0  0.14455045191E+02 -0.70177092560E+02 -0.75547435616E+02  0.10412102420E+03  0.00000000000E+00 0.  1.
         11    1    3    3    0    0 -0.44283976316E+01  0.20588258398E+02 -0.18726128033E+02  0.28180755145E+02  0.00000000000E+00 0. -1.
</event>
<event>
 7    1  0.6684706E-006  0.1483270E+03  0.7561462E-02  0.1202544E+00
         -3   -1    0    0    0  501 -0.00000000000E+00  0.00000000000E+00  0.36132307704E+03  0.36132307704E+03  0.00000000000E+00 0.  1.
          3   -1    0    0  501    0  0.00000000000E+00 -0.00000000000E+00 -0.73931711662E+02  0.73931711662E+02  0.00000000000E+00 0. -1.
         23    2    1    2    0    0  0.10781066039E+03 -0.49805128424E+02  0.17281215611E+03  0.22818249583E+03  0.89997337698E+02 0.  0.
          5    1    1    2  502    0 -0.93835635397E+02 -0.23928599904E+02  0.57582108638E+02  0.11274252081E+03  0.41800000000E+01 0.  1.
         -5    1    1    2    0  502 -0.13975024991E+02  0.73733728328E+02  0.56997100622E+02  0.94329772055E+02  0.41800000000E+01 0.  1.
        -11    1    3    3    0    0  0.59247507812E+02 -0.47512280615E+02  0.16120542011E+03  0.17819896595E+03  0.00000000000E+00 0.  1.
         11    1    3    3    0    0  0.48563152576E+02 -0.22928478090E+01  0.11606736004E+02  0.49983529886E+02  0.00000000000E+00 0. -1.
</event>
<event>
 7    1  0.6684706E-006  0.1852633E+03  0.7561462E-02  0.1162804E+00
         -2   -1    0    0    0  501 -0.00000000000E+00  0.00000000000E+00  0.74712338936E+02  0.74712338936E+02  0.00000000000E+00 0.  1.
          2   -1    0    0  501    0  0.00000000000E+00 -0.00000000000E+00 -0.58706027906E+03  0.58706027906E+03  0.00000000000E+00 0. -1.
         23    2    1    2    0    0 -0.48186827238E+02  0.24130683204E+02 -0.32631428544E+02  0.11052793089E+03  0.90814939228E+02 0.  0.
          5    1    1    2  502    0 -0.70212515606E+02  0.80488283502E+02 -0.25513478096E+03  0.27662138382E+03  0.41800000000E+01 0. -1.
         -5    1    1    2    0  502  0.11839934284E+03 -0.10461896671E+03 -0.22458173062E+03  0.27462330328E+03  0.41800000000E+01 0.  1.
        -11    1    3    3    0    0 -0.48005520448E+01  0.53162302803E+02 -0.17548424461E+02  0.56189171024E+02  0.00000000000E+00 0.  1.
         11    1    3    3    0    0 -0.43386275194E+02 -0.29031619599E+02 -0.15083004083E+02  0.54338759867E+02  0.00000000000E+00 0. -1.
</event>
<event>
 7    1  0.6684706E-006  0.1010064E+03  0.7561462E-02  0.1278194E+00
          2   -1    0    0  501    0  0.00000000000E+00  0.00000000000E+00  0.89168740549E+03  0.89168740549E+03  0.00000000000E+00 0. -1.
         -2   -1    0    0    0  501 -0.00000000000E+00 -0.00000000000E+00 -0.33432454771E+02  0.33432454771E+02  0.00000000000E+00 0.  1.
         23    2    1    2    0    0  0.17501852678E+02 -0.64726902233E+02  0.90198621538E+02  0.14406014807E+03  0.90120187604E+02 0.  0.
          5    1    1    2  502    0 -0.25300447739E+02  0.73504337977E+02  0.76399547142E+03  0.76795153044E+03  0.41800000000E+01 0. -1.
         -5    1    1    2    0  502  0.77985950612E+01 -0.87774357448E+01  0.40608577640E+01  0.13108181757E+02  0.41800000000E+01 0. -1.
        -11    1    3    3    0    0 -0.31385486128E+02 -0.10258915958E+01  0.18732969091E+02  0.36565356884E+02  0.00000000000E+00 0.  1.
         11    1    3    3    0    0  0.48887338806E+02 -0.63701010637E+02  0.71465652447E+02  0.10749479118E+03  0.00000000000E+00 0. -1.
</event>
<event>
 7    1  0.6684706E-006  0.8613883E+02  0.7561462E-02  0.1312481E+00
          2   -1    0    0  501    0  0.00000000000E+00  0.00000000000E+00  0.33526874865E+02  0.33526874865E+02  0.00000000000E+00 0. -1.
         -2   -1    0    0    0  501 -0.00000000000E+00 -0.00000000000E+00 -0.40947310511E+03  0.40947310511E+03  0.00000000000E+00 0.  1.
         23    2    1    2    0    0  0.11475854480E+02  0.30529169023E+02 -0.21812826556E+03  0.23899748970E+03  0.92065924492E+02 0.  0.
          5    1    1    2  502    0 -0.57545871880E+02 -0.36759187885E+02 -0.44935209427E+02  0.81849927982E+02  0.41800000000E+01 0.  1.
         -5    1    1    2    0  502  0.46070017400E+02  0.62300188619E+01 -0.11288275526E+03  0.12215256229E+03  0.41800000000E+01 0.  1.
        -11    1    3    3    0    0  0.17054847382E+02 -0.75869429515E+01 -0.12320007220E+01  0.18706879706E+02  0.00000000000E+00 0. -1.
         11    1    3    3    0    0 -0.55789929014E+01  0.38116111974E+02 -0.21689626484E+03  0.22029061000E+03  0.00000000000E+00 0.  1.
</event>
<event>
 7    1  0.6684706E-006  0.7815064E+02  0.7561462E-02  0.1334383E+00
          2   -1    0    0  501    0  0.00000000000E+00  0.00000000000E+00  0.45300576486E+03  0.45300576486E+03  0.00000000000E+00 0. -1.
         -2   -1    0    0    0  501 -0.00000000000E+00 -0.00000000000E+00 -0.41005201500E+02  0.41005201500E+02  0.00000000000E+00 0.  1.
         23    2    1    2    0    0  0.64643737176E+02 -0.26578578471E+01  0.83594359187E+02  0.13668277363E+03  0.86650370767E+02 0.  0.
          5    1    1    2  502    0 -0.25368762747E+02  0.15012313926E+02  0.31101785135E+03  0.31243962609E+03  0.41800000000E+01 0. -1.
         -5    1    1    2    0  502 -0.39274974429E+02 -0.12354456079E+02  0.17388352823E+02  0.44888566644E+02  0.41800000000E+01 0. -1.
        -11    1    3    3    0    0  0.27606978767E+02  0.26301393699E+02  0.81083187740E+02  0.89601294194E+02  0.00000000000E+00 0. -1.
         11    1    3    3    0    0  0.37036758410E+02 -0.28959251546E+02  0.25111714477E+01  0.47081479434E+02  0.00000000000E+00 0.  1.
</event>
<event>
 7    1  0.6684706E-006  0.2244176E+03  0.7561462E-02  0.1130632E+00
          2   -1    0    0  501    0  0.00000000000E+00  0.00000000000E+00  0.58564384813E+03  0.58564384813E+03  0.00000000000E+00 0. -1.
         -2   -1    0    0    0  501 -0.00000000000E+00 -0.00000000000E+00 -0.98763296375E+02  0.98763296375E+02  0.00000000000E+00 0.  1.
         23    2    1    2    0    0 -0.65075222818E+02  0.20343505230E+03  0.21265042692E+03  0.31498571183E+03  0.91516061196E+02 0.  0.
          5    1    1    2  502    0  0.19583046247E+02 -0.14479376579E+03  0.92258264574E+02  0.17285193112E+03  0.41800000000E+01 0. -1.
         -5    1    1    2    0  502  0.45492176570E+02 -0.58641286518E+02  0.18197186027E+03  0.19656950156E+03  0.41800000000E+01 0. -1.
        -11    1    3    3    0    0 -0.68320840089E+02  0.81496053669E+02  0.12847719226E+03  0.16678049312E+03  0.00000000000E+00 0.  1.
         11    1    3    3    0    0  0.32456172715E+01  0.12193899863E+03  0.84173234653E+02  0.14820521870E+03  0.00000000000E+00 0. -1.
</event>
<event>
 7    1  0.6684706E-006  0.1179233E+03  0.7561462E-02  0.1246563E+00
         -1   -1    0    0    0  501 -0.00000000000E+00  0.00000000000E+00  0.17965035538E+02  0.17965035538E+02  0.00000000000E+00 0.  1.
          1   -1    0    0  501    0  0.00000000000E+00 -0.00000000000E+00 -0.82860755014E+03  0.82860755014E+03  0.00000000000E+00 0. -1.
         23    2    1    2    0    0 -0.52775468260E+02 -0.61631981867E+01 -0.36766943659E+03  0.38321898665E+03  0.94089011395E+02 0.  0.
          5    1    1    2  502    0  0.92416039653E+02  0.18055528993E+01 -0.35156599059E+03  0.36353830959E+03  0.41800000000E+01 0. -1.
         -5    1    1    2    0  502 -0.39640571392E+02  0.43576452873E+01 -0.91407087432E+02  0.99815289438E+02  0.41800000000E+01 0. -1.
        -11    1    3    3    0    0 -0.52008506802E+02  0.34589673039E+02 -0.27462099822E+03  0.28163455563E+03  0.00000000000E+00 0. -1.
         11    1    3    3    0    0 -0.76696145859E+00 -0.40752871226E+02 -0.93048438366E+02  0.10158443102E+03  0.00000000000E+00 0.  1.
</event>
<event>
 7    1  0.6684706E-006  0.1219029E+03  0.7561462E-02  0.1239991E+00
         -1   -1    0    0    0  501 -0.00000000000E+00  0.00000000000E+00  0.31316595171E+02  0.31316595171E+02  0.00000000000E+00 0.  1.
          1   -1    0    0  501    0  0.00000000000E+00 -0.00000000000E+00 -0.48300509090E+03  0.48300509090E+03  0.00000000000E+00 0. -1.
         23    2    1    2    0    0 -0.32053571652E+02 -0.55303167194E+02 -0.17419469446E+03  0.20677106817E+03  0.91239307858E+02 0.  0.
          5    1    1    2  502    0 -0.43939579331E+02  0.16031348452E+02 -0.97026435643E+02  0.10779282155E+03  0.41800000000E+01 0. -1.
         -5    1    1    2    0  502  0.75993150983E+02  0.39271818742E+02 -0.18046736563E+03  0.19975779635E+03  0.41800000000E+01 0.  1.
        -11    1    3    3    0    0  0.22660851530E+02 -0.51608709843E+02 -0.82116599549E+02  0.99599744203E+02  0.00000000000E+00 0.  1.
         11    1    3    3    0    0 -0.54714423182E+02 -0.36944573508E+01 -0.92078094908E+02  0.10717132397E+03  0.00000000000E+00 0. -1.
</event>
<event>
 7    1  0.6684706E-006  0.1689089E+03  0.7561462E-02  0.1178990E+00
         -1   -1    0    0    0  501 -0.00000000000E+00  0.00000000000E+00  0.25757686681E+03  0.25757686681E+03  0.00000000000E+00 0.  1.
          1   -1    0    0  501    0  0.00000000000E+00 -0.00000000000E+00 -0.28385670207E+03  0.28385670207E+03  0.00000000000E+00 0. -1.
         23    2    1    2    0    0 -0.55839301327E+02 -0.13881323996E+03  0.18667638211E+03  0.25745249191E+03  0.95113462738E+02 0.  0.
          5    1    1    2  502    0  0.73306147819E+02  0.34476841587E+02 -0.78892870447E+02  0.11315476712E+03  0.41800000000E+01 0. -1.
         -5    1    1    2    0  502 -0.17466846492E+02  0.10433639838E+03 -0.13406334692E+03  0.17082630986E+03  0.41800000000E+01 0.  1.
        -11    1    3    3    0    0 -0.51938137334E+02 -0.10876311406E+03  0.19199050301E+03  0.22668775515E+03  0.00000000000E+00 0.  1.
         11    1    3    3    0    0 -0.39011639932E+01 -0.30050125906E+02 -0.53141208969E+01  0.30764736768E+02  0.00000000000E+00 0. -1.
</event>
<event>
 7    1  0.6684706E-006  0.1558462E+03  0.7561462E-02  0.1193468E+00
          2   -1    0    0  501    0  0.00000000000E+00  0.00000000000E+00  0.10765223665E+04  0.10765223665E+04  0.00000000000E+00 0. -1.
         -2   -1    0    0    0  501 -0.00000000000E+00 -0.00000000000E+00 -0.26900190148E+02  0.26900190148E+02  0.00000000000E+00 0.  1.
         23    2    1    2    0    0  0.81307053861E+01  0.13198255020E+03  0.45622071048E+03  0.48272527350E+03  0.86028199318E+02 0.  0.
          5    1    1    2  502    0  0.24714058014E+02  0.14379951617E+02  0.14503621811E+03  0.14788693193E+03  0.41800000000E+01 0. -1.
         -5    1    1    2    0  502 -0.32844763400E+02 -0.14636250182E+03  0.44836524780E+03  0.47281035126E+03  0.41800000000E+01 0. -1.
        -11    1    3    3    0    0 -0.17999937786E+01  0.64518528445E+02  0.93272977024E+02  0.11342719574E+03  0.00000000000E+00 0.  1.
         11    1    3    3    0    0  0.99306991648E+01  0.67464021753E+02  0.36294773346E+03  0.36929807776E+03  0.00000000000E+00 0. -1.
</event>
<event>
 7    1  0.6684706E-006  0.3575977E+03  0.7561462E-02  0.1059539E+00
          2   -1    0    0  501    0  0.00000000000E+00  0.00000000000E+00  0.33949711459E+03  0.33949711459E+03  0.00000000000E+00 0. -1.
         -2   -1    0    0    0  501 -0.00000000000E+00 -0.00000000000E+00 -0.40193119632E+03  0.40193119632E+03  0.00000000000E+00 0.  1.
         23    2    1    2    0    0  0.59820742063E+01 -0.10292752011E+02  0.15556036368E+02  0.91422123575E+02  0.89298871525E+02 0.  0.
          5    1    1    2  502    0 -0.63809842073E+02 -0.30222392777E+03  0.38879288212E+02  0.31135200323E+03  0.41800000000E+01 0. -1.
         -5    1    1    2    0  502  0.57827767867E+02  0.31251667979E+03 -0.11686940630E+03  0.33865418410E+03  0.41800000000E+01 0.  1.
        -11    1    3    3    0    0 -0.13985492645E+02 -0.45694292881E+02 -0.31817769551E+00  0.47787693431E+02  0.00000000000E+00 0. -1.
         11    1    3    3    0    0  0.19967566851E+02  0.35401540869E+02  0.15874214063E+02  0.43634430144E+02  0.00000000000E+00 0.  1.
</event>
<event>
 7    1  0.6684706E-006  0.1528375E+03  0.7561462E-02  0.1197029E+00
          1   -1    0    0  501    0  0.00000000000E+00  0.00000000000E+00  0.71374354795E+02  0.71374354795E+02  0.00000000000E+00 0. -1.
         -1   -1    0    0    0  501 -0.00000000000E+00 -0.00000000000E+00 -0.38577697806E+03  0.38577697806E+03  0.00000000000E+00 0.  1.
         23    2    1    2    0    0  0.73636491344E+02  0.99004879525E+02 -0.18135811948E+03  0.23675007532E+03  0.89081601011E+02 0.  0.
          5    1    1    2  502    0 -0.10553812945E+03 -0.85637329336E+02 -0.12487259905E+03  0.18461497051E+03  0.41800000000E+01 0. -1.
         -5    1    1    2    0  502  0.31901638102E+02 -0.13367550190E+02 -0.81719047368E+01  0.35786287020E+02  0.41800000000E+01 0. -1.
        -11    1    3    3    0    0  0.82341339792E+02  0.84810747718E+02 -0.10344950588E+03  0.15708201499E+03  0.00000000000E+00 0. -1.
         11    1    3    3    0    0 -0.87048484477E+01  0.14194131807E+02 -0.77908613601E+02  0.79668060335E+02  0.00000000000E+00 0.  1.
</event>
<event>
 7    1  0.6684706E-006  0.1206699E+03  0.7561462E-02  0.1241996E+00
          1   -1    0    0  501    0  0.00000000000E+00  0.00000000000E+00  0.28204287237E+02  0.28204287237E+02  0.00000000000E+00 0. -1.
         -1   -1    0    0    0  501 -0.00000000000E+00 -0.00000000000E+00 -0.60586989891E+03  0.60586989891E+03  0.00000000000E+00 0.  1.
         23    2    1    2    0    0 -0.41569465561E+02  0.58439195418E+02 -0.20503068889E+03  0.23451518585E+03  0.88411701579E+02 0.  0.
          5    1    1    2  502    0 -0.29160947392E+02  0.22018187927E+02 -0.86193712149E+02  0.93712271696E+02  0.41800000000E+01 0. -1.
         -5    1    1    2    0  502  0.70730412953E+02 -0.80457383345E+02 -0.28644121063E+03  0.30584672860E+03  0.41800000000E+01 0. -1.
        -11    1    3    3    0    0 -0.44903438728E+02  0.65753501936E+01 -0.15812030927E+03  0.16450406148E+03  0.00000000000E+00 0.  1.
         11    1    3    3    0    0  0.33339731671E+01  0.51863845224E+02 -0.46910379623E+02  0.70011124365E+02  0.00000000000E+00 0. -1.
</event>
<event>
 7    1  0.6684706E-006  0.1192812E+03  0.7561462E-02  0.1244288E+00
          1   -1    0    0  501    0  0.00000000000E+00  0.00000000000E+00  0.61586220222E+03  0.61586220222E+03  0.00000000000E+00 0. -1.
         -1   -1    0    0    0  501 -0.00000000000E+00 -0.00000000000E+00 -0.31120682278E+02  0.31120682278E+02  0.00000000000E+00 0.  1.
         23    2    1    2    0    0  0.35084837635E+02 -0.75094840256E+02  0.20373809016E+03  0.23749485035E+03  0.89579091851E+02 0.  0.
          5    1    1    2  502    0 -0.19143155193E+02  0.91379789918E+02  0.37367930846E+03  0.38518881651E+03  0.41800000000E+01 0.  1.
         -5    1    1    2    0  502 -0.15941682442E+02 -0.16284949662E+02  0.73241213288E+01  0.24299217638E+02  0.41800000000E+01 0.  1.
        -11    1    3    3    0    0  0.64873059899E+02 -0.41378968355E+02  0.12371844770E+03  0.14569484282E+03  0.00000000000E+00 0.  1.
         11    1    3    3    0    0 -0.29788222264E+02 -0.33715871901E+02  0.80019642457E+02  0.91800007531E+02  0.00000000000E+00 0. -1.
</event>
<event>
 7    1  0.6684706E-006  0.1039819E+03  0.7561462E-02  0.1272139E+00
          2   -1    0    0  501    0  0.00000000000E+00  0.00000000000E+00  0.27662535933E+03  0.27662535933E+03  0.00000000000E+00 0.  1.
         -2   -1    0    0    0  501 -0.00000000000E+00 -0.00000000000E+00 -0.70523393461E+02  0.70523393461E+02  0.00000000000E+00 0. -1.
         23    2    1    2    0    0  0.48332104298E+02  0.67747519389E+02  0.52924650851E+02  0.13246522787E+03  0.88432455788E+02 0.  0.
          5    1    1    2  502    0 -0.64886031914E+02 -0.43433550511E+02  0.16509230419E+03  0.18267351135E+03  0.41800000000E+01 0. -1.
         -5    1    1    2    0  502  0.16553927616E+02 -0.24313968879E+02 -0.11914989169E+02  0.32010013574E+02  0.41800000000E+01 0. -1.
        -11    1    3    3    0    0  0.38254259010E+02  0.75078276307E+01  0.59395720570E+02  0.71046515961E+02  0.00000000000E+00 0.  1.
         11    1    3    3    0    0  0.10077845289E+02  0.60239691758E+02 -0.64710697192E+01  0.61418711905E+02  0.00000000000E+00 0. -1.
</event>
<event>
 7    1  0.6684706E-006  0.1746796E+03  0.7561462E-02  0.1173054E+00
          2   -1    0    0  501    0  0.00000000000E+00  0.00000000000E+00  0.32947943448E+03  0.32947943448E+03  0.00000000000E+00 0. -1.
         -2   -1    0    0    0  501 -0.00000000000E+00 -0.00000000000E+00 -0.11707871023E+03  0.11707871023E+03  0.00000000000E+00 0.  1.
         23    2    1    2    0    0  0.72428656686E+02  0.13607517789E+03  0.27662370454E+02  0.17538747312E+03  0.78950583547E+02 0.  0.
          5    1    1    2  502    0 -0.24209992522E+02 -0.12856377295E+03  0.17915358687E+03  0.22187439586E+03  0.41800000000E+01 0.  1.
         -5    1    1    2    0  502 -0.48218664164E+02 -0.75114049427E+01  0.55847669292E+01  0.49296275717E+02  0.41800000000E+01 0.  1.
        -11    1    3    3    0    0  0.52687900336E+02  0.28075871863E+02 -0.73474068538E+01  0.60151922747E+02  0.00000000000E+00 0.  1.
         11    1    3    3    0    0  0.19740756350E+02  0.10799930602E+03  0.35009777308E+02  0.11523555037E+03  0.00000000000E+00 0. -1.
</event>
<event>
 7    1  0.6684706E-006  0.1138842E+03  0.7561462E-02  0.1253541E+00
         -1   -1    0    0    0  501 -0.00000000000E+00  0.00000000000E+00  0.29295738034E+02  0.29295738034E+02  0.00000000000E+00 0.  1.
          1   -1    0    0  501    0  0.00000000000E+00 -0.00000000000E+00 -0.75317465472E+03  0.75317465472E+03  0.00000000000E+00 0. -1.
         23    2    1    2    0    0  0.27970850727E+02 -0.94959039492E+02 -0.26757970649E+03  0.29908998193E+03  0.89757062637E+02 0.  0.
          5    1    1    2  502    0 -0.13925312197E+01  0.65650738696E+02 -0.43152438579E+03  0.43651200049E+03  0.41800000000E+01 0. -1.
         -5    1    1    2    0  502 -0.26578319508E+02  0.29308300797E+02 -0.24774824403E+02  0.46868410338E+02  0.41800000000E+01 0. -1.
        -11    1    3    3    0    0  0.34951354967E+02 -0.91995557617E+01 -0.14426957788E+03  0.14872773831E+03  0.00000000000E+00 0. -1.
         11    1    3    3    0    0 -0.69805042401E+01 -0.85759483731E+02 -0.12331012861E+03  0.15036224362E+03  0.00000000000E+00 0.  1.
</event>
<event>
 7    1  0.6684706E-006  0.1711853E+03  0.7561462E-02  0.1176617E+00
         -2   -1    0    0    0  501 -0.00000000000E+00  0.00000000000E+00  0.83218717865E+02  0.83218717865E+02  0.00000000000E+00 0.  1.
          2   -1    0    0  501    0  0.00000000000E+00 -0.00000000000E+00 -0.39102421084E+03  0.39102421084E+03  0.00000000000E+00 0. -1.
         23    2    1    2    0    0  0.13030510756E+03 -0.46070433811E+02 -0.92668268490E+02  0.18957522710E+03  0.90826498431E+02 0.  0.
          5    1    1    2  502    0  0.12068019333E+02  0.41429525799E+02 -0.59812605438E+02  0.73871935590E+02  0.41800000000E+01 0. -1.
         -5    1    1    2    0  502 -0.14237312689E+03  0.46409080118E+01 -0.15532461905E+03  0.21079576602E+03  0.41800000000E+01 0. -1.
        -11    1    3    3    0    0  0.41626895072E+01  0.15564953449E+02  0.68276004995E+01  0.17498911063E+02  0.00000000000E+00 0.  1.
         11    1    3    3    0    0  0.12614241805E+03 -0.61635387260E+02 -0.99495868989E+02  0.17207631604E+03  0.00000000000E+00 0. -1.
</event>
<event>
 7    1  0.6684706E-006  0.1201126E+03  0.7561462E-02  0.1242911E+00
          1   -1    0    0  501    0  0.00000000000E+00  0.00000000000E+00  0.29095095947E+02  0.29095095947E+02  0.00000000000E+00 0. -1.
         -1   -1    0    0    0  501 -0.00000000000E+00 -0.00000000000E+00 -0.71288129658E+03  0.71288129658E+03  0.00000000000E+00 0.  1.
         23    2    1    2    0    0  0.82892907494E+01  0.76691844836E+02 -0.43836064668E+03  0.45591480840E+03  0.98731477061E+02 0.  0.
          5    1    1    2  502    0 -0.28652290590E+02 -0.92487980463E+02 -0.10364390367E+03  0.14189612910E+03  0.41800000000E+01 0. -1.
         -5    1    1    2    0  502  0.20362999840E+02  0.15796135627E+02 -0.14178165029E+03  0.14416545502E+03  0.41800000000E+01 0. -1.
        -11    1    3    3    0    0  0.45247092093E+02  0.63477451954E+02 -0.35916039475E+03  0.36752261891E+03  0.00000000000E+00 0.  1.
         11    1    3    3    0    0 -0.36957801344E+02  0.13214392882E+02 -0.79200251925E+02  0.88392189498E+02  0.00000000000E+00 0. -1.
</event>
<event>
 7    1  0.6684706E-006  0.1413719E+03  0.7561462E-02  0.1211495E+00
         -1   -1    0    0    0  501 -0.00000000000E+00  0.00000000000E+00  0.19441096715E+02  0.19441096715E+02  0.00000000000E+00 0.  1.
          1   -1    0    0  501    0  0.00000000000E+00 -0.00000000000E+00 -0.13262087510E+04  0.13262087510E+04  0.00000000000E+00 0. -1.
         23    2    1    2    0    0 -0.90737459156E+02  0.57974465698E+02 -0.40286972757E+03  0.42680662660E+03  0.90915091994E+02 0.  0.
          5    1    1    2  502    0  0.12573724509E+02 -0.81714690793E+02 -0.48933588037E+03  0.49628869165E+03  0.41800000000E+01 0.  1.
         -5    1    1    2    0  502  0.78163734647E+02  0.23740225095E+02 -0.41456204635E+03  0.42255452947E+03  0.41800000000E+01 0.  1.
        -11    1    3    3    0    0 -0.79971135526E+02  0.66834657849E+02 -0.39892690585E+03  0.41231654128E+03  0.00000000000E+00 0. -1.
         11    1    3    3    0    0 -0.10766323630E+02 -0.88601921507E+01 -0.39428217245E+01  0.14490085321E+02  0.00000000000E+00 0.  1.
</event>
<event>
 7    1  0.6684706E-006  0.1248832E+03  0.7561462E-02  0.1235252E+00
         -2   -1    0    0    0  501 -0.00000000000E+00  0.00000000000E+00  0.72224912046E+02  0.72224912046E+02  0.00000000000E+00 0.  1.
          2   -1    0    0  501    0  0.00000000000E+00 -0.00000000000E+00 -0.26385337644E+03  0.26385337644E+03  0.00000000000E+00 0. -1.
         23    2    1    2    0    0 -0.25520178216E+02 -0.81691336127E+02 -0.88593511943E+02  0.15280505013E+03  0.90420236085E+02 0.  0.
          5    1    1    2  502    0  0.70838717741E+02  0.66105898432E+02 -0.92512214156E+02  0.13403020520E+03  0.41800000000E+01 0.  1.
         -5    1    1    2    0  502 -0.45318539526E+02  0.15585437695E+02 -0.10522738299E+02  0.49243033154E+02  0.41800000000E+01 0.  1.
        -11    1    3    3    0    0 -0.32329392700E+02 -0.11737962431E+02  0.60460547372E+01  0.34921686274E+02  0.00000000000E+00 0.  1.
         11    1    3    3    0    0  0.68092144841E+01 -0.69953373696E+02 -0.94639566680E+02  0.11788336386E+03  0.00000000000E+00 0. -1.
</event>
<event>
 7    1  0.6684706E-006  0.1087995E+03  0.7561462E-02  0.1262809E+00
         -2   -1    0    0    0  501 -0.00000000000E+00  0.00000000000E+00  0.13394931488E+02  0.13394931488E+02  0.00000000000E+00 0.  1.
          2   -1    0    0  501    0  0.00000000000E+00 -0.00000000000E+00 -0.11026967252E+04  0.11026967252E+04  0.00000000000E+00 0. -1.
         23    2    1    2    0    0 -0.35172590414E+01 -0.43208477907E+02 -0.32583603301E+03  0.34123315832E+03  0.91605699920E+02 0.  0.
          5    1    1    2  502    0 -0.24264554943E+02 -0.29785374176E+02 -0.10728497976E+03  0.11403278661E+03  0.41800000000E+01 0. -1.
         -5    1    1    2    0  502  0.27781813984E+02  0.72993852083E+02 -0.65618078098E+03  0.66082571179E+03  0.41800000000E+01 0. -1.
        -11    1    3    3    0    0 -0.45162687531E+02 -0.72942736353E+01 -0.12960433074E+03  0.13744146870E+03  0.00000000000E+00 0.  1.
         11    1    3    3    0    0  0.41645428489E+02 -0.35914204271E+02 -0.19623170227E+03  0.20379168962E+03  0.00000000000E+00 0. -1.
</event>
<event>
 7    1  0.6684706E-006  0.9841338E+02  0.7561462E-02  0.1283668E+00
         -1   -1    0    0    0  501 -0.00000000000E+00  0.00000000000E+00  0.43087851032E+02  0.43087851032E+02  0.00000000000E+00 0.  1.
          1   -1    0    0  501    0  0.00000000000E+00 -0.00000000000E+00 -0.51915142248E+03  0.51915142248E+03  0.00000000000E+00 0. -1.
         23    2    1    2    0    0  0.64761549052E+02  0.63866692745E+02 -0.15972160396E+03  0.21011322427E+03  0.10180158920E+03 0.  0.
          5    1    1    2  502    0 -0.47102227745E+02 -0.94871381835E+01 -0.23361722436E+02  0.53589813628E+02  0.41800000000E+01 0. -1.
         -5    1    1    2    0  502 -0.17659321306E+02 -0.54379554561E+02 -0.29298024505E+03  0.29853623561E+03  0.41800000000E+01 0. -1.
        -11    1    3    3    0    0  0.44877860154E+02  0.48977194431E+02 -0.17053852626E+03  0.18301960782E+03  0.00000000000E+00 0. -1.
         11    1    3    3    0    0  0.19883688898E+02  0.14889498314E+02  0.10816922305E+02  0.27093616450E+02  0.00000000000E+00 0.  1.
</event>
<event>
 7    1  0.6684706E-006  0.2141887E+03  0.7561462E-02  0.1138291E+00
          1   -1    0    0  501    0  0.00000000000E+00  0.00000000000E+00  0.16653877197E+04  0.16653877197E+04  0.00000000000E+00 0. -1.
         -1   -1    0    0    0  501 -0.00000000000E+00 -0.00000000000E+00 -0.32529296394E+02  0.32529296394E+02  0.00000000000E+00 0.  1.
         23    2    1    2    0    0  0.18732016566E+03  0.46977728026E+02  0.51636996508E+03  0.55796450683E+03  0.85969172678E+02 0.  0.
          5    1    1    2  502    0 -0.81064616184E+02  0.33574762785E+02  0.60544380403E+03  0.61178297535E+03  0.41800000000E+01 0. -1.
         -5    1    1    2    0  502 -0.10625554948E+03 -0.80552490811E+02  0.51104465417E+03  0.52816953389E+03  0.41800000000E+01 0. -1.
        -11    1    3    3    0    0  0.18028660032E+03  0.61914830446E+02  0.43495204975E+03  0.47488945036E+03  0.00000000000E+00 0.  1.
         11    1    3    3    0    0  0.70335653385E+01 -0.14937102420E+02  0.81417915333E+02  0.83075056469E+02  0.00000000000E+00 0. -1.
</event>
<event>
 7    1  0.6684706E-006  0.1104786E+03  0.7561462E-02  0.1259686E+00
         -1   -1    0    0    0  501 -0.00000000000E+00  0.00000000000E+00  0.90432199082E+02  0.90432199082E+02  0.00000000000E+00 0.  1.
          1   -1    0    0  501    0  0.00000000000E+00 -0.00000000000E+00 -0.23301870199E+03  0.23301870199E+03  0.00000000000E+00 0. -1.
         23    2    1    2    0    0  0.36200084225E+02  0.87043164361E+02 -0.40727458169E+02  0.13660933310E+03  0.90091206464E+02 0.  0.
          5    1    1    2  502    0 -0.10072025972E+02  0.14752817354E+02 -0.76472758184E+02  0.78642523303E+02  0.41800000000E+01 0.  1.
         -5    1    1    2    0  502 -0.26128058253E+02 -0.10179598172E+03 -0.25386286555E+02  0.10819904467E+03  0.41800000000E+01 0.  1.
        -11    1    3    3    0    0  0.35043963675E+02  0.54031667345E+02  0.20037813644E+02  0.67446381977E+02  0.00000000000E+00 0.  1.
         11    1    3    3    0    0  0.11561205501E+01  0.33011497016E+02 -0.60765271813E+02  0.69162951126E+02  0.00000000000E+00 0. -1.
</event>
<event>
 7    1  0.6684706E-006  0.1140037E+03  0.7561462E-02  0.1253330E+00
          2   -1    0    0  501    0  0.00000000000E+00  0.00000000000E+00  0.70830531189E+02  0.70830531189E+02  0.00000000000E+00 0. -1.
         -2   -1    0    0    0  501 -0.00000000000E+00 -0.00000000000E+00 -0.21401465672E+03  0.21401465672E+03  0.00000000000E+00 0.  1.
         23    2    1    2    0    0 -0.43063012609E+02 -0.32833186448E+02 -0.82944508158E+02  0.13582165402E+03  0.92926256134E+02 0.  0.
          5    1    1    2  502    0 -0.36308756642E+02 -0.13889072396E+02 -0.38356888048E+00  0.39100532809E+02  0.41800000000E+01 0.  1.
         -5    1    1    2    0  502  0.79371769250E+02  0.46722258844E+02 -0.59856048489E+02  0.10992300108E+03  0.41800000000E+01 0.  1.
        -11    1    3    3    0    0 -0.41552176645E+02  0.18408798230E+02 -0.97848889820E+01  0.46488829719E+02  0.00000000000E+00 0. -1.
         11    1    3    3    0    0 -0.15108359633E+01 -0.51241984678E+02 -0.73159619176E+02  0.89332824298E+02  0.00000000000E+00 0.  1.
</event>
<event>
 7    1  0.6684706E-006  0.1362593E+03  0.7561462E-02  0.1218453E+00
         -2   -1    0    0    0  501 -0.00000000000E+00  0.00000000000E+00  0.66006560176E+02  0.66006560176E+02  0.00000000000E+00 0.  1.
          2   -1    0    0  501    0  0.00000000000E+00 -0.00000000000E+00 -0.36963540052E+03  0.36963540052E+03  0.00000000000E+00 0. -1.
         23    2    1    2    0    0  0.51775688355E+01 -0.10286224317E+03 -0.80774294073E+02  0.15959036024E+03  0.91307985468E+02 0.  0.
          5    1    1    2  502    0  0.66843277294E+01  0.12893735985E+03 -0.15179133607E+03  0.19931784945E+03  0.41800000000E+01 0. -1.
         -5    1    1    2    0  502 -0.11861896565E+02 -0.26075116678E+02 -0.71063210199E+02  0.76733751007E+02  0.41800000000E+01 0.  1.
        -11    1    3    3    0    0 -0.22334440977E+02 -0.41056621908E+02  0.85748579646E+01  0.47518434795E+02  0.00000000000E+00 0.  1.
         11    1    3    3    0    0  0.27512009813E+02 -0.61805621261E+02 -0.89349152037E+02  0.11207192545E+03  0.00000000000E+00 0. -1.
</event>
<event>
 7    1  0.6684706E-006  0.1588584E+03  0.7561462E-02  0.1189992E+00
         -1   -1    0    0    0  501 -0.00000000000E+00  0.00000000000E+00  0.64121148077E+03  0.64121148077E+03  0.00000000000E+00 0.  1.
          1   -1    0    0  501    0  0.00000000000E+00 -0.00000000000E+00 -0.47061967267E+02  0.47061967267E+02  0.00000000000E+00 0. -1.
         23    2    1    2    0    0  0.12040582647E+03 -0.55365998212E+02  0.35075647643E+03  0.38418939850E+03  0.83716374484E+02 0.  0.
          5    1    1    2  502    0 -0.78752508047E+02 -0.29039470161E+02  0.14678148333E+03  0.16913759074E+03  0.41800000000E+01 0.  1.
         -5    1    1    2    0  502 -0.41653318422E+02  0.84405468373E+02  0.96611553751E+02  0.13494645881E+03  0.41800000000E+01 0.  1.
        -11    1    3    3    0    0  0.14467066997E+02 -0.25623702120E+02  0.17036074893E+03  0.17288335639E+03  0.00000000000E+00 0. -1.
         11    1    3    3    0    0  0.10593875947E+03 -0.29742296092E+02  0.18039572749E+03  0.21130604211E+03  0.00000000000E+00 0.  1.
</event>
<event>
 7    1  0.6684706E-006  0.1079947E+03  0.7561462E-02  0.1264329E+00
         -2   -1    0    0    0  501 -0.00000000000E+00  0.00000000000E+00  0.35144470779E+02  0.35144470779E+02  0.00000000000E+00 0.  1.
          2   -1    0    0  501    0  0.00000000000E+00 -0.00000000000E+00 -0.44758502506E+03  0.44758502506E+03  0.00000000000E+00 0. -1.
         23    2    1    2    0    0  0.37195196501E+02  0.13417356368E+02 -0.89678670394E+02  0.13432535401E+03  0.91856021642E+02 0.  0.
          5    1    1    2  502    0  0.27296687192E+02  0.37494846708E+02 -0.14982185520E+03  0.15689178868E+03  0.41800000000E+01 0. -1.
         -5    1    1    2    0  502 -0.64491883693E+02 -0.50912203076E+02 -0.17294002870E+03  0.19151235315E+03  0.41800000000E+01 0. -1.
        -11    1    3    3    0    0 -0.30635454733E+01 -0.28713944827E+02 -0.64838698254E+02  0.70978396218E+02  0.00000000000E+00 0.  1.
         11    1    3    3    0    0  0.40258741974E+02  0.42131301195E+02 -0.24839972139E+02  0.63346957793E+02  0.00000000000E+00 0. -1.
</event>
<event>
 7    1  0.6684706E-006  0.9836333E+02  0.7561462E-02  0.1283776E+00
          3   -1    0    0  501    0  0.00000000000E+00  0.00000000000E+00  0.94006786034E+02  0.94006786034E+02  0.00000000000E+00 0. -1.
         -3   -1    0    0    0  501 -0.00000000000E+00 -0.00000000000E+00 -0.20616144020E+03  0.20616144020E+03  0.00000000000E+00 0.  1.
         23    2    1    2    0    0  0.15245353201E+02 -0.31589370513E+02 -0.13521646478E+03  0.16822469435E+03  0.93732312037E+02 0.  0.
          5    1    1    2  502    0 -0.60026184665E+02  0.50056448556E+00 -0.18845535491E+02  0.63055689816E+02  0.41800000000E+01 0.  1.
         -5    1    1    2    0  502  0.44780831463E+02  0.31088806028E+02  0.41907346104E+02  0.68887842064E+02  0.41800000000E+01 0.  1.
        -11    1    3    3    0    0 -0.29226107602E+02 -0.38844971667E+01 -0.10202818244E+03  0.10620265861E+03  0.00000000000E+00 0.  1.
         11    1    3    3    0    0  0.44471460804E+02 -0.27704873347E+02 -0.33188282335E+02  0.62022035742E+02  0.00000000000E+00 0. -1.
</event>
<event>
 7    1  0.6684706E-006  0.9242763E+02  0.7561462E-02  0.1297077E+00
         -2   -1    0    0    0  501 -0.00000000000E+00  0.00000000000E+00  0.55415852956E+02  0.55415852956E+02  0.00000000000E+00 0.  1.
          2   -1    0    0  501    0  0.00000000000E+00 -0.00000000000E+00 -0.23660947006E+03  0.23660947006E+03  0.00000000000E+00 0. -1.
         23    2    1    2    0    0  0.14386636112E+02  0.10689126897E+02 -0.36123231955E+02  0.99635490360E+02  0.91110429260E+02 0.  0.
          5    1    1    2  502    0  0.52815106909E+02  0.13740279252E+02 -0.63829979508E+02  0.84083110526E+02  0.41800000000E+01 0.  1.
         -5    1    1    2    0  502 -0.67201743020E+02 -0.24429406150E+02 -0.81240405638E+02  0.10830672213E+03  0.41800000000E+01 0.  1.
        -11    1    3    3    0    0  0.28364204196E+02 -0.12834514446E+02  0.20134431412E+02  0.37076248044E+02  0.00000000000E+00 0.  1.
         11    1    3    3    0    0 -0.13977568084E+02  0.23523641344E+02 -0.56257663367E+02  0.62559242316E+02  0.00000000000E+00 0. -1.
</event>
<event>
 7    1  0.6684706E-006  0.2249481E+03  0.7561462E-02  0.1130247E+00
         -2   -1    0    0    0  501 -0.00000000000E+00  0.00000000000E+00  0.50643718581E+02  0.50643718581E+02  0.00000000000E+00 0.  1.
          2   -1    0    0  501    0  0.00000000000E+00 -0.00000000000E+00 -0.11775473359E+04  0.11775473359E+04  0.00000000000E+00 0. -1.
         23    2    1    2    0    0 -0.20000367887E+03  0.25875585296E+02 -0.33577744501E+03  0.40223772210E+03  0.91529640185E+02 0.  0.
          5    1    1    2  502    0  0.16196464308E+03 -0.67541957998E+02 -0.51504336006E+03  0.54413380417E+03  0.41800000000E+01 0.  1.
         -5    1    1    2    0  502  0.38039035785E+02  0.41666372702E+02 -0.27608281229E+03  0.28181952824E+03  0.41800000000E+01 0.  1.
        -11    1    3    3    0    0 -0.47119099822E+02  0.43201715588E+02 -0.13420684502E+03  0.14865421302E+03  0.00000000000E+00 0.  1.
         11    1    3    3    0    0 -0.15288457905E+03 -0.17326130292E+02 -0.20157059999E+03  0.25358350909E+03  0.00000000000E+00 0. -1.
</event>
<event>
 7    1  0.8199922E-006  0.1517766E+03  0.7561462E-02  0.1198307E+00
         -2   -1    0    0    0  501 -0.00000000000E+00  0.00000000000E+00  0.15341298522E+02  0.15341298522E+02  0.00000000000E+00 0. -1.
          2   -1    0    0  501    0  0.00000000000E+00 -0.00000000000E+00 -0.21445036210E+04  0.21445036210E+04  0.00000000000E+00 0.  1.
         23    2    1    2    0    0  0.12976539751E+03 -0.73622268363E+02 -0.74731838043E+03  0.76435237621E+03  0.59080424016E+02 0.  0.
          5    1    1    2  502    0 -0.29113319680E+02  0.24313823347E+01 -0.50842472263E+02  0.58787127746E+02  0.41800000000E+01 0.  1.
         -5    1    1    2    0  502 -0.10065207784E+03  0.71190886028E+02 -0.13310014698E+04  0.13367054156E+04  0.41800000000E+01 0.  1.
        -11    1    3    3    0    0  0.12082218998E+03 -0.61363778325E+02 -0.72371188651E+03  0.73628962342E+03  0.00000000000E+00 0.  1.
         11    1    3    3    0    0  0.89432075352E+01 -0.12258490038E+02 -0.23606493921E+02  0.28062752792E+02  0.00000000000E+00 0. -1.
</event>
<event>
 7    1  0.6684706E-006  0.1740025E+03  0.7561462E-02  0.1173737E+00
         -2   -1    0    0    0  501 -0.00000000000E+00  0.00000000000E+00  0.62669135151E+02  0.62669135151E+02  0.00000000000E+00 0.  1.
          2   -1    0    0  501    0  0.00000000000E+00 -0.00000000000E+00 -0.72218627677E+03  0.72218627677E+03  0.00000000000E+00 0. -1.
         23    2    1    2    0    0 -0.12690484300E+03 -0.64755590746E+02 -0.10636662396E+03  0.20011609572E+03  0.91839356299E+02 0.  0.
          5    1    1    2  502    0  0.10307177405E+03 -0.15995895553E+02 -0.33407528581E+03  0.35000489749E+03  0.41800000000E+01 0. -1.
         -5    1    1    2    0  502  0.23833068954E+02  0.80751486299E+02 -0.21907523185E+03  0.23473441871E+03  0.41800000000E+01 0. -1.
        -11    1    3    3    0    0 -0.12230056124E+03 -0.32242288584E+02 -0.52315565639E+02  0.13687187754E+03  0.00000000000E+00 0.  1.
         11    1    3    3    0    0 -0.46042817583E+01 -0.32513302162E+02 -0.54051058323E+02  0.63244218185E+02  0.00000000000E+00 0. -1.
</event>
<event>
 7    1  0.6684706E-006  0.9566466E+02  0.7561462E-02  0.1289686E+00
         -1   -1    0    0    0  501 -0.00000000000E+00  0.00000000000E+00  0.26680600722E+02  0.26680600722E+02  0.00000000000E+00 0.  1.
          1   -1    0    0  501    0  0.00000000000E+00 -0.00000000000E+00 -0.55076224953E+03  0.55076224953E+03  0.00000000000E+00 0. -1.
         23    2    1    2    0    0  0.23549825241E+02 -0.47385615104E+02 -0.19807215740E+03  0.22427186469E+03  0.90913689649E+02 0.  0.
          5    1    1    2  502    0  0.30240026727E+02 -0.67368305019E+01 -0.18538694650E+02  0.36345559577E+02  0.41800000000E+01 0. -1.
         -5    1    1    2    0  502 -0.53789851968E+02  0.54122445606E+02 -0.30747079676E+03  0.31682542599E+03  0.41800000000E+01 0. -1.
        -11    1    3    3    0    0  0.40662743005E+02 -0.51915644512E+02 -0.19557594512E+03  0.20639438733E+03  0.00000000000E+00 0. -1.
         11    1    3    3    0    0 -0.17112917764E+02  0.45300294074E+01 -0.24962122824E+01  0.17877477355E+02  0.00000000000E+00 0.  1.
</event>
<event>
 7    1  0.6684706E-006  0.7348904E+02  0.7561462E-02  0.1348615E+00
         -1   -1    0    0    0  501 -0.00000000000E+00  0.00000000000E+00  0.32077317310E+03  0.32077317310E+03  0.00000000000E+00 0.  1.
          1   -1    0    0  501    0  0.00000000000E+00 -0.00000000000E+00 -0.63027633991E+02  0.63027633991E+02  0.00000000000E+00 0. -1.
         23    2    1    2    0    0 -0.65139446093E+02  0.18045622432E+02  0.20084566712E+03  0.23065289684E+03  0.91065827264E+02 0.  0.
          5    1    1    2  502    0  0.60494033599E+02 -0.28591344321E+02 -0.24088516147E+02  0.71237083610E+02  0.41800000000E+01 0. -1.
         -5    1    1    2    0  502  0.46454124947E+01  0.10545721889E+02  0.80988388142E+02  0.81910826643E+02  0.41800000000E+01 0. -1.
        -11    1    3    3    0    0 -0.30054541791E+02  0.10094429657E+02  0.56922595616E+01  0.32211408092E+02  0.00000000000E+00 0. -1.
         11    1    3    3    0    0 -0.35084904302E+02  0.79511927750E+01  0.19515340756E+03  0.19844148875E+03  0.00000000000E+00 0.  1.
</event>
<event>
 7    1  0.6684706E-006  0.1866958E+03  0.7561462E-02  0.1161476E+00
          1   -1    0    0  501    0  0.00000000000E+00  0.00000000000E+00  0.21796477271E+03  0.21796477271E+03  0.00000000000E+00 0. -1.
         -1   -1    0    0    0  501 -0.00000000000E+00 -0.00000000000E+00 -0.20848234297E+03  0.20848234297E+03  0.00000000000E+00 0.  1.
         23    2    1    2    0    0  0.11699598803E+03 -0.45785148439E+02 -0.95624071662E+02  0.18561377056E+03  0.97591842429E+02 0.  0.
          5    1    1    2  502    0 -0.14635375262E+03 -0.15723423219E+02  0.60076170742E+02  0.15903856650E+03  0.41800000000E+01 0. -1.
         -5    1    1    2    0  502  0.29357764591E+02  0.61508571658E+02  0.45030330661E+02  0.81794778614E+02  0.41800000000E+01 0.  1.
        -11    1    3    3    0    0  0.54406997893E+02  0.27924456423E+02 -0.25967928798E+02  0.66439671976E+02  0.00000000000E+00 0. -1.
         11    1    3    3    0    0  0.62588990138E+02 -0.73709604862E+02 -0.69656142864E+02  0.11917409859E+03  0.00000000000E+00 0.  1.
</event>
<event>
 7    1  0.6684706E-006  0.8788204E+02  0.7561462E-02  0.1308063E+00
         -1   -1    0    0    0  501 -0.00000000000E+00  0.00000000000E+00  0.30850669661E+03  0.30850669661E+03  0.00000000000E+00 0.  1.
          1   -1    0    0  501    0  0.00000000000E+00 -0.00000000000E+00 -0.43584923709E+02  0.43584923709E+02  0.00000000000E+00 0. -1.
         23    2    1    2    0    0 -0.30189794253E+02  0.19988503179E+02  0.14757098396E+03  0.17679137901E+03  0.90371635198E+02 0.  0.
          5    1    1    2  502    0 -0.45158280832E+02  0.13441477873E+02  0.36336359949E+02  0.59646853307E+02  0.41800000000E+01 0.  1.
         -5    1    1    2    0  502  0.75348075085E+02 -0.33429981053E+02  0.81014428998E+02  0.11565338801E+03  0.41800000000E+01 0.  1.
        -11    1    3    3    0    0 -0.31492720251E+02  0.62267620511E+01  0.15687671001E+03  0.16012765576E+03  0.00000000000E+00 0.  1.
         11    1    3    3    0    0  0.13029259973E+01  0.13761741128E+02 -0.93057260559E+01  0.16663723247E+02  0.00000000000E+00 0. -1.
</event>
<event>
 7    1  0.6684706E-006  0.1218030E+03  0.7561462E-02  0.1240152E+00
         -1   -1    0    0    0  501 -0.00000000000E+00  0.00000000000E+00  0.95097504742E+02  0.95097504742E+02  0.00000000000E+00 0.  1.
          1   -1    0    0  501    0  0.00000000000E+00 -0.00000000000E+00 -0.23867906058E+03  0.23867906058E+03  0.00000000000E+00 0. -1.
         23    2    1    2    0    0  0.55835690543E+02  0.32641763462E+01  0.19994004155E+02  0.11022266627E+03  0.92849322952E+02 0.  0.
          5    1    1    2  502    0  0.26218752044E+02 -0.38044537429E+02 -0.12411447527E+02  0.48024225310E+02  0.41800000000E+01 0. -1.
         -5    1    1    2    0  502 -0.82054442587E+02  0.34780361083E+02 -0.15116411246E+03  0.17552967374E+03  0.41800000000E+01 0.  1.
        -11    1    3    3    0    0  0.10344601102E+02 -0.42336714620E+02  0.12725505471E+02  0.45402055750E+02  0.00000000000E+00 0.  1.
         11    1    3    3    0    0  0.45491089441E+02  0.45600890967E+02  0.72684986835E+01  0.64820610523E+02  0.00000000000E+00 0. -1.
</event>
<event>
 7    1  0.6684706E-006  0.9927907E+02  0.7561462E-02  0.1281819E+00
          4   -1    0    0  501    0  0.00000000000E+00  0.00000000000E+00  0.26116733580E+02  0.26116733580E+02  0.00000000000E+00 0. -1.
         -4   -1    0    0    0  501 -0.00000000000E+00 -0.00000000000E+00 -0.47414088490E+03  0.47414088490E+03  0.00000000000E+00 0.  1.
         23    2    1    2    0    0  0.52977565036E+01  0.14258107640E+02 -0.23965177993E+03  0.25674569209E+03  0.90851609360E+02 0.  0.
          5    1    1    2  502    0  0.19517680388E+02 -0.56620204574E+02 -0.17226130772E+03  0.18242318370E+03  0.41800000000E+01 0.  1.
         -5    1    1    2    0  502 -0.24815436892E+02  0.42362096934E+02 -0.36111063671E+02  0.61088742696E+02  0.41800000000E+01 0.  1.
        -11    1    3    3    0    0 -0.36155723097E+02  0.27835286495E+02 -0.90590568131E+02  0.10143318255E+03  0.00000000000E+00 0. -1.
         11    1    3    3    0    0  0.41453479600E+02 -0.13577178855E+02 -0.14906121180E+03  0.15531250954E+03  0.00000000000E+00 0.  1.
</event>
<event>
 7    1  0.6684706E-006  0.1402492E+03  0.7561462E-02  0.1212994E+00
         -2   -1    0    0    0  501 -0.00000000000E+00  0.00000000000E+00  0.10687200845E+03  0.10687200845E+03  0.00000000000E+00 0.  1.
          2   -1    0    0  501    0  0.00000000000E+00 -0.00000000000E+00 -0.26965886510E+03  0.26965886510E+03  0.00000000000E+00 0. -1.
         23    2    1    2    0    0 -0.89413738602E+02 -0.50411505759E+02  0.11332033561E+02  0.13883093963E+03  0.92787274190E+02 0.  0.
          5    1    1    2  502    0  0.65487488590E+02 -0.33615139312E+02 -0.69356952336E+02  0.10122474001E+03  0.41800000000E+01 0.  1.
         -5    1    1    2    0  502  0.23926250011E+02  0.84026645072E+02 -0.10476193788E+03  0.13647519390E+03  0.41800000000E+01 0.  1.
        -11    1    3    3    0    0 -0.61692272365E+02 -0.63598351635E+02 -0.24224616588E+02  0.91855967955E+02  0.00000000000E+00 0. -1.
         11    1    3    3    0    0 -0.27721466237E+02  0.13186845875E+02  0.35556650149E+02  0.46974971679E+02  0.00000000000E+00 0.  1.
</event>
<event>
 7    1  0.6684706E-006  0.2426539E+03  0.7561462E-02  0.1118037E+00
          1   -1    0    0  501    0  0.00000000000E+00  0.00000000000E+00  0.35493555527E+03  0.35493555527E+03  0.00000000000E+00 0. -1.
         -1   -1    0    0    0  501 -0.00000000000E+00 -0.00000000000E+00 -0.18135633632E+03  0.18135633632E+03  0.00000000000E+00 0.  1.
         23    2    1    2    0    0 -0.30367090660E+02 -0.98401490040E+02  0.44079972644E+02  0.14420845423E+03  0.90818615092E+02 0.  0.
          5    1    1    2  502    0  0.17139834272E+03 -0.14226236733E+02  0.12290337619E+03  0.21142963363E+03  0.41800000000E+01 0. -1.
         -5    1    1    2    0  502 -0.14103125206E+03  0.11262772677E+03  0.65958701100E+01  0.18065380372E+03  0.41800000000E+01 0.  1.
        -11    1    3    3    0    0 -0.59315218365E+02 -0.74267929016E+02  0.14178885926E+02  0.96099225887E+02  0.00000000000E+00 0.  1.
         11    1    3    3    0    0  0.28948127705E+02 -0.24133561023E+02  0.29901086717E+02  0.48109228347E+02  0.00000000000E+00 0. -1.
</event>
<event>
 7    1  0.1073759E-005  0.9243067E+02  0.7561462E-02  0.1297070E+00
         -2   -1    0    0    0  501 -0.00000000000E+00  0.00000000000E+00  0.28395753363E+03  0.28395753363E+03  0.00000000000E+00 0.  1.
          2   -1    0    0  501    0  0.00000000000E+00 -0.00000000000E+00 -0.55070935119E+02  0.55070935119E+02  0.00000000000E+00 0. -1.
         23    2    1    2    0    0 -0.54758141582E+02 -0.34987785050E+02  0.14567420047E+03  0.17533682195E+03  0.72797179051E+02 0.  0.
          5    1    1    2  502    0 -0.12662453319E+02  0.18822319511E+02 -0.25689076104E+02  0.34525620442E+02  0.41800000000E+01 0. -1.
         -5    1    1    2    0  502  0.67420594901E+02  0.16165465539E+02  0.10890147415E+03  0.12916602636E+03  0.41800000000E+01 0. -1.
        -11    1    3    3    0    0 -0.50025624383E+02  0.66191661477E+01  0.50659161281E+02  0.71503336125E+02  0.00000000000E+00 0. -1.
         11    1    3    3    0    0 -0.47325171991E+01 -0.41606951198E+02  0.95015039187E+02  0.10383348583E+03  0.00000000000E+00 0.  1.
</event>
<event>
 7    1  0.6684706E-006  0.1095495E+03  0.7561462E-02  0.1261406E+00
         -1   -1    0    0    0  501 -0.00000000000E+00  0.00000000000E+00  0.95288171543E+02  0.95288171543E+02  0.00000000000E+00 0.  1.
          1   -1    0    0  501    0  0.00000000000E+00 -0.00000000000E+00 -0.18359522475E+03  0.18359522475E+03  0.00000000000E+00 0. -1.
         23    2    1    2    0    0 -0.15973873802E+02 -0.16830930628E+02  0.36875914816E+02  0.10039598527E+03  0.90449300136E+02 0.  0.
          5    1    1    2  502    0  0.30973738696E+02 -0.48974885855E+02 -0.44304398217E+02  0.73063424740E+02  0.41800000000E+01 0. -1.
         -5    1    1    2    0  502 -0.14999864894E+02  0.65805816483E+02 -0.80878569810E+02  0.10542398629E+03  0.41800000000E+01 0. -1.
        -11    1    3    3    0    0 -0.16571388736E+02  0.36477978793E+02  0.15660278786E+02  0.43017417322E+02  0.00000000000E+00 0. -1.
         11    1    3    3    0    0  0.59751493408E+00 -0.53308909421E+02  0.21215636031E+02  0.57378567949E+02  0.00000000000E+00 0.  1.
</event>
<event>
 7    1  0.6684706E-006  0.1069351E+03  0.7561462E-02  0.1266353E+00
         -1   -1    0    0    0  501 -0.00000000000E+00  0.00000000000E+00  0.34895561156E+02  0.34895561156E+02  0.00000000000E+00 0.  1.
          1   -1    0    0  501    0  0.00000000000E+00 -0.00000000000E+00 -0.46711283878E+03  0.46711283878E+03  0.00000000000E+00 0. -1.
         23    2    1    2    0    0  0.44694175384E+02  0.34718898423E+02 -0.13452389395E+03  0.17418026660E+03  0.95074265760E+02 0.  0.
          5    1    1    2  502    0 -0.46542077330E+00 -0.62573939504E+02 -0.69180700665E+02  0.93376422431E+02  0.41800000000E+01 0. -1.
         -5    1    1    2    0  502 -0.44228754611E+02  0.27855041081E+02 -0.22851268301E+03  0.23445171090E+03  0.41800000000E+01 0. -1.
        -11    1    3    3    0    0  0.14456102439E+02  0.58493623037E+02 -0.40519853013E+02  0.72610889830E+02  0.00000000000E+00 0.  1.
         11    1    3    3    0    0  0.30238072946E+02 -0.23774724614E+02 -0.94004040934E+02  0.10156937677E+03  0.00000000000E+00 0. -1.
</event>
<event>
 7    1  0.6684706E-006  0.1303184E+03  0.7561462E-02  0.1226984E+00
         -2   -1    0    0    0  501 -0.00000000000E+00  0.00000000000E+00  0.23836157976E+02  0.23836157976E+02  0.00000000000E+00 0.  1.
          2   -1    0    0  501    0  0.00000000000E+00 -0.00000000000E+00 -0.81025430613E+03  0.81025430613E+03  0.00000000000E+00 0. -1.
         23    2    1    2    0    0  0.73297242877E+02 -0.44456338844E+02 -0.28968162142E+03  0.31472223256E+03  0.88237123698E+02 0.  0.
          5    1    1    2  502    0  0.63405852979E+01 -0.33247103711E+02 -0.19026590858E+03  0.19329811509E+03  0.41800000000E+01 0. -1.
         -5    1    1    2    0  502 -0.79637828175E+02  0.77703442555E+02 -0.30647061815E+03  0.32607011646E+03  0.41800000000E+01 0. -1.
        -11    1    3    3    0    0  0.12473923098E+02 -0.52386588278E+02 -0.81434511374E+02  0.97629570478E+02  0.00000000000E+00 0.  1.
         11    1    3    3    0    0  0.60823319779E+02  0.79302494340E+01 -0.20824711005E+03  0.21709266208E+03  0.00000000000E+00 0. -1.
</event>
<event>
 7    1  0.6684706E-006  0.2362813E+03  0.7561462E-02  0.1122295E+00
          1   -1    0    0  501    0  0.00000000000E+00  0.00000000000E+00  0.34803251107E+03  0.34803251107E+03  0.00000000000E+00 0. -1.
         -1   -1    0    0    0  501 -0.00000000000E+00 -0.00000000000E+00 -0.22559567931E+03  0.22559567931E+03  0.00000000000E+00 0.  1.
         23    2    1    2    0    0  0.14165607899E+03  0.17697209870E+03 -0.59015529675E+02  0.25746845897E+03  0.10687191486E+03 0.  0.
          5    1    1    2  502    0 -0.14165265869E+03 -0.15603561142E+03  0.10252514378E+03  0.23439595827E+03  0.41800000000E+01 0. -1.
         -5    1    1    2    0  502 -0.34203014175E-02 -0.20936487285E+02  0.78927217655E+02  0.81763773142E+02  0.41800000000E+01 0. -1.
        -11    1    3    3    0    0 -0.33642670505E+01  0.42575463809E+02  0.16546288574E+02  0.45801398198E+02  0.00000000000E+00 0. -1.
         11    1    3    3    0    0  0.14502034604E+03  0.13439663489E+03 -0.75561818249E+02  0.21166706077E+03  0.00000000000E+00 0.  1.
</event>
<event>
 7    1  0.6684706E-006  0.1852417E+03  0.7561462E-02  0.1162824E+00
         -2   -1    0    0    0  501 -0.00000000000E+00  0.00000000000E+00  0.19493101630E+03  0.19493101630E+03  0.00000000000E+00 0.  1.
          2   -1    0    0  501    0  0.00000000000E+00 -0.00000000000E+00 -0.19152788442E+03  0.19152788442E+03  0.00000000000E+00 0. -1.
         23    2    1    2    0    0  0.31428374382E+02 -0.15044714272E+03  0.43373442695E+02  0.18430187298E+03  0.91999127076E+02 0.  0.
          5    1    1    2  502    0  0.43840659382E+01 -0.18075271817E+02  0.11544021736E+02  0.22286146442E+02  0.41800000000E+01 0. -1.
         -5    1    1    2    0  502 -0.35812440320E+02  0.16852241454E+03 -0.51514332552E+02  0.17987088131E+03  0.41800000000E+01 0. -1.
        -11    1    3    3    0    0  0.61371681119E+02 -0.12700485781E+03  0.35780790040E+02  0.14552313248E+03  0.00000000000E+00 0. -1.
         11    1    3    3    0    0 -0.29943306737E+02 -0.23442284907E+02  0.75926526548E+01  0.38778740495E+02  0.00000000000E+00 0.  1.
</event>
<event>
 7    1  0.6684706E-006  0.1579905E+03  0.7561462E-02  0.1190984E+00
         -1   -1    0    0    0  501 -0.00000000000E+00  0.00000000000E+00  0.48056925662E+02  0.48056925662E+02  0.00000000000E+00 0.  1.
          1   -1    0    0  501    0  0.00000000000E+00 -0.00000000000E+00 -0.67438668771E+03  0.67438668771E+03  0.00000000000E+00 0. -1.
         23    2    1    2    0    0  0.12071909352E+03  0.74351442261E+02 -0.32056813335E+03  0.36294522001E+03  0.94149180051E+02 0.  0.
          5    1    1    2  502    0 -0.63261104338E+02 -0.15631060323E+02 -0.25410917177E+03  0.26236470979E+03  0.41800000000E+01 0.  1.
         -5    1    1    2    0  502 -0.57457989186E+02 -0.58720381937E+02 -0.51652456936E+02  0.97133683569E+02  0.41800000000E+01 0.  1.
        -11    1    3    3    0    0  0.13167210086E+03  0.81949750388E+02 -0.30684904270E+03  0.34381628632E+03  0.00000000000E+00 0. -1.
         11    1    3    3    0    0 -0.10953007332E+02 -0.75983081274E+01 -0.13719090646E+02  0.19128933692E+02  0.00000000000E+00 0.  1.
</event>
<event>
 7    1  0.6684706E-006  0.2877414E+03  0.7561462E-02  0.1091534E+00
          1   -1    0    0  501    0  0.00000000000E+00  0.00000000000E+00  0.20302876154E+04  0.20302876154E+04  0.00000000000E+00 0. -1.
         -1   -1    0    0    0  501 -0.00000000000E+00 -0.00000000000E+00 -0.50236343578E+02  0.50236343578E+02  0.00000000000E+00 0.  1.
         23    2    1    2    0    0 -0.18956829233E+03 -0.20889367956E+03  0.63778465806E+03  0.70324396589E+03  0.90609594920E+02 0.  0.
          5    1    1    2  502    0  0.16384510440E+03  0.19940388670E+03  0.13078570486E+04  0.13330846411E+04  0.41800000000E+01 0.  1.
         -5    1    1    2    0  502  0.25723187925E+02  0.94897928595E+01  0.34409565143E+02  0.44195352005E+02  0.41800000000E+01 0.  1.
        -11    1    3    3    0    0 -0.52902213306E+02 -0.20164205137E+02  0.73768743563E+02  0.92989606238E+02  0.00000000000E+00 0. -1.
         11    1    3    3    0    0 -0.13666607902E+03 -0.18872947442E+03  0.56401591450E+03  0.61025435965E+03  0.00000000000E+00 0.  1.
</event>
<event>
 7    1  0.6684706E-006  0.1180889E+03  0.7561462E-02  0.1246283E+00
          2   -1    0    0  501    0  0.00000000000E+00  0.00000000000E+00  0.74779324646E+02  0.74779324646E+02  0.00000000000E+00 0. -1.
         -2   -1    0    0    0  501 -0.00000000000E+00 -0.00000000000E+00 -0.39242269270E+03  0.39242269270E+03  0.00000000000E+00 0.  1.
         23    2    1    2    0    0  0.70867753232E+02 -0.49882957546E+02 -0.19358099170E+03  0.23249708248E+03  0.95240459429E+02 0.  0.
          5    1    1    2  502    0 -0.20770260163E+02 -0.17206512905E+02  0.41185083036E+02  0.49408008038E+02  0.41800000000E+01 0. -1.
         -5    1    1    2    0  502 -0.50097493070E+02  0.67089470451E+02 -0.16524745939E+03  0.18529692683E+03  0.41800000000E+01 0.  1.
        -11    1    3    3    0    0 -0.56640397543E+00  0.22994156145E+02 -0.60983664505E+02  0.65177138375E+02  0.00000000000E+00 0. -1.
         11    1    3    3    0    0  0.71434157208E+02 -0.72877113691E+02 -0.13259732720E+03  0.16731994411E+03  0.00000000000E+00 0.  1.
</event>
<event>
 7    1  0.6684706E-006  0.1397070E+03  0.7561462E-02  0.1213724E+00
         -1   -1    0    0    0  501 -0.00000000000E+00  0.00000000000E+00  0.58197872189E+02  0.58197872189E+02  0.00000000000E+00 0.  1.
          1   -1    0    0  501    0  0.00000000000E+00 -0.00000000000E+00 -0.60276702821E+03  0.60276702821E+03  0.00000000000E+00 0. -1.
         23    2    1    2    0    0 -0.86948691836E+02  0.49847084355E+02 -0.60089654625E+02  0.14869827822E+03  0.91954361081E+02 0.  0.
          5    1    1    2  502    0 -0.20680884190E+02  0.11565207304E+02 -0.19294752710E+02  0.30841739137E+02  0.41800000000E+01 0. -1.
         -5    1    1    2    0  502  0.10762957603E+03 -0.61412291660E+02 -0.46518474869E+03  0.48142488304E+03  0.41800000000E+01 0.  1.
        -11    1    3    3    0    0 -0.71588524745E+02  0.73859621846E+02 -0.29765964561E+02  0.10708021881E+03  0.00000000000E+00 0.  1.
         11    1    3    3    0    0 -0.15360167091E+02 -0.24012537491E+02 -0.30323690064E+02  0.41618059408E+02  0.00000000000E+00 0. -1.
</event>
<event>
 7    1  0.6684706E-006  0.1347629E+03  0.7561462E-02  0.1220555E+00
          1   -1    0    0  501    0  0.00000000000E+00  0.00000000000E+00  0.13746021744E+03  0.13746021744E+03  0.00000000000E+00 0. -1.
         -1   -1    0    0    0  501 -0.00000000000E+00 -0.00000000000E+00 -0.14286655645E+03  0.14286655645E+03  0.00000000000E+00 0.  1.
         23    2    1    2    0    0  0.42020802833E+02 -0.75228278330E+02 -0.18527777002E+02  0.12786315318E+03  0.92631882678E+02 0.  0.
          5    1    1    2  502    0 -0.83377645282E+02  0.65441048187E+02 -0.47260396358E+01  0.10617989627E+03  0.41800000000E+01 0. -1.
         -5    1    1    2    0  502  0.41356842449E+02  0.97872301431E+01  0.17847477630E+02  0.46283724450E+02  0.41800000000E+01 0. -1.
        -11    1    3    3    0    0  0.64859285335E+02 -0.33078317267E+02 -0.29711285183E+02  0.78636266663E+02  0.00000000000E+00 0.  1.
         11    1    3    3    0    0 -0.22838482503E+02 -0.42149961063E+02  0.11183508181E+02  0.49226886514E+02  0.00000000000E+00 0. -1.
</event>
<event>
 7    1  0.6684706E-006  0.1200453E+03  0.7561462E-02  0.1243022E+00
          2   -1    0    0  501    0  0.00000000000E+00  0.00000000000E+00  0.12576019624E+03  0.12576019624E+03  0.00000000000E+00 0. -1.
         -2   -1    0    0    0  501 -0.00000000000E+00 -0.00000000000E+00 -0.15947869284E+03  0.15947869284E+03  0.00000000000E+00 0.  1.
         23    2    1    2    0    0 -0.26116030326E+02  0.82575234553E+02  0.14767938432E+02  0.12556359099E+03  0.89707340699E+02 0.  0.
          5    1    1    2  502    0  0.36155855246E+02 -0.11026987318E+03 -0.56100833365E+02  0.12896304395E+03  0.41800000000E+01 0. -1.
         -5    1    1    2    0  502 -0.10039824920E+02  0.27694638626E+02  0.76143983296E+01  0.30712254150E+02  0.41800000000E+01 0. -1.
        -11    1    3    3    0    0 -0.24416751492E+02  0.19849265645E+02 -0.33825509476E+02  0.46198876516E+02  0.00000000000E+00 0.  1.
         11    1    3    3    0    0 -0.16992788340E+01  0.62725968908E+02  0.48593447907E+02  0.79364714474E+02  0.00000000000E+00 0. -1.
</event>
<event>
 7    1  0.6684706E-006  0.1438067E+03  0.7561462E-02  0.1208297E+00
          1   -1    0    0  501    0  0.00000000000E+00  0.00000000000E+00  0.17899640007E+03  0.17899640007E+03  0.00000000000E+00 0. -1.
         -1   -1    0    0    0  501 -0.00000000000E+00 -0.00000000000E+00 -0.13320320003E+03  0.13320320003E+03  0.00000000000E+00 0.  1.
         23    2    1    2    0    0  0.10194413626E+03  0.26234319309E+02 -0.82531611809E+01  0.14000546135E+03  0.91937849176E+02 0.  0.
          5    1    1    2  502    0 -0.74313561493E+02  0.34007341435E+02  0.65485385318E+02  0.10480845760E+03  0.41800000000E+01 0.  1.
         -5    1    1    2    0  502 -0.27630574772E+02 -0.60241660745E+02 -0.11439024105E+02  0.67385681149E+02  0.41800000000E+01 0.  1.
        -11    1    3    3    0    0  0.94212899386E+02 -0.16758139293E+02 -0.81853039150E+00  0.95695222635E+02  0.00000000000E+00 0.  1.
         11    1    3    3    0    0  0.77312368792E+01  0.42992458602E+02 -0.74346307894E+01  0.44310238719E+02  0.00000000000E+00 0. -1.
</event>
<event>
 7    1  0.6684706E-006  0.1157591E+03  0.7561462E-02  0.1250262E+00
         -1   -1    0    0    0  501 -0.00000000000E+00  0.00000000000E+00  0.13785842304E+02  0.13785842304E+02  0.00000000000E+00 0.  1.
          1   -1    0    0  501    0  0.00000000000E+00 -0.00000000000E+00 -0.10164479509E+04  0.10164479509E+04  0.00000000000E+00 0. -1.
         23    2    1    2    0    0 -0.33012311014E+02 -0.33896917155E+02 -0.39523110116E+03  0.40825845018E+03  0.90711218401E+02 0.  0.
          5    1    1    2  502    0 -0.46409261975E+02  0.18943082803E+02 -0.29364807156E+03  0.29792502801E+03  0.41800000000E+01 0. -1.
         -5    1    1    2    0  502  0.79421572988E+02  0.14953834352E+02 -0.31378293584E+03  0.32405031498E+03  0.41800000000E+01 0. -1.
        -11    1    3    3    0    0  0.22756141116E+02  0.14052197642E+02 -0.73129522373E+02  0.77866766079E+02  0.00000000000E+00 0.  1.
         11    1    3    3    0    0 -0.55768452129E+02 -0.47949114798E+02 -0.32210157879E+03  0.33039168410E+03  0.00000000000E+00 0. -1.
</event>
<event>
 7    1  0.6684706E-006  0.6252587E+02  0.7561462E-02  0.1387527E+00
         -4   -1    0    0    0  501 -0.00000000000E+00  0.00000000000E+00  0.15071548891E+03  0.15071548891E+03  0.00000000000E+00 0.  1.
          4   -1    0    0  501    0  0.00000000000E+00 -0.00000000000E+00 -0.96144803343E+02  0.96144803343E+02  0.00000000000E+00 0. -1.
         23    2    1    2    0    0  0.31740858756E+02  0.25700346763E+02  0.60730446657E+02  0.11513377259E+03  0.88879741794E+02 0.  0.
          5    1    1    2  502    0  0.94038082906E+00 -0.34172222997E+02  0.53161866987E+02  0.63342573694E+02  0.41800000000E+01 0.  1.
         -5    1    1    2    0  502 -0.32681239585E+02  0.84718762332E+01 -0.59321628081E+02  0.68383945966E+02  0.41800000000E+01 0.  1.
        -11    1    3    3    0    0  0.40259553130E+02  0.15110584116E+02  0.80428241682E+02  0.91202321410E+02  0.00000000000E+00 0.  1.
         11    1    3    3    0    0 -0.85186943740E+01  0.10589762647E+02 -0.19697795024E+02  0.23931451180E+02  0.00000000000E+00 0. -1.
</event>
<event>
 7    1  0.6684706E-006  0.1139483E+03  0.7561462E-02  0.1253428E+00
          2   -1    0    0  501    0  0.00000000000E+00  0.00000000000E+00  0.11822034185E+04  0.11822034185E+04  0.00000000000E+00 0. -1.
         -2   -1    0    0    0  501 -0.00000000000E+00 -0.00000000000E+00 -0.19660974928E+02  0.19660974928E+02  0.00000000000E+00 0.  1.
         23    2    1    2    0    0 -0.83188243108E+02  0.79700554034E+01  0.27534715438E+03  0.30200475456E+03  0.91689752846E+02 0.  0.
          5    1    1    2  502    0 -0.85346353988E+00  0.26736921495E+02  0.43289079974E+02  0.51058870102E+02  0.41800000000E+01 0.  1.
         -5    1    1    2    0  502  0.84041706648E+02 -0.34706976899E+02  0.84390620920E+03  0.84880076875E+03  0.41800000000E+01 0.  1.
        -11    1    3    3    0    0 -0.26335017274E+01 -0.23255443347E+02  0.13636170920E+03  0.13835558070E+03  0.00000000000E+00 0. -1.
         11    1    3    3    0    0 -0.80554741380E+02  0.31225498751E+02  0.13898544518E+03  0.16364917385E+03  0.00000000000E+00 0.  1.
</event>
<event>
 7    1  0.6684706E-006  0.1057968E+03  0.7561462E-02  0.1268558E+00
         -2   -1    0    0    0  501 -0.00000000000E+00  0.00000000000E+00  0.23835538815E+02  0.23835538815E+02  0.00000000000E+00 0. -1.
          2   -1    0    0  501    0  0.00000000000E+00 -0.00000000000E+00 -0.12258272870E+04  0.12258272870E+04  0.00000000000E+00 0.  1.
         23    2    1    2    0    0  0.53704753962E+02  0.16047406447E+02 -0.12631088558E+03  0.16528342373E+03  0.90677728755E+02 0.  0.
          5    1    1    2  502    0 -0.82360915823E+02 -0.46792701788E+01 -0.98603491586E+03  0.98948852633E+03  0.41800000000E+01 0.  1.
         -5    1    1    2    0  502  0.28656161861E+02 -0.11368136268E+02 -0.89645946717E+02  0.94890875734E+02  0.41800000000E+01 0.  1.
        -11    1    3    3    0    0  0.29833140310E+02 -0.32296459591E+02 -0.90335087297E+02  0.10046643997E+03  0.00000000000E+00 0.  1.
         11    1    3    3    0    0  0.23871613652E+02  0.48343866038E+02 -0.35975798278E+02  0.64816983758E+02  0.00000000000E+00 0. -1.
</event>
<event>
 7    1  0.6684706E-006  0.3640578E+03  0.7561462E-02  0.1056989E+00
          2   -1    0    0  501    0  0.00000000000E+00  0.00000000000E+00  0.32604376125E+03  0.32604376125E+03  0.00000000000E+00 0. -1.
         -2   -1    0    0    0  501 -0.00000000000E+00 -0.00000000000E+00 -0.67441384395E+03  0.67441384395E+03  0.00000000000E+00 0.  1.
         23    2    1    2    0    0 -0.23730059165E+03 -0.26871932498E+03 -0.47295838625E+03  0.60084045436E+03  0.93797494926E+02 0.  0.
          5    1    1    2  502    0  0.21560761535E+03  0.18890688754E+03  0.56039576199E+02  0.29211361224E+03  0.41800000000E+01 0.  1.
         -5    1    1    2    0  502  0.21692976308E+02  0.79812437443E+02  0.68548727353E+02  0.10750353861E+03  0.41800000000E+01 0.  1.
        -11    1    3    3    0    0 -0.30342552440E+02 -0.39092773732E+02 -0.13013237557E+03  0.13922410214E+03  0.00000000000E+00 0. -1.
         11    1    3    3    0    0 -0.20695803922E+03 -0.22962655125E+03 -0.34282601068E+03  0.46161635221E+03  0.00000000000E+00 0.  1.
</event>
<event>
 7    1  0.6684706E-006  0.1190367E+03  0.7561462E-02  0.1244695E+00
          1   -1    0    0  501    0  0.00000000000E+00  0.00000000000E+00  0.14410036968E+03  0.14410036968E+03  0.00000000000E+00 0. -1.
         -1   -1    0    0    0  501 -0.00000000000E+00 -0.00000000000E+00 -0.11914040797E+03  0.11914040797E+03  0.00000000000E+00 0.  1.
         23    2    1    2    0    0  0.67362619749E+02 -0.47902099041E+01 -0.11834852115E+02  0.11639821538E+03  0.94062809699E+02 0.  0.
          5    1    1    2  502    0  0.26306617145E+02  0.32890733975E+02  0.14698125856E+00  0.42324136028E+02  0.41800000000E+01 0.  1.
         -5    1    1    2    0  502 -0.93669236894E+02 -0.28100524071E+02  0.36647832562E+02  0.10451842625E+03  0.41800000000E+01 0.  1.
        -11    1    3    3    0    0  0.48064325069E+02 -0.36769329051E+02  0.23560352014E+02  0.64940381045E+02  0.00000000000E+00 0. -1.
         11    1    3    3    0    0  0.19298294680E+02  0.31979119147E+02 -0.35395204130E+02  0.51457834334E+02  0.00000000000E+00 0.  1.
</event>
<event>
 7    1  0.6684706E-006  0.1020317E+03  0.7561462E-02  0.1276081E+00
         -1   -1    0    0    0  501 -0.00000000000E+00  0.00000000000E+00  0.10743438703E+03  0.10743438703E+03  0.00000000000E+00 0.  1.
          1   -1    0    0  501    0  0.00000000000E+00 -0.00000000000E+00 -0.14883515798E+03  0.14883515798E+03  0.00000000000E+00 0. -1.
         23    2    1    2    0    0  0.49523616595E+02  0.53668781540E+01  0.19968269123E+02  0.10830073352E+03  0.94068725556E+02 0.  0.
          5    1    1    2  502    0  0.40366111455E+02 -0.15669615496E+02 -0.26349256361E+02  0.50859763218E+02  0.41800000000E+01 0.  1.
         -5    1    1    2    0  502 -0.89889728050E+02  0.10302737342E+02 -0.35019783711E+02  0.97109048274E+02  0.41800000000E+01 0.  1.
        -11    1    3    3    0    0  0.59356477492E+02  0.77736951164E+01  0.49123136651E+02  0.77438390417E+02  0.00000000000E+00 0.  1.
         11    1    3    3    0    0 -0.98328608966E+01 -0.24068169623E+01 -0.29154867528E+02  0.30862343104E+02  0.00000000000E+00 0. -1.
</event>
<event>
 7    1  0.6684706E-006  0.2640916E+03  0.7561462E-02  0.1104710E+00
         -1   -1    0    0    0  501 -0.00000000000E+00  0.00000000000E+00  0.79965616835E+02  0.79965616835E+02  0.00000000000E+00 0.  1.
          1   -1    0    0  501    0  0.00000000000E+00 -0.00000000000E+00 -0.95885465950E+03  0.95885465950E+03  0.00000000000E+00 0. -1.
         23    2    1    2    0    0  0.23808415954E+03 -0.74117339894E+02 -0.33399584240E+03  0.42666491166E+03  0.91171689710E+02 0.  0.
          5    1    1    2  502    0 -0.19697737229E+02 -0.25034371163E+02 -0.29255113024E+02  0.43451750592E+02  0.41800000000E+01 0. -1.
         -5    1    1    2    0  502 -0.21838642231E+03  0.99151711057E+02 -0.51563808724E+03  0.56870361408E+03  0.41800000000E+01 0. -1.
        -11    1    3    3    0    0  0.13122785692E+03 -0.10107043395E+02 -0.11526893109E+03  0.17495664958E+03  0.00000000000E+00 0.  1.
         11    1    3    3    0    0  0.10685630262E+03 -0.64010296499E+02 -0.21872691131E+03  0.25170826208E+03  0.00000000000E+00 0. -1.
</event>
<event>
 7    1  0.6684706E-006  0.1031067E+03  0.7561462E-02  0.1273895E+00
         -1   -1    0    0    0  501 -0.00000000000E+00  0.00000000000E+00  0.16927216473E+03  0.16927216473E+03  0.00000000000E+00 0.  1.
          1   -1    0    0  501    0  0.00000000000E+00 -0.00000000000E+00 -0.30775489452E+03  0.30775489452E+03  0.00000000000E+00 0. -1.
         23    2    1    2    0    0  0.47980511527E+02  0.29147446713E+02  0.13820344080E+03  0.17276572764E+03  0.87155622092E+02 0.  0.
          5    1    1    2  502    0 -0.50783216032E+02 -0.62593044776E+02 -0.24486142995E+03  0.25782051230E+03  0.41800000000E+01 0. -1.
         -5    1    1    2    0  502  0.28027045047E+01  0.33445598063E+02 -0.31824740624E+02  0.46440819309E+02  0.41800000000E+01 0.  1.
        -11    1    3    3    0    0  0.57866305920E+02 -0.31021023905E+01  0.44164603262E+02  0.72860445931E+02  0.00000000000E+00 0.  1.
         11    1    3    3    0    0 -0.98857943925E+01  0.32249549103E+02  0.94038837534E+02  0.99905281706E+02  0.00000000000E+00 0. -1.
</event>
<event>
 7    1  0.6684706E-006  0.1214714E+03  0.7561462E-02  0.1240689E+00
         -1   -1    0    0    0  501 -0.00000000000E+00  0.00000000000E+00  0.12540372021E+02  0.12540372021E+02  0.00000000000E+00 0.  1.
          1   -1    0    0  501    0  0.00000000000E+00 -0.00000000000E+00 -0.15453849644E+04  0.15453849644E+04  0.00000000000E+00 0. -1.
         23    2    1    2    0    0  0.34380625095E+02  0.14074176527E-01 -0.28735902588E+03  0.30249749195E+03  0.88019857430E+02 0.  0.
          5    1    1    2  502    0 -0.78660042068E+02 -0.43573336008E+02 -0.56813365350E+03  0.57522113875E+03  0.41800000000E+01 0.  1.
         -5    1    1    2    0  502  0.44279416973E+02  0.43559261831E+02 -0.67735191297E+03  0.68020670568E+03  0.41800000000E+01 0. -1.
        -11    1    3    3    0    0 -0.13914284606E+02  0.30523125224E+02 -0.68021144170E+02  0.75842893825E+02  0.00000000000E+00 0.  1.
         11    1    3    3    0    0  0.48294909701E+02 -0.30509051047E+02 -0.21933788171E+03  0.22665459813E+03  0.00000000000E+00 0. -1.
</event>
<event>
 7    1  0.6684706E-006  0.1197997E+03  0.7561462E-02  0.1243428E+00
         -1   -1    0    0    0  501 -0.00000000000E+00  0.00000000000E+00  0.32519040997E+02  0.32519040997E+02  0.00000000000E+00 0.  1.
          1   -1    0    0  501    0  0.00000000000E+00 -0.00000000000E+00 -0.63723629719E+03  0.63723629719E+03  0.00000000000E+00 0. -1.
         23    2    1    2    0    0 -0.54487037607E+02 -0.64390997814E+02 -0.17586793424E+03  0.21514750207E+03  0.90795812050E+02 0.  0.
          5    1    1    2  502    0 -0.20702355469E+02  0.20581453449E+02 -0.28436039999E+03  0.28588545474E+03  0.41800000000E+01 0.  1.
         -5    1    1    2    0  502  0.75189393076E+02  0.43809544365E+02 -0.14448892197E+03  0.16872238138E+03  0.41800000000E+01 0.  1.
        -11    1    3    3    0    0 -0.17725056004E+01 -0.69957633957E+02 -0.11300796981E+03  0.13292108022E+03  0.00000000000E+00 0.  1.
         11    1    3    3    0    0 -0.52714532007E+02  0.55666361427E+01 -0.62859964423E+02  0.82226421848E+02  0.00000000000E+00 0. -1.
</event>
<event>
 7    1  0.6684706E-006  0.1048559E+03  0.7561462E-02  0.1270404E+00
         -2   -1    0    0    0  501 -0.00000000000E+00  0.00000000000E+00  0.36405899269E+02  0.36405899269E+02  0.00000000000E+00 0.  1.
          2   -1    0    0  501    0  0.00000000000E+00 -0.00000000000E+00 -0.14301901635E+04  0.14301901635E+04  0.00000000000E+00 0. -1.
         23    2    1    2    0    0 -0.30366158315E+02  0.30422116078E+02 -0.83146304089E+02  0.13665132324E+03  0.99562380151E+02 0.  0.
          5    1    1    2  502    0  0.55048484817E+02  0.40743914465E+02 -0.11544954070E+04  0.11565325414E+04  0.41800000000E+01 0. -1.
         -5    1    1    2    0  502 -0.24682326502E+02 -0.71166030543E+02 -0.15614255323E+03  0.17341219817E+03  0.41800000000E+01 0.  1.
        -11    1    3    3    0    0 -0.24015043386E+02 -0.90602211884E+01  0.15654381652E+02  0.30064423855E+02  0.00000000000E+00 0.  1.
         11    1    3    3    0    0 -0.63511149288E+01  0.39482337267E+02 -0.98800685741E+02  0.10658689938E+03  0.00000000000E+00 0. -1.
</event>
<event>
 7    1  0.6684706E-006  0.1153301E+03  0.7561462E-02  0.1251006E+00
          2   -1    0    0  501    0  0.00000000000E+00  0.00000000000E+00  0.53418852253E+03  0.53418852253E+03  0.00000000000E+00 0. -1.
         -2   -1    0    0    0  501 -0.00000000000E+00 -0.00000000000E+00 -0.26604128824E+02  0.26604128824E+02  0.00000000000E+00 0.  1.
         23    2    1    2    0    0 -0.25138183105E+02  0.35791404523E+02  0.28102301042E+03  0.29831950765E+03  0.90042453183E+02 0.  0.
          5    1    1    2  502    0 -0.13027796460E+01 -0.80294123933E+02  0.13100627242E+03  0.15371714083E+03  0.41800000000E+01 0. -1.
         -5    1    1    2    0  502  0.26440962751E+02  0.44502719410E+02  0.95555110869E+02  0.10875600287E+03  0.41800000000E+01 0. -1.
        -11    1    3    3    0    0 -0.45221619834E+02  0.54532707890E+02  0.17499912894E+03  0.18879487880E+03  0.00000000000E+00 0.  1.
         11    1    3    3    0    0  0.20083436728E+02 -0.18741303367E+02  0.10602388148E+03  0.10952462886E+03  0.00000000000E+00 0. -1.
</event>
<event>
 7    1  0.6684706E-006  0.1679725E+03  0.7561462E-02  0.1179979E+00
         -1   -1    0    0    0  501 -0.00000000000E+00  0.00000000000E+00  0.10772806136E+03  0.10772806136E+03  0.00000000000E+00 0.  1.
          1   -1    0    0  501    0  0.00000000000E+00 -0.00000000000E+00 -0.31205881769E+03  0.31205881769E+03  0.00000000000E+00 0. -1.
         23    2    1    2    0    0 -0.12575631754E+03  0.68647781263E+02 -0.74679044013E+02  0.18960155227E+03  0.99220057124E+02 0.  0.
          5    1    1    2  502    0  0.13929576768E+03 -0.21596376197E+02 -0.98160906420E+02  0.17182185632E+03  0.41800000000E+01 0. -1.
         -5    1    1    2    0  502 -0.13539450141E+02 -0.47051405066E+02 -0.31490805897E+02  0.58363470466E+02  0.41800000000E+01 0. -1.
        -11    1    3    3    0    0 -0.49863868042E+02  0.12577773000E+02 -0.79988970225E+02  0.95093853994E+02  0.00000000000E+00 0. -1.
         11    1    3    3    0    0 -0.75892449500E+02  0.56070008262E+02  0.53099262121E+01  0.94507698279E+02  0.00000000000E+00 0.  1.
</event>
<event>
 7    1  0.6684706E-006  0.1767785E+03  0.7561462E-02  0.1170958E+00
         -1   -1    0    0    0  501 -0.00000000000E+00  0.00000000000E+00  0.63384834272E+02  0.63384834272E+02  0.00000000000E+00 0.  1.
          1   -1    0    0  501    0  0.00000000000E+00 -0.00000000000E+00 -0.57644693981E+03  0.57644693981E+03  0.00000000000E+00 0. -1.
         23    2    1    2    0    0  0.15761990540E+03 -0.72931821330E+01 -0.20898074822E+03  0.27512697732E+03  0.84407792515E+02 0.  0.
          5    1    1    2  502    0 -0.11801609646E+03  0.42014903752E+02 -0.27973039181E+03  0.30652832767E+03  0.41800000000E+01 0. -1.
         -5    1    1    2    0  502 -0.39603808940E+02 -0.34721721619E+02 -0.24350965502E+02  0.58176469089E+02  0.41800000000E+01 0. -1.
        -11    1    3    3    0    0  0.90939591850E+02  0.33842196577E+02 -0.14236087226E+03  0.17228442061E+03  0.00000000000E+00 0. -1.
         11    1    3    3    0    0  0.66680313552E+02 -0.41135378710E+02 -0.66619875963E+02  0.10284255671E+03  0.00000000000E+00 0.  1.
</event>
<event>
 7    1  0.6684706E-006  0.1425560E+03  0.7561462E-02  0.1209931E+00
         -2   -1    0    0    0  501 -0.00000000000E+00  0.00000000000E+00  0.43008036386E+03  0.43008036386E+03  0.00000000000E+00 0.  1.
          2   -1    0    0  501    0  0.00000000000E+00 -0.00000000000E+00 -0.78349091364E+02  0.78349091364E+02  0.00000000000E+00 0. -1.
         23    2    1    2    0    0 -0.73464373030E+02 -0.40687217122E+02  0.27659084398E+03  0.30086863691E+03  0.83468424942E+02 0.  0.
          5    1    1    2  502    0  0.92293486156E+02 -0.37612698964E+02  0.78371429297E+02  0.12685565041E+03  0.41800000000E+01 0. -1.
         -5    1    1    2    0  502 -0.18829113125E+02  0.78299916086E+02 -0.32310007819E+01  0.80705167903E+02  0.41800000000E+01 0.  1.
        -11    1    3    3    0    0 -0.52156787640E+02  0.68706924242E+01  0.20900763463E+03  0.21552663001E+03  0.00000000000E+00 0. -1.
         11    1    3    3    0    0 -0.21307585391E+02 -0.47557909546E+02  0.67583209351E+02  0.85342006900E+02  0.00000000000E+00 0.  1.
</event>
<event>
 7    1  0.6684706E-006  0.1204492E+03  0.7561462E-02  0.1242358E+00
         -1   -1    0    0    0  501 -0.00000000000E+00  0.00000000000E+00  0.26350666264E+02  0.26350666264E+02  0.00000000000E+00 0.  1.
          1   -1    0    0  501    0  0.00000000000E+00 -0.00000000000E+00 -0.10865980817E+04  0.10865980817E+04  0.00000000000E+00 0. -1.
         23    2    1    2    0    0 -0.10832394298E+02  0.42752883310E+02 -0.11728369624E+03  0.15677062267E+03  0.94214717171E+02 0.  0.
          5    1    1    2  502    0 -0.18411690316E+02 -0.84210078210E+02 -0.79565544451E+03  0.80032205167E+03  0.41800000000E+01 0. -1.
         -5    1    1    2    0  502  0.29244084614E+02  0.41457194900E+02 -0.14730827468E+03  0.15585607361E+03  0.41800000000E+01 0.  1.
        -11    1    3    3    0    0  0.22857701226E+01  0.71791530661E+02 -0.86897503422E+02  0.11274051943E+03  0.00000000000E+00 0.  1.
         11    1    3    3    0    0 -0.13118164421E+02 -0.29038647351E+02 -0.30386192821E+02  0.44030103247E+02  0.00000000000E+00 0. -1.
</event>
<event>
 7    1  0.6684706E-006  0.1317980E+03  0.7561462E-02  0.1224812E+00
         -1   -1    0    0    0  501 -0.00000000000E+00  0.00000000000E+00  0.10999165150E+03  0.10999165150E+03  0.00000000000E+00 0.  1.
          1   -1    0    0  501    0  0.00000000000E+00 -0.00000000000E+00 -0.37531390322E+03  0.37531390322E+03  0.00000000000E+00 0. -1.
         23    2    1    2    0    0 -0.89514200566E+02  0.39400196304E+02  0.40478735779E+02  0.14073870322E+03  0.92756061599E+02 0.  0.
          5    1    1    2  502    0 -0.26382931711E+01  0.19489881750E+02 -0.16506720940E+03  0.16628731792E+03  0.41800000000E+01 0. -1.
         -5    1    1    2    0  502  0.92152493737E+02 -0.58890078054E+02 -0.14073377810E+03  0.17827953358E+03  0.41800000000E+01 0. -1.
        -11    1    3    3    0    0 -0.98992603320E+02  0.58298384343E+01  0.23344086502E+02  0.10187477069E+03  0.00000000000E+00 0.  1.
         11    1    3    3    0    0  0.94784027544E+01  0.33570357870E+02  0.17134649277E+02  0.38863932536E+02  0.00000000000E+00 0. -1.
</event>
<event>
 7    1  0.6684706E-006  0.1176567E+03  0.7561462E-02  0.1247014E+00
          1   -1    0    0  501    0  0.00000000000E+00  0.00000000000E+00  0.16668129729E+03  0.16668129729E+03  0.00000000000E+00 0. -1.
         -1   -1    0    0    0  501 -0.00000000000E+00 -0.00000000000E+00 -0.12815857986E+03  0.12815857986E+03  0.00000000000E+00 0.  1.
         23    2    1    2    0    0 -0.45640974534E+02 -0.41725760981E+02 -0.58904162822E+02  0.12464952935E+03  0.90794642376E+02 0.  0.
          5    1    1    2  502    0  0.88864375216E+02  0.26070091223E+02  0.72792048385E+02  0.11786721999E+03  0.41800000000E+01 0.  1.
         -5    1    1    2    0  502 -0.43223400682E+02  0.15655669758E+02  0.24634831870E+02  0.52323127806E+02  0.41800000000E+01 0.  1.
        -11    1    3    3    0    0 -0.42349325794E+02 -0.62455243378E+02 -0.68183058092E+02  0.10170079759E+03  0.00000000000E+00 0.  1.
         11    1    3    3    0    0 -0.32916487403E+01  0.20729482397E+02  0.92788952695E+01  0.22948731758E+02  0.00000000000E+00 0. -1.
</event>
<event>
 7    1  0.6684706E-006  0.1318032E+03  0.7561462E-02  0.1224804E+00
         -2   -1    0    0    0  501 -0.00000000000E+00  0.00000000000E+00  0.11255764889E+03  0.11255764889E+03  0.00000000000E+00 0.  1.
          2   -1    0    0  501    0  0.00000000000E+00 -0.00000000000E+00 -0.24652480098E+03  0.24652480098E+03  0.00000000000E+00 0. -1.
         23    2    1    2    0    0  0.11586809341E+03 -0.13742267247E+01 -0.86364950753E+01  0.14746339281E+03  0.90794050479E+02 0.  0.
          5    1    1    2  502    0 -0.90582609844E+02  0.63805860887E+01 -0.15019501274E+03  0.17556177072E+03  0.41800000000E+01 0.  1.
         -5    1    1    2    0  502 -0.25285483562E+02 -0.50063593641E+01  0.24864355721E+02  0.36057286344E+02  0.41800000000E+01 0.  1.
        -11    1    3    3    0    0  0.55178860566E+02 -0.45529497499E+02  0.25430094387E+01  0.71582879887E+02  0.00000000000E+00 0. -1.
         11    1    3    3    0    0  0.60689232840E+02  0.44155270774E+02 -0.11179504514E+02  0.75880512920E+02  0.00000000000E+00 0.  1.
</event>
<event>
 7    1  0.6684706E-006  0.7306829E+02  0.7561462E-02  0.1349959E+00
          1   -1    0    0  501    0  0.00000000000E+00  0.00000000000E+00  0.17288280895E+03  0.17288280895E+03  0.00000000000E+00 0. -1.
         -1   -1    0    0    0  501 -0.00000000000E+00 -0.00000000000E+00 -0.10199089237E+03  0.10199089237E+03  0.00000000000E+00 0.  1.
         23    2    1    2    0    0 -0.26914052409E+02 -0.16158223128E+02 -0.38915267809E+02  0.10549188855E+03  0.92890721226E+02 0.  0.
          5    1    1    2  502    0  0.45112391094E+02  0.79185375247E+01  0.13167101041E+03  0.13947242900E+03  0.41800000000E+01 0. -1.
         -5    1    1    2    0  502 -0.18198338685E+02  0.82396856035E+01 -0.21863826019E+02  0.29909383777E+02  0.41800000000E+01 0. -1.
        -11    1    3    3    0    0 -0.32093708128E+02 -0.42293088467E+02 -0.53285787699E+02  0.75220253949E+02  0.00000000000E+00 0.  1.
         11    1    3    3    0    0  0.51796557183E+01  0.26134865338E+02  0.14370519890E+02  0.30271634603E+02  0.00000000000E+00 0. -1.
</event>
<event>
 7    1  0.6684706E-006  0.1148896E+03  0.7561462E-02  0.1251774E+00
          2   -1    0    0  501    0  0.00000000000E+00  0.00000000000E+00  0.29349073216E+03  0.29349073216E+03  0.00000000000E+00 0. -1.
         -2   -1    0    0    0  501 -0.00000000000E+00 -0.00000000000E+00 -0.54414664603E+02  0.54414664603E+02  0.00000000000E+00 0.  1.
         23    2    1    2    0    0  0.47349295490E+02 -0.36375678057E+02  0.72962720311E+02  0.13155878085E+03  0.91755155314E+02 0.  0.
          5    1    1    2  502    0  0.15354157843E+02  0.60880543788E+02  0.43804039109E+02  0.76671096361E+02  0.41800000000E+01 0.  1.
         -5    1    1    2    0  502 -0.62703453334E+02 -0.24504865731E+02  0.12230930814E+03  0.13967551955E+03  0.41800000000E+01 0.  1.
        -11    1    3    3    0    0  0.37429692294E+02  0.19809052201E+02  0.47234531175E+01  0.42610930800E+02  0.00000000000E+00 0. -1.
         11    1    3    3    0    0  0.99196031969E+01 -0.56184730259E+02  0.68239267194E+02  0.88947850052E+02  0.00000000000E+00 0.  1.
</event>
<event>
 7    1  0.6684706E-006  0.1155503E+03  0.7561462E-02  0.1250624E+00
          1   -1    0    0  501    0  0.00000000000E+00  0.00000000000E+00  0.60397064157E+02  0.60397064157E+02  0.00000000000E+00 0. -1.
         -1   -1    0    0    0  501 -0.00000000000E+00 -0.00000000000E+00 -0.27473858296E+03  0.27473858296E+03  0.00000000000E+00 0.  1.
         23    2    1    2    0    0 -0.41661107664E+02  0.21046350237E+02 -0.16459072117E+03  0.19265584726E+03  0.88586529661E+02 0.  0.
          5    1    1    2  502    0  0.25822022928E+01  0.49954592613E+02 -0.67769308565E+01  0.50651044250E+02  0.41800000000E+01 0. -1.
         -5    1    1    2    0  502  0.39078905371E+02 -0.71000942850E+02 -0.42973866774E+02  0.91828755606E+02  0.41800000000E+01 0. -1.
        -11    1    3    3    0    0  0.11663554358E+01  0.48738041786E+02 -0.88820817902E+02  0.10132075204E+03  0.00000000000E+00 0.  1.
         11    1    3    3    0    0 -0.42827463099E+02 -0.27691691549E+02 -0.75769903269E+02  0.91335095214E+02  0.00000000000E+00 0. -1.
</event>
<event>
 7    1  0.6684706E-006  0.8293024E+02  0.7561462E-02  0.1320936E+00
         -1   -1    0    0    0  501 -0.00000000000E+00  0.00000000000E+00  0.16220453714E+03  0.16220453714E+03  0.00000000000E+00 0.  1.
          1   -1    0    0  501    0  0.00000000000E+00 -0.00000000000E+00 -0.11228081292E+03  0.11228081292E+03  0.00000000000E+00 0. -1.
         23    2    1    2    0    0  0.27670542129E+02  0.23899781948E+02  0.98363423422E+02  0.14080824358E+03  0.93886846336E+02 0.  0.
          5    1    1    2  502    0 -0.74067812717E+02 -0.85266763945E+01 -0.21485636629E+02  0.77703603986E+02  0.41800000000E+01 0. -1.
         -5    1    1    2    0  502  0.46397270587E+02 -0.15373105553E+02 -0.26954062565E+02  0.55973502491E+02  0.41800000000E+01 0.  1.
        -11    1    3    3    0    0  0.58818359822E+01  0.18874154015E+02 -0.15279791850E+02  0.24986030563E+02  0.00000000000E+00 0. -1.
         11    1    3    3    0    0  0.21788706147E+02  0.50256279324E+01  0.11364321527E+03  0.11582221302E+03  0.00000000000E+00 0.  1.
</event>
<event>
 7    1  0.6684706E-006  0.1119367E+03  0.7561462E-02  0.1257025E+00
         -2   -1    0    0    0  501 -0.00000000000E+00  0.00000000000E+00  0.83656745039E+03  0.83656745039E+03  0.00000000000E+00 0.  1.
          2   -1    0    0  501    0  0.00000000000E+00 -0.00000000000E+00 -0.22378976636E+02  0.22378976636E+02  0.00000000000E+00 0. -1.
         23    2    1    2    0    0  0.80562755028E+02  0.19316834777E+02  0.41605364047E+03  0.43352491526E+03  0.89329294185E+02 0.  0.
          5    1    1    2  502    0 -0.95510608803E+02 -0.10344525554E+02  0.39583376506E+03  0.40734644661E+03  0.41800000000E+01 0. -1.
         -5    1    1    2    0  502  0.14947853775E+02 -0.89723092237E+01  0.23010682180E+01  0.18075065151E+02  0.41800000000E+01 0. -1.
        -11    1    3    3    0    0  0.76144871879E+02 -0.12932148975E+02  0.36421468216E+03  0.37231386852E+03  0.00000000000E+00 0.  1.
         11    1    3    3    0    0  0.44178831497E+01  0.32248983752E+02  0.51838958312E+02  0.61211046744E+02  0.00000000000E+00 0. -1.
</event>
<event>
 7    1  0.6684706E-006  0.8990019E+02  0.7561462E-02  0.1303094E+00
         -1   -1    0    0    0  501 -0.00000000000E+00  0.00000000000E+00  0.39020106273E+02  0.39020106273E+02  0.00000000000E+00 0.  1.
          1   -1    0    0  501    0  0.00000000000E+00 -0.00000000000E+00 -0.42891260560E+03  0.42891260560E+03  0.00000000000E+00 0. -1.
         23    2    1    2    0    0 -0.16435031704E+02  0.24935055409E+02 -0.61483368397E+02  0.11524026685E+03  0.92780640540E+02 0.  0.
          5    1    1    2  502    0  0.32895543505E+02  0.20934428162E+02 -0.28378783908E+03  0.28648451454E+03  0.41800000000E+01 0.  1.
         -5    1    1    2    0  502 -0.16460511802E+02 -0.45869483570E+02 -0.44621291857E+02  0.66207930482E+02  0.41800000000E+01 0.  1.
        -11    1    3    3    0    0  0.19510353048E+02 -0.24015481565E+02 -0.32681563635E+01  0.31113953090E+02  0.00000000000E+00 0.  1.
         11    1    3    3    0    0 -0.35945384751E+02  0.48950536974E+02 -0.58215212033E+02  0.84126313761E+02  0.00000000000E+00 0. -1.
</event>
<event>
 6    1  0.6684706E-006  0.1732463E+03  0.7561462E-02  0.1174504E+00
          2   -1    0    0  501    0  0.00000000000E+00  0.00000000000E+00  0.13096967178E+04  0.13096967178E+04  0.00000000000E+00 0.  1.
         -2   -1    0    0    0  501 -0.00000000000E+00 -0.00000000000E+00 -0.40562907186E+02  0.40562907186E+02  0.00000000000E+00 0. -1.
          5    1    1    2  502    0  0.30489022019E+02 -0.11131459635E+03  0.76559779251E+03  0.77425962837E+03  0.41800000000E+01 0.  1.
         -5    1    1    2    0  502  0.46899202714E+02 -0.36795367328E+02  0.10310135917E+03  0.11916709670E+03  0.41800000000E+01 0.  1.
        -11    1    1    2    0    0 -0.28117726707E+02  0.93765641527E+02  0.36000080747E+03  0.37307262492E+03  0.00000000000E+00 0.  1.
         11    1    1    2    0    0 -0.49270498025E+02  0.54344322155E+02  0.40433851485E+02  0.83760275023E+02  0.00000000000E+00 0. -1.
</event>
<event>
 7    1  0.6684706E-006  0.1195091E+03  0.7561462E-02  0.1243909E+00
          1   -1    0    0  501    0  0.00000000000E+00  0.00000000000E+00  0.58157467858E+03  0.58157467858E+03  0.00000000000E+00 0. -1.
         -1   -1    0    0    0  501 -0.00000000000E+00 -0.00000000000E+00 -0.48038559186E+02  0.48038559186E+02  0.00000000000E+00 0.  1.
         23    2    1    2    0    0  0.85903803076E+02 -0.27939702826E+02  0.78999178476E+02  0.14960137962E+03  0.89328675168E+02 0.  0.
          5    1    1    2  502    0 -0.96662107124E+02  0.30332484324E+02  0.19129418207E+03  0.21650533262E+03  0.41800000000E+01 0.  1.
         -5    1    1    2    0  502  0.10758304048E+02 -0.23927814977E+01  0.26324275885E+03  0.26350652552E+03  0.41800000000E+01 0.  1.
        -11    1    3    3    0    0 -0.72299430582E+01 -0.31809748034E+02  0.11798168093E+02  0.34689031652E+02  0.00000000000E+00 0.  1.
         11    1    3    3    0    0  0.93133746134E+02  0.38700452077E+01  0.67201010383E+02  0.11491234797E+03  0.00000000000E+00 0. -1.
</event>
<event>
 7    1  0.6684706E-006  0.1037199E+03  0.7561462E-02  0.1272662E+00
          1   -1    0    0  501    0  0.00000000000E+00  0.00000000000E+00  0.20225862167E+03  0.20225862167E+03  0.00000000000E+00 0.  1.
         -1   -1    0    0    0  501 -0.00000000000E+00 -0.00000000000E+00 -0.61403890061E+02  0.61403890061E+02  0.00000000000E+00 0. -1.
         23    2    1    2    0    0  0.23521813352E+02 -0.11936091828E+02  0.64917112701E+02  0.11496943302E+03  0.91148192610E+02 0.  0.
          5    1    1    2  502    0  0.34922581235E+02 -0.29695145474E+02  0.27512434593E+01  0.46113231132E+02  0.41800000000E+01 0.  1.
         -5    1    1    2    0  502 -0.58444394587E+02  0.41631237302E+02  0.73186375447E+02  0.10257984758E+03  0.41800000000E+01 0.  1.
        -11    1    3    3    0    0  0.17514139391E+02 -0.48972774035E+02  0.18317046557E+02  0.55141562091E+02  0.00000000000E+00 0. -1.
         11    1    3    3    0    0  0.60076739614E+01  0.37036682206E+02  0.46600066145E+02  0.59827870930E+02  0.00000000000E+00 0.  1.
</event>
<event>
 7    1  0.6684706E-006  0.1015084E+03  0.7561462E-02  0.1277156E+00
         -2   -1    0    0    0  501 -0.00000000000E+00  0.00000000000E+00  0.29714514118E+02  0.29714514118E+02  0.00000000000E+00 0.  1.
          2   -1    0    0  501    0  0.00000000000E+00 -0.00000000000E+00 -0.45929113595E+03  0.45929113595E+03  0.00000000000E+00 0. -1.
         23    2    1    2    0    0  0.27460517322E+02  0.24861827008E+02 -0.10911857469E+03  0.14738752426E+03  0.91891395195E+02 0.  0.
          5    1    1    2  502    0 -0.51774305424E+02  0.23927667570E+02 -0.21926526990E+03  0.22660062437E+03  0.41800000000E+01 0. -1.
         -5    1    1    2    0  502  0.24313788102E+02 -0.48789494578E+02 -0.10119277724E+03  0.11501750145E+03  0.41800000000E+01 0.  1.
        -11    1    3    3    0    0  0.53896347651E+02 -0.13698086274E+01 -0.34544406037E+02  0.64031309952E+02  0.00000000000E+00 0.  1.
         11    1    3    3    0    0 -0.26435830328E+02  0.26231635636E+02 -0.74574168650E+02  0.83356214304E+02  0.00000000000E+00 0. -1.
</event>
<event>
 7    1  0.6684706E-006  0.1028104E+03  0.7561462E-02  0.1274495E+00
          2   -1    0    0  501    0  0.00000000000E+00  0.00000000000E+00  0.19774321757E+03  0.19774321757E+03  0.00000000000E+00 0. -1.
         -2   -1    0    0    0  501 -0.00000000000E+00 -0.00000000000E+00 -0.59550594190E+02  0.59550594190E+02  0.00000000000E+00 0.  1.
         23    2    1    2    0    0 -0.11521188976E+02 -0.40666900305E+01  0.62992746887E+02  0.11082853875E+03  0.90363726561E+02 0.  0.
          5    1    1    2  502    0  0.61362133051E+02  0.27825580406E+02  0.56470951347E+02  0.88011448366E+02  0.41800000000E+01 0.  1.
         -5    1    1    2    0  502 -0.49840944075E+02 -0.23758890376E+02  0.18728925143E+02  0.58453824641E+02  0.41800000000E+01 0.  1.
        -11    1    3    3    0    0 -0.31193815539E+02  0.30080124102E+02  0.55993390845E+02  0.70803444918E+02  0.00000000000E+00 0.  1.
         11    1    3    3    0    0  0.19672626563E+02 -0.34146814133E+02  0.69993560423E+01  0.40025093833E+02  0.00000000000E+00 0. -1.
</event>
<event>
 7    1  0.6684706E-006  0.1127491E+03  0.7561462E-02  0.1255562E+00
         -2   -1    0    0    0  501 -0.00000000000E+00  0.00000000000E+00  0.23236721712E+03  0.23236721712E+03  0.00000000000E+00 0.  1.
          2   -1    0    0  501    0  0.00000000000E+00 -0.00000000000E+00 -0.62137918250E+02  0.62137918250E+02  0.00000000000E+00 0. -1.
         23    2    1    2    0    0  0.50544192171E+02  0.72153459195E+00  0.87246761636E+02  0.13610627436E+03  0.91420372623E+02 0.  0.
          5    1    1    2  502    0  0.27481914343E+02 -0.38784087010E+02  0.24498239260E+02  0.53638578915E+02  0.41800000000E+01 0.  1.
         -5    1    1    2    0  502 -0.78026106514E+02  0.38062552418E+02  0.58484297973E+02  0.10476028209E+03  0.41800000000E+01 0.  1.
        -11    1    3    3    0    0  0.34164458811E+02  0.37424464715E+02  0.80836587344E+02  0.95406261107E+02  0.00000000000E+00 0.  1.
         11    1    3    3    0    0  0.16379733360E+02 -0.36702930123E+02  0.64101742917E+01  0.40700013255E+02  0.00000000000E+00 0. -1.
</event>
<event>
 7    1  0.6684706E-006  0.2038523E+03  0.7561462E-02  0.1146529E+00
          2   -1    0    0  501    0  0.00000000000E+00  0.00000000000E+00  0.99380640828E+02  0.99380640828E+02  0.00000000000E+00 0. -1.
         -2   -1    0    0    0  501 -0.00000000000E+00 -0.00000000000E+00 -0.68982061339E+03  0.68982061339E+03  0.00000000000E+00 0.  1.
         23    2    1    2    0    0  0.54338518883E+02  0.17064387174E+03 -0.52376604037E+03  0.56080524506E+03  0.89998067993E+02 0.  0.
          5    1    1    2  502    0 -0.84545010091E+02 -0.14593662585E+03 -0.80307843686E+02  0.18684801217E+03  0.41800000000E+01 0. -1.
         -5    1    1    2    0  502  0.30206491208E+02 -0.24707245889E+02  0.13633911500E+02  0.41547996983E+02  0.41800000000E+01 0. -1.
        -11    1    3    3    0    0  0.23577454421E+02  0.16713216337E+03 -0.45812249354E+03  0.48822666404E+03  0.00000000000E+00 0.  1.
         11    1    3    3    0    0  0.30761064462E+02  0.35117083701E+01 -0.65643546833E+02  0.72578581023E+02  0.00000000000E+00 0. -1.
</event>
<event>
 7    1  0.6684706E-006  0.7994851E+02  0.7561462E-02  0.1329198E+00
          1   -1    0    0  501    0  0.00000000000E+00  0.00000000000E+00  0.34122006888E+03  0.34122006888E+03  0.00000000000E+00 0. -1.
         -1   -1    0    0    0  501 -0.00000000000E+00 -0.00000000000E+00 -0.49551696186E+02  0.49551696186E+02  0.00000000000E+00 0.  1.
         23    2    1    2    0    0 -0.54913418088E+02 -0.29321801440E+02  0.71550732345E+02  0.13005242264E+03  0.88988054315E+02 0.  0.
          5    1    1    2  502    0  0.42071346854E+02  0.50601362851E+02  0.22550395920E+03  0.23494681135E+03  0.41800000000E+01 0. -1.
         -5    1    1    2    0  502  0.12842071234E+02 -0.21279561411E+02 -0.53863188451E+01  0.25772531077E+02  0.41800000000E+01 0. -1.
        -11    1    3    3    0    0 -0.27293835840E+02 -0.30727650262E+02 -0.11368847143E+02  0.42642615431E+02  0.00000000000E+00 0. -1.
         11    1    3    3    0    0 -0.27619582249E+02  0.14058488214E+01  0.82919579488E+02  0.87409807213E+02  0.00000000000E+00 0.  1.
</event>
<event>
 7    1  0.6684706E-006  0.1127862E+03  0.7561462E-02  0.1255495E+00
          2   -1    0    0  501    0  0.00000000000E+00  0.00000000000E+00  0.21918911593E+04  0.21918911593E+04  0.00000000000E+00 0. -1.
         -2   -1    0    0    0  501 -0.00000000000E+00 -0.00000000000E+00 -0.15637680740E+02  0.15637680740E+02  0.00000000000E+00 0.  1.
         23    2    1    2    0    0  0.60759273813E+02 -0.53775063097E+02  0.28290357005E+03  0.30831706966E+03  0.91877846806E+02 0.  0.
          5    1    1    2  502    0 -0.86733023481E+02  0.10961467956E+02  0.15168934119E+04  0.15194162915E+04  0.41800000000E+01 0. -1.
         -5    1    1    2    0  502  0.25973749668E+02  0.42813595141E+02  0.37645649659E+03  0.37979547895E+03  0.41800000000E+01 0. -1.
        -11    1    3    3    0    0  0.34129507973E+02 -0.50524573245E+02  0.27299073755E+03  0.27971681859E+03  0.00000000000E+00 0. -1.
         11    1    3    3    0    0  0.26629765839E+02 -0.32504898528E+01  0.99128324945E+01  0.28600251065E+02  0.00000000000E+00 0.  1.
</event>
<event>
 7    1  0.6684706E-006  0.1173274E+03  0.7561462E-02  0.1247572E+00
         -3   -1    0    0    0  501 -0.00000000000E+00  0.00000000000E+00  0.16188756573E+03  0.16188756573E+03  0.00000000000E+00 0.  1.
          3   -1    0    0  501    0  0.00000000000E+00 -0.00000000000E+00 -0.10684756605E+03  0.10684756605E+03  0.00000000000E+00 0. -1.
         23    2    1    2    0    0 -0.21133386842E+01 -0.71802971002E+02  0.41356560995E+02  0.12384002119E+03  0.92010069374E+02 0.  0.
          5    1    1    2  502    0  0.35723147990E+02 -0.22782518607E+02  0.12680811285E+02  0.44423662965E+02  0.41800000000E+01 0. -1.
         -5    1    1    2    0  502 -0.33609809305E+02  0.94585489609E+02  0.10026273918E+01  0.10047144762E+03  0.41800000000E+01 0. -1.
        -11    1    3    3    0    0 -0.29061734521E+02 -0.45265839615E+02  0.60910633182E+02  0.81263065928E+02  0.00000000000E+00 0.  1.
         11    1    3    3    0    0  0.26948395836E+02 -0.26537131387E+02 -0.19554072187E+02  0.42576955263E+02  0.00000000000E+00 0. -1.
</event>
<event>
 7    1  0.6684706E-006  0.1197293E+03  0.7561462E-02  0.1243544E+00
         -2   -1    0    0    0  501 -0.00000000000E+00  0.00000000000E+00  0.49346972519E+02  0.49346972519E+02  0.00000000000E+00 0.  1.
          2   -1    0    0  501    0  0.00000000000E+00 -0.00000000000E+00 -0.31292995373E+03  0.31292995373E+03  0.00000000000E+00 0. -1.
         23    2    1    2    0    0  0.59605224824E+02  0.79215063002E+00 -0.12411687413E+03  0.16567490365E+03  0.92139920374E+02 0.  0.
          5    1    1    2  502    0  0.34047756615E+02 -0.23144030779E+02 -0.32450569740E+02  0.52587144509E+02  0.41800000000E+01 0.  1.
         -5    1    1    2    0  502 -0.93652981440E+02  0.22351880149E+02 -0.10701553734E+03  0.14401487809E+03  0.41800000000E+01 0.  1.
        -11    1    3    3    0    0  0.46720594600E+02 -0.38382223359E+02 -0.41497258892E+02  0.73335063409E+02  0.00000000000E+00 0.  1.
         11    1    3    3    0    0  0.12884630225E+02  0.39174373989E+02 -0.82619615239E+02  0.92339840241E+02  0.00000000000E+00 0. -1.
</event>
<event>
 7    1  0.6684706E-006  0.1848667E+03  0.7561462E-02  0.1163174E+00
         -2   -1    0    0    0  501 -0.00000000000E+00  0.00000000000E+00  0.84576074256E+02  0.84576074256E+02  0.00000000000E+00 0.  1.
          2   -1    0    0  501    0  0.00000000000E+00 -0.00000000000E+00 -0.54560218656E+03  0.54560218656E+03  0.00000000000E+00 0. -1.
         23    2    1    2    0    0  0.13330536400E+03 -0.71308292930E+02 -0.72930371628E+02  0.19264730276E+03  0.94546028169E+02 0.  0.
          5    1    1    2  502    0 -0.67295213390E+01 -0.28877436223E+02 -0.12741956163E+03  0.13089083186E+03  0.41800000000E+01 0. -1.
         -5    1    1    2    0  502 -0.12657584266E+03  0.10018572915E+03 -0.26067617905E+03  0.30664012620E+03  0.41800000000E+01 0.  1.
        -11    1    3    3    0    0  0.13317548716E+03 -0.29377648962E+02 -0.56056453321E+02  0.14744857611E+03  0.00000000000E+00 0.  1.
         11    1    3    3    0    0  0.12987684230E+00 -0.41930643968E+02 -0.16873918307E+02  0.45198726648E+02  0.00000000000E+00 0. -1.
</event>
<event>
 7    1  0.6684706E-006  0.1235698E+03  0.7561462E-02  0.1237321E+00
         -2   -1    0    0    0  501 -0.00000000000E+00  0.00000000000E+00  0.80472804120E+02  0.80472804120E+02  0.00000000000E+00 0.  1.
          2   -1    0    0  501    0  0.00000000000E+00 -0.00000000000E+00 -0.40508639128E+03  0.40508639128E+03  0.00000000000E+00 0. -1.
         23    2    1    2    0    0  0.71060178509E+02 -0.72529433109E+02 -0.15737661624E+02  0.13719286307E+03  0.90907315702E+02 0.  0.
          5    1    1    2  502    0 -0.15597885826E+02  0.67430950748E+02 -0.27373081302E+03  0.28237609240E+03  0.41800000000E+01 0. -1.
         -5    1    1    2    0  502 -0.55462292683E+02  0.50984823606E+01 -0.35145112514E+02  0.65990239928E+02  0.41800000000E+01 0. -1.
        -11    1    3    3    0    0  0.76513802921E+02 -0.35197756674E+02  0.18518479996E+02  0.86233277878E+02  0.00000000000E+00 0.  1.
         11    1    3    3    0    0 -0.54536244113E+01 -0.37331676435E+02 -0.34256141619E+02  0.50959585195E+02  0.00000000000E+00 0. -1.
</event>
<event>
 7    1  0.6684706E-006  0.1884191E+03  0.7561462E-02  0.1159895E+00
         -2   -1    0    0    0  501 -0.00000000000E+00  0.00000000000E+00  0.18472984196E+02  0.18472984196E+02  0.00000000000E+00 0.  1.
          2   -1    0    0  501    0  0.00000000000E+00 -0.00000000000E+00 -0.21148998324E+04  0.21148998324E+04  0.00000000000E+00 0. -1.
         23    2    1    2    0    0 -0.11533076875E+03  0.11599888019E+03 -0.89036643471E+03  0.90985908472E+03  0.91292056434E+02 0.  0.
          5    1    1    2  502    0  0.59444740625E+02 -0.12157492196E+03 -0.10248064948E+04  0.10337117408E+04  0.41800000000E+01 0.  1.
         -5    1    1    2    0  502  0.55886028124E+02  0.55760417774E+01 -0.18125391865E+03  0.18980199105E+03  0.41800000000E+01 0.  1.
        -11    1    3    3    0    0 -0.88406356531E+02  0.27444749034E+02 -0.37567377403E+03  0.38691043230E+03  0.00000000000E+00 0.  1.
         11    1    3    3    0    0 -0.26924412218E+02  0.88554131153E+02 -0.51469266067E+03  0.52294865242E+03  0.00000000000E+00 0. -1.
</event>
<event>
 7    1  0.6684706E-006  0.8491437E+02  0.7561462E-02  0.1315657E+00
         -2   -1    0    0    0  501 -0.00000000000E+00  0.00000000000E+00  0.15398888869E+03  0.15398888869E+03  0.00000000000E+00 0.  1.
          2   -1    0    0  501    0  0.00000000000E+00 -0.00000000000E+00 -0.89303431401E+02  0.89303431401E+02  0.00000000000E+00 0. -1.
         23    2    1    2    0    0  0.26406412050E+02 -0.17548058609E+02  0.69460096643E+02  0.11415936912E+03  0.84867093585E+02 0.  0.
          5    1    1    2  502    0  0.14039809678E+02 -0.41472640334E+02  0.26044170485E+02  0.51116214338E+02  0.41800000000E+01 0.  1.
         -5    1    1    2    0  502 -0.40446221727E+02  0.59020698943E+02 -0.30818809837E+02  0.78016736637E+02  0.41800000000E+01 0.  1.
        -11    1    3    3    0    0  0.19512034760E+02  0.12613464735E+02  0.78548505828E+02  0.81912677657E+02  0.00000000000E+00 0.  1.
         11    1    3    3    0    0  0.68943772900E+01 -0.30161523345E+02 -0.90884091852E+01  0.32246691461E+02  0.00000000000E+00 0. -1.
</event>
<event>
 7    1  0.6684706E-006  0.1791431E+03  0.7561462E-02  0.1168635E+00
         -1   -1    0    0    0  501 -0.00000000000E+00  0.00000000000E+00  0.18219140318E+02  0.18219140318E+02  0.00000000000E+00 0.  1.
          1   -1    0    0  501    0  0.00000000000E+00 -0.00000000000E+00 -0.21049727196E+04  0.21049727196E+04  0.00000000000E+00 0. -1.
         23    2    1    2    0    0 -0.48022038579E+02  0.15059374536E+03 -0.78472526272E+03  0.80565287895E+03  0.91094627062E+02 0.  0.
          5    1    1    2  502    0  0.61353044425E+02 -0.15081550082E+02 -0.33108209896E+03  0.33708230132E+03  0.41800000000E+01 0. -1.
         -5    1    1    2    0  502 -0.13331005846E+02 -0.13551219528E+03 -0.97094621762E+03  0.98045667966E+03  0.41800000000E+01 0. -1.
        -11    1    3    3    0    0 -0.30468192841E+02  0.11614290674E+03 -0.72238057595E+03  0.73229173290E+03  0.00000000000E+00 0.  1.
         11    1    3    3    0    0 -0.17553845738E+02  0.34450838619E+02 -0.62344686772E+02  0.73361146055E+02  0.00000000000E+00 0. -1.
</event>
<event>
 7    1  0.6684706E-006  0.1105555E+03  0.7561462E-02  0.1259545E+00
          4   -1    0    0  501    0  0.00000000000E+00  0.00000000000E+00  0.28172003518E+03  0.28172003518E+03  0.00000000000E+00 0. -1.
         -4   -1    0    0    0  501 -0.00000000000E+00 -0.00000000000E+00 -0.56284586712E+02  0.56284586712E+02  0.00000000000E+00 0.  1.
         23    2    1    2    0    0 -0.64111119516E+02  0.21756936179E+01  0.10043482627E+03  0.14989079505E+03  0.90912742920E+02 0.  0.
          5    1    1    2  502    0  0.62844944753E+02 -0.52867521200E+02  0.46216810807E+02  0.94328828468E+02  0.41800000000E+01 0. -1.
         -5    1    1    2    0  502  0.12661747631E+01  0.50691827582E+02  0.78783811390E+02  0.93784998370E+02  0.41800000000E+01 0. -1.
        -11    1    3    3    0    0 -0.72986607748E+02  0.12859675426E+02  0.11027795844E+03  0.13286701728E+03  0.00000000000E+00 0. -1.
         11    1    3    3    0    0  0.88754882311E+01 -0.10683981808E+02 -0.98431321746E+01  0.17023777772E+02  0.00000000000E+00 0.  1.
</event>
<event>
 7    1  0.6684706E-006  0.4109218E+02  0.7561462E-02  0.1500325E+00
         -4   -1    0    0    0  501 -0.00000000000E+00  0.00000000000E+00  0.24261716120E+03  0.24261716120E+03  0.00000000000E+00 0.  1.
          4   -1    0    0  501    0  0.00000000000E+00 -0.00000000000E+00 -0.50337976514E+02  0.50337976514E+02  0.00000000000E+00 0. -1.
         23    2    1    2    0    0 -0.22369584654E+02  0.42082439979E+01  0.80107435063E+02  0.12340477865E+03  0.91068274420E+02 0.  0.
          5    1    1    2  502    0  0.68201363020E+01 -0.21286210142E+02 -0.23007430692E+02  0.32348589898E+02  0.41800000000E+01 0.  1.
         -5    1    1    2    0  502  0.15549448352E+02  0.17077966144E+02  0.13517918031E+03  0.13720176916E+03  0.41800000000E+01 0.  1.
        -11    1    3    3    0    0 -0.20036239546E+02  0.14938487510E+02  0.98698119627E+02  0.10181320210E+03  0.00000000000E+00 0.  1.
         11    1    3    3    0    0 -0.23333451076E+01 -0.10730243512E+02 -0.18590684565E+02  0.21591576547E+02  0.00000000000E+00 0. -1.
</event>
<event>
 7    1  0.6684706E-006  0.1000112E+03  0.7561462E-02  0.1280272E+00
          1   -1    0    0  501    0  0.00000000000E+00  0.00000000000E+00  0.16119640144E+03  0.16119640144E+03  0.00000000000E+00 0. -1.
         -1   -1    0    0    0  501 -0.00000000000E+00 -0.00000000000E+00 -0.12383566821E+03  0.12383566821E+03  0.00000000000E+00 0.  1.
         23    2    1    2    0    0 -0.58695859831E+02 -0.69338014805E+01 -0.50191952446E+02  0.12130751378E+03  0.93289866780E+02 0.  0.
          5    1    1    2  502    0  0.86127632145E+02  0.26405161388E+01  0.17188768503E+02  0.87965149389E+02  0.41800000000E+01 0.  1.
         -5    1    1    2    0  502 -0.27431772314E+02  0.42932853417E+01  0.70363917175E+02  0.75759406489E+02  0.41800000000E+01 0.  1.
        -11    1    3    3    0    0 -0.35412446037E+02  0.26992618260E+02 -0.63946686723E+02  0.77921893699E+02  0.00000000000E+00 0.  1.
         11    1    3    3    0    0 -0.23283413795E+02 -0.33926419740E+02  0.13754734277E+02  0.43385620076E+02  0.00000000000E+00 0. -1.
</event>
<event>
 7    1  0.6684706E-006  0.9527771E+02  0.7561462E-02  0.1290552E+00
          1   -1    0    0  501    0  0.00000000000E+00  0.00000000000E+00  0.17017439963E+04  0.17017439963E+04  0.00000000000E+00 0. -1.
         -1   -1    0    0    0  501 -0.00000000000E+00 -0.00000000000E+00 -0.11276798911E+02  0.11276798911E+02  0.00000000000E+00 0.  1.
         23    2    1    2    0    0  0.35730599556E+02 -0.28813922247E+02  0.28387209159E+03  0.30060178853E+03  0.87585118739E+02 0.  0.
          5    1    1    2  502    0 -0.59400793758E+02  0.33474267961E+02  0.41991310031E+03  0.42543326754E+03  0.41800000000E+01 0. -1.
         -5    1    1    2    0  502  0.23670194202E+02 -0.46603457143E+01  0.98668200545E+03  0.98698573910E+03  0.41800000000E+01 0.  1.
        -11    1    3    3    0    0  0.23850150306E+02  0.29677925624E+02  0.13331979320E+03  0.13864983303E+03  0.00000000000E+00 0. -1.
         11    1    3    3    0    0  0.11880449250E+02 -0.58491847871E+02  0.15055229838E+03  0.16195195550E+03  0.00000000000E+00 0.  1.
</event>
<event>
 7    1  0.6684706E-006  0.1070610E+03  0.7561462E-02  0.1266111E+00
          2   -1    0    0  501    0  0.00000000000E+00  0.00000000000E+00  0.16627530946E+04  0.16627530946E+04  0.00000000000E+00 0. -1.
         -2   -1    0    0    0  501 -0.00000000000E+00 -0.00000000000E+00 -0.22639114173E+02  0.22639114173E+02  0.00000000000E+00 0.  1.
         23    2    1    2    0    0  0.51978454705E+02  0.18271737877E+02  0.12045616838E+03  0.16046975088E+03  0.90582759338E+02 0.  0.
          5    1    1    2  502    0  0.29094606281E+02  0.15822181294E+02  0.63972412187E+03  0.64059445989E+03  0.41800000000E+01 0. -1.
         -5    1    1    2    0  502 -0.81073060986E+02 -0.34093919171E+02  0.87993369017E+03  0.88432799799E+03  0.41800000000E+01 0.  1.
        -11    1    3    3    0    0  0.32111484426E+02  0.47508731508E+02  0.33047886794E+02  0.66184513468E+02  0.00000000000E+00 0.  1.
         11    1    3    3    0    0  0.19866970279E+02 -0.29236993631E+02  0.87408281585E+02  0.94285237414E+02  0.00000000000E+00 0. -1.
</event>
<event>
 7    1  0.6684706E-006  0.1792142E+03  0.7561462E-02  0.1168566E+00
         -1   -1    0    0    0  501 -0.00000000000E+00  0.00000000000E+00  0.71220981544E+02  0.71220981544E+02  0.00000000000E+00 0.  1.
          1   -1    0    0  501    0  0.00000000000E+00 -0.00000000000E+00 -0.59041268830E+03  0.59041268830E+03  0.00000000000E+00 0. -1.
         23    2    1    2    0    0  0.56676596705E+02  0.14534213088E+03 -0.12328911960E+03  0.21809889792E+03  0.89612223705E+02 0.  0.
          5    1    1    2  502    0  0.40029420323E+02 -0.48127074986E+02 -0.12037826094E+03  0.13574596843E+03  0.41800000000E+01 0. -1.
         -5    1    1    2    0  502 -0.96706017029E+02 -0.97215055894E+02 -0.27552432621E+03  0.30778880350E+03  0.41800000000E+01 0. -1.
        -11    1    3    3    0    0  0.30191290440E+02  0.11158040580E+03 -0.13077644522E+03  0.17453990833E+03  0.00000000000E+00 0. -1.
         11    1    3    3    0    0  0.26485306266E+02  0.33761725082E+02  0.74873256199E+01  0.43558989582E+02  0.00000000000E+00 0.  1.
</event>
<event>
 7    1  0.6684706E-006  0.1010290E+03  0.7561462E-02  0.1278147E+00
         -1   -1    0    0    0  501 -0.00000000000E+00  0.00000000000E+00  0.10763968970E+02  0.10763968970E+02  0.00000000000E+00 0.  1.
          1   -1    0    0  501    0  0.00000000000E+00 -0.00000000000E+00 -0.15813995545E+04  0.15813995545E+04  0.00000000000E+00 0. -1.
         23    2    1    2    0    0 -0.21274482848E+02  0.47308714893E+02 -0.38301666117E+03  0.39684840682E+03  0.89978759384E+02 0.  0.
          5    1    1    2  502    0 -0.63818646608E+01  0.27922478867E+02 -0.85290064727E+02  0.90068088487E+02  0.41800000000E+01 0.  1.
         -5    1    1    2    0  502  0.27656347509E+02 -0.75231193760E+02 -0.11023288596E+04  0.11052470281E+04  0.41800000000E+01 0.  1.
        -11    1    3    3    0    0 -0.44290385319E+02  0.48516397986E+01 -0.96490506287E+02  0.10628073411E+03  0.00000000000E+00 0. -1.
         11    1    3    3    0    0  0.23015902471E+02  0.42457075094E+02 -0.28652615488E+03  0.29056767271E+03  0.00000000000E+00 0.  1.
</event>
<event>
 6    1  0.6684706E-006  0.6009992E+02  0.7561462E-02  0.1397413E+00
          2   -1    0    0  501    0  0.00000000000E+00  0.00000000000E+00  0.33074946851E+03  0.33074946851E+03  0.00000000000E+00 0. -1.
         -2   -1    0    0    0  501 -0.00000000000E+00 -0.00000000000E+00 -0.24664260032E+02  0.24664260032E+02  0.00000000000E+00 0.  1.
          5    1    1    2  502    0 -0.85051467398E+01 -0.37909152564E+02  0.39249352532E+02  0.55384342944E+02  0.41800000000E+01 0. -1.
         -5    1    1    2    0  502  0.28892991221E+02  0.41311276925E+02  0.24389328767E+03  0.24908399128E+03  0.41800000000E+01 0.  1.
        -11    1    1    2    0    0 -0.72306265985E+01  0.96148802273E+01 -0.83115232942E+01  0.14622219471E+02  0.00000000000E+00 0.  1.
         11    1    1    2    0    0 -0.13157217883E+02 -0.13017004588E+02  0.31254091578E+02  0.36323174850E+02  0.00000000000E+00 0. -1.
</event>
<event>
 7    1  0.6684706E-006  0.9598133E+02  0.7561462E-02  0.1288981E+00
          1   -1    0    0  501    0  0.00000000000E+00  0.00000000000E+00  0.23318503531E+02  0.23318503531E+02  0.00000000000E+00 0. -1.
         -1   -1    0    0    0  501 -0.00000000000E+00 -0.00000000000E+00 -0.56165711539E+03  0.56165711539E+03  0.00000000000E+00 0.  1.
         23    2    1    2    0    0 -0.17723609421E+02  0.34318919280E+02 -0.23011842085E+03  0.25010411140E+03  0.90031463244E+02 0.  0.
          5    1    1    2  502    0  0.58381493052E+02 -0.19980778750E+01 -0.24987028760E+03  0.25664182058E+03  0.41800000000E+01 0.  1.
         -5    1    1    2    0  502 -0.40657883631E+02 -0.32320841405E+02 -0.58349903403E+02  0.78229686933E+02  0.41800000000E+01 0.  1.
        -11    1    3    3    0    0 -0.25509390783E+02  0.54219637777E+02 -0.21679015192E+03  0.22491880337E+03  0.00000000000E+00 0.  1.
         11    1    3    3    0    0  0.77857813624E+01 -0.19900718497E+02 -0.13328268932E+02  0.25185308036E+02  0.00000000000E+00 0. -1.
</event>
<event>
 7    1  0.6684706E-006  0.1107864E+03  0.7561462E-02  0.1259120E+00
         -2   -1    0    0    0  501 -0.00000000000E+00  0.00000000000E+00  0.27959602616E+02  0.27959602616E+02  0.00000000000E+00 0.  1.
          2   -1    0    0  501    0  0.00000000000E+00 -0.00000000000E+00 -0.49040327531E+03  0.49040327531E+03  0.00000000000E+00 0. -1.
         23    2    1    2    0    0 -0.13035980790E+02  0.37050436453E+02 -0.12762178880E+03  0.15878786281E+03  0.85927834617E+02 0.  0.
          5    1    1    2  502    0  0.96434157098E-01  0.45639949623E+02 -0.14519268171E+03  0.15225439739E+03  0.41800000000E+01 0.  1.
         -5    1    1    2    0  502  0.12939546633E+02 -0.82690386076E+02 -0.18962920218E+03  0.20732061773E+03  0.41800000000E+01 0.  1.
        -11    1    3    3    0    0 -0.24863873969E+01  0.63456601095E+02 -0.10383369091E+03  0.12171424613E+03  0.00000000000E+00 0.  1.
         11    1    3    3    0    0 -0.10549593394E+02 -0.26406164642E+02 -0.23788097897E+02  0.37073616675E+02  0.00000000000E+00 0. -1.
</event>
<event>
 7    1  0.6684706E-006  0.1664799E+03  0.7561462E-02  0.1181569E+00
         -2   -1    0    0    0  501 -0.00000000000E+00  0.00000000000E+00  0.40054233661E+02  0.40054233661E+02  0.00000000000E+00 0.  1.
          2   -1    0    0  501    0  0.00000000000E+00 -0.00000000000E+00 -0.12072524747E+04  0.12072524747E+04  0.00000000000E+00 0. -1.
         23    2    1    2    0    0 -0.22424288761E+02  0.14297735722E+03 -0.22055018643E+03  0.28152441737E+03  0.98327205991E+02 0.  0.
          5    1    1    2  502    0  0.45072058433E+02 -0.56884668383E+02 -0.18236307597E+03  0.19631892376E+03  0.41800000000E+01 0. -1.
         -5    1    1    2    0  502 -0.22647769672E+02 -0.86092688832E+02 -0.76428497865E+03  0.76946336724E+03  0.41800000000E+01 0. -1.
        -11    1    3    3    0    0 -0.54013811992E+02  0.12143946394E+03 -0.19325607904E+03  0.23454839026E+03  0.00000000000E+00 0.  1.
         11    1    3    3    0    0  0.31589523232E+02  0.21537893275E+02 -0.27294107394E+02  0.46976027111E+02  0.00000000000E+00 0. -1.
</event>
<event>
 7    1  0.6684706E-006  0.1239130E+03  0.7561462E-02  0.1236778E+00
         -1   -1    0    0    0  501 -0.00000000000E+00  0.00000000000E+00  0.16517660046E+02  0.16517660046E+02  0.00000000000E+00 0.  1.
          1   -1    0    0  501    0  0.00000000000E+00 -0.00000000000E+00 -0.14406123160E+04  0.14406123160E+04  0.00000000000E+00 0. -1.
         23    2    1    2    0    0 -0.10866418133E+03 -0.10250521213E+02 -0.66181229439E+03  0.67697912180E+03  0.91609174549E+02 0.  0.
          5    1    1    2  502    0  0.72508844175E+02 -0.14880186104E+02 -0.69913373350E+03  0.70305362678E+03  0.41800000000E+01 0. -1.
         -5    1    1    2    0  502  0.36155337154E+02  0.25130707316E+02 -0.63148628055E+02  0.77097227448E+02  0.41800000000E+01 0. -1.
        -11    1    3    3    0    0 -0.11371166525E+03  0.45689030383E+01 -0.64051700826E+03  0.65054842676E+03  0.00000000000E+00 0. -1.
         11    1    3    3    0    0  0.50474839207E+01 -0.14819424251E+02 -0.21295286126E+02  0.26430695039E+02  0.00000000000E+00 0.  1.
</event>
<event>
 7    1  0.9336460E-006  0.5125962E+03  0.7561462E-02  0.1010542E+00
          1   -1    0    0  501    0  0.00000000000E+00  0.00000000000E+00  0.54970131948E+03  0.54970131948E+03  0.00000000000E+00 0. -1.
         -1   -1    0    0    0  501 -0.00000000000E+00 -0.00000000000E+00 -0.49154273822E+03  0.49154273822E+03  0.00000000000E+00 0.  1.
         23    2    1    2    0    0  0.50821169460E+01 -0.50818524511E+03  0.30976757670E+02  0.51715835067E+03  0.90637348234E+02 0.  0.
          5    1    1    2  502    0  0.24662508766E+02  0.90601390594E+02  0.46730209036E+02  0.10496683358E+03  0.41800000000E+01 0. -1.
         -5    1    1    2    0  502 -0.29744625712E+02  0.41758385451E+03 -0.19548385446E+02  0.41911887345E+03  0.41800000000E+01 0. -1.
        -11    1    3    3    0    0  0.18608144846E+02 -0.39557300331E+02 -0.14686855595E+02  0.46116665007E+02  0.00000000000E+00 0.  1.
         11    1    3    3    0    0 -0.13526027900E+02 -0.46862794478E+03  0.45663613265E+02  0.47104168566E+03  0.00000000000E+00 0. -1.
</event>
<event>
 7    1  0.6684706E-006  0.9711066E+02  0.7561462E-02  0.1286492E+00
          1   -1    0    0  501    0  0.00000000000E+00  0.00000000000E+00  0.58520683582E+02  0.58520683582E+02  0.00000000000E+00 0. -1.
         -1   -1    0    0    0  501 -0.00000000000E+00 -0.00000000000E+00 -0.23328094554E+03  0.23328094554E+03  0.00000000000E+00 0.  1.
         23    2    1    2    0    0  0.15503359252E+02  0.33734107591E+02 -0.10396040420E+03  0.14331911456E+03  0.91401634526E+02 0.  0.
          5    1    1    2  502    0 -0.66439300409E+02 -0.97709269046E+01 -0.14640980536E+02  0.68858422597E+02  0.41800000000E+01 0.  1.
         -5    1    1    2    0  502  0.50935941157E+02 -0.23963180686E+02 -0.56158877215E+02  0.79624091959E+02  0.41800000000E+01 0.  1.
        -11    1    3    3    0    0  0.67681601811E+01  0.50837603078E+02 -0.11146675532E+03  0.12269925599E+03  0.00000000000E+00 0.  1.
         11    1    3    3    0    0  0.87351990705E+01 -0.17103495487E+02  0.75063511135E+01  0.20619858576E+02  0.00000000000E+00 0. -1.
</event>
<event>
 7    1  0.6684706E-006  0.1181851E+03  0.7561462E-02  0.1246121E+00
         -1   -1    0    0    0  501 -0.00000000000E+00  0.00000000000E+00  0.54877804772E+02  0.54877804772E+02  0.00000000000E+00 0.  1.
          1   -1    0    0  501    0  0.00000000000E+00 -0.00000000000E+00 -0.29652770101E+03  0.29652770101E+03  0.00000000000E+00 0. -1.
         23    2    1    2    0    0 -0.13183230729E+02  0.62831854201E+02 -0.12207205952E+03  0.16682803314E+03  0.93852892620E+02 0.  0.
          5    1    1    2  502    0  0.52028339362E+02 -0.79493789822E+02 -0.64001999899E+02  0.11462957344E+03  0.41800000000E+01 0.  1.
         -5    1    1    2    0  502 -0.38845108633E+02  0.16661935621E+02 -0.55575836824E+02  0.69947899197E+02  0.41800000000E+01 0.  1.
        -11    1    3    3    0    0 -0.36914370607E+02  0.62481214376E+01 -0.90251670472E+02  0.97709128549E+02  0.00000000000E+00 0. -1.
         11    1    3    3    0    0  0.23731139878E+02  0.56583732763E+02 -0.31820389044E+02  0.69118904594E+02  0.00000000000E+00 0.  1.
</event>
<event>
 7    1  0.6684706E-006  0.1400666E+03  0.7561462E-02  0.1213239E+00
          2   -1    0    0  501    0  0.00000000000E+00  0.00000000000E+00  0.14615640582E+02  0.14615640582E+02  0.00000000000E+00 0. -1.
         -2   -1    0    0    0  501 -0.00000000000E+00 -0.00000000000E+00 -0.14280206752E+04  0.14280206752E+04  0.00000000000E+00 0.  1.
         23    2    1    2    0    0 -0.72472822707E+02 -0.59182885805E+02 -0.54940089395E+03  0.56462400386E+03  0.90575931978E+02 0.  0.
          5    1    1    2  502    0  0.78635479124E+02  0.91196508357E+02 -0.73905305873E+03  0.74881054862E+03  0.41800000000E+01 0.  1.
         -5    1    1    2    0  502 -0.61626564176E+01 -0.32013622553E+02 -0.12495108195E+03  0.12920176332E+03  0.41800000000E+01 0.  1.
        -11    1    3    3    0    0 -0.25565513150E+02 -0.73428837606E+02 -0.27072143835E+03  0.28166555848E+03  0.00000000000E+00 0. -1.
         11    1    3    3    0    0 -0.46907309557E+02  0.14245951801E+02 -0.27867945560E+03  0.28295844537E+03  0.00000000000E+00 0.  1.
</event>
<event>
 7    1  0.6684706E-006  0.1071447E+03  0.7561462E-02  0.1265951E+00
         -1   -1    0    0    0  501 -0.00000000000E+00  0.00000000000E+00  0.10156951921E+03  0.10156951921E+03  0.00000000000E+00 0.  1.
          1   -1    0    0  501    0  0.00000000000E+00 -0.00000000000E+00 -0.14192223442E+03  0.14192223442E+03  0.00000000000E+00 0. -1.
         23    2    1    2    0    0 -0.15723119967E+01 -0.53985774002E+02 -0.66180570560E+01  0.10312225273E+03  0.87598312595E+02 0.  0.
          5    1    1    2  502    0 -0.17627807873E+02  0.82165815516E+02  0.10026141779E+02  0.84734625560E+02  0.41800000000E+01 0. -1.
         -5    1    1    2    0  502  0.19200119870E+02 -0.28180041514E+02 -0.43760799936E+02  0.55634875337E+02  0.41800000000E+01 0. -1.
        -11    1    3    3    0    0  0.22611561066E+02 -0.65294053860E+02  0.12586319612E+02  0.70235401363E+02  0.00000000000E+00 0.  1.
         11    1    3    3    0    0 -0.24183873063E+02  0.11308279858E+02 -0.19204376668E+02  0.32886851367E+02  0.00000000000E+00 0. -1.
</event>
<event>
 7    1  0.6684706E-006  0.8009543E+02  0.7561462E-02  0.1328781E+00
          1   -1    0    0  501    0  0.00000000000E+00  0.00000000000E+00  0.74202943258E+03  0.74202943258E+03  0.00000000000E+00 0. -1.
         -1   -1    0    0    0  501 -0.00000000000E+00 -0.00000000000E+00 -0.17895278346E+02  0.17895278346E+02  0.00000000000E+00 0.  1.
         23    2    1    2    0    0 -0.33532565108E+02 -0.16638902236E+02  0.27234881170E+03  0.28965000597E+03  0.91224803292E+02 0.  0.
          5    1    1    2  502    0 -0.17555904285E+02  0.33393694878E+02  0.37225125145E+03  0.37418152712E+03  0.41800000000E+01 0. -1.
         -5    1    1    2    0  502  0.51088469393E+02 -0.16754792642E+02  0.79534091094E+02  0.96093177841E+02  0.41800000000E+01 0. -1.
        -11    1    3    3    0    0 -0.49889719332E+02 -0.12613670401E+02  0.26709139019E+03  0.27200349168E+03  0.00000000000E+00 0. -1.
         11    1    3    3    0    0  0.16357154224E+02 -0.40252318352E+01  0.52574215142E+01  0.17646514291E+02  0.00000000000E+00 0.  1.
</event>
<event>
 7    1  0.6684706E-006  0.1290504E+03  0.7561462E-02  0.1228872E+00
          1   -1    0    0  501    0  0.00000000000E+00  0.00000000000E+00  0.18080946530E+03  0.18080946530E+03  0.00000000000E+00 0. -1.
         -1   -1    0    0    0  501 -0.00000000000E+00 -0.00000000000E+00 -0.10494639092E+03  0.10494639092E+03  0.00000000000E+00 0.  1.
         23    2    1    2    0    0 -0.66263766565E+02  0.51941361879E+02  0.32478242581E+02  0.12885792446E+03  0.91982262545E+02 0.  0.
          5    1    1    2  502    0  0.17665241063E+02  0.37416974400E+02  0.35690156845E+02  0.54802832141E+02  0.41800000000E+01 0.  1.
         -5    1    1    2    0  502  0.48598525502E+02 -0.89358336280E+02  0.76946749498E+01  0.10209509962E+03  0.41800000000E+01 0.  1.
        -11    1    3    3    0    0 -0.60666686226E+02 -0.17831064765E+01 -0.81923051128E+01  0.61243286566E+02  0.00000000000E+00 0.  1.
         11    1    3    3    0    0 -0.55970803394E+01  0.53724468356E+02  0.40670547694E+02  0.67614637899E+02  0.00000000000E+00 0. -1.
</event>
<event>
 7    1  0.6684706E-006  0.7412125E+02  0.7561462E-02  0.1346614E+00
          4   -1    0    0  501    0  0.00000000000E+00  0.00000000000E+00  0.36232612797E+03  0.36232612797E+03  0.00000000000E+00 0. -1.
         -4   -1    0    0    0  501 -0.00000000000E+00 -0.00000000000E+00 -0.39578650602E+02  0.39578650602E+02  0.00000000000E+00 0.  1.
         23    2    1    2    0    0 -0.30151477079E+01 -0.37235354314E+02  0.80256556413E+02  0.12650475378E+03  0.90370211655E+02 0.  0.
          5    1    1    2  502    0  0.16692941284E+02  0.39976843582E+02  0.12965962645E+02  0.45413554131E+02  0.41800000000E+01 0.  1.
         -5    1    1    2    0  502 -0.13677793577E+02 -0.27414892683E+01  0.22952495831E+03  0.22998647066E+03  0.41800000000E+01 0.  1.
        -11    1    3    3    0    0  0.39542046135E+02 -0.18596093577E+02  0.14596897811E+02  0.46070137123E+02  0.00000000000E+00 0.  1.
         11    1    3    3    0    0 -0.42557193843E+02 -0.18639260737E+02  0.65659658603E+02  0.80434616655E+02  0.00000000000E+00 0. -1.
</event>
<event>
 7    1  0.6684706E-006  0.1192231E+03  0.7561462E-02  0.1244384E+00
          3   -1    0    0  501    0  0.00000000000E+00  0.00000000000E+00  0.35861994065E+03  0.35861994065E+03  0.00000000000E+00 0. -1.
         -3   -1    0    0    0  501 -0.00000000000E+00 -0.00000000000E+00 -0.45312397242E+02  0.45312397242E+02  0.00000000000E+00 0.  1.
         23    2    1    2    0    0 -0.59792137754E+02 -0.23769319393E+02  0.14371648226E+03  0.18359388426E+03  0.94404484976E+02 0.  0.
          5    1    1    2  502    0 -0.13342195545E+02 -0.38364540051E+02  0.75735635132E+02  0.86041913880E+02  0.41800000000E+01 0.  1.
         -5    1    1    2    0  502  0.73134333299E+02  0.62133859444E+02  0.93855426019E+02  0.13429653975E+03  0.41800000000E+01 0.  1.
        -11    1    3    3    0    0 -0.67237518649E+02  0.91044783262E+01  0.50824361796E+02  0.84775534157E+02  0.00000000000E+00 0.  1.
         11    1    3    3    0    0  0.74453808948E+01 -0.32873797720E+02  0.92892120461E+02  0.98818350103E+02  0.00000000000E+00 0. -1.
</event>
<event>
 7    1  0.6684706E-006  0.7548783E+02  0.7561462E-02  0.1342367E+00
         -2   -1    0    0    0  501 -0.00000000000E+00  0.00000000000E+00  0.20556829432E+03  0.20556829432E+03  0.00000000000E+00 0.  1.
          2   -1    0    0  501    0  0.00000000000E+00 -0.00000000000E+00 -0.65290872353E+02  0.65290872353E+02  0.00000000000E+00 0. -1.
         23    2    1    2    0    0 -0.38904162554E+02 -0.46891331610E+01  0.67167310707E+02  0.12076356880E+03  0.92395184330E+02 0.  0.
          5    1    1    2  502    0  0.66457226519E+02  0.29280923000E+02  0.55083877123E+01  0.72950326549E+02  0.41800000000E+01 0.  1.
         -5    1    1    2    0  502 -0.27553063965E+02 -0.24591789839E+02  0.67601723543E+02  0.77145271322E+02  0.41800000000E+01 0.  1.
        -11    1    3    3    0    0 -0.24246732089E+02  0.31397939167E+01  0.89583453284E+02  0.92859880600E+02  0.00000000000E+00 0.  1.
         11    1    3    3    0    0 -0.14657430465E+02 -0.78289270777E+01 -0.22416142577E+02  0.27903688198E+02  0.00000000000E+00 0. -1.
</event>
<event>
 7    1  0.6684706E-006  0.6896735E+02  0.7561462E-02  0.1363640E+00
         -2   -1    0    0    0  501 -0.00000000000E+00  0.00000000000E+00  0.22143630590E+03  0.22143630590E+03  0.00000000000E+00 0.  1.
          2   -1    0    0  501    0  0.00000000000E+00 -0.00000000000E+00 -0.65283305062E+02  0.65283305062E+02  0.00000000000E+00 0. -1.
         23    2    1    2    0    0  0.52742515626E+02 -0.15736581352E+02  0.77063393489E+02  0.12881121932E+03  0.87316382545E+02 0.  0.
          5    1    1    2  502    0 -0.45399704005E+02  0.13444722783E+02  0.11315655247E+03  0.12273455692E+03  0.41800000000E+01 0. -1.
         -5    1    1    2    0  502 -0.73428116216E+01  0.22918585684E+01 -0.34066945128E+02  0.35173834715E+02  0.41800000000E+01 0. -1.
        -11    1    3    3    0    0  0.49281036061E+02 -0.36038558281E+02  0.86727487708E+02  0.10606156383E+03  0.00000000000E+00 0.  1.
         11    1    3    3    0    0  0.34614795648E+01  0.20301976929E+02 -0.96640942187E+01  0.22749655494E+02  0.00000000000E+00 0. -1.
</event>
<event>
 7    1  0.6684706E-006  0.1381268E+03  0.7561462E-02  0.1215872E+00
          1   -1    0    0  501    0  0.00000000000E+00  0.00000000000E+00  0.70262770498E+03  0.70262770498E+03  0.00000000000E+00 0. -1.
         -1   -1    0    0    0  501 -0.00000000000E+00 -0.00000000000E+00 -0.37756481338E+02  0.37756481338E+02  0.00000000000E+00 0.  1.
         23    2    1    2    0    0  0.56301697019E+02 -0.80708063163E+02  0.15682544778E+03  0.20799185373E+03  0.94777199786E+02 0.  0.
          5    1    1    2  502    0 -0.21141390105E+02 -0.23836694308E+02  0.38995780964E+02  0.50530087117E+02  0.41800000000E+01 0.  1.
         -5    1    1    2    0  502 -0.35160306915E+02  0.10454475747E+03  0.46904999490E+03  0.48186224548E+03  0.41800000000E+01 0.  1.
        -11    1    3    3    0    0  0.43086364953E+01 -0.81626265374E+02  0.74375244243E+02  0.11051284316E+03  0.00000000000E+00 0.  1.
         11    1    3    3    0    0  0.51993060524E+02  0.91820221061E+00  0.82450203536E+02  0.97479010566E+02  0.00000000000E+00 0. -1.
</event>
<event>
 7    1  0.6684706E-006  0.1129195E+03  0.7561462E-02  0.1255257E+00
          1   -1    0    0  501    0  0.00000000000E+00  0.00000000000E+00  0.18564201547E+03  0.18564201547E+03  0.00000000000E+00 0. -1.
         -1   -1    0    0    0  501 -0.00000000000E+00 -0.00000000000E+00 -0.99704657022E+02  0.99704657022E+02  0.00000000000E+00 0.  1.
         23    2    1    2    0    0  0.27947544718E+02  0.42339619617E+02 -0.28288240200E+02  0.10852813812E+03  0.91675643353E+02 0.  0.
          5    1    1    2  502    0 -0.76694520778E+02 -0.27068327457E+02  0.85438778097E+02  0.11803389798E+03  0.41800000000E+01 0.  1.
         -5    1    1    2    0  502  0.48746976059E+02 -0.15271292160E+02  0.28786820551E+02  0.58784636400E+02  0.41800000000E+01 0.  1.
        -11    1    3    3    0    0 -0.25031631424E+02  0.29395459227E+02 -0.36791246941E+02  0.53331711452E+02  0.00000000000E+00 0. -1.
         11    1    3    3    0    0  0.52979176142E+02  0.12944160390E+02  0.85030067405E+01  0.55196426665E+02  0.00000000000E+00 0.  1.
</event>
<event>
 7    1  0.6684706E-006  0.3351492E+03  0.7561462E-02  0.1068881E+00
         -2   -1    0    0    0  501 -0.00000000000E+00  0.00000000000E+00  0.19974623832E+03  0.19974623832E+03  0.00000000000E+00 0.  1.
          2   -1    0    0  501    0  0.00000000000E+00 -0.00000000000E+00 -0.14702002836E+04  0.14702002836E+04  0.00000000000E+00 0. -1.
         23    2    1    2    0    0  0.23626774734E+03 -0.21631278349E+03  0.20830539936E+02  0.33365428135E+03  0.90981313107E+02 0.  0.
          5    1    1    2  502    0 -0.13505351745E+03  0.19714942474E+03 -0.96195317920E+03  0.99120065558E+03  0.41800000000E+01 0.  1.
         -5    1    1    2    0  502 -0.10121422988E+03  0.19163358744E+02 -0.32933140597E+03  0.34509158495E+03  0.41800000000E+01 0.  1.
        -11    1    3    3    0    0  0.15827505739E+03 -0.96947020806E+02  0.39757261885E+02  0.18981664445E+03  0.00000000000E+00 0. -1.
         11    1    3    3    0    0  0.77992689942E+02 -0.11936576268E+03 -0.18926721949E+02  0.14383763690E+03  0.00000000000E+00 0.  1.
</event>
<event>
 7    1  0.6684706E-006  0.1389634E+03  0.7561462E-02  0.1214731E+00
          2   -1    0    0  501    0  0.00000000000E+00  0.00000000000E+00  0.61020647728E+03  0.61020647728E+03  0.00000000000E+00 0. -1.
         -2   -1    0    0    0  501 -0.00000000000E+00 -0.00000000000E+00 -0.47545980781E+02  0.47545980781E+02  0.00000000000E+00 0.  1.
         23    2    1    2    0    0  0.77230415928E+02  0.54139841758E+02  0.88973508371E+02  0.15883096065E+03  0.91735103753E+02 0.  0.
          5    1    1    2  502    0 -0.82116692746E+02 -0.88677131245E+02  0.38432959387E+03  0.40290630915E+03  0.41800000000E+01 0.  1.
         -5    1    1    2    0  502  0.48862768180E+01  0.34537289487E+02  0.89357394255E+02  0.96015188248E+02  0.41800000000E+01 0.  1.
        -11    1    3    3    0    0  0.12107483844E+01  0.45319434849E+02  0.56347611378E+01  0.45684435202E+02  0.00000000000E+00 0.  1.
         11    1    3    3    0    0  0.76019667543E+02  0.88204069087E+01  0.83338747233E+02  0.11314652545E+03  0.00000000000E+00 0. -1.
</event>
<event>
 7    1  0.6684706E-006  0.6424511E+02  0.7561462E-02  0.1380834E+00
         -1   -1    0    0    0  501 -0.00000000000E+00  0.00000000000E+00  0.37284301660E+02  0.37284301660E+02  0.00000000000E+00 0.  1.
          1   -1    0    0  501    0  0.00000000000E+00 -0.00000000000E+00 -0.32363321361E+03  0.32363321361E+03  0.00000000000E+00 0. -1.
         23    2    1    2    0    0  0.15607182561E+02  0.11223910296E+02 -0.97490910142E+02  0.13357592235E+03  0.89266394364E+02 0.  0.
          5    1    1    2  502    0 -0.35777172855E+02  0.14040144969E+02 -0.31431464309E+01  0.38787672497E+02  0.41800000000E+01 0. -1.
         -5    1    1    2    0  502  0.20169990294E+02 -0.25264055265E+02 -0.18571485537E+03  0.18855392041E+03  0.41800000000E+01 0. -1.
        -11    1    3    3    0    0  0.29046087471E+02  0.24753719978E+02 -0.10602455048E+03  0.11268374840E+03  0.00000000000E+00 0. -1.
         11    1    3    3    0    0 -0.13438904910E+02 -0.13529809682E+02  0.85336403334E+01  0.20892173954E+02  0.00000000000E+00 0.  1.
</event>
<event>
 7    1  0.6684706E-006  0.1169142E+03  0.7561462E-02  0.1248276E+00
          1   -1    0    0  501    0  0.00000000000E+00  0.00000000000E+00  0.20886616573E+03  0.20886616573E+03  0.00000000000E+00 0. -1.
         -1   -1    0    0    0  501 -0.00000000000E+00 -0.00000000000E+00 -0.10598412813E+03  0.10598412813E+03  0.00000000000E+00 0.  1.
         23    2    1    2    0    0 -0.72059754525E+02  0.26237654243E+02 -0.24362373912E+02  0.12063200632E+03  0.89875096467E+02 0.  0.
          5    1    1    2  502    0 -0.35157594349E+02 -0.14711213071E+02  0.26687041044E+02  0.46713454059E+02  0.41800000000E+01 0. -1.
         -5    1    1    2    0  502  0.10721734887E+03 -0.11526441172E+02  0.10055737046E+03  0.14750483348E+03  0.41800000000E+01 0. -1.
        -11    1    3    3    0    0 -0.46169749690E+02  0.37362286606E+02  0.24482571348E+02  0.64241595144E+02  0.00000000000E+00 0.  1.
         11    1    3    3    0    0 -0.25890004836E+02 -0.11124632363E+02 -0.48844945261E+02  0.56390411181E+02  0.00000000000E+00 0. -1.
</event>
<event>
 7    1  0.6684706E-006  0.1206978E+03  0.7561462E-02  0.1241950E+00
         -2   -1    0    0    0  501 -0.00000000000E+00  0.00000000000E+00  0.43332146807E+02  0.43332146807E+02  0.00000000000E+00 0.  1.
          2   -1    0    0  501    0  0.00000000000E+00 -0.00000000000E+00 -0.40614188385E+03  0.40614188385E+03  0.00000000000E+00 0. -1.
         23    2    1    2    0    0 -0.43537197862E+02  0.51196275395E+02 -0.22174579611E+03  0.24932287297E+03  0.92055150214E+02 0.  0.
          5    1    1    2  502    0  0.40183322020E+02 -0.86148161870E+02 -0.13358583738E+03  0.16400869950E+03  0.41800000000E+01 0.  1.
         -5    1    1    2    0  502  0.33538758421E+01  0.34951886475E+02 -0.74781035511E+01  0.36142458190E+02  0.41800000000E+01 0.  1.
        -11    1    3    3    0    0 -0.32765247098E+02 -0.20324502511E+02 -0.10645942177E+03  0.11322656625E+03  0.00000000000E+00 0.  1.
         11    1    3    3    0    0 -0.10771950764E+02  0.71520777906E+02 -0.11528637434E+03  0.13609630672E+03  0.00000000000E+00 0. -1.
</event>
<event>
 7    1  0.6684706E-006  0.2253458E+03  0.7561462E-02  0.1129959E+00
          3   -1    0    0  501    0  0.00000000000E+00  0.00000000000E+00  0.22470661495E+03  0.22470661495E+03  0.00000000000E+00 0. -1.
         -3   -1    0    0    0  501 -0.00000000000E+00 -0.00000000000E+00 -0.25336680410E+03  0.25336680410E+03  0.00000000000E+00 0.  1.
         23    2    1    2    0    0 -0.45410594947E+02 -0.20449695237E+03 -0.65077906610E+02  0.23838224839E+03  0.93326506183E+02 0.  0.
          5    1    1    2  502    0  0.10014965398E+02  0.18806659717E+03  0.34109714906E+01  0.18841032782E+03  0.41800000000E+01 0. -1.
         -5    1    1    2    0  502  0.35395629549E+02  0.16430355202E+02  0.33006745974E+02  0.51280842846E+02  0.41800000000E+01 0.  1.
        -11    1    3    3    0    0 -0.23060219454E+02 -0.19862206834E+03 -0.39335564757E+02  0.20378858262E+03  0.00000000000E+00 0.  1.
         11    1    3    3    0    0 -0.22350375493E+02 -0.58748840299E+01 -0.25742341854E+02  0.34593665766E+02  0.00000000000E+00 0. -1.
</event>
<event>
 7    1  0.6684706E-006  0.2328421E+03  0.7561462E-02  0.1124655E+00
         -2   -1    0    0    0  501 -0.00000000000E+00  0.00000000000E+00  0.12339514173E+04  0.12339514173E+04  0.00000000000E+00 0.  1.
          2   -1    0    0  501    0  0.00000000000E+00 -0.00000000000E+00 -0.53950977156E+02  0.53950977156E+02  0.00000000000E+00 0. -1.
         23    2    1    2    0    0 -0.84357581600E+02  0.21562268423E+03  0.64863108291E+03  0.69493452580E+03  0.92748961739E+02 0.  0.
          5    1    1    2  502    0  0.52280010954E+02 -0.87846911714E+02  0.10464157210E+03  0.14634756730E+03  0.41800000000E+01 0. -1.
         -5    1    1    2    0  502  0.32077570646E+02 -0.12777577252E+03  0.42672778518E+03  0.44662030140E+03  0.41800000000E+01 0. -1.
        -11    1    3    3    0    0 -0.26117647711E+02  0.62247883024E+02  0.88714441835E+02  0.11147727416E+03  0.00000000000E+00 0. -1.
         11    1    3    3    0    0 -0.58239933889E+02  0.15337480121E+03  0.55991664107E+03  0.58345725164E+03  0.00000000000E+00 0.  1.
</event>
<event>
 7    1  0.6684706E-006  0.9462960E+02  0.7561462E-02  0.1292013E+00
         -2   -1    0    0    0  501 -0.00000000000E+00  0.00000000000E+00  0.24361500206E+03  0.24361500206E+03  0.00000000000E+00 0.  1.
          2   -1    0    0  501    0  0.00000000000E+00 -0.00000000000E+00 -0.81718851922E+02  0.81718851922E+02  0.00000000000E+00 0. -1.
         23    2    1    2    0    0  0.58703965462E+02 -0.65797059581E+02  0.72460398683E+02  0.14807875749E+03  0.94347233304E+02 0.  0.
          5    1    1    2  502    0  0.11791167508E+01  0.31480863630E+02 -0.27090022165E+02  0.41758553520E+02  0.41800000000E+01 0.  1.
         -5    1    1    2    0  502 -0.59883082212E+02  0.34316195951E+02  0.11652577362E+03  0.13549654298E+03  0.41800000000E+01 0.  1.
        -11    1    3    3    0    0  0.43452001474E+02 -0.52036993062E+02  0.95561103235E+02  0.11716590601E+03  0.00000000000E+00 0.  1.
         11    1    3    3    0    0  0.15251963988E+02 -0.13760066519E+02 -0.23100704551E+02  0.30912851483E+02  0.00000000000E+00 0. -1.
</event>
<event>
 7    1  0.6684706E-006  0.1303704E+03  0.7561462E-02  0.1226907E+00
         -1   -1    0    0    0  501 -0.00000000000E+00  0.00000000000E+00  0.14660518242E+02  0.14660518242E+02  0.00000000000E+00 0.  1.
          1   -1    0    0  501    0  0.00000000000E+00 -0.00000000000E+00 -0.12721103125E+04  0.12721103125E+04  0.00000000000E+00 0. -1.
         23    2    1    2    0    0 -0.27541077728E+02  0.72019371621E+02 -0.67869916583E+03  0.68965722590E+03  0.95127444410E+02 0.  0.
          5    1    1    2  502    0 -0.41141492966E+02 -0.54313872352E+02 -0.37909586537E+03  0.38519315507E+03  0.41800000000E+01 0. -1.
         -5    1    1    2    0  502  0.68682570695E+02 -0.17705499269E+02 -0.19965476308E+03  0.21192044980E+03  0.41800000000E+01 0. -1.
        -11    1    3    3    0    0  0.29902388671E+01 -0.22190629536E+02 -0.93972031466E+02  0.96602837772E+02  0.00000000000E+00 0.  1.
         11    1    3    3    0    0 -0.30531316596E+02  0.94210001157E+02 -0.58472713437E+03  0.59305438813E+03  0.00000000000E+00 0. -1.
</event>
<event>
 7    1  0.6684706E-006  0.1133205E+03  0.7561462E-02  0.1254542E+00
         -1   -1    0    0    0  501 -0.00000000000E+00  0.00000000000E+00  0.14522250586E+03  0.14522250586E+03  0.00000000000E+00 0.  1.
          1   -1    0    0  501    0  0.00000000000E+00 -0.00000000000E+00 -0.15068103546E+03  0.15068103546E+03  0.00000000000E+00 0. -1.
         23    2    1    2    0    0  0.16298848581E+02  0.41227920395E+02  0.87167863805E+02  0.13406243202E+03  0.91701173997E+02 0.  0.
          5    1    1    2  502    0 -0.62945609461E+02  0.42868699584E+01 -0.65750670671E+02  0.91220338183E+02  0.41800000000E+01 0.  1.
         -5    1    1    2    0  502  0.46646760880E+02 -0.45514790353E+02 -0.26875722734E+02  0.70620771123E+02  0.41800000000E+01 0.  1.
        -11    1    3    3    0    0 -0.31986505601E+02 -0.36372570787E+01  0.12679910885E+02  0.34599802307E+02  0.00000000000E+00 0. -1.
         11    1    3    3    0    0  0.48285354182E+02  0.44865177474E+02  0.74487952920E+02  0.99462629708E+02  0.00000000000E+00 0.  1.
</event>
<event>
 7    1  0.6684706E-006  0.1525374E+03  0.7561462E-02  0.1197389E+00
          1   -1    0    0  501    0  0.00000000000E+00  0.00000000000E+00  0.10013398597E+03  0.10013398597E+03  0.00000000000E+00 0. -1.
         -1   -1    0    0    0  501 -0.00000000000E+00 -0.00000000000E+00 -0.26258411966E+03  0.26258411966E+03  0.00000000000E+00 0.  1.
         23    2    1    2    0    0  0.91638286925E+02 -0.70728680639E+02 -0.11261350046E+03  0.18514639374E+03  0.90538747130E+02 0.  0.
          5    1    1    2  502    0  0.28687754619E+02 -0.24837838045E+01 -0.13351721515E+02  0.32014017468E+02  0.41800000000E+01 0.  1.
         -5    1    1    2    0  502 -0.12032604154E+03  0.73212464444E+02 -0.36484911712E+02  0.14555769442E+03  0.41800000000E+01 0.  1.
        -11    1    3    3    0    0 -0.50278392602E+01 -0.29584850569E+02 -0.61246382792E+02  0.68203093448E+02  0.00000000000E+00 0. -1.
         11    1    3    3    0    0  0.96666126186E+02 -0.41143830070E+02 -0.51367117669E+02  0.11694330029E+03  0.00000000000E+00 0.  1.
</event>
<event>
 7    1  0.6684706E-006  0.2406104E+03  0.7561462E-02  0.1119387E+00
          3   -1    0    0  501    0  0.00000000000E+00  0.00000000000E+00  0.14271785857E+03  0.14271785857E+03  0.00000000000E+00 0. -1.
         -3   -1    0    0    0  501 -0.00000000000E+00 -0.00000000000E+00 -0.56358629140E+03  0.56358629140E+03  0.00000000000E+00 0.  1.
         23    2    1    2    0    0 -0.60903524543E+02 -0.22013990710E+03 -0.35989372037E+03  0.43585233989E+03  0.90955781707E+02 0.  0.
          5    1    1    2  502    0  0.70964785651E+02  0.92899578969E+02  0.20793213467E+02  0.11881145863E+03  0.41800000000E+01 0. -1.
         -5    1    1    2    0  502 -0.10061261108E+02  0.12724032813E+03 -0.81767925934E+02  0.15164035146E+03  0.41800000000E+01 0.  1.
        -11    1    3    3    0    0 -0.38315074050E+02 -0.41530706072E+02 -0.14433716340E+03  0.15500342314E+03  0.00000000000E+00 0. -1.
         11    1    3    3    0    0 -0.22588450494E+02 -0.17860920103E+03 -0.21555655697E+03  0.28084891675E+03  0.00000000000E+00 0.  1.
</event>
<event>
 7    1  0.6684706E-006  0.1223873E+03  0.7561462E-02  0.1239210E+00
         -2   -1    0    0    0  501 -0.00000000000E+00  0.00000000000E+00  0.83709161721E+02  0.83709161721E+02  0.00000000000E+00 0.  1.
          2   -1    0    0  501    0  0.00000000000E+00 -0.00000000000E+00 -0.20656461992E+03  0.20656461992E+03  0.00000000000E+00 0. -1.
         23    2    1    2    0    0  0.14645997522E+02 -0.55795732239E+02 -0.44577424311E+01  0.10860233355E+03  0.91907161883E+02 0.  0.
          5    1    1    2  502    0 -0.65370475300E+02  0.56026349285E+02 -0.83118492316E+02  0.11974308757E+03  0.41800000000E+01 0.  1.
         -5    1    1    2    0  502  0.50724477779E+02 -0.23061704650E+00 -0.35279223456E+02  0.61928360529E+02  0.41800000000E+01 0.  1.
        -11    1    3    3    0    0  0.53233216057E+02 -0.28190605422E+02 -0.91423443106E+01  0.60926742776E+02  0.00000000000E+00 0. -1.
         11    1    3    3    0    0 -0.38587218535E+02 -0.27605126816E+02  0.46846018796E+01  0.47675590773E+02  0.00000000000E+00 0.  1.
</event>
<event>
 7    1  0.6684706E-006  0.8560365E+02  0.7561462E-02  0.1313861E+00
         -2   -1    0    0    0  501 -0.00000000000E+00  0.00000000000E+00  0.27827565850E+02  0.27827565850E+02  0.00000000000E+00 0.  1.
          2   -1    0    0  501    0  0.00000000000E+00 -0.00000000000E+00 -0.59064044928E+03  0.59064044928E+03  0.00000000000E+00 0. -1.
         23    2    1    2    0    0 -0.40431881510E+01 -0.44665457546E+02 -0.12968312668E+03  0.16540846625E+03  0.92362854521E+02 0.  0.
          5    1    1    2  502    0  0.46508354161E+02  0.47871386769E+02 -0.12311182011E+03  0.14010242442E+03  0.41800000000E+01 0.  1.
         -5    1    1    2    0  502 -0.42465166010E+02 -0.32059292238E+01 -0.31001793664E+03  0.31295712446E+03  0.41800000000E+01 0.  1.
        -11    1    3    3    0    0  0.17531246220E+02 -0.32100301365E+02 -0.13501265716E+03  0.13987920337E+03  0.00000000000E+00 0. -1.
         11    1    3    3    0    0 -0.21574434371E+02 -0.12565156180E+02  0.53295304823E+01  0.25529262885E+02  0.00000000000E+00 0.  1.
</event>
<event>
 7    1  0.6684706E-006  0.9208503E+02  0.7561462E-02  0.1297880E+00
          1   -1    0    0  501    0  0.00000000000E+00  0.00000000000E+00  0.11967686522E+04  0.11967686522E+04  0.00000000000E+00 0. -1.
         -1   -1    0    0    0  501 -0.00000000000E+00 -0.00000000000E+00 -0.14219998638E+02  0.14219998638E+02  0.00000000000E+00 0.  1.
         23    2    1    2    0    0 -0.18496690732E+02  0.34514879782E+02  0.26540062689E+03  0.28452132499E+03  0.94770708170E+02 0.  0.
          5    1    1    2  502    0  0.16537793133E+02  0.21261087578E+02  0.45612486013E+02  0.53136651447E+02  0.41800000000E+01 0.  1.
         -5    1    1    2    0  502  0.19588975990E+01 -0.55775967360E+02  0.87153554065E+03  0.87333067439E+03  0.41800000000E+01 0.  1.
        -11    1    3    3    0    0  0.20675310203E+02  0.53543078374E+02  0.12556172441E+03  0.13805823528E+03  0.00000000000E+00 0. -1.
         11    1    3    3    0    0 -0.39172000936E+02 -0.19028198592E+02  0.13983890248E+03  0.14646308971E+03  0.00000000000E+00 0.  1.
</event>
<event>
 7    1  0.6684706E-006  0.1028774E+03  0.7561462E-02  0.1274359E+00
         -1   -1    0    0    0  501 -0.00000000000E+00  0.00000000000E+00  0.22951746082E+02  0.22951746082E+02  0.00000000000E+00 0.  1.
          1   -1    0    0  501    0  0.00000000000E+00 -0.00000000000E+00 -0.52839308637E+03  0.52839308637E+03  0.00000000000E+00 0. -1.
         23    2    1    2    0    0  0.19370983750E+02 -0.60449834550E+01 -0.19784223706E+03  0.21866495225E+03  0.90890229087E+02 0.  0.
          5    1    1    2  502    0  0.27097303432E+02 -0.44661622387E+02 -0.18231127545E+03  0.18969395859E+03  0.41800000000E+01 0. -1.
         -5    1    1    2    0  502 -0.46468287182E+02  0.50706605842E+02 -0.12528782778E+03  0.14298592161E+03  0.41800000000E+01 0. -1.
        -11    1    3    3    0    0  0.29884606890E+01 -0.43478975449E+02 -0.14762387678E+03  0.15392258183E+03  0.00000000000E+00 0. -1.
         11    1    3    3    0    0  0.16382523061E+02  0.37433991994E+02 -0.50218360282E+02  0.64742370422E+02  0.00000000000E+00 0.  1.
</event>
<event>
 7    1  0.6684706E-006  0.1619594E+03  0.7561462E-02  0.1186502E+00
         -1   -1    0    0    0  501 -0.00000000000E+00  0.00000000000E+00  0.66422090117E+02  0.66422090117E+02  0.00000000000E+00 0.  1.
          1   -1    0    0  501    0  0.00000000000E+00 -0.00000000000E+00 -0.77672189759E+03  0.77672189759E+03  0.00000000000E+00 0. -1.
         23    2    1    2    0    0 -0.11067872641E+03  0.14255303616E+02 -0.43803421657E+02  0.14514328517E+03  0.81821997779E+02 0.  0.
          5    1    1    2  502    0  0.40046538960E+02  0.66883541840E+02 -0.44419535235E+03  0.45100345553E+03  0.41800000000E+01 0. -1.
         -5    1    1    2    0  502  0.70632187454E+02 -0.81138845456E+02 -0.22230103347E+03  0.24699724700E+03  0.41800000000E+01 0.  1.
        -11    1    3    3    0    0 -0.46969919645E+02 -0.34242523407E+02 -0.14768636462E+02  0.59973630736E+02  0.00000000000E+00 0. -1.
         11    1    3    3    0    0 -0.63708806769E+02  0.48497827023E+02 -0.29034785194E+02  0.85169654438E+02  0.00000000000E+00 0.  1.
</event>
<event>
 7    1  0.6684706E-006  0.1141580E+03  0.7561462E-02  0.1253058E+00
          1   -1    0    0  501    0  0.00000000000E+00  0.00000000000E+00  0.88966825401E+03  0.88966825401E+03  0.00000000000E+00 0. -1.
         -1   -1    0    0    0  501 -0.00000000000E+00 -0.00000000000E+00 -0.15804174668E+02  0.15804174668E+02  0.00000000000E+00 0.  1.
         23    2    1    2    0    0  0.34360450420E+02  0.40841629467E+02  0.35293597461E+03  0.36708310366E+03  0.85659346057E+02 0.  0.
          5    1    1    2  502    0 -0.47778692960E+01 -0.79211519431E+02  0.22798311939E+03  0.24143543231E+03  0.41800000000E+01 0. -1.
         -5    1    1    2    0  502 -0.29582581124E+02  0.38369889963E+02  0.29294498534E+03  0.29695389271E+03  0.41800000000E+01 0. -1.
        -11    1    3    3    0    0  0.61229910896E+02  0.15219129425E+02  0.24248958184E+03  0.25056320798E+03  0.00000000000E+00 0. -1.
         11    1    3    3    0    0 -0.26869460475E+02  0.25622500043E+02  0.11044639277E+03  0.11651989569E+03  0.00000000000E+00 0.  1.
</event>
<event>
 7    1  0.6684706E-006  0.1599227E+03  0.7561462E-02  0.1188784E+00
          1   -1    0    0  501    0  0.00000000000E+00  0.00000000000E+00  0.37585061691E+03  0.37585061691E+03  0.00000000000E+00 0. -1.
         -1   -1    0    0    0  501 -0.00000000000E+00 -0.00000000000E+00 -0.81352249662E+02  0.81352249662E+02  0.00000000000E+00 0.  1.
         23    2    1    2    0    0 -0.92430781853E+02 -0.97232807091E+02  0.10538845315E+03  0.19374984620E+03  0.91840125407E+02 0.  0.
          5    1    1    2  502    0  0.11781990851E+03  0.46869402287E+02  0.13044093279E+03  0.18196313104E+03  0.41800000000E+01 0.  1.
         -5    1    1    2    0  502 -0.25389126657E+02  0.50363404804E+02  0.58668981299E+02  0.81489889327E+02  0.41800000000E+01 0.  1.
        -11    1    3    3    0    0 -0.41222629465E+02 -0.26164588661E+02  0.93327894125E+02  0.10532799581E+03  0.00000000000E+00 0. -1.
         11    1    3    3    0    0 -0.51208152388E+02 -0.71068218430E+02  0.12060559030E+02  0.88421850387E+02  0.00000000000E+00 0.  1.
</event>
<event>
 7    1  0.6684706E-006  0.1615577E+03  0.7561462E-02  0.1186949E+00
          2   -1    0    0  501    0  0.00000000000E+00  0.00000000000E+00  0.98060854301E+03  0.98060854301E+03  0.00000000000E+00 0. -1.
         -2   -1    0    0    0  501 -0.00000000000E+00 -0.00000000000E+00 -0.28147574211E+02  0.28147574211E+02  0.00000000000E+00 0.  1.
         23    2    1    2    0    0 -0.11502667420E+03  0.39529023114E+02  0.33013876495E+03  0.36245964193E+03  0.87130410622E+02 0.  0.
          5    1    1    2  502    0  0.40888911289E+02  0.45625188323E+02  0.22151202598E+03  0.22986650676E+03  0.41800000000E+01 0. -1.
         -5    1    1    2    0  502  0.74137762908E+02 -0.85154211436E+02  0.40081017787E+03  0.41642996854E+03  0.41800000000E+01 0. -1.
        -11    1    3    3    0    0 -0.24860276476E+02  0.52059649156E+02  0.14778428586E+03  0.15864562888E+03  0.00000000000E+00 0. -1.
         11    1    3    3    0    0 -0.90166397722E+02 -0.12530626043E+02  0.18235447910E+03  0.20381401304E+03  0.00000000000E+00 0.  1.
</event>
<event>
 7    1  0.6684706E-006  0.1491353E+03  0.7561462E-02  0.1201540E+00
          4   -1    0    0  501    0  0.00000000000E+00  0.00000000000E+00  0.13129850015E+03  0.13129850015E+03  0.00000000000E+00 0. -1.
         -4   -1    0    0    0  501 -0.00000000000E+00 -0.00000000000E+00 -0.24100281747E+03  0.24100281747E+03  0.00000000000E+00 0.  1.
         23    2    1    2    0    0  0.12210454091E+03 -0.62432677297E+02 -0.87173154935E+02  0.18531711693E+03  0.89083762724E+02 0.  0.
          5    1    1    2  502    0 -0.36912235448E+02 -0.17311287412E+02 -0.52336822277E+02  0.66474124016E+02  0.41800000000E+01 0.  1.
         -5    1    1    2    0  502 -0.85192305462E+02  0.79743964709E+02  0.29805659899E+02  0.12051007667E+03  0.41800000000E+01 0.  1.
        -11    1    3    3    0    0  0.38953401863E+02 -0.36597761414E+02 -0.82269197104E+02  0.98107005098E+02  0.00000000000E+00 0.  1.
         11    1    3    3    0    0  0.83151139047E+02 -0.25834915882E+02 -0.49039578314E+01  0.87210111833E+02  0.00000000000E+00 0. -1.
</event>
<event>
 7    1  0.6684706E-006  0.9147439E+02  0.7561462E-02  0.1299320E+00
         -2   -1    0    0    0  501 -0.00000000000E+00  0.00000000000E+00  0.14538155781E+02  0.14538155781E+02  0.00000000000E+00 0. -1.
          2   -1    0    0  501    0  0.00000000000E+00 -0.00000000000E+00 -0.13964081589E+04  0.13964081589E+04  0.00000000000E+00 0.  1.
         23    2    1    2    0    0  0.36823338351E+02  0.42788706818E+02 -0.26826557441E+03  0.28891736065E+03  0.91213985752E+02 0.  0.
          5    1    1    2  502    0 -0.41268306665E+02  0.61868858315E+01 -0.11851700732E+03  0.12571835234E+03  0.41800000000E+01 0.  1.
         -5    1    1    2    0  502  0.44449683141E+01 -0.48975592649E+02 -0.99508742139E+03  0.99631060168E+03  0.41800000000E+01 0.  1.
        -11    1    3    3    0    0  0.53641736538E+02  0.96623639741E+01 -0.22673751168E+03  0.23319669033E+03  0.00000000000E+00 0.  1.
         11    1    3    3    0    0 -0.16818398186E+02  0.33126342843E+02 -0.41528062721E+02  0.55720670322E+02  0.00000000000E+00 0. -1.
</event>
<event>
 7    1  0.6684706E-006  0.1396075E+03  0.7561462E-02  0.1213858E+00
          2   -1    0    0  501    0  0.00000000000E+00  0.00000000000E+00  0.49402156021E+03  0.49402156021E+03  0.00000000000E+00 0. -1.
         -2   -1    0    0    0  501 -0.00000000000E+00 -0.00000000000E+00 -0.47050557163E+02  0.47050557163E+02  0.00000000000E+00 0.  1.
         23    2    1    2    0    0  0.39606630876E+02  0.87465465000E+02  0.12681585637E+03  0.18418844019E+03  0.92866717917E+02 0.  0.
          5    1    1    2  502    0  0.32680629190E+02  0.41772994145E+01  0.12602279208E+03  0.13032532324E+03  0.41800000000E+01 0. -1.
         -5    1    1    2    0  502 -0.72287260065E+02 -0.91642764414E+02  0.19413235459E+03  0.22655835393E+03  0.41800000000E+01 0. -1.
        -11    1    3    3    0    0 -0.26836903536E+02  0.14425361903E+02  0.52141513883E+02  0.60390793399E+02  0.00000000000E+00 0. -1.
         11    1    3    3    0    0  0.66443534412E+02  0.73040103097E+02  0.74674342487E+02  0.12379764679E+03  0.00000000000E+00 0.  1.
</event>
<event>
 7    1  0.6684706E-006  0.1945000E+03  0.7561462E-02  0.1154464E+00
         -2   -1    0    0    0  501 -0.00000000000E+00  0.00000000000E+00  0.41955601548E+02  0.41955601548E+02  0.00000000000E+00 0.  1.
          2   -1    0    0  501    0  0.00000000000E+00 -0.00000000000E+00 -0.16407874662E+04  0.16407874662E+04  0.00000000000E+00 0. -1.
         23    2    1    2    0    0 -0.17647322291E+03  0.47181888569E+02 -0.28771111394E+03  0.35306088581E+03  0.92224589960E+02 0.  0.
          5    1    1    2  502    0  0.81427300639E+02 -0.34173313464E+02 -0.26917457850E+03  0.28332074889E+03  0.41800000000E+01 0. -1.
         -5    1    1    2    0  502  0.95045922273E+02 -0.13008575104E+02 -0.10419461722E+04  0.10463614331E+04  0.41800000000E+01 0. -1.
        -11    1    3    3    0    0 -0.12882314269E+03 -0.11086701604E+02 -0.17764977772E+03  0.21972200747E+03  0.00000000000E+00 0.  1.
         11    1    3    3    0    0 -0.47650080219E+02  0.58268590173E+02 -0.11006133622E+03  0.13333887834E+03  0.00000000000E+00 0. -1.
</event>
<event>
 7    1  0.6684706E-006  0.9580213E+02  0.7561462E-02  0.1289380E+00
         -2   -1    0    0    0  501 -0.00000000000E+00  0.00000000000E+00  0.15282807694E+03  0.15282807694E+03  0.00000000000E+00 0.  1.
          2   -1    0    0  501    0  0.00000000000E+00 -0.00000000000E+00 -0.10584816791E+03  0.10584816791E+03  0.00000000000E+00 0. -1.
         23    2    1    2    0    0  0.37653848203E+02  0.36091840636E+02  0.64946236159E+02  0.12193095036E+03  0.89043303058E+02 0.  0.
          5    1    1    2  502    0  0.19989651885E+02  0.37001981826E+02 -0.82101311686E+01  0.43053588647E+02  0.41800000000E+01 0.  1.
         -5    1    1    2    0  502 -0.57643500088E+02 -0.73093822462E+02 -0.97561959556E+01  0.93691705844E+02  0.41800000000E+01 0.  1.
        -11    1    3    3    0    0  0.11859107465E+02  0.25783653845E+02  0.83722729228E+02  0.88402096270E+02  0.00000000000E+00 0.  1.
         11    1    3    3    0    0  0.25794740737E+02  0.10308186792E+02 -0.18776493069E+02  0.33528854090E+02  0.00000000000E+00 0. -1.
</event>
<event>
 7    1  0.6684706E-006  0.9293411E+02  0.7561462E-02  0.1295898E+00
         -2   -1    0    0    0  501 -0.00000000000E+00  0.00000000000E+00  0.15027696052E+03  0.15027696052E+03  0.00000000000E+00 0.  1.
          2   -1    0    0  501    0  0.00000000000E+00 -0.00000000000E+00 -0.12249160476E+03  0.12249160476E+03  0.00000000000E+00 0. -1.
         23    2    1    2    0    0 -0.51365857636E+02  0.43278762286E+02  0.48243764119E+02  0.12932211378E+03  0.99424573119E+02 0.  0.
          5    1    1    2  502    0  0.49374570525E+02 -0.38138618465E+02 -0.69748343736E+02  0.93673402238E+02  0.41800000000E+01 0. -1.
         -5    1    1    2    0  502  0.19912871111E+01 -0.51401438207E+01  0.49289935385E+02  0.49773049265E+02  0.41800000000E+01 0. -1.
        -11    1    3    3    0    0  0.16664776300E+01  0.60606825015E+02  0.40698271130E+02  0.73022692767E+02  0.00000000000E+00 0.  1.
         11    1    3    3    0    0 -0.53032335266E+02 -0.17328062729E+02  0.75454929896E+01  0.56299421010E+02  0.00000000000E+00 0. -1.
</event>
<event>
 7    1  0.6684706E-006  0.6244424E+02  0.7561462E-02  0.1387852E+00
          2   -1    0    0  501    0  0.00000000000E+00  0.00000000000E+00  0.99482393523E+03  0.99482393523E+03  0.00000000000E+00 0. -1.
         -2   -1    0    0    0  501 -0.00000000000E+00 -0.00000000000E+00 -0.33277534386E+02  0.33277534386E+02  0.00000000000E+00 0.  1.
         23    2    1    2    0    0  0.39556754451E+02  0.35260871087E+02  0.95403697681E+02  0.14256861410E+03  0.91738096460E+02 0.  0.
          5    1    1    2  502    0 -0.47327196949E+01 -0.97904486062E+01  0.82714031422E+03  0.82722235422E+03  0.41800000000E+01 0. -1.
         -5    1    1    2    0  502 -0.34824034756E+02 -0.25470422481E+02  0.39002388945E+02  0.58310501297E+02  0.41800000000E+01 0.  1.
        -11    1    3    3    0    0  0.18845114057E+02 -0.91051182896E+01 -0.12287194433E+02  0.24269665221E+02  0.00000000000E+00 0. -1.
         11    1    3    3    0    0  0.20711640394E+02  0.44365989377E+02  0.10769089211E+03  0.11829894888E+03  0.00000000000E+00 0.  1.
</event>
<event>
 7    1  0.6684706E-006  0.2210105E+03  0.7561462E-02  0.1133132E+00
          2   -1    0    0  501    0  0.00000000000E+00  0.00000000000E+00  0.16783381974E+03  0.16783381974E+03  0.00000000000E+00 0. -1.
         -2   -1    0    0    0  501 -0.00000000000E+00 -0.00000000000E+00 -0.50442529261E+03  0.50442529261E+03  0.00000000000E+00 0.  1.
         23    2    1    2    0    0  0.17238231038E+03 -0.10035155281E+03 -0.37238292820E+03  0.43410465842E+03  0.99958562244E+02 0.  0.
          5    1    1    2  502    0 -0.47675260185E+01  0.58151583631E+02 -0.98877185696E+01  0.59326009150E+02  0.41800000000E+01 0.  1.
         -5    1    1    2    0  502 -0.16761478436E+03  0.42199969176E+02  0.45679173895E+02  0.17882844478E+03  0.41800000000E+01 0.  1.
        -11    1    3    3    0    0  0.11872999044E+03 -0.30563405040E+02 -0.28414237822E+03  0.30946376760E+03  0.00000000000E+00 0.  1.
         11    1    3    3    0    0  0.53652319936E+02 -0.69788147767E+02 -0.88240549978E+02  0.12464089082E+03  0.00000000000E+00 0. -1.
</event>
<event>
 7    1  0.1076805E-005  0.1406043E+03  0.7561462E-02  0.1212518E+00
         -3   -1    0    0    0  501 -0.00000000000E+00  0.00000000000E+00  0.96960421246E+02  0.96960421246E+02  0.00000000000E+00 0.  1.
          3   -1    0    0  501    0  0.00000000000E+00 -0.00000000000E+00 -0.23931209935E+03  0.23931209935E+03  0.00000000000E+00 0. -1.
         23    2    1    2    0    0  0.49921898745E+02  0.99085458195E+02 -0.42150778263E+02  0.14134323410E+03  0.76753486689E+02 0.  0.
          5    1    1    2  502    0 -0.79834680464E+02 -0.10006326699E+03 -0.52409242812E+02  0.13838509579E+03  0.41800000000E+01 0. -1.
         -5    1    1    2    0  502  0.29912781719E+02  0.97780879606E+00 -0.47791657027E+02  0.56544190697E+02  0.41800000000E+01 0. -1.
        -11    1    3    3    0    0  0.35789941800E+02  0.17005339613E+02 -0.42429675831E+02  0.58054964478E+02  0.00000000000E+00 0.  1.
         11    1    3    3    0    0  0.14131956945E+02  0.82080118582E+02  0.27889756781E+00  0.83288269627E+02  0.00000000000E+00 0. -1.
</event>
<event>
 7    1  0.6684706E-006  0.2881459E+03  0.7561462E-02  0.1091321E+00
         -1   -1    0    0    0  501 -0.00000000000E+00  0.00000000000E+00  0.22470989394E+03  0.22470989394E+03  0.00000000000E+00 0.  1.
          1   -1    0    0  501    0  0.00000000000E+00 -0.00000000000E+00 -0.41161257239E+03  0.41161257239E+03  0.00000000000E+00 0. -1.
         23    2    1    2    0    0 -0.24378512771E+03  0.11752107197E+03 -0.19019342563E+01  0.28544493162E+03  0.90734782642E+02 0.  0.
          5    1    1    2  502    0  0.76825899888E+02  0.21956128757E+02 -0.40530820398E+02  0.89691194025E+02  0.41800000000E+01 0. -1.
         -5    1    1    2    0  502  0.16695922782E+03 -0.13947720073E+03 -0.14446992380E+03  0.26118634068E+03  0.41800000000E+01 0. -1.
        -11    1    3    3    0    0 -0.80901175921E+02  0.75064006916E+02 -0.30976164865E+02  0.11462603626E+03  0.00000000000E+00 0. -1.
         11    1    3    3    0    0 -0.16288395179E+03  0.42457065052E+02  0.29074230609E+02  0.17081889535E+03  0.00000000000E+00 0.  1.
</event>
<event>
 7    1  0.6684706E-006  0.2277679E+03  0.7561462E-02  0.1128221E+00
          2   -1    0    0  501    0  0.00000000000E+00  0.00000000000E+00  0.99724447003E+03  0.99724447003E+03  0.00000000000E+00 0. -1.
         -2   -1    0    0    0  501 -0.00000000000E+00 -0.00000000000E+00 -0.70317644128E+02  0.70317644128E+02  0.00000000000E+00 0.  1.
         23    2    1    2    0    0  0.10437140606E+03 -0.17753870235E+03  0.19902169409E+03  0.30080922465E+03  0.91995509034E+02 0.  0.
          5    1    1    2  502    0  0.20925857582E+02  0.41207918999E+02  0.24888065719E+03  0.25316997852E+03  0.41800000000E+01 0. -1.
         -5    1    1    2    0  502 -0.12529726364E+03  0.13633078335E+03  0.47902447463E+03  0.51358291099E+03  0.41800000000E+01 0. -1.
        -11    1    3    3    0    0 -0.12864301003E+02 -0.45788696160E+02  0.57957018000E+02  0.74974067995E+02  0.00000000000E+00 0.  1.
         11    1    3    3    0    0  0.11723570706E+03 -0.13175000619E+03  0.14106467609E+03  0.22583515665E+03  0.00000000000E+00 0. -1.
</event>
<event>
 7    1  0.6684706E-006  0.1164875E+03  0.7561462E-02  0.1249007E+00
          2   -1    0    0  501    0  0.00000000000E+00  0.00000000000E+00  0.49441831023E+03  0.49441831023E+03  0.00000000000E+00 0. -1.
         -2   -1    0    0    0  501 -0.00000000000E+00 -0.00000000000E+00 -0.59532617161E+02  0.59532617161E+02  0.00000000000E+00 0.  1.
         23    2    1    2    0    0  0.94761030183E+02 -0.11005913561E+02  0.47503324568E+02  0.13971804328E+03  0.90353654038E+02 0.  0.
          5    1    1    2  502    0 -0.47909070776E+01 -0.22941758904E+02  0.21893086215E+03  0.22022141561E+03  0.41800000000E+01 0. -1.
         -5    1    1    2    0  502 -0.89970123106E+02  0.33947672465E+02  0.16845150635E+03  0.19401146850E+03  0.41800000000E+01 0.  1.
        -11    1    3    3    0    0  0.10209364149E+03 -0.31108698496E+01  0.12271679649E+02  0.10287557176E+03  0.00000000000E+00 0.  1.
         11    1    3    3    0    0 -0.73326113071E+01 -0.78950437114E+01  0.35231644919E+02  0.36842471517E+02  0.00000000000E+00 0. -1.
</event>
<event>
 7    1  0.6684706E-006  0.9222344E+02  0.7561462E-02  0.1297555E+00
          4   -1    0    0  501    0  0.00000000000E+00  0.00000000000E+00  0.11472634735E+03  0.11472634735E+03  0.00000000000E+00 0. -1.
         -4   -1    0    0    0  501 -0.00000000000E+00 -0.00000000000E+00 -0.15563782410E+03  0.15563782410E+03  0.00000000000E+00 0.  1.
         23    2    1    2    0    0 -0.59658216254E+02 -0.43341079009E+02 -0.53099080162E+02  0.12902696170E+03  0.91601815676E+02 0.  0.
          5    1    1    2  502    0  0.12877257227E+02  0.26526720744E+02  0.63274655794E+02  0.69933147598E+02  0.41800000000E+01 0. -1.
         -5    1    1    2    0  502  0.46780959027E+02  0.16814358266E+02 -0.51087052376E+02  0.71404062152E+02  0.41800000000E+01 0.  1.
        -11    1    3    3    0    0  0.57340936090E+01  0.15676359899E+02  0.11084490165E+02  0.20037315474E+02  0.00000000000E+00 0.  1.
         11    1    3    3    0    0 -0.65392309863E+02 -0.59017438908E+02 -0.64183570327E+02  0.10898964623E+03  0.00000000000E+00 0. -1.
</event>
<event>
 7    1  0.6684706E-006  0.1460850E+03  0.7561462E-02  0.1205368E+00
          2   -1    0    0  501    0  0.00000000000E+00  0.00000000000E+00  0.41140250660E+03  0.41140250660E+03  0.00000000000E+00 0. -1.
         -2   -1    0    0    0  501 -0.00000000000E+00 -0.00000000000E+00 -0.70208290910E+02  0.70208290910E+02  0.00000000000E+00 0.  1.
         23    2    1    2    0    0 -0.60672863416E+02 -0.10794738518E+03  0.78588050927E+02  0.16547279269E+03  0.76624598189E+02 0.  0.
          5    1    1    2  502    0  0.86254954434E+02  0.92060093928E+02  0.25540634700E+03  0.28489445861E+03  0.41800000000E+01 0.  1.
         -5    1    1    2    0  502 -0.25582091019E+02  0.15887291256E+02  0.71998177650E+01  0.31243546217E+02  0.41800000000E+01 0.  1.
        -11    1    3    3    0    0  0.89271980230E+01 -0.28774776194E+02  0.46270457597E+02  0.55214471434E+02  0.00000000000E+00 0. -1.
         11    1    3    3    0    0 -0.69600061439E+02 -0.79172608991E+02  0.32317593331E+02  0.11025832125E+03  0.00000000000E+00 0.  1.
</event>
<event>
 7    1  0.6684706E-006  0.9968376E+02  0.7561462E-02  0.1280962E+00
          1   -1    0    0  501    0  0.00000000000E+00  0.00000000000E+00  0.92724477856E+02  0.92724477856E+02  0.00000000000E+00 0. -1.
         -1   -1    0    0    0  501 -0.00000000000E+00 -0.00000000000E+00 -0.19323571810E+03  0.19323571810E+03  0.00000000000E+00 0.  1.
         23    2    1    2    0    0 -0.47170579037E+02 -0.27407329777E+02 -0.10432754784E+03  0.14943627910E+03  0.92036617819E+02 0.  0.
          5    1    1    2  502    0  0.38444928318E+01 -0.41894104051E+02 -0.25759129259E+02  0.49506577538E+02  0.41800000000E+01 0. -1.
         -5    1    1    2    0  502  0.43326086205E+02  0.69301433827E+02  0.29575436860E+02  0.87017339317E+02  0.41800000000E+01 0. -1.
        -11    1    3    3    0    0 -0.71383691069E+01 -0.33947761937E+02 -0.10318171387E+03  0.10885712164E+03  0.00000000000E+00 0.  1.
         11    1    3    3    0    0 -0.40032209930E+02  0.65404321601E+01 -0.11458339725E+01  0.40579157460E+02  0.00000000000E+00 0. -1.
</event>
<event>
 7    1  0.6684706E-006  0.9805311E+02  0.7561462E-02  0.1284444E+00
         -1   -1    0    0    0  501 -0.00000000000E+00  0.00000000000E+00  0.67913595970E+02  0.67913595970E+02  0.00000000000E+00 0.  1.
          1   -1    0    0  501    0  0.00000000000E+00 -0.00000000000E+00 -0.27403154513E+03  0.27403154513E+03  0.00000000000E+00 0. -1.
         23    2    1    2    0    0  0.67626112932E+00  0.10616041806E+02  0.10067694585E+02  0.91950561192E+02  0.90776591457E+02 0.  0.
          5    1    1    2  502    0 -0.50689571564E+02 -0.18264324972E+02 -0.17923270235E+03  0.18720270357E+03  0.41800000000E+01 0. -1.
         -5    1    1    2    0  502  0.50013310435E+02  0.76482831661E+01 -0.36952941388E+02  0.62791876332E+02  0.41800000000E+01 0. -1.
        -11    1    3    3    0    0 -0.62332289436E+01 -0.39863213594E+02  0.23128444568E+01  0.40413836623E+02  0.00000000000E+00 0. -1.
         11    1    3    3    0    0  0.69094900729E+01  0.50479255400E+02  0.77548501277E+01  0.51536724569E+02  0.00000000000E+00 0.  1.
</event>
<event>
 7    1  0.6684706E-006  0.8427314E+02  0.7561462E-02  0.1317344E+00
         -1   -1    0    0    0  501 -0.00000000000E+00  0.00000000000E+00  0.33700525288E+02  0.33700525288E+02  0.00000000000E+00 0.  1.
          1   -1    0    0  501    0  0.00000000000E+00 -0.00000000000E+00 -0.43645150888E+03  0.43645150888E+03  0.00000000000E+00 0. -1.
         23    2    1    2    0    0  0.44405748550E+01 -0.52919792895E+02 -0.14401693461E+03  0.17790020278E+03  0.89929869945E+02 0.  0.
          5    1    1    2  502    0  0.11516496349E+02 -0.11875917098E+02  0.68456047797E+01  0.18384825260E+02  0.41800000000E+01 0.  1.
         -5    1    1    2    0  502 -0.15957071204E+02  0.64795709992E+02 -0.26557965376E+03  0.27386700613E+03  0.41800000000E+01 0.  1.
        -11    1    3    3    0    0 -0.29436370102E+01 -0.67876778838E+02 -0.55222323812E+02  0.87552425160E+02  0.00000000000E+00 0.  1.
         11    1    3    3    0    0  0.73842118651E+01  0.14956985943E+02 -0.88794610799E+02  0.90347777617E+02  0.00000000000E+00 0. -1.
</event>
<event>
 7    1  0.6684706E-006  0.1085402E+03  0.7561462E-02  0.1263297E+00
         -2   -1    0    0    0  501 -0.00000000000E+00  0.00000000000E+00  0.23775927371E+02  0.23775927371E+02  0.00000000000E+00 0.  1.
          2   -1    0    0  501    0  0.00000000000E+00 -0.00000000000E+00 -0.67464902614E+03  0.67464902614E+03  0.00000000000E+00 0. -1.
         23    2    1    2    0    0  0.15732223259E+02 -0.66314801522E+02 -0.27140631608E+03  0.29310285390E+03  0.87193685577E+02 0.  0.
          5    1    1    2  502    0 -0.36259916819E+02 -0.56233892429E+01 -0.27092763244E+03  0.27343309693E+03  0.41800000000E+01 0.  1.
         -5    1    1    2    0  502  0.20527693560E+02  0.71938190765E+02 -0.10853915024E+03  0.13188900268E+03  0.41800000000E+01 0.  1.
        -11    1    3    3    0    0 -0.29920463051E+02 -0.76406034073E+01 -0.43271139492E+02  0.53160177224E+02  0.00000000000E+00 0.  1.
         11    1    3    3    0    0  0.45652686310E+02 -0.58674198114E+02 -0.22813517659E+03  0.23994267668E+03  0.00000000000E+00 0. -1.
</event>
<event>
 7    1  0.6684706E-006  0.1684789E+03  0.7561462E-02  0.1179443E+00
          2   -1    0    0  501    0  0.00000000000E+00  0.00000000000E+00  0.55577268382E+03  0.55577268382E+03  0.00000000000E+00 0. -1.
         -2   -1    0    0    0  501 -0.00000000000E+00 -0.00000000000E+00 -0.15958618039E+03  0.15958618039E+03  0.00000000000E+00 0.  1.
         23    2    1    2    0    0 -0.56541923286E+02  0.13052294141E+03 -0.93728690284E+02  0.19248872562E+03  0.89630434480E+02 0.  0.
          5    1    1    2  502    0  0.82422114179E+02 -0.58156027390E+02  0.33507751689E+03  0.34995705901E+03  0.41800000000E+01 0. -1.
         -5    1    1    2    0  502 -0.25880190893E+02 -0.72366914015E+02  0.15483767683E+03  0.17291307958E+03  0.41800000000E+01 0.  1.
        -11    1    3    3    0    0  0.67004644125E+01  0.73712793832E+02 -0.75131425118E+02  0.10546659774E+03  0.00000000000E+00 0.  1.
         11    1    3    3    0    0 -0.63242387699E+02  0.56810147573E+02 -0.18597265166E+02  0.87022127880E+02  0.00000000000E+00 0. -1.
</event>
<event>
 7    1  0.6684706E-006  0.7117643E+02  0.7561462E-02  0.1356138E+00
          1   -1    0    0  501    0  0.00000000000E+00  0.00000000000E+00  0.92658077664E+03  0.92658077664E+03  0.00000000000E+00 0. -1.
         -1   -1    0    0    0  501 -0.00000000000E+00 -0.00000000000E+00 -0.24238839396E+02  0.24238839396E+02  0.00000000000E+00 0.  1.
         23    2    1    2    0    0 -0.13048041377E+02  0.49907775442E+02  0.12619298671E+03  0.16296474348E+03  0.89284938758E+02 0.  0.
          5    1    1    2  502    0  0.22262939638E+01  0.19343229186E+02  0.19221770275E+02  0.27677892851E+02  0.41800000000E+01 0.  1.
         -5    1    1    2    0  502  0.10821747413E+02 -0.69251004627E+02  0.75692718026E+03  0.76017697970E+03  0.41800000000E+01 0.  1.
        -11    1    3    3    0    0 -0.27320639328E+01  0.26521789941E+02  0.13369398786E+03  0.13632663681E+03  0.00000000000E+00 0. -1.
         11    1    3    3    0    0 -0.10315977444E+02  0.23385985500E+02 -0.75010011504E+01  0.26638106665E+02  0.00000000000E+00 0.  1.
</event>
<event>
 7    1  0.6684706E-006  0.1299262E+03  0.7561462E-02  0.1227565E+00
          1   -1    0    0  501    0  0.00000000000E+00  0.00000000000E+00  0.22224620620E+03  0.22224620620E+03  0.00000000000E+00 0. -1.
         -1   -1    0    0    0  501 -0.00000000000E+00 -0.00000000000E+00 -0.81699546179E+02  0.81699546179E+02  0.00000000000E+00 0.  1.
         23    2    1    2    0    0  0.50385223905E+02 -0.61353252057E+02  0.69424122202E+02  0.13963088464E+03  0.91510561560E+02 0.  0.
          5    1    1    2  502    0 -0.42120825875E+02 -0.32251575892E+02  0.17371440528E+02  0.55978276732E+02  0.41800000000E+01 0. -1.
         -5    1    1    2    0  502 -0.82643980297E+01  0.93604827949E+02  0.53751097288E+02  0.10833659100E+03  0.41800000000E+01 0. -1.
        -11    1    3    3    0    0  0.44494943530E+02  0.60600742613E+01  0.53987594236E+02  0.70222395510E+02  0.00000000000E+00 0.  1.
         11    1    3    3    0    0  0.58902803746E+01 -0.67413326318E+02  0.15436527966E+02  0.69408489134E+02  0.00000000000E+00 0. -1.
</event>
<event>
 7    1  0.6684706E-006  0.1171892E+03  0.7561462E-02  0.1247807E+00
          2   -1    0    0  501    0  0.00000000000E+00  0.00000000000E+00  0.47771566410E+02  0.47771566410E+02  0.00000000000E+00 0. -1.
         -2   -1    0    0    0  501 -0.00000000000E+00 -0.00000000000E+00 -0.32694050581E+03  0.32694050581E+03  0.00000000000E+00 0.  1.
         23    2    1    2    0    0  0.21747775356E+02  0.44903434867E+02 -0.16285097229E+03  0.19676140961E+03  0.98515627903E+02 0.  0.
          5    1    1    2  502    0 -0.63329661591E+02  0.92984067451E+01 -0.71918613465E+02  0.96368385729E+02  0.41800000000E+01 0. -1.
         -5    1    1    2    0  502  0.41581886234E+02 -0.54201841612E+02 -0.44399353651E+02  0.81582276884E+02  0.41800000000E+01 0. -1.
        -11    1    3    3    0    0  0.55848951126E+02  0.19089935055E+02 -0.13020085419E+03  0.14295381560E+03  0.00000000000E+00 0. -1.
         11    1    3    3    0    0 -0.34101175770E+02  0.25813499813E+02 -0.32650118093E+02  0.53807594008E+02  0.00000000000E+00 0.  1.
</event>
<event>
 7    1  0.6684706E-006  0.9807563E+02  0.7561462E-02  0.1284395E+00
         -2   -1    0    0    0  501 -0.00000000000E+00  0.00000000000E+00  0.38353356957E+02  0.38353356957E+02  0.00000000000E+00 0. -1.
          2   -1    0    0  501    0  0.00000000000E+00 -0.00000000000E+00 -0.39680726652E+03  0.39680726652E+03  0.00000000000E+00 0.  1.
         23    2    1    2    0    0  0.33827956856E+01  0.34252780743E+02 -0.70048887847E+02  0.11891732259E+03  0.89720603142E+02 0.  0.
          5    1    1    2  502    0  0.56675676083E+02 -0.28384379566E+02 -0.10097975045E+03  0.11929873287E+03  0.41800000000E+01 0.  1.
         -5    1    1    2    0  502 -0.60058471768E+02 -0.58684011774E+01 -0.18742527126E+03  0.19694456801E+03  0.41800000000E+01 0.  1.
        -11    1    3    3    0    0 -0.28581165342E+02  0.27094404850E+02  0.23506267059E+01  0.39452696136E+02  0.00000000000E+00 0. -1.
         11    1    3    3    0    0  0.31963961028E+02  0.71583758933E+01 -0.72399514553E+02  0.79464626454E+02  0.00000000000E+00 0.  1.
</event>
<event>
 7    1  0.6684706E-006  0.1600239E+03  0.7561462E-02  0.1188670E+00
          3   -1    0    0  501    0  0.00000000000E+00  0.00000000000E+00  0.51041587535E+03  0.51041587535E+03  0.00000000000E+00 0. -1.
         -3   -1    0    0    0  501 -0.00000000000E+00 -0.00000000000E+00 -0.63752305978E+02  0.63752305978E+02  0.00000000000E+00 0.  1.
         23    2    1    2    0    0  0.45423598168E+02  0.12489223986E+03  0.12411028322E+03  0.20355003520E+03  0.91476114828E+02 0.  0.
          5    1    1    2  502    0 -0.22360536017E+02  0.80483658782E+01  0.37584925927E+01  0.24420655824E+02  0.41800000000E+01 0.  1.
         -5    1    1    2    0  502 -0.23063062150E+02 -0.13294060573E+03  0.31879479356E+03  0.34619749030E+03  0.41800000000E+01 0.  1.
        -11    1    3    3    0    0  0.52174757567E+02  0.20092003372E+02  0.50110513376E+02  0.75079674197E+02  0.00000000000E+00 0. -1.
         11    1    3    3    0    0 -0.67511593998E+01  0.10480023648E+03  0.73999769843E+02  0.12847036101E+03  0.00000000000E+00 0.  1.
</event>
<event>
 7    1  0.6684706E-006  0.1140051E+03  0.7561462E-02  0.1253328E+00
         -1   -1    0    0    0  501 -0.00000000000E+00  0.00000000000E+00  0.42864835137E+03  0.42864835137E+03  0.00000000000E+00 0.  1.
          1   -1    0    0  501    0  0.00000000000E+00 -0.00000000000E+00 -0.40897006378E+02  0.40897006378E+02  0.00000000000E+00 0. -1.
         23    2    1    2    0    0  0.28030920712E+02  0.41689363851E+02  0.27430193952E+03  0.29335720755E+03  0.91066797584E+02 0.  0.
          5    1    1    2  502    0 -0.70027866736E+02 -0.53147653570E+01  0.31479592981E+02  0.77075197208E+02  0.41800000000E+01 0. -1.
         -5    1    1    2    0  502  0.41996946024E+02 -0.36374598494E+02  0.81969812498E+02  0.99112952997E+02  0.41800000000E+01 0. -1.
        -11    1    3    3    0    0  0.41055578605E+02 -0.15048469447E+02  0.89632134692E+02  0.99729316335E+02  0.00000000000E+00 0. -1.
         11    1    3    3    0    0 -0.13024657893E+02  0.56737833298E+02  0.18466980482E+03  0.19362789121E+03  0.00000000000E+00 0.  1.
</event>
<event>
 7    1  0.6684706E-006  0.1701878E+03  0.7561462E-02  0.1177652E+00
          2   -1    0    0  501    0  0.00000000000E+00  0.00000000000E+00  0.37992969762E+03  0.37992969762E+03  0.00000000000E+00 0. -1.
         -2   -1    0    0    0  501 -0.00000000000E+00 -0.00000000000E+00 -0.82377724741E+02  0.82377724741E+02  0.00000000000E+00 0.  1.
         23    2    1    2    0    0  0.10754796057E+03 -0.75571180097E+02  0.78184776406E+02  0.17762021356E+03  0.90324492353E+02 0.  0.
          5    1    1    2  502    0 -0.51628626059E+02 -0.31422726625E+02  0.69557395889E+02  0.92242108064E+02  0.41800000000E+01 0.  1.
         -5    1    1    2    0  502 -0.55919334511E+02  0.10699390672E+03  0.14980980059E+03  0.19244510074E+03  0.41800000000E+01 0.  1.
        -11    1    3    3    0    0  0.14630657817E+02  0.20601071610E+02  0.17704803838E+02  0.30853206942E+02  0.00000000000E+00 0.  1.
         11    1    3    3    0    0  0.92917302753E+02 -0.96172251707E+02  0.60479972568E+02  0.14676700662E+03  0.00000000000E+00 0. -1.
</event>
<event>
 7    1  0.6684706E-006  0.1755839E+03  0.7561462E-02  0.1172147E+00
          2   -1    0    0  501    0  0.00000000000E+00  0.00000000000E+00  0.65195367589E+03  0.65195367589E+03  0.00000000000E+00 0. -1.
         -2   -1    0    0    0  501 -0.00000000000E+00 -0.00000000000E+00 -0.54914917308E+02  0.54914917308E+02  0.00000000000E+00 0.  1.
         23    2    1    2    0    0  0.11592297704E+03  0.94102808484E+02  0.21306072775E+03  0.27631146612E+03  0.93057387834E+02 0.  0.
          5    1    1    2  502    0  0.25651491313E+02 -0.47142854828E+01  0.67700342178E+02  0.72670710918E+02  0.41800000000E+01 0. -1.
         -5    1    1    2    0  502 -0.14157446835E+03 -0.89388523001E+02  0.31627768865E+03  0.35788641616E+03  0.41800000000E+01 0. -1.
        -11    1    3    3    0    0  0.91394627476E+02  0.96148701603E+02  0.11613409098E+03  0.17630847353E+03  0.00000000000E+00 0.  1.
         11    1    3    3    0    0  0.24528349561E+02 -0.20458931193E+01  0.96926636775E+02  0.10000299259E+03  0.00000000000E+00 0. -1.
</event>
<event>
 7    1  0.6684706E-006  0.1016894E+03  0.7561462E-02  0.1276783E+00
         -2   -1    0    0    0  501 -0.00000000000E+00  0.00000000000E+00  0.10058336873E+02  0.10058336873E+02  0.00000000000E+00 0.  1.
          2   -1    0    0  501    0  0.00000000000E+00 -0.00000000000E+00 -0.16475015952E+04  0.16475015952E+04  0.00000000000E+00 0. -1.
         23    2    1    2    0    0  0.45269686199E+02 -0.34067376842E+02 -0.37336642638E+03  0.38604615263E+03  0.80119991020E+02 0.  0.
          5    1    1    2  502    0 -0.38017380974E+02 -0.33122995920E+02 -0.24390966873E+03  0.24910209355E+03  0.41800000000E+01 0.  1.
         -5    1    1    2    0  502 -0.72523052250E+01  0.67190372761E+02 -0.10201671632E+04  0.10224116859E+04  0.41800000000E+01 0.  1.
        -11    1    3    3    0    0  0.55125269857E+02 -0.61499567853E+01 -0.32213466650E+03  0.32687514544E+03  0.00000000000E+00 0. -1.
         11    1    3    3    0    0 -0.98555836578E+01 -0.27917420057E+02 -0.51231759885E+02  0.59171007197E+02  0.00000000000E+00 0.  1.
</event>
<event>
 7    1  0.6684706E-006  0.1147439E+03  0.7561462E-02  0.1252029E+00
          2   -1    0    0  501    0  0.00000000000E+00  0.00000000000E+00  0.53988915894E+03  0.53988915894E+03  0.00000000000E+00 0. -1.
         -2   -1    0    0    0  501 -0.00000000000E+00 -0.00000000000E+00 -0.26285423444E+02  0.26285423444E+02  0.00000000000E+00 0.  1.
         23    2    1    2    0    0 -0.44524273893E+02  0.53907944868E+00  0.21135049483E+03  0.23604017658E+03  0.95201006939E+02 0.  0.
          5    1    1    2  502    0 -0.40393199850E+02  0.11871242564E+02  0.62707827944E+02  0.75645760487E+02  0.41800000000E+01 0. -1.
         -5    1    1    2    0  502  0.84917473743E+02 -0.12410322013E+02  0.23954541272E+03  0.25448864531E+03  0.41800000000E+01 0. -1.
        -11    1    3    3    0    0 -0.67807289508E+02  0.20234547645E+02  0.11547757789E+03  0.13543388212E+03  0.00000000000E+00 0.  1.
         11    1    3    3    0    0  0.23283015615E+02 -0.19695468196E+02  0.95872916938E+02  0.10060629446E+03  0.00000000000E+00 0. -1.
</event>
<event>
 7    1  0.6684706E-006  0.1126123E+03  0.7561462E-02  0.1255807E+00
         -2   -1    0    0    0  501 -0.00000000000E+00  0.00000000000E+00  0.53493310607E+02  0.53493310607E+02  0.00000000000E+00 0.  1.
          2   -1    0    0  501    0  0.00000000000E+00 -0.00000000000E+00 -0.53150743315E+03  0.53150743315E+03  0.00000000000E+00 0. -1.
         23    2    1    2    0    0 -0.89724402912E+00  0.78218655814E+02 -0.48716406801E+02  0.13105192884E+03  0.93179163958E+02 0.  0.
          5    1    1    2  502    0  0.18599986005E+02 -0.82820886107E+02 -0.42661197739E+03  0.43499483941E+03  0.41800000000E+01 0. -1.
         -5    1    1    2    0  502 -0.17702741976E+02  0.46022302931E+01 -0.26857383427E+01  0.18953975509E+02  0.41800000000E+01 0. -1.
        -11    1    3    3    0    0  0.45803007040E+02  0.44623361987E+02 -0.29252107527E+02  0.70319596726E+02  0.00000000000E+00 0. -1.
         11    1    3    3    0    0 -0.46700251070E+02  0.33595293826E+02 -0.19464299274E+02  0.60732332109E+02  0.00000000000E+00 0.  1.
</event>
<event>
 7    1  0.6684706E-006  0.2198240E+03  0.7561462E-02  0.1134014E+00
         -2   -1    0    0    0  501 -0.00000000000E+00  0.00000000000E+00  0.39708679790E+03  0.39708679790E+03  0.00000000000E+00 0. -1.
          2   -1    0    0  501    0  0.00000000000E+00 -0.00000000000E+00 -0.17611868635E+03  0.17611868635E+03  0.00000000000E+00 0.  1.
         23    2    1    2    0    0  0.15153219839E+03  0.13667190378E+03  0.24616946819E+03  0.33252598981E+03  0.91284776371E+02 0.  0.
          5    1    1    2  502    0 -0.16152260017E+03 -0.13420491546E+03  0.33228467509E+01  0.21006909199E+03  0.41800000000E+01 0.  1.
         -5    1    1    2    0  502  0.99904017809E+01 -0.24669883203E+01 -0.28524203387E+02  0.30610402448E+02  0.41800000000E+01 0.  1.
        -11    1    3    3    0    0  0.11055577842E+03  0.13882131922E+03  0.22434570916E+03  0.28605058299E+03  0.00000000000E+00 0.  1.
         11    1    3    3    0    0  0.40976419971E+02 -0.21494154450E+01  0.21823759034E+02  0.46475406817E+02  0.00000000000E+00 0. -1.
</event>
<event>
 7    1  0.6684706E-006  0.1323869E+03  0.7561462E-02  0.1223956E+00
         -3   -1    0    0    0  501 -0.00000000000E+00  0.00000000000E+00  0.28470530843E+03  0.28470530843E+03  0.00000000000E+00 0. -1.
          3   -1    0    0  501    0  0.00000000000E+00 -0.00000000000E+00 -0.13087708164E+03  0.13087708164E+03  0.00000000000E+00 0.  1.
         23    2    1    2    0    0  0.95711968236E+02  0.16074230759E+02  0.20913125145E+03  0.24787714996E+03  0.91038669720E+02 0.  0.
          5    1    1    2  502    0 -0.94171807206E+02 -0.61573825846E+02 -0.40358222556E+02  0.11960737364E+03  0.41800000000E+01 0. -1.
         -5    1    1    2    0  502 -0.15401610298E+01  0.45499595087E+02 -0.14944802103E+02  0.48097866470E+02  0.41800000000E+01 0. -1.
        -11    1    3    3    0    0  0.34577628563E+02  0.27612760620E+02  0.16694320027E+03  0.17270816154E+03  0.00000000000E+00 0. -1.
         11    1    3    3    0    0  0.61134339673E+02 -0.11538529861E+02  0.42188051177E+02  0.75168988424E+02  0.00000000000E+00 0.  1.
</event>
<event>
 7    1  0.6684706E-006  0.1223615E+03  0.7561462E-02  0.1239251E+00
         -1   -1    0    0    0  501 -0.00000000000E+00  0.00000000000E+00  0.35480083542E+02  0.35480083542E+02  0.00000000000E+00 0. -1.
          1   -1    0    0  501    0  0.00000000000E+00 -0.00000000000E+00 -0.11690293006E+04  0.11690293006E+04  0.00000000000E+00 0.  1.
         23    2    1    2    0    0  0.66377535381E+02 -0.41503122512E+02 -0.75054640701E+02  0.13578792463E+03  0.81710923396E+02 0.  0.
          5    1    1    2  502    0 -0.95089785206E+02  0.77164463420E+01 -0.54532569830E+03  0.55362369930E+03  0.41800000000E+01 0. -1.
         -5    1    1    2    0  502  0.28712249825E+02  0.33786676170E+02 -0.51316887810E+03  0.51509776026E+03  0.41800000000E+01 0. -1.
        -11    1    3    3    0    0  0.53839403150E+02  0.72761221189E+01 -0.64494794385E+02  0.84327941914E+02  0.00000000000E+00 0.  1.
         11    1    3    3    0    0  0.12538132231E+02 -0.48779244631E+02 -0.10559846316E+02  0.51459982713E+02  0.00000000000E+00 0. -1.
</event>
<event>
 7    1  0.6684706E-006  0.8451883E+02  0.7561462E-02  0.1316696E+00
          2   -1    0    0  501    0  0.00000000000E+00  0.00000000000E+00  0.57865513093E+02  0.57865513093E+02  0.00000000000E+00 0.  1.
         -2   -1    0    0    0  501 -0.00000000000E+00 -0.00000000000E+00 -0.22952217768E+03  0.22952217768E+03  0.00000000000E+00 0. -1.
         23    2    1    2    0    0  0.29563552473E+02 -0.17139091029E+02 -0.93856086666E+02  0.13616144961E+03  0.92537685722E+02 0.  0.
          5    1    1    2  502    0  0.38825264841E+02 -0.48394874623E+01 -0.68058342408E+02  0.78614452871E+02  0.41800000000E+01 0.  1.
         -5    1    1    2    0  502 -0.68388817314E+02  0.21978578491E+02 -0.97422355110E+01  0.72611788292E+02  0.41800000000E+01 0.  1.
        -11    1    3    3    0    0 -0.26208022067E+01 -0.24564733314E+02  0.10395725526E+02  0.26802347587E+02  0.00000000000E+00 0.  1.
         11    1    3    3    0    0  0.32184354680E+02  0.74256422847E+01 -0.10425181219E+03  0.10935910202E+03  0.00000000000E+00 0. -1.
</event>
<event>
 7    1  0.6684706E-006  0.1918611E+03  0.7561462E-02  0.1156793E+00
          1   -1    0    0  501    0  0.00000000000E+00  0.00000000000E+00  0.39743280175E+02  0.39743280175E+02  0.00000000000E+00 0. -1.
         -1   -1    0    0    0  501 -0.00000000000E+00 -0.00000000000E+00 -0.11046655354E+04  0.11046655354E+04  0.00000000000E+00 0.  1.
         23    2    1    2    0    0  0.16890819088E+03  0.60179517507E+02 -0.41764927693E+03  0.46121000751E+03  0.78308372704E+02 0.  0.
          5    1    1    2  502    0 -0.15859893780E+02  0.18668424381E+02 -0.17733125274E+02  0.30528387307E+02  0.41800000000E+01 0.  1.
         -5    1    1    2    0  502 -0.15304829710E+03 -0.78847941888E+02 -0.62953985304E+03  0.65267042077E+03  0.41800000000E+01 0.  1.
        -11    1    3    3    0    0  0.63131485990E+02 -0.34340991867E+01 -0.21332636028E+03  0.22249834505E+03  0.00000000000E+00 0. -1.
         11    1    3    3    0    0  0.10577670489E+03  0.63613616693E+02 -0.20432291665E+03  0.23871166246E+03  0.00000000000E+00 0.  1.
</event>
<event>
 7    1  0.6684706E-006  0.1041191E+03  0.7561462E-02  0.1271865E+00
          1   -1    0    0  501    0  0.00000000000E+00  0.00000000000E+00  0.19204550294E+02  0.19204550294E+02  0.00000000000E+00 0. -1.
         -1   -1    0    0    0  501 -0.00000000000E+00 -0.00000000000E+00 -0.72727933275E+03  0.72727933275E+03  0.00000000000E+00 0.  1.
         23    2    1    2    0    0 -0.44152613549E+02 -0.97742045297E+01 -0.24105506078E+03  0.26088985748E+03  0.88943729689E+02 0.  0.
          5    1    1    2  502    0  0.36357488769E+02 -0.47163983268E+02 -0.12230509942E+03  0.13609672315E+03  0.41800000000E+01 0. -1.
         -5    1    1    2    0  502  0.77951247798E+01  0.56938187797E+02 -0.34471462225E+03  0.34949730241E+03  0.41800000000E+01 0. -1.
        -11    1    3    3    0    0 -0.61707651670E+02 -0.26049779447E+02 -0.21638305635E+03  0.22651280838E+03  0.00000000000E+00 0.  1.
         11    1    3    3    0    0  0.17555038121E+02  0.16275574918E+02 -0.24672004426E+02  0.34377049099E+02  0.00000000000E+00 0. -1.
</event>
<event>
 7    1  0.6684706E-006  0.9112710E+02  0.7561462E-02  0.1300145E+00
          1   -1    0    0  501    0  0.00000000000E+00  0.00000000000E+00  0.64949180435E+03  0.64949180435E+03  0.00000000000E+00 0. -1.
         -1   -1    0    0    0  501 -0.00000000000E+00 -0.00000000000E+00 -0.30341779261E+02  0.30341779261E+02  0.00000000000E+00 0.  1.
         23    2    1    2    0    0  0.18758142147E+02  0.55652934749E+02  0.12326911784E+03  0.16505771045E+03  0.92734326563E+02 0.  0.
          5    1    1    2  502    0 -0.43141782122E+02 -0.78612953314E+02  0.23228912194E+03  0.24903196254E+03  0.41800000000E+01 0. -1.
         -5    1    1    2    0  502  0.24383639975E+02  0.22960018565E+02  0.26359178531E+03  0.26574391062E+03  0.41800000000E+01 0. -1.
        -11    1    3    3    0    0  0.13558936989E+02  0.41029378716E+02  0.13742050678E+03  0.14405433133E+03  0.00000000000E+00 0. -1.
         11    1    3    3    0    0  0.51992051580E+01  0.14623556033E+02 -0.14151388946E+02  0.21003379120E+02  0.00000000000E+00 0.  1.
</event>
<event>
 7    1  0.6684706E-006  0.9627713E+02  0.7561462E-02  0.1288325E+00
         -2   -1    0    0    0  501 -0.00000000000E+00  0.00000000000E+00  0.79302315605E+02  0.79302315605E+02  0.00000000000E+00 0.  1.
          2   -1    0    0  501    0  0.00000000000E+00 -0.00000000000E+00 -0.67143197837E+03  0.67143197837E+03  0.00000000000E+00 0. -1.
         23    2    1    2    0    0  0.66407378355E+02 -0.46839238736E+02  0.17676847845E+02  0.12401612305E+03  0.91998226292E+02 0.  0.
          5    1    1    2  502    0 -0.66407376838E+02  0.51146028068E+02 -0.61379891374E+03  0.61950983430E+03  0.41800000000E+01 0. -1.
         -5    1    1    2    0  502 -0.15171542476E-05 -0.43067893322E+01  0.39924031222E+01  0.72083366349E+01  0.41800000000E+01 0.  1.
        -11    1    3    3    0    0  0.46548832941E+02  0.52860281514E+01  0.42229181348E+02  0.63071702840E+02  0.00000000000E+00 0.  1.
         11    1    3    3    0    0  0.19858545414E+02 -0.52125266887E+02 -0.24552333503E+02  0.60944420208E+02  0.00000000000E+00 0. -1.
</event>
<event>
 7    1  0.6684706E-006  0.1275976E+03  0.7561462E-02  0.1231065E+00
          1   -1    0    0  501    0  0.00000000000E+00  0.00000000000E+00  0.24685828509E+03  0.24685828509E+03  0.00000000000E+00 0. -1.
         -1   -1    0    0    0  501 -0.00000000000E+00 -0.00000000000E+00 -0.11979300353E+03  0.11979300353E+03  0.00000000000E+00 0.  1.
         23    2    1    2    0    0 -0.11088332518E+03  0.20230624653E+01 -0.16619304735E+02  0.14621559562E+03  0.93827472135E+02 0.  0.
          5    1    1    2  502    0  0.68019992397E+01 -0.33273770225E+02 -0.66808178830E+01  0.34864261160E+02  0.41800000000E+01 0.  1.
         -5    1    1    2    0  502  0.10408132594E+03  0.31250707759E+02  0.15036540417E+03  0.18557143184E+03  0.41800000000E+01 0.  1.
        -11    1    3    3    0    0 -0.54042967827E+02 -0.76034049625E+01 -0.54584594723E+02  0.77187642272E+02  0.00000000000E+00 0.  1.
         11    1    3    3    0    0 -0.56840357354E+02  0.96264674279E+01  0.37965289987E+02  0.69027953346E+02  0.00000000000E+00 0. -1.
</event>
<event>
 7    1  0.6684706E-006  0.1041065E+03  0.7561462E-02  0.1271890E+00
          2   -1    0    0  501    0  0.00000000000E+00  0.00000000000E+00  0.29304839335E+04  0.29304839335E+04  0.00000000000E+00 0. -1.
         -2   -1    0    0    0  501 -0.00000000000E+00 -0.00000000000E+00 -0.89720421236E+01  0.89720421236E+01  0.00000000000E+00 0.  1.
         23    2    1    2    0    0 -0.83120276114E+02  0.11252711034E+01  0.58897321556E+03  0.60208678262E+03  0.93320944160E+02 0.  0.
          5    1    1    2  502    0  0.61963558146E+02 -0.43774434618E+01  0.40939891946E+03  0.41410577417E+03  0.41800000000E+01 0.  1.
         -5    1    1    2    0  502  0.21156717968E+02  0.32521723584E+01  0.19231397563E+04  0.19232634188E+04  0.41800000000E+01 0.  1.
        -11    1    3    3    0    0 -0.30991737006E+02 -0.44932612428E+02  0.29384346477E+03  0.29887022135E+03  0.00000000000E+00 0. -1.
         11    1    3    3    0    0 -0.52128539108E+02  0.46057883531E+02  0.29512975080E+03  0.30321656127E+03  0.00000000000E+00 0.  1.
</event>
<event>
 7    1  0.6684706E-006  0.5965106E+02  0.7561462E-02  0.1399302E+00
          2   -1    0    0  501    0  0.00000000000E+00  0.00000000000E+00  0.52670404201E+03  0.52670404201E+03  0.00000000000E+00 0. -1.
         -2   -1    0    0    0  501 -0.00000000000E+00 -0.00000000000E+00 -0.19743686456E+02  0.19743686456E+02  0.00000000000E+00 0.  1.
         23    2    1    2    0    0 -0.10875548627E+02 -0.22120883854E+01  0.20081671979E+03  0.22064182314E+03  0.90731958409E+02 0.  0.
          5    1    1    2  502    0  0.26312962491E+02 -0.48896482570E+01  0.30708885311E+03  0.30828122998E+03  0.41800000000E+01 0. -1.
         -5    1    1    2    0  502 -0.15437413864E+02  0.71017366424E+01 -0.94521734699E+00  0.17524675346E+02  0.41800000000E+01 0.  1.
        -11    1    3    3    0    0 -0.42441925957E+02 -0.62199717128E+01  0.47264805894E+02  0.63827635106E+02  0.00000000000E+00 0.  1.
         11    1    3    3    0    0  0.31566377330E+02  0.40078833274E+01  0.15355191390E+03  0.15681418803E+03  0.00000000000E+00 0. -1.
</event>
<event>
 7    1  0.6684706E-006  0.1158231E+03  0.7561462E-02  0.1250151E+00
          2   -1    0    0  501    0  0.00000000000E+00  0.00000000000E+00  0.14271378128E+03  0.14271378128E+03  0.00000000000E+00 0. -1.
         -2   -1    0    0    0  501 -0.00000000000E+00 -0.00000000000E+00 -0.11613712960E+03  0.11613712960E+03  0.00000000000E+00 0.  1.
         23    2    1    2    0    0 -0.22368578173E+02  0.51389005991E+02 -0.30320675451E+02  0.11044500214E+03  0.90208491354E+02 0.  0.
          5    1    1    2  502    0  0.19352287695E+02  0.40472821976E+02  0.19201301095E+02  0.48976756951E+02  0.41800000000E+01 0.  1.
         -5    1    1    2    0  502  0.30162904780E+01 -0.91861827967E+02  0.37696026042E+02  0.99429151787E+02  0.41800000000E+01 0.  1.
        -11    1    3    3    0    0  0.20345360046E+02 -0.76306682339E+01 -0.30672604075E+02  0.37589485416E+02  0.00000000000E+00 0.  1.
         11    1    3    3    0    0 -0.42713938219E+02  0.59019674225E+02  0.35192862422E+00  0.72855516727E+02  0.00000000000E+00 0. -1.
</event>
<event>
 7    1  0.6684706E-006  0.1394862E+03  0.7561462E-02  0.1214022E+00
         -2   -1    0    0    0  501 -0.00000000000E+00  0.00000000000E+00  0.17809225036E+02  0.17809225036E+02  0.00000000000E+00 0.  1.
          2   -1    0    0  501    0  0.00000000000E+00 -0.00000000000E+00 -0.29754384841E+04  0.29754384841E+04  0.00000000000E+00 0. -1.
         23    2    1    2    0    0 -0.69944006140E+02  0.11462604431E+03 -0.43923035438E+03  0.46817107783E+03  0.90716921657E+02 0.  0.
          5    1    1    2  502    0  0.47698846703E+02 -0.81472319840E+02 -0.71345120918E+03  0.71968258223E+03  0.41800000000E+01 0.  1.
         -5    1    1    2    0  502  0.22245159437E+02 -0.33153724472E+02 -0.18049476955E+04  0.18053940491E+04  0.41800000000E+01 0.  1.
        -11    1    3    3    0    0 -0.56081812469E+02  0.41158155852E+02 -0.10694790386E+03  0.12758141567E+03  0.00000000000E+00 0.  1.
         11    1    3    3    0    0 -0.13862193671E+02  0.73467888461E+02 -0.33228245052E+03  0.34058966216E+03  0.00000000000E+00 0. -1.
</event>
<event>
 7    1  0.6684706E-006  0.9112925E+02  0.7561462E-02  0.1300140E+00
          1   -1    0    0  501    0  0.00000000000E+00  0.00000000000E+00  0.13048704279E+04  0.13048704279E+04  0.00000000000E+00 0. -1.
         -1   -1    0    0    0  501 -0.00000000000E+00 -0.00000000000E+00 -0.10648175886E+02  0.10648175886E+02  0.00000000000E+00 0.  1.
         23    2    1    2    0    0 -0.20694303463E+02  0.40288900573E+02  0.43181351002E+03  0.44290853570E+03  0.87484935014E+02 0.  0.
          5    1    1    2  502    0  0.99272723728E+01  0.20537762444E+02  0.67175621384E+03  0.67215640565E+03  0.41800000000E+01 0. -1.
         -5    1    1    2    0  502  0.10767031090E+02 -0.60826663017E+02  0.19065252812E+03  0.20045366241E+03  0.41800000000E+01 0. -1.
        -11    1    3    3    0    0  0.20468538088E+02 -0.17001966399E+02  0.15376908114E+03  0.15605434383E+03  0.00000000000E+00 0.  1.
         11    1    3    3    0    0 -0.41162841551E+02  0.57290866973E+02  0.27804442889E+03  0.28685419188E+03  0.00000000000E+00 0. -1.
</event>
<event>
 7    1  0.6684706E-006  0.9620831E+02  0.7561462E-02  0.1288478E+00
         -2   -1    0    0    0  501 -0.00000000000E+00  0.00000000000E+00  0.11796153882E+03  0.11796153882E+03  0.00000000000E+00 0.  1.
          2   -1    0    0  501    0  0.00000000000E+00 -0.00000000000E+00 -0.13939799736E+03  0.13939799736E+03  0.00000000000E+00 0. -1.
         23    2    1    2    0    0  0.46265191858E+02  0.42002067391E+02  0.27606249991E+01  0.11545125688E+03  0.97039837298E+02 0.  0.
          5    1    1    2  502    0  0.11485444254E+02  0.30173355192E+02  0.21192037876E+02  0.38844840875E+02  0.41800000000E+01 0. -1.
         -5    1    1    2    0  502 -0.57750636112E+02 -0.72175422582E+02 -0.45389121418E+02  0.10306343842E+03  0.41800000000E+01 0. -1.
        -11    1    3    3    0    0  0.19538929353E+02  0.25871246426E+01  0.46679142324E+02  0.50669569785E+02  0.00000000000E+00 0.  1.
         11    1    3    3    0    0  0.26726262505E+02  0.39414942748E+02 -0.43918517324E+02  0.64781687098E+02  0.00000000000E+00 0. -1.
</event>
<event>
 7    1  0.6684706E-006  0.1519704E+03  0.7561462E-02  0.1198073E+00
         -1   -1    0    0    0  501 -0.00000000000E+00  0.00000000000E+00  0.79261031862E+02  0.79261031862E+02  0.00000000000E+00 0.  1.
          1   -1    0    0  501    0  0.00000000000E+00 -0.00000000000E+00 -0.34547084997E+03  0.34547084997E+03  0.00000000000E+00 0. -1.
         23    2    1    2    0    0 -0.83164890065E+02 -0.86321513812E+02 -0.16943770680E+03  0.22628252575E+03  0.90149000467E+02 0.  0.
          5    1    1    2  502    0  0.52353519695E+01  0.88541696098E+02 -0.77912224319E+02  0.11813055471E+03  0.41800000000E+01 0.  1.
         -5    1    1    2    0  502  0.77929538096E+02 -0.22201822864E+01 -0.18859886989E+02  0.80318801376E+02  0.41800000000E+01 0.  1.
        -11    1    3    3    0    0 -0.36723592593E+02 -0.82704178569E+02 -0.63477064466E+02  0.11053479596E+03  0.00000000000E+00 0.  1.
         11    1    3    3    0    0 -0.46441297472E+02 -0.36173352426E+01 -0.10596064234E+03  0.11574772978E+03  0.00000000000E+00 0. -1.
</event>
<event>
 6    1  0.6684706E-006  0.2209458E+03  0.7561462E-02  0.1133180E+00
          2   -1    0    0  501    0  0.00000000000E+00  0.00000000000E+00  0.95292508225E+02  0.95292508225E+02  0.00000000000E+00 0. -1.
         -2   -1    0    0    0  501 -0.00000000000E+00 -0.00000000000E+00 -0.64398182824E+03  0.64398182824E+03  0.00000000000E+00 0.  1.
          5    1    1    2  502    0  0.22568715409E+02  0.38816731734E+02 -0.89185704377E+01  0.45968455232E+02  0.41800000000E+01 0.  1.
         -5    1    1    2    0  502 -0.14548242996E+03  0.12342968287E+03 -0.12142036318E+03  0.22618665088E+03  0.41800000000E+01 0.  1.
        -11    1    1    2    0    0  0.65511125108E+02 -0.11162055264E+03 -0.23192291675E+03  0.26559197014E+03  0.00000000000E+00 0.  1.
         11    1    1    2    0    0  0.57402589444E+02 -0.50625861960E+02 -0.18642746964E+03  0.20152726022E+03  0.00000000000E+00 0. -1.
</event>
<event>
 7    1  0.6684706E-006  0.1075252E+03  0.7561462E-02  0.1265223E+00
          1   -1    0    0  501    0  0.00000000000E+00  0.00000000000E+00  0.67664977709E+02  0.67664977709E+02  0.00000000000E+00 0. -1.
         -1   -1    0    0    0  501 -0.00000000000E+00 -0.00000000000E+00 -0.26055691235E+03  0.26055691235E+03  0.00000000000E+00 0.  1.
         23    2    1    2    0    0  0.12620394857E+02 -0.67803742739E+02 -0.13532841270E+03  0.17421604535E+03  0.85327775540E+02 0.  0.
          5    1    1    2  502    0  0.11732915089E+02  0.93681579740E+02 -0.10795324602E+02  0.95120508369E+02  0.41800000000E+01 0. -1.
         -5    1    1    2    0  502 -0.24353309946E+02 -0.25877837002E+02 -0.46768197339E+02  0.58885336337E+02  0.41800000000E+01 0. -1.
        -11    1    3    3    0    0  0.25548340848E+02 -0.13406907060E+02 -0.10836849737E+03  0.11214363156E+03  0.00000000000E+00 0.  1.
         11    1    3    3    0    0 -0.12927945991E+02 -0.54396835679E+02 -0.26959915327E+02  0.62072413791E+02  0.00000000000E+00 0. -1.
</event>
<event>
 7    1  0.6684706E-006  0.9096746E+02  0.7561462E-02  0.1300526E+00
          3   -1    0    0  501    0  0.00000000000E+00  0.00000000000E+00  0.90101348336E+02  0.90101348336E+02  0.00000000000E+00 0. -1.
         -3   -1    0    0    0  501 -0.00000000000E+00 -0.00000000000E+00 -0.14319751720E+03  0.14319751720E+03  0.00000000000E+00 0.  1.
         23    2    1    2    0    0  0.31176938284E+02  0.13413280766E+02 -0.33787605269E+02  0.10225818537E+03  0.90350520885E+02 0.  0.
          5    1    1    2  502    0 -0.67463287759E+02  0.14243442264E+02  0.18642237006E+02  0.71548418874E+02  0.41800000000E+01 0. -1.
         -5    1    1    2    0  502  0.36286349475E+02 -0.27656723030E+02 -0.37950800602E+02  0.59492261290E+02  0.41800000000E+01 0. -1.
        -11    1    3    3    0    0  0.32143969385E+02 -0.17170929052E+02 -0.54317344687E+02  0.65409857867E+02  0.00000000000E+00 0.  1.
         11    1    3    3    0    0 -0.96703110119E+00  0.30584209818E+02  0.20529739418E+02  0.36848327505E+02  0.00000000000E+00 0. -1.
</event>
<event>
 7    1  0.6684706E-006  0.1275489E+03  0.7561462E-02  0.1231139E+00
         -1   -1    0    0    0  501 -0.00000000000E+00  0.00000000000E+00  0.19700115868E+02  0.19700115868E+02  0.00000000000E+00 0.  1.
          1   -1    0    0  501    0  0.00000000000E+00 -0.00000000000E+00 -0.89617125877E+03  0.89617125877E+03  0.00000000000E+00 0. -1.
         23    2    1    2    0    0 -0.65002176299E+02 -0.33131103727E+02 -0.44309792621E+03  0.45894363604E+03  0.94712913029E+02 0.  0.
          5    1    1    2  502    0  0.55867267194E+02  0.79500355241E+02 -0.28279284649E+03  0.29904970231E+03  0.41800000000E+01 0.  1.
         -5    1    1    2    0  502  0.91349091046E+01 -0.46369251514E+02 -0.15058037021E+03  0.15787803629E+03  0.41800000000E+01 0.  1.
        -11    1    3    3    0    0 -0.17947651604E+02  0.27996248956E+02 -0.64516646623E+02  0.72583096140E+02  0.00000000000E+00 0. -1.
         11    1    3    3    0    0 -0.47054524695E+02 -0.61127352683E+02 -0.37858127959E+03  0.38636053990E+03  0.00000000000E+00 0.  1.
</event>
<event>
 7    1  0.6684706E-006  0.1155398E+03  0.7561462E-02  0.1250642E+00
         -2   -1    0    0    0  501 -0.00000000000E+00  0.00000000000E+00  0.83210836945E+02  0.83210836945E+02  0.00000000000E+00 0.  1.
          2   -1    0    0  501    0  0.00000000000E+00 -0.00000000000E+00 -0.20615376167E+03  0.20615376167E+03  0.00000000000E+00 0. -1.
         23    2    1    2    0    0 -0.40476595162E+02  0.22985838837E+02  0.39129894098E+01  0.10522865011E+03  0.94292384506E+02 0.  0.
          5    1    1    2  502    0 -0.40975637860E+02  0.30195258324E+01 -0.70307984029E+02  0.81540207582E+02  0.41800000000E+01 0.  1.
         -5    1    1    2    0  502  0.81452233022E+02 -0.26005364669E+02 -0.56547930109E+02  0.10259574092E+03  0.41800000000E+01 0.  1.
        -11    1    3    3    0    0 -0.28446326294E+02  0.59381444879E+02 -0.44538140836E+01  0.65993832556E+02  0.00000000000E+00 0. -1.
         11    1    3    3    0    0 -0.12030268868E+02 -0.36395606041E+02  0.83668034935E+01  0.39234817559E+02  0.00000000000E+00 0.  1.
</event>
<event>
 7    1  0.6684706E-006  0.1134681E+03  0.7561462E-02  0.1254279E+00
          3   -1    0    0  501    0  0.00000000000E+00  0.00000000000E+00  0.84566859301E+02  0.84566859301E+02  0.00000000000E+00 0. -1.
         -3   -1    0    0    0  501 -0.00000000000E+00 -0.00000000000E+00 -0.25952193169E+03  0.25952193169E+03  0.00000000000E+00 0.  1.
         23    2    1    2    0    0 -0.61239107421E+02  0.33497883353E+02 -0.16401530679E+03  0.20042366325E+03  0.91631258096E+02 0.  0.
          5    1    1    2  502    0 -0.32712353752E+02  0.45744090549E+01 -0.24454971156E+02  0.41310305257E+02  0.41800000000E+01 0. -1.
         -5    1    1    2    0  502  0.93951461173E+02 -0.38072292408E+02  0.13515205556E+02  0.10235482249E+03  0.41800000000E+01 0. -1.
        -11    1    3    3    0    0 -0.29549599320E+02  0.48756227925E+02 -0.15345121956E+03  0.16369980259E+03  0.00000000000E+00 0.  1.
         11    1    3    3    0    0 -0.31689508102E+02 -0.15258344572E+02 -0.10564087229E+02  0.36723860660E+02  0.00000000000E+00 0. -1.
</event>
<event>
 7    1  0.6684706E-006  0.1603777E+03  0.7561462E-02  0.1188271E+00
         -2   -1    0    0    0  501 -0.00000000000E+00  0.00000000000E+00  0.12108837735E+03  0.12108837735E+03  0.00000000000E+00 0.  1.
          2   -1    0    0  501    0  0.00000000000E+00 -0.00000000000E+00 -0.25071403995E+03  0.25071403995E+03  0.00000000000E+00 0. -1.
         23    2    1    2    0    0  0.56981694139E+02  0.10646741638E+03 -0.12769055834E+03  0.19792437725E+03  0.91032720492E+02 0.  0.
          5    1    1    2  502    0 -0.94005474965E+02 -0.62455315625E+02  0.14625349147E+02  0.11388182037E+03  0.41800000000E+01 0. -1.
         -5    1    1    2    0  502  0.37023780826E+02 -0.44012100757E+02 -0.16560453407E+02  0.59996219687E+02  0.41800000000E+01 0. -1.
        -11    1    3    3    0    0  0.62933605568E+02  0.23821324941E+02 -0.69031661143E+02  0.96402616520E+02  0.00000000000E+00 0.  1.
         11    1    3    3    0    0 -0.59519114289E+01  0.82646091441E+02 -0.58658897200E+02  0.10152176073E+03  0.00000000000E+00 0. -1.
</event>
<event>
 7    1  0.6684706E-006  0.1467841E+03  0.7561462E-02  0.1204481E+00
          2   -1    0    0  501    0  0.00000000000E+00  0.00000000000E+00  0.45746909389E+03  0.45746909389E+03  0.00000000000E+00 0. -1.
         -2   -1    0    0    0  501 -0.00000000000E+00 -0.00000000000E+00 -0.83667017793E+02  0.83667017793E+02  0.00000000000E+00 0.  1.
         23    2    1    2    0    0  0.12840744931E+03 -0.25391845975E+02  0.44646919409E+02  0.16547171209E+03  0.90853294989E+02 0.  0.
          5    1    1    2  502    0 -0.10288439602E+03 -0.17529828134E+02  0.11343143750E+03  0.15419681330E+03  0.41800000000E+01 0. -1.
         -5    1    1    2    0  502 -0.25523053285E+02  0.42921674108E+02  0.21572371919E+03  0.22146758629E+03  0.41800000000E+01 0. -1.
        -11    1    3    3    0    0  0.73245780400E+02 -0.37861115895E+02 -0.14411659038E+02  0.83702475228E+02  0.00000000000E+00 0.  1.
         11    1    3    3    0    0  0.55161668906E+02  0.12469269920E+02  0.59058578447E+02  0.81769236863E+02  0.00000000000E+00 0. -1.
</event>
<event>
 7    1  0.6684706E-006  0.1076391E+03  0.7561462E-02  0.1265005E+00
         -2   -1    0    0    0  501 -0.00000000000E+00  0.00000000000E+00  0.46024404748E+03  0.46024404748E+03  0.00000000000E+00 0.  1.
          2   -1    0    0  501    0  0.00000000000E+00 -0.00000000000E+00 -0.34893088650E+02  0.34893088650E+02  0.00000000000E+00 0. -1.
         23    2    1    2    0    0  0.27732810965E+02 -0.58672876937E+02  0.20114062870E+03  0.23031640676E+03  0.91523108636E+02 0.  0.
          5    1    1    2  502    0  0.45556297398E+02  0.59829891675E+01  0.46766445735E+02  0.65694331861E+02  0.41800000000E+01 0.  1.
         -5    1    1    2    0  502 -0.73289108362E+02  0.52689887770E+02  0.17744388439E+03  0.19912639751E+03  0.41800000000E+01 0.  1.
        -11    1    3    3    0    0 -0.87001288715E+01 -0.33212463370E+02  0.12543876355E+02  0.36552822045E+02  0.00000000000E+00 0. -1.
         11    1    3    3    0    0  0.36432939836E+02 -0.25460413568E+02  0.18859675235E+03  0.19376358471E+03  0.00000000000E+00 0.  1.
</event>
<event>
 7    1  0.6684706E-006  0.1621549E+03  0.7561462E-02  0.1186285E+00
          2   -1    0    0  501    0  0.00000000000E+00  0.00000000000E+00  0.35195789955E+03  0.35195789955E+03  0.00000000000E+00 0. -1.
         -2   -1    0    0    0  501 -0.00000000000E+00 -0.00000000000E+00 -0.10158097607E+03  0.10158097607E+03  0.00000000000E+00 0.  1.
         23    2    1    2    0    0 -0.41674619891E+02  0.14358321603E+03  0.69661882945E+02  0.18772378826E+03  0.89635533546E+02 0.  0.
          5    1    1    2  502    0 -0.28723538937E+02 -0.43726357776E+02  0.63523098579E+01  0.52866438257E+02  0.41800000000E+01 0.  1.
         -5    1    1    2    0  502  0.70398158828E+02 -0.99856858256E+02  0.17436273067E+03  0.21294864910E+03  0.41800000000E+01 0.  1.
        -11    1    3    3    0    0 -0.20703673945E+02  0.63251328396E+02  0.79993605383E+02  0.10405935595E+03  0.00000000000E+00 0.  1.
         11    1    3    3    0    0 -0.20970945946E+02  0.80331887636E+02 -0.10331722439E+02  0.83664432309E+02  0.00000000000E+00 0. -1.
</event>
<event>
 7    1  0.6684706E-006  0.1067970E+03  0.7561462E-02  0.1266619E+00
         -1   -1    0    0    0  501 -0.00000000000E+00  0.00000000000E+00  0.22708431690E+02  0.22708431690E+02  0.00000000000E+00 0.  1.
          1   -1    0    0  501    0  0.00000000000E+00 -0.00000000000E+00 -0.63285011285E+03  0.63285011285E+03  0.00000000000E+00 0. -1.
         23    2    1    2    0    0 -0.24405896247E+02  0.17403204923E+02 -0.22862285071E+03  0.25293968093E+03  0.10397862764E+03 0.  0.
          5    1    1    2  502    0  0.49710728491E+02 -0.55508775163E+02 -0.16226243282E+03  0.17860277196E+03  0.41800000000E+01 0.  1.
         -5    1    1    2    0  502 -0.25304832243E+02  0.38105570240E+02 -0.21925639762E+03  0.22401609165E+03  0.41800000000E+01 0.  1.
        -11    1    3    3    0    0 -0.35863500732E+02  0.48252875457E+02 -0.76496900495E+02  0.97294945707E+02  0.00000000000E+00 0.  1.
         11    1    3    3    0    0  0.11457604485E+02 -0.30849670534E+02 -0.15212595022E+03  0.15564473522E+03  0.00000000000E+00 0. -1.
</event>
<event>
 7    1  0.6684706E-006  0.1020980E+03  0.7561462E-02  0.1275945E+00
          1   -1    0    0  501    0  0.00000000000E+00  0.00000000000E+00  0.27244443179E+02  0.27244443179E+02  0.00000000000E+00 0. -1.
         -1   -1    0    0    0  501 -0.00000000000E+00 -0.00000000000E+00 -0.52957706293E+03  0.52957706293E+03  0.00000000000E+00 0.  1.
         23    2    1    2    0    0 -0.47205384886E+02 -0.11177518137E+02 -0.18581033008E+03  0.21303816258E+03  0.92230660200E+02 0.  0.
          5    1    1    2  502    0  0.80492639188E+01  0.55522989378E+02 -0.24246439943E+03  0.24890570582E+03  0.41800000000E+01 0.  1.
         -5    1    1    2    0  502  0.39156120967E+02 -0.44345471241E+02 -0.74057890247E+02  0.94877637705E+02  0.41800000000E+01 0.  1.
        -11    1    3    3    0    0 -0.67451484920E+02 -0.59031360252E+01 -0.17844284360E+03  0.19085700999E+03  0.00000000000E+00 0.  1.
         11    1    3    3    0    0  0.20246100034E+02 -0.52743821120E+01 -0.73674864780E+01  0.22181152591E+02  0.00000000000E+00 0. -1.
</event>
<event>
 7    1  0.6684706E-006  0.1217413E+03  0.7561462E-02  0.1240252E+00
          1   -1    0    0  501    0  0.00000000000E+00  0.00000000000E+00  0.38387896521E+03  0.38387896521E+03  0.00000000000E+00 0. -1.
         -1   -1    0    0    0  501 -0.00000000000E+00 -0.00000000000E+00 -0.78062017114E+02  0.78062017114E+02  0.00000000000E+00 0.  1.
         23    2    1    2    0    0 -0.48523392380E+02 -0.76516947578E+02  0.11355837822E+02  0.12942950357E+03  0.91726105696E+02 0.  0.
          5    1    1    2  502    0  0.67327058699E+02  0.84664707329E+02  0.14166444926E+03  0.17829002800E+03  0.41800000000E+01 0. -1.
         -5    1    1    2    0  502 -0.18803666319E+02 -0.81477597506E+01  0.15279666102E+03  0.15422145076E+03  0.41800000000E+01 0. -1.
        -11    1    3    3    0    0 -0.47247415574E+02 -0.10645636603E+02  0.34648355611E+02  0.59549612959E+02  0.00000000000E+00 0. -1.
         11    1    3    3    0    0 -0.12759768067E+01 -0.65871310975E+02 -0.23292517789E+02  0.69879890608E+02  0.00000000000E+00 0.  1.
</event>
<event>
 7    1  0.6684706E-006  0.1275951E+03  0.7561462E-02  0.1231068E+00
          2   -1    0    0  501    0  0.00000000000E+00  0.00000000000E+00  0.94113987612E+02  0.94113987612E+02  0.00000000000E+00 0. -1.
         -2   -1    0    0    0  501 -0.00000000000E+00 -0.00000000000E+00 -0.27862803435E+03  0.27862803435E+03  0.00000000000E+00 0.  1.
         23    2    1    2    0    0  0.98657651681E+02  0.24860690551E+02 -0.15870884191E+03  0.20944816194E+03  0.91261436916E+02 0.  0.
          5    1    1    2  502    0 -0.12307638832E+03 -0.29843628524E+02 -0.41751278045E+02  0.13341319704E+03  0.41800000000E+01 0.  1.
         -5    1    1    2    0  502  0.24418736637E+02  0.49829379734E+01  0.15946073216E+02  0.29880662992E+02  0.41800000000E+01 0.  1.
        -11    1    3    3    0    0  0.83024850152E+02  0.14059536270E+02 -0.47606119860E+02  0.96732305623E+02  0.00000000000E+00 0. -1.
         11    1    3    3    0    0  0.15632801529E+02  0.10801154281E+02 -0.11110272205E+03  0.11271585632E+03  0.00000000000E+00 0.  1.
</event>
<event>
 7    1  0.6684706E-006  0.2370971E+03  0.7561462E-02  0.1121742E+00
          3   -1    0    0  501    0  0.00000000000E+00  0.00000000000E+00  0.11252848684E+03  0.11252848684E+03  0.00000000000E+00 0. -1.
         -3   -1    0    0    0  501 -0.00000000000E+00 -0.00000000000E+00 -0.66432535383E+03  0.66432535383E+03  0.00000000000E+00 0.  1.
         23    2    1    2    0    0  0.21383392870E+02  0.21978734590E+03 -0.43737827793E+03  0.49845983577E+03  0.91644546837E+02 0.  0.
          5    1    1    2  502    0  0.25430977709E+02 -0.16725222928E+03 -0.36118132940E+02  0.17303766859E+03  0.41800000000E+01 0.  1.
         -5    1    1    2    0  502 -0.46814370579E+02 -0.52535116625E+02 -0.78300456122E+02  0.10535633631E+03  0.41800000000E+01 0.  1.
        -11    1    3    3    0    0  0.48347653154E+02  0.18023977887E+03 -0.30348599196E+03  0.35626902864E+03  0.00000000000E+00 0.  1.
         11    1    3    3    0    0 -0.26964260284E+02  0.39547567032E+02 -0.13389228597E+03  0.14219080713E+03  0.00000000000E+00 0. -1.
</event>
<event>
 7    1  0.6684706E-006  0.1039879E+03  0.7561462E-02  0.1272127E+00
         -1   -1    0    0    0  501 -0.00000000000E+00  0.00000000000E+00  0.43302006156E+02  0.43302006156E+02  0.00000000000E+00 0.  1.
          1   -1    0    0  501    0  0.00000000000E+00 -0.00000000000E+00 -0.48136159438E+03  0.48136159438E+03  0.00000000000E+00 0. -1.
         23    2    1    2    0    0  0.65779517386E+02  0.26424464427E+02 -0.86381670102E+02  0.14472932401E+03  0.91976013557E+02 0.  0.
          5    1    1    2  502    0  0.27927253412E+02  0.17596221784E+02 -0.43253782339E+02  0.54570327018E+02  0.41800000000E+01 0. -1.
         -5    1    1    2    0  502 -0.93706770799E+02 -0.44020686211E+02 -0.30842413578E+03  0.32536394951E+03  0.41800000000E+01 0. -1.
        -11    1    3    3    0    0  0.23450039020E+02  0.67007560855E+01 -0.94265533679E+02  0.97369375585E+02  0.00000000000E+00 0. -1.
         11    1    3    3    0    0  0.42329478366E+02  0.19723708342E+02  0.78838635765E+01  0.47359948421E+02  0.00000000000E+00 0.  1.
</event>
<event>
 7    1  0.6684706E-006  0.9981256E+02  0.7561462E-02  0.1280691E+00
         -1   -1    0    0    0  501 -0.00000000000E+00  0.00000000000E+00  0.27047954751E+03  0.27047954751E+03  0.00000000000E+00 0.  1.
          1   -1    0    0  501    0  0.00000000000E+00 -0.00000000000E+00 -0.51480883657E+02  0.51480883657E+02  0.00000000000E+00 0. -1.
         23    2    1    2    0    0  0.86055773830E+01  0.46847309718E+02  0.89131160187E+02  0.13546312049E+03  0.90206246497E+02 0.  0.
          5    1    1    2  502    0 -0.46719091154E+02 -0.16950173479E+02  0.12852011216E+03  0.13785816439E+03  0.41800000000E+01 0.  1.
         -5    1    1    2    0  502  0.38113513771E+02 -0.29897136239E+02  0.13473915031E+01  0.48639146283E+02  0.41800000000E+01 0.  1.
        -11    1    3    3    0    0 -0.22872938183E+02 -0.17960644688E+02  0.17909116680E+02  0.34153953197E+02  0.00000000000E+00 0.  1.
         11    1    3    3    0    0  0.31478515566E+02  0.64807954406E+02  0.71222043507E+02  0.10130916729E+03  0.00000000000E+00 0. -1.
</event>
<event>
 7    1  0.6684706E-006  0.1220605E+03  0.7561462E-02  0.1239736E+00
          2   -1    0    0  501    0  0.00000000000E+00  0.00000000000E+00  0.14928878337E+03  0.14928878337E+03  0.00000000000E+00 0. -1.
         -2   -1    0    0    0  501 -0.00000000000E+00 -0.00000000000E+00 -0.29640895411E+03  0.29640895411E+03  0.00000000000E+00 0.  1.
         23    2    1    2    0    0 -0.47849358357E+02  0.12451067924E+02 -0.15477376462E+03  0.18588716541E+03  0.90302435529E+02 0.  0.
          5    1    1    2  502    0  0.95419193410E+02 -0.65568163970E+01  0.11053715163E+03  0.14623183170E+03  0.41800000000E+01 0. -1.
         -5    1    1    2    0  502 -0.47569835053E+02 -0.58942515269E+01 -0.10288355775E+03  0.11357874037E+03  0.41800000000E+01 0.  1.
        -11    1    3    3    0    0 -0.21276109827E+00 -0.33843262201E+02 -0.73527334689E+02  0.80942452460E+02  0.00000000000E+00 0.  1.
         11    1    3    3    0    0 -0.47636597259E+02  0.46294330124E+02 -0.81246429933E+02  0.10494471295E+03  0.00000000000E+00 0. -1.
</event>
<event>
 7    1  0.6684706E-006  0.8728574E+02  0.7561462E-02  0.1309561E+00
         -1   -1    0    0    0  501 -0.00000000000E+00  0.00000000000E+00  0.18258289801E+02  0.18258289801E+02  0.00000000000E+00 0.  1.
          1   -1    0    0  501    0  0.00000000000E+00 -0.00000000000E+00 -0.10352426120E+04  0.10352426120E+04  0.00000000000E+00 0. -1.
         23    2    1    2    0    0  0.16943124225E+02  0.12858519443E+02 -0.13846435548E+03  0.16586271556E+03  0.88801191965E+02 0.  0.
          5    1    1    2  502    0  0.47054824278E+02  0.36820007312E+01 -0.57635322978E+03  0.57829770145E+03  0.41800000000E+01 0. -1.
         -5    1    1    2    0  502 -0.63997948503E+02 -0.16540520174E+02 -0.30216673691E+03  0.30934048477E+03  0.41800000000E+01 0. -1.
        -11    1    3    3    0    0  0.26920700047E+02 -0.15381015105E+02 -0.13151019783E+03  0.13511562400E+03  0.00000000000E+00 0. -1.
         11    1    3    3    0    0 -0.99775758215E+01  0.28239534548E+02 -0.69541576522E+01  0.30747091560E+02  0.00000000000E+00 0.  1.
</event>
<event>
 7    1  0.6684706E-006  0.2613155E+03  0.7561462E-02  0.1106355E+00
          1   -1    0    0  501    0  0.00000000000E+00  0.00000000000E+00  0.21869883274E+04  0.21869883274E+04  0.00000000000E+00 0. -1.
         -1   -1    0    0    0  501 -0.00000000000E+00 -0.00000000000E+00 -0.42450150816E+02  0.42450150816E+02  0.00000000000E+00 0.  1.
         23    2    1    2    0    0 -0.24846250273E+03 -0.45364037065E+02  0.57663186721E+03  0.63640091899E+03  0.93329032395E+02 0.  0.
          5    1    1    2  502    0  0.19269884672E+03  0.72627046807E+02  0.95371245311E+03  0.97570100393E+03  0.41800000000E+01 0. -1.
         -5    1    1    2    0  502  0.55763656013E+02 -0.27263009742E+02  0.61419385629E+03  0.61733655532E+03  0.41800000000E+01 0. -1.
        -11    1    3    3    0    0 -0.85228761172E+02 -0.30559937679E+02  0.11392691711E+03  0.14552386047E+03  0.00000000000E+00 0.  1.
         11    1    3    3    0    0 -0.16323374156E+03 -0.14804099385E+02  0.46270495010E+03  0.49087705852E+03  0.00000000000E+00 0. -1.
</event>
<event>
 7    1  0.6684706E-006  0.7779454E+02  0.7561462E-02  0.1335429E+00
          1   -1    0    0  501    0  0.00000000000E+00  0.00000000000E+00  0.25665992324E+03  0.25665992324E+03  0.00000000000E+00 0. -1.
         -1   -1    0    0    0  501 -0.00000000000E+00 -0.00000000000E+00 -0.63130855262E+02  0.63130855262E+02  0.00000000000E+00 0.  1.
         23    2    1    2    0    0  0.18276446681E+02 -0.40042664314E+02  0.21674585076E+02  0.10272128704E+03  0.90246505218E+02 0.  0.
          5    1    1    2  502    0  0.13302372691E+02 -0.28048138357E+01 -0.16214609997E+02  0.21568636425E+02  0.41800000000E+01 0. -1.
         -5    1    1    2    0  502 -0.31578819372E+02  0.42847478149E+02  0.18806909290E+03  0.19550085504E+03  0.41800000000E+01 0. -1.
        -11    1    3    3    0    0  0.14572482009E+02 -0.63029305135E+02 -0.77993623148E+01  0.65160421961E+02  0.00000000000E+00 0.  1.
         11    1    3    3    0    0  0.37039646716E+01  0.22986640821E+02  0.29473947391E+02  0.37560865077E+02  0.00000000000E+00 0. -1.
</event>
<event>
 7    1  0.6684706E-006  0.1051740E+03  0.7561462E-02  0.1269777E+00
         -1   -1    0    0    0  501 -0.00000000000E+00  0.00000000000E+00  0.58729734486E+03  0.58729734486E+03  0.00000000000E+00 0.  1.
          1   -1    0    0  501    0  0.00000000000E+00 -0.00000000000E+00 -0.23453191282E+02  0.23453191282E+02  0.00000000000E+00 0. -1.
         23    2    1    2    0    0 -0.21738484591E+02 -0.30111472530E+02  0.31479042983E+03  0.32958216803E+03  0.90289137130E+02 0.  0.
          5    1    1    2  502    0  0.60863007409E+02  0.41065296276E+02  0.86374442845E+02  0.11344020895E+03  0.41800000000E+01 0. -1.
         -5    1    1    2    0  502 -0.39124522818E+02 -0.10953823746E+02  0.16267928090E+03  0.16772815916E+03  0.41800000000E+01 0. -1.
        -11    1    3    3    0    0 -0.37034163253E+02  0.21027338309E+02  0.17040841783E+03  0.17564938677E+03  0.00000000000E+00 0.  1.
         11    1    3    3    0    0  0.15295678661E+02 -0.51138810840E+02  0.14438201200E+03  0.15393278127E+03  0.00000000000E+00 0. -1.
</event>
<event>
 7    1  0.6684706E-006  0.1184698E+03  0.7561462E-02  0.1245643E+00
          2   -1    0    0  501    0  0.00000000000E+00  0.00000000000E+00  0.64855604154E+03  0.64855604154E+03  0.00000000000E+00 0. -1.
         -2   -1    0    0    0  501 -0.00000000000E+00 -0.00000000000E+00 -0.22891036055E+02  0.22891036055E+02  0.00000000000E+00 0.  1.
         23    2    1    2    0    0 -0.40751460474E+02 -0.41844978667E+02  0.24465733827E+03  0.26619828100E+03  0.87135686550E+02 0.  0.
          5    1    1    2  502    0  0.56786003435E+02 -0.26484927090E+02  0.23419398537E+03  0.24246731065E+03  0.41800000000E+01 0.  1.
         -5    1    1    2    0  502 -0.16034542962E+02  0.68329905757E+02  0.14681368185E+03  0.16278148594E+03  0.41800000000E+01 0.  1.
        -11    1    3    3    0    0 -0.18666385947E+02  0.26269405533E+02  0.59299650362E+02  0.67490474620E+02  0.00000000000E+00 0. -1.
         11    1    3    3    0    0 -0.22085074527E+02 -0.68114384201E+02  0.18535768790E+03  0.19870780638E+03  0.00000000000E+00 0.  1.
</event>
<event>
 7    1  0.6684706E-006  0.9775320E+02  0.7561462E-02  0.1285093E+00
         -1   -1    0    0    0  501 -0.00000000000E+00  0.00000000000E+00  0.22207050882E+03  0.22207050882E+03  0.00000000000E+00 0.  1.
          1   -1    0    0  501    0  0.00000000000E+00 -0.00000000000E+00 -0.67492529396E+02  0.67492529396E+02  0.00000000000E+00 0. -1.
         23    2    1    2    0    0 -0.43075405245E+02  0.26815787618E+02  0.10298431821E+03  0.14505134627E+03  0.88654082001E+02 0.  0.
          5    1    1    2  502    0  0.52520211914E+02  0.13112855115E+02  0.78369583848E+02  0.95339308269E+02  0.41800000000E+01 0. -1.
         -5    1    1    2    0  502 -0.94448066691E+01 -0.39928642733E+02 -0.26775922634E+02  0.49172383676E+02  0.41800000000E+01 0. -1.
        -11    1    3    3    0    0 -0.22205314070E+02  0.58193135639E+02  0.78086328480E+02  0.99884892271E+02  0.00000000000E+00 0.  1.
         11    1    3    3    0    0 -0.20870091175E+02 -0.31377348021E+02  0.24897989734E+02  0.45166454004E+02  0.00000000000E+00 0. -1.
</event>
<event>
 7    1  0.6684706E-006  0.1433381E+03  0.7561462E-02  0.1208907E+00
         -1   -1    0    0    0  501 -0.00000000000E+00  0.00000000000E+00  0.70535473646E+02  0.70535473646E+02  0.00000000000E+00 0.  1.
          1   -1    0    0  501    0  0.00000000000E+00 -0.00000000000E+00 -0.47651260646E+03  0.47651260646E+03  0.00000000000E+00 0. -1.
         23    2    1    2    0    0  0.97337099914E+02 -0.51766117270E+02 -0.42804260710E+02  0.14743455378E+03  0.88036929732E+02 0.  0.
          5    1    1    2  502    0  0.16047164146E+02 -0.68182144960E+01 -0.15039749896E+03  0.15146246935E+03  0.41800000000E+01 0. -1.
         -5    1    1    2    0  502 -0.11338426406E+03  0.58584331766E+02 -0.21277537314E+03  0.24815105698E+03  0.41800000000E+01 0. -1.
        -11    1    3    3    0    0  0.78998818417E+02  0.71761403660E+01 -0.22537921866E+02  0.82463738843E+02  0.00000000000E+00 0. -1.
         11    1    3    3    0    0  0.18338281496E+02 -0.58942257636E+02 -0.20266338845E+02  0.64970814937E+02  0.00000000000E+00 0.  1.
</event>
<event>
 7    1  0.6684706E-006  0.8897955E+02  0.7561462E-02  0.1305342E+00
         -2   -1    0    0    0  501 -0.00000000000E+00  0.00000000000E+00  0.58310286865E+02  0.58310286865E+02  0.00000000000E+00 0.  1.
          2   -1    0    0  501    0  0.00000000000E+00 -0.00000000000E+00 -0.33804370173E+03  0.33804370173E+03  0.00000000000E+00 0. -1.
         23    2    1    2    0    0  0.34390851468E-01 -0.26029467890E+02 -0.18673026328E+01  0.93898623540E+02  0.90199391917E+02 0.  0.
          5    1    1    2  502    0 -0.13590074467E+02  0.59075137277E+02 -0.24910074352E+03  0.25640439698E+03  0.41800000000E+01 0. -1.
         -5    1    1    2    0  502  0.13555683616E+02 -0.33045669386E+02 -0.28765368711E+02  0.46050968074E+02  0.41800000000E+01 0.  1.
        -11    1    3    3    0    0  0.38252655155E+02 -0.84850409154E+01  0.22612853676E+02  0.45239393201E+02  0.00000000000E+00 0.  1.
         11    1    3    3    0    0 -0.38218264304E+02 -0.17544426975E+02 -0.24480156309E+02  0.48659230339E+02  0.00000000000E+00 0. -1.
</event>
<event>
 7    1  0.6684706E-006  0.1367013E+03  0.7561462E-02  0.1217838E+00
         -2   -1    0    0    0  501 -0.00000000000E+00  0.00000000000E+00  0.39285837270E+02  0.39285837270E+02  0.00000000000E+00 0.  1.
          2   -1    0    0  501    0  0.00000000000E+00 -0.00000000000E+00 -0.57161481069E+03  0.57161481069E+03  0.00000000000E+00 0. -1.
         23    2    1    2    0    0  0.20920023770E+02 -0.97979094554E+02 -0.17646966314E+03  0.22061731796E+03  0.86561588541E+02 0.  0.
          5    1    1    2  502    0  0.46662481952E+02  0.11459284847E+02 -0.13996721701E+03  0.14804390116E+03  0.41800000000E+01 0.  1.
         -5    1    1    2    0  502 -0.67582505721E+02  0.86519809707E+02 -0.21589209326E+03  0.24223942884E+03  0.41800000000E+01 0.  1.
        -11    1    3    3    0    0  0.83886639861E+01 -0.10184659102E+03 -0.99819018180E+02  0.14285284098E+03  0.00000000000E+00 0.  1.
         11    1    3    3    0    0  0.12531359784E+02  0.38674964656E+01 -0.76650644963E+02  0.77764476982E+02  0.00000000000E+00 0. -1.
</event>
<event>
 7    1  0.6684706E-006  0.1489348E+03  0.7561462E-02  0.1201788E+00
          2   -1    0    0  501    0  0.00000000000E+00  0.00000000000E+00  0.50836975990E+03  0.50836975990E+03  0.00000000000E+00 0. -1.
         -2   -1    0    0    0  501 -0.00000000000E+00 -0.00000000000E+00 -0.56058738631E+02  0.56058738631E+02  0.00000000000E+00 0.  1.
         23    2    1    2    0    0  0.11993855523E+03 -0.25775071835E+02  0.27757363177E+03  0.31697957354E+03  0.91538612777E+02 0.  0.
          5    1    1    2  502    0  0.26476112781E+02  0.45045463337E+01  0.25861811517E+02  0.37517744876E+02  0.41800000000E+01 0.  1.
         -5    1    1    2    0  502 -0.14641466801E+03  0.21270525502E+02  0.14887557798E+03  0.20993118011E+03  0.41800000000E+01 0.  1.
        -11    1    3    3    0    0  0.84559688519E+02 -0.17835835652E+02  0.26478590529E+03  0.27853192563E+03  0.00000000000E+00 0. -1.
         11    1    3    3    0    0  0.35378866712E+02 -0.79392361834E+01  0.12787726475E+02  0.38447647905E+02  0.00000000000E+00 0.  1.
</event>
<event>
 7    1  0.6684706E-006  0.9878001E+02  0.7561462E-02  0.1282883E+00
         -2   -1    0    0    0  501 -0.00000000000E+00  0.00000000000E+00  0.11196337640E+03  0.11196337640E+03  0.00000000000E+00 0.  1.
          2   -1    0    0  501    0  0.00000000000E+00 -0.00000000000E+00 -0.15208679234E+03  0.15208679234E+03  0.00000000000E+00 0. -1.
         23    2    1    2    0    0 -0.35579086874E+00  0.50373636430E+02  0.33364190882E+02  0.11047587354E+03  0.92488483425E+02 0.  0.
          5    1    1    2  502    0 -0.54994532212E+02 -0.32627566314E+02 -0.59303370188E+01  0.64355248068E+02  0.41800000000E+01 0.  1.
         -5    1    1    2    0  502  0.55350323080E+02 -0.17746070116E+02 -0.67557269804E+02  0.89219047143E+02  0.41800000000E+01 0.  1.
        -11    1    3    3    0    0  0.13021281660E+02 -0.80224594053E+01  0.46665900908E+02  0.49108247154E+02  0.00000000000E+00 0.  1.
         11    1    3    3    0    0 -0.13377072529E+02  0.58396095836E+02 -0.13301710026E+02  0.61367626383E+02  0.00000000000E+00 0. -1.
</event>
<event>
 7    1  0.6684706E-006  0.1023139E+03  0.7561462E-02  0.1275504E+00
          1   -1    0    0  501    0  0.00000000000E+00  0.00000000000E+00  0.30186032801E+03  0.30186032801E+03  0.00000000000E+00 0. -1.
         -1   -1    0    0    0  501 -0.00000000000E+00 -0.00000000000E+00 -0.58015937290E+02  0.58015937290E+02  0.00000000000E+00 0.  1.
         23    2    1    2    0    0 -0.28858945051E+02 -0.18849290269E+02  0.16959659279E+02  0.98509608539E+02  0.90710409979E+02 0.  0.
          5    1    1    2  502    0  0.49130143631E+02 -0.29320934225E+02  0.47507258542E+02  0.74484227936E+02  0.41800000000E+01 0.  1.
         -5    1    1    2    0  502 -0.20271198580E+02  0.48170224494E+02  0.17937747290E+03  0.18688242882E+03  0.41800000000E+01 0.  1.
        -11    1    3    3    0    0 -0.18692491647E+02 -0.54575401970E+02  0.20441179303E+02  0.61202332925E+02  0.00000000000E+00 0.  1.
         11    1    3    3    0    0 -0.10166453404E+02  0.35726111701E+02 -0.34815200248E+01  0.37307275614E+02  0.00000000000E+00 0. -1.
</event>
<event>
 7    1  0.6684706E-006  0.9982942E+02  0.7561462E-02  0.1280655E+00
          1   -1    0    0  501    0  0.00000000000E+00  0.00000000000E+00  0.20923886113E+03  0.20923886113E+03  0.00000000000E+00 0. -1.
         -1   -1    0    0    0  501 -0.00000000000E+00 -0.00000000000E+00 -0.72562201589E+02  0.72562201589E+02  0.00000000000E+00 0.  1.
         23    2    1    2    0    0  0.18359004323E+02 -0.13838186049E+02  0.23783748796E+01  0.96837652973E+02  0.94038959657E+02 0.  0.
          5    1    1    2  502    0 -0.58209264321E+02  0.34717861761E+02  0.36181141141E+02  0.76942808321E+02  0.41800000000E+01 0. -1.
         -5    1    1    2    0  502  0.39850259998E+02 -0.20879675713E+02  0.98117143522E+02  0.10802060143E+03  0.41800000000E+01 0. -1.
        -11    1    3    3    0    0 -0.26629678118E+02  0.17391099896E+02 -0.20115471754E+02  0.37632729321E+02  0.00000000000E+00 0.  1.
         11    1    3    3    0    0  0.44988682440E+02 -0.31229285944E+02  0.22493846634E+02  0.59204923652E+02  0.00000000000E+00 0. -1.
</event>
<event>
 7    1  0.6684706E-006  0.8960461E+02  0.7561462E-02  0.1303812E+00
         -2   -1    0    0    0  501 -0.00000000000E+00  0.00000000000E+00  0.81828350338E+02  0.81828350338E+02  0.00000000000E+00 0.  1.
          2   -1    0    0  501    0  0.00000000000E+00 -0.00000000000E+00 -0.15580773043E+03  0.15580773043E+03  0.00000000000E+00 0. -1.
         23    2    1    2    0    0 -0.27087999401E+02 -0.81791258898E+01 -0.12037597129E+02  0.95213229247E+02  0.90111028555E+02 0.  0.
          5    1    1    2  502    0 -0.30476477622E+01 -0.33850853710E+02  0.24151013624E+02  0.41903607396E+02  0.41800000000E+01 0. -1.
         -5    1    1    2    0  502  0.30135647164E+02  0.42029979599E+02 -0.86092796591E+02  0.10051924413E+03  0.41800000000E+01 0. -1.
        -11    1    3    3    0    0 -0.58734400569E+02 -0.15187689535E+02 -0.15501636221E+02  0.62615464936E+02  0.00000000000E+00 0.  1.
         11    1    3    3    0    0  0.31646401168E+02  0.70085636455E+01  0.34640390916E+01  0.32597764311E+02  0.00000000000E+00 0. -1.
</event>
<event>
 7    1  0.6684706E-006  0.1196263E+03  0.7561462E-02  0.1243715E+00
          4   -1    0    0  501    0  0.00000000000E+00  0.00000000000E+00  0.14369890478E+03  0.14369890478E+03  0.00000000000E+00 0.  1.
         -4   -1    0    0    0  501 -0.00000000000E+00 -0.00000000000E+00 -0.15889440351E+03  0.15889440351E+03  0.00000000000E+00 0. -1.
         23    2    1    2    0    0 -0.17325282061E+02  0.97869769937E+02 -0.39173701700E+02  0.14103704396E+03  0.92077204554E+02 0.  0.
          5    1    1    2  502    0 -0.95525565179E+01 -0.68356379089E+02  0.71423456453E+02  0.99411409958E+02  0.41800000000E+01 0. -1.
         -5    1    1    2    0  502  0.26877838579E+02 -0.29513390848E+02 -0.47445253491E+02  0.62144854371E+02  0.41800000000E+01 0. -1.
        -11    1    3    3    0    0 -0.49952597928E+02  0.75047624628E+02 -0.80721444889E+01  0.90512803065E+02  0.00000000000E+00 0.  1.
         11    1    3    3    0    0  0.32627315867E+02  0.22822145309E+02 -0.31101557211E+02  0.50524240896E+02  0.00000000000E+00 0. -1.
</event>
<event>
 7    1  0.6684706E-006  0.1108647E+03  0.7561462E-02  0.1258977E+00
         -3   -1    0    0    0  501 -0.00000000000E+00  0.00000000000E+00  0.10314600827E+03  0.10314600827E+03  0.00000000000E+00 0.  1.
          3   -1    0    0  501    0  0.00000000000E+00 -0.00000000000E+00 -0.19230642349E+03  0.19230642349E+03  0.00000000000E+00 0. -1.
         23    2    1    2    0    0  0.51115752198E+02  0.59369797725E+02  0.75195268302E+01  0.11900685737E+03  0.89266431613E+02 0.  0.
          5    1    1    2  502    0 -0.36779506301E+02  0.26382282658E+02  0.11865308629E+01  0.45471278599E+02  0.41800000000E+01 0.  1.
         -5    1    1    2    0  502 -0.14336245898E+02 -0.85752080382E+02 -0.97866472920E+02  0.13097429579E+03  0.41800000000E+01 0.  1.
        -11    1    3    3    0    0  0.31727795658E+02  0.57905700927E+01 -0.35237818621E+02  0.47769106968E+02  0.00000000000E+00 0. -1.
         11    1    3    3    0    0  0.19387956540E+02  0.53579227632E+02  0.42757345451E+02  0.71237750403E+02  0.00000000000E+00 0.  1.
</event>
<event>
 7    1  0.6684706E-006  0.1198006E+03  0.7561462E-02  0.1243426E+00
         -2   -1    0    0    0  501 -0.00000000000E+00  0.00000000000E+00  0.38671335194E+02  0.38671335194E+02  0.00000000000E+00 0. -1.
          2   -1    0    0  501    0  0.00000000000E+00 -0.00000000000E+00 -0.73225257537E+03  0.73225257537E+03  0.00000000000E+00 0.  1.
         23    2    1    2    0    0 -0.40017803624E+02  0.60541522117E+02 -0.82070479387E+02  0.14254417830E+03  0.91195277687E+02 0.  0.
          5    1    1    2  502    0  0.76379317186E+02 -0.45999048908E+02 -0.26479751904E+03  0.27943677475E+03  0.41800000000E+01 0. -1.
         -5    1    1    2    0  502 -0.36361513562E+02 -0.14542473210E+02 -0.34671324175E+03  0.34894295751E+03  0.41800000000E+01 0. -1.
        -11    1    3    3    0    0  0.26354815259E+02  0.13548657759E+02 -0.41632170468E+01  0.29924484800E+02  0.00000000000E+00 0. -1.
         11    1    3    3    0    0 -0.66372618882E+02  0.46992864359E+02 -0.77907262341E+02  0.11261969350E+03  0.00000000000E+00 0.  1.
</event>
<event>
 7    1  0.6684706E-006  0.1755382E+03  0.7561462E-02  0.1172192E+00
          1   -1    0    0  501    0  0.00000000000E+00  0.00000000000E+00  0.22532507537E+03  0.22532507537E+03  0.00000000000E+00 0. -1.
         -1   -1    0    0    0  501 -0.00000000000E+00 -0.00000000000E+00 -0.22090692089E+03  0.22090692089E+03  0.00000000000E+00 0.  1.
         23    2    1    2    0    0  0.88951312194E+02  0.13434902888E+03 -0.10738853319E+03  0.21361528126E+03  0.90206395703E+02 0.  0.
          5    1    1    2  502    0 -0.43453328108E+02 -0.19022352555E+02 -0.19972497558E+02  0.51637338033E+02  0.41800000000E+01 0. -1.
         -5    1    1    2    0  502 -0.45497984086E+02 -0.11532667632E+03  0.13177918522E+03  0.18097937696E+03  0.41800000000E+01 0. -1.
        -11    1    3    3    0    0  0.71401891292E+02  0.36860676781E+02 -0.73566753721E+02  0.10894497155E+03  0.00000000000E+00 0. -1.
         11    1    3    3    0    0  0.17549420902E+02  0.97488352096E+02 -0.33821779467E+02  0.10467030971E+03  0.00000000000E+00 0.  1.
</event>
<event>
 7    1  0.6684706E-006  0.1475649E+03  0.7561462E-02  0.1203498E+00
         -2   -1    0    0    0  501 -0.00000000000E+00  0.00000000000E+00  0.64835998425E+02  0.64835998425E+02  0.00000000000E+00 0. -1.
          2   -1    0    0  501    0  0.00000000000E+00 -0.00000000000E+00 -0.48965582085E+03  0.48965582085E+03  0.00000000000E+00 0.  1.
         23    2    1    2    0    0  0.96401328283E+02  0.91209150201E+02 -0.13329036747E+03  0.21061754668E+03  0.94768685411E+02 0.  0.
          5    1    1    2  502    0  0.14345330189E+02 -0.28271132714E+02 -0.15019646885E+03  0.15356268133E+03  0.41800000000E+01 0. -1.
         -5    1    1    2    0  502 -0.11074665847E+03 -0.62938017486E+02 -0.14133298611E+03  0.19031159127E+03  0.41800000000E+01 0. -1.
        -11    1    3    3    0    0  0.78582075189E+02  0.87303409938E+02 -0.54041553819E+02  0.12929623918E+03  0.00000000000E+00 0. -1.
         11    1    3    3    0    0  0.17819253094E+02  0.39057402626E+01 -0.79248813653E+02  0.81321307499E+02  0.00000000000E+00 0.  1.
</event>
<event>
 7    1  0.6684706E-006  0.1490485E+03  0.7561462E-02  0.1201647E+00
         -1   -1    0    0    0  501 -0.00000000000E+00  0.00000000000E+00  0.17841169823E+03  0.17841169823E+03  0.00000000000E+00 0.  1.
          1   -1    0    0  501    0  0.00000000000E+00 -0.00000000000E+00 -0.14206202992E+03  0.14206202992E+03  0.00000000000E+00 0. -1.
         23    2    1    2    0    0  0.10992913557E+03 -0.53522653252E+01  0.53863371546E+02  0.15294103295E+03  0.91523959568E+02 0.  0.
          5    1    1    2  502    0  0.29645399391E+01 -0.38538903326E+02 -0.24802732538E+02  0.46115978879E+02  0.41800000000E+01 0. -1.
         -5    1    1    2    0  502 -0.11289367551E+03  0.43891168652E+02  0.72890293037E+01  0.12141671633E+03  0.41800000000E+01 0. -1.
        -11    1    3    3    0    0  0.51385133417E+01  0.27675886818E+02 -0.45370454737E+01  0.28512169544E+02  0.00000000000E+00 0.  1.
         11    1    3    3    0    0  0.10479062223E+03 -0.33028152143E+02  0.58400417020E+02  0.12442886341E+03  0.00000000000E+00 0. -1.
</event>
<event>
 7    1  0.6684706E-006  0.1025629E+03  0.7561462E-02  0.1274997E+00
          2   -1    0    0  501    0  0.00000000000E+00  0.00000000000E+00  0.10581250236E+04  0.10581250236E+04  0.00000000000E+00 0. -1.
         -2   -1    0    0    0  501 -0.00000000000E+00 -0.00000000000E+00 -0.11185933380E+02  0.11185933380E+02  0.00000000000E+00 0.  1.
         23    2    1    2    0    0 -0.31274900517E+02 -0.68194972887E+01  0.38512105129E+03  0.39635593105E+03  0.88063471326E+02 0.  0.
          5    1    1    2  502    0 -0.24998623474E+02  0.39266820011E+02  0.41774568951E+03  0.42035193330E+03  0.41800000000E+01 0. -1.
         -5    1    1    2    0  502  0.56273523991E+02 -0.32447322723E+02  0.24407234940E+03  0.25260309261E+03  0.41800000000E+01 0.  1.
        -11    1    3    3    0    0  0.30342407814E+02 -0.89754576859E+01  0.14855162548E+03  0.15188418609E+03  0.00000000000E+00 0.  1.
         11    1    3    3    0    0 -0.61617308332E+02  0.21559603973E+01  0.23656942581E+03  0.24447174495E+03  0.00000000000E+00 0. -1.
</event>
<event>
 7    1  0.6684706E-006  0.1030201E+03  0.7561462E-02  0.1274070E+00
          1   -1    0    0  501    0  0.00000000000E+00  0.00000000000E+00  0.21639742010E+03  0.21639742010E+03  0.00000000000E+00 0. -1.
         -1   -1    0    0    0  501 -0.00000000000E+00 -0.00000000000E+00 -0.71558680763E+02  0.71558680763E+02  0.00000000000E+00 0.  1.
         23    2    1    2    0    0  0.16315453520E+02  0.54431938614E+02  0.45101040925E+02  0.11815952517E+03  0.93265961265E+02 0.  0.
          5    1    1    2  502    0  0.40498247029E+02  0.10919488047E+01  0.76923081533E+02  0.87039837070E+02  0.41800000000E+01 0.  1.
         -5    1    1    2    0  502 -0.56813700549E+02 -0.55523887419E+02  0.22814616877E+02  0.82756738622E+02  0.41800000000E+01 0.  1.
        -11    1    3    3    0    0 -0.12208992190E+02  0.55882993899E+02  0.62493300374E+02  0.84719425688E+02  0.00000000000E+00 0. -1.
         11    1    3    3    0    0  0.28524445711E+02 -0.14510552845E+01 -0.17392259448E+02  0.33440099480E+02  0.00000000000E+00 0.  1.
</event>
<event>
 7    1  0.6684706E-006  0.8668045E+02  0.7561462E-02  0.1311096E+00
          2   -1    0    0  501    0  0.00000000000E+00  0.00000000000E+00  0.54838441283E+03  0.54838441283E+03  0.00000000000E+00 0. -1.
         -2   -1    0    0    0  501 -0.00000000000E+00 -0.00000000000E+00 -0.23751615102E+02  0.23751615102E+02  0.00000000000E+00 0.  1.
         23    2    1    2    0    0 -0.22770560446E+02  0.22010854948E+02  0.24767390726E+03  0.26659434707E+03  0.93419512913E+02 0.  0.
          5    1    1    2  502    0 -0.21203328655E+01  0.26645991173E+02  0.42599060929E+01  0.27388389091E+02  0.41800000000E+01 0.  1.
         -5    1    1    2    0  502  0.24890893312E+02 -0.48656846122E+02  0.27269898437E+03  0.27815329177E+03  0.41800000000E+01 0.  1.
        -11    1    3    3    0    0 -0.33321247455E+02  0.50843723067E+02  0.20631943335E+03  0.21508858241E+03  0.00000000000E+00 0. -1.
         11    1    3    3    0    0  0.10550687009E+02 -0.28832868119E+02  0.41354473914E+02  0.51505764658E+02  0.00000000000E+00 0.  1.
</event>
<event>
 7    1  0.6684706E-006  0.1071852E+03  0.7561462E-02  0.1265873E+00
         -2   -1    0    0    0  501 -0.00000000000E+00  0.00000000000E+00  0.24003172654E+02  0.24003172654E+02  0.00000000000E+00 0.  1.
          2   -1    0    0  501    0  0.00000000000E+00 -0.00000000000E+00 -0.89973832518E+03  0.89973832518E+03  0.00000000000E+00 0. -1.
         23    2    1    2    0    0 -0.76126668206E+02  0.54282865931E+02 -0.30100393781E+03  0.32816876458E+03  0.91375425166E+02 0.  0.
          5    1    1    2  502    0  0.45501070879E+02 -0.21874566561E+02 -0.52951069246E+03  0.53192846318E+03  0.41800000000E+01 0. -1.
         -5    1    1    2    0  502  0.30625597327E+02 -0.32408299370E+02 -0.45220522255E+02  0.63644270070E+02  0.41800000000E+01 0. -1.
        -11    1    3    3    0    0 -0.35448506825E+02  0.67427133912E+02 -0.11963039881E+03  0.14182541149E+03  0.00000000000E+00 0.  1.
         11    1    3    3    0    0 -0.40678161381E+02 -0.13144267980E+02 -0.18137353899E+03  0.18634335309E+03  0.00000000000E+00 0. -1.
</event>
<event>
 7    1  0.6684706E-006  0.7661948E+02  0.7561462E-02  0.1338928E+00
          3   -1    0    0  501    0  0.00000000000E+00  0.00000000000E+00  0.34203770963E+03  0.34203770963E+03  0.00000000000E+00 0. -1.
         -3   -1    0    0    0  501 -0.00000000000E+00 -0.00000000000E+00 -0.31533218656E+02  0.31533218656E+02  0.00000000000E+00 0.  1.
         23    2    1    2    0    0 -0.85655503253E+01 -0.35437296815E+01  0.14006463414E+03  0.16195111633E+03  0.80772121866E+02 0.  0.
          5    1    1    2  502    0 -0.42445806719E+02  0.13223597049E+02  0.14094832558E+02  0.46825705887E+02  0.41800000000E+01 0. -1.
         -5    1    1    2    0  502  0.51011357045E+02 -0.96798673672E+01  0.15634502427E+03  0.16479410606E+03  0.41800000000E+01 0. -1.
        -11    1    3    3    0    0 -0.29683730932E+02  0.10097853647E+02  0.15689945862E+02  0.35060874653E+02  0.00000000000E+00 0.  1.
         11    1    3    3    0    0  0.21118180607E+02 -0.13641583328E+02  0.12437468828E+03  0.12689024168E+03  0.00000000000E+00 0. -1.
</event>
<event>
 7    1  0.6684706E-006  0.9845058E+02  0.7561462E-02  0.1283588E+00
          2   -1    0    0  501    0  0.00000000000E+00  0.00000000000E+00  0.11209545796E+03  0.11209545796E+03  0.00000000000E+00 0. -1.
         -2   -1    0    0    0  501 -0.00000000000E+00 -0.00000000000E+00 -0.10948689227E+03  0.10948689227E+03  0.00000000000E+00 0.  1.
         23    2    1    2    0    0  0.36206528107E+01 -0.24613377595E+02  0.75583931460E+01  0.93955460185E+02  0.90286054893E+02 0.  0.
          5    1    1    2  502    0  0.38908276546E+02  0.59693384727E+02 -0.10149641452E+02  0.72094672380E+02  0.41800000000E+01 0. -1.
         -5    1    1    2    0  502 -0.42528929357E+02 -0.35080007132E+02  0.51998139974E+01  0.55532217660E+02  0.41800000000E+01 0. -1.
        -11    1    3    3    0    0 -0.31067123190E+02 -0.10616858574E+02 -0.27396094160E+02  0.42760142709E+02  0.00000000000E+00 0.  1.
         11    1    3    3    0    0  0.34687776001E+02 -0.13996519021E+02  0.34954487306E+02  0.51195317475E+02  0.00000000000E+00 0. -1.
</event>
<event>
 7    1  0.6684706E-006  0.1360634E+03  0.7561462E-02  0.1218726E+00
         -2   -1    0    0    0  501 -0.00000000000E+00  0.00000000000E+00  0.11188097513E+03  0.11188097513E+03  0.00000000000E+00 0.  1.
          2   -1    0    0  501    0  0.00000000000E+00 -0.00000000000E+00 -0.21205231644E+03  0.21205231644E+03  0.00000000000E+00 0. -1.
         23    2    1    2    0    0  0.16373119438E+02 -0.10547857682E+03 -0.22359469304E+02  0.14200860716E+03  0.90954326081E+02 0.  0.
          5    1    1    2  502    0 -0.18983518135E+02  0.13249580738E+03 -0.76949597997E+02  0.15444813358E+03  0.41800000000E+01 0.  1.
         -5    1    1    2    0  502  0.26103986971E+01 -0.27017230564E+02 -0.86227400834E+00  0.27476550824E+02  0.41800000000E+01 0.  1.
        -11    1    3    3    0    0  0.23207420272E+02 -0.53404344164E+02  0.31982633779E+02  0.66434156838E+02  0.00000000000E+00 0.  1.
         11    1    3    3    0    0 -0.68343008344E+01 -0.52074232652E+02 -0.54342103082E+02  0.75574450323E+02  0.00000000000E+00 0. -1.
</event>
<event>
 7    1  0.6684706E-006  0.1698038E+03  0.7561462E-02  0.1178053E+00
          1   -1    0    0  501    0  0.00000000000E+00  0.00000000000E+00  0.57318847083E+03  0.57318847083E+03  0.00000000000E+00 0. -1.
         -1   -1    0    0    0  501 -0.00000000000E+00 -0.00000000000E+00 -0.69949979941E+02  0.69949979941E+02  0.00000000000E+00 0.  1.
         23    2    1    2    0    0  0.13852237103E+03  0.49052092880E+02  0.10927638512E+03  0.20444993639E+03  0.90905957204E+02 0.  0.
          5    1    1    2  502    0 -0.79490074096E+02  0.37305451143E+02  0.16612979788E+03  0.18795465067E+03  0.41800000000E+01 0.  1.
         -5    1    1    2    0  502 -0.59032296933E+02 -0.86357544023E+02  0.22783230788E+03  0.25073386370E+03  0.41800000000E+01 0.  1.
        -11    1    3    3    0    0  0.55669625460E+02  0.21884626871E+02 -0.57707808152E+01  0.60094475647E+02  0.00000000000E+00 0.  1.
         11    1    3    3    0    0  0.82852745569E+02  0.27167466009E+02  0.11504716593E+03  0.14435546075E+03  0.00000000000E+00 0. -1.
</event>
<event>
 7    1  0.6684706E-006  0.1679009E+03  0.7561462E-02  0.1180055E+00
          1   -1    0    0  501    0  0.00000000000E+00  0.00000000000E+00  0.72256157197E+03  0.72256157197E+03  0.00000000000E+00 0. -1.
         -1   -1    0    0    0  501 -0.00000000000E+00 -0.00000000000E+00 -0.43344050912E+02  0.43344050912E+02  0.00000000000E+00 0.  1.
         23    2    1    2    0    0 -0.99284538386E+02  0.97708406591E+02  0.30387191730E+03  0.34645807785E+03  0.91053310235E+02 0.  0.
          5    1    1    2  502    0  0.31922618330E+02  0.19765875846E+02  0.16482686887E+03  0.16910089447E+03  0.41800000000E+01 0.  1.
         -5    1    1    2    0  502  0.67361920056E+02 -0.11747428244E+03  0.21051873489E+03  0.25034665056E+03  0.41800000000E+01 0.  1.
        -11    1    3    3    0    0 -0.87214542298E+02  0.27710944802E+02  0.20708901060E+03  0.22640700334E+03  0.00000000000E+00 0. -1.
         11    1    3    3    0    0 -0.12069996088E+02  0.69997461789E+02  0.96782906701E+02  0.12005107451E+03  0.00000000000E+00 0.  1.
</event>
<event>
 7    1  0.6684706E-006  0.1537601E+03  0.7561462E-02  0.1195927E+00
          2   -1    0    0  501    0  0.00000000000E+00  0.00000000000E+00  0.21321915289E+03  0.21321915289E+03  0.00000000000E+00 0.  1.
         -2   -1    0    0    0  501 -0.00000000000E+00 -0.00000000000E+00 -0.12981145457E+03  0.12981145457E+03  0.00000000000E+00 0. -1.
         23    2    1    2    0    0 -0.60265415387E+02  0.11011439986E+03  0.43850071745E+02  0.16145481974E+03  0.91584543883E+02 0.  0.
          5    1    1    2  502    0  0.45246615638E+02 -0.12372668818E+03 -0.55745169063E+01  0.13192458919E+03  0.41800000000E+01 0. -1.
         -5    1    1    2    0  502  0.15018799749E+02  0.13612288321E+02  0.45132143482E+02  0.49651198520E+02  0.41800000000E+01 0. -1.
        -11    1    3    3    0    0  0.13320020014E+02  0.69904661482E+02  0.25678534303E+02  0.75653630145E+02  0.00000000000E+00 0.  1.
         11    1    3    3    0    0 -0.73585435401E+02  0.40209738376E+02  0.18171537442E+02  0.85801189598E+02  0.00000000000E+00 0. -1.
</event>
<event>
 7    1  0.6684706E-006  0.8947590E+02  0.7561462E-02  0.1304126E+00
          3   -1    0    0  501    0  0.00000000000E+00  0.00000000000E+00  0.55110141106E+03  0.55110141106E+03  0.00000000000E+00 0. -1.
         -3   -1    0    0    0  501 -0.00000000000E+00 -0.00000000000E+00 -0.21838708460E+02  0.21838708460E+02  0.00000000000E+00 0.  1.
         23    2    1    2    0    0  0.20564221544E+02  0.58448651882E+01  0.21516309229E+03  0.23417304359E+03  0.89915562617E+02 0.  0.
          5    1    1    2  502    0 -0.53210245394E+02 -0.21759035897E+01  0.29648231210E+03  0.30125620086E+03  0.41800000000E+01 0.  1.
         -5    1    1    2    0  502  0.32646023850E+02 -0.36689615985E+01  0.17617298211E+02  0.37510875072E+02  0.41800000000E+01 0.  1.
        -11    1    3    3    0    0  0.32518678431E+02 -0.36226049098E+02  0.11208491444E+03  0.12219991459E+03  0.00000000000E+00 0.  1.
         11    1    3    3    0    0 -0.11954456887E+02  0.42070914286E+02  0.10307817786E+03  0.11197312900E+03  0.00000000000E+00 0. -1.
</event>
<event>
 7    1  0.6684706E-006  0.1374449E+03  0.7561462E-02  0.1216809E+00
          1   -1    0    0  501    0  0.00000000000E+00  0.00000000000E+00  0.14903530954E+04  0.14903530954E+04  0.00000000000E+00 0. -1.
         -1   -1    0    0    0  501 -0.00000000000E+00 -0.00000000000E+00 -0.25599831122E+02  0.25599831122E+02  0.00000000000E+00 0.  1.
         23    2    1    2    0    0 -0.38703026974E+02  0.74992283391E+02  0.18895673886E+03  0.22685446732E+03  0.92932950661E+02 0.  0.
          5    1    1    2  502    0 -0.36541646895E+02 -0.97320433072E+02  0.62938430382E+03  0.63792525655E+03  0.41800000000E+01 0. -1.
         -5    1    1    2    0  502  0.75244673869E+02  0.22328149681E+02  0.64641222156E+03  0.65117320261E+03  0.41800000000E+01 0.  1.
        -11    1    3    3    0    0 -0.31449227851E+02  0.21094338514E+02  0.90877685925E+01  0.38943710503E+02  0.00000000000E+00 0.  1.
         11    1    3    3    0    0 -0.72537991231E+01  0.53897944877E+02  0.17986897026E+03  0.18791075682E+03  0.00000000000E+00 0. -1.
</event>
<event>
 7    1  0.6684706E-006  0.1678522E+03  0.7561462E-02  0.1180106E+00
          1   -1    0    0  501    0  0.00000000000E+00  0.00000000000E+00  0.64145493399E+02  0.64145493399E+02  0.00000000000E+00 0. -1.
         -1   -1    0    0    0  501 -0.00000000000E+00 -0.00000000000E+00 -0.79755551028E+03  0.79755551028E+03  0.00000000000E+00 0.  1.
         23    2    1    2    0    0  0.16323962521E+03  0.26958348432E+02 -0.56449613694E+03  0.59422191572E+03  0.84082511383E+02 0.  0.
          5    1    1    2  502    0 -0.84573458357E+02  0.35518142499E+01 -0.16186030297E+03  0.18270608999E+03  0.41800000000E+01 0. -1.
         -5    1    1    2    0  502 -0.78666166856E+02 -0.30510162682E+02 -0.70535769704E+01  0.84772997958E+02  0.41800000000E+01 0. -1.
        -11    1    3    3    0    0  0.14740320604E+03  0.29798886182E+02 -0.55609667737E+03  0.57607221192E+03  0.00000000000E+00 0.  1.
         11    1    3    3    0    0  0.15836419178E+02 -0.28405377495E+01 -0.83994595672E+01  0.18149703802E+02  0.00000000000E+00 0. -1.
</event>
<event>
 7    1  0.6684706E-006  0.1369616E+03  0.7561462E-02  0.1217477E+00
         -2   -1    0    0    0  501 -0.00000000000E+00  0.00000000000E+00  0.56889156230E+02  0.56889156230E+02  0.00000000000E+00 0.  1.
          2   -1    0    0  501    0  0.00000000000E+00 -0.00000000000E+00 -0.42503515164E+03  0.42503515164E+03  0.00000000000E+00 0. -1.
         23    2    1    2    0    0  0.38205213978E+02  0.84333209109E+02 -0.78775588614E+02  0.15335727880E+03  0.93494026892E+02 0.  0.
          5    1    1    2  502    0  0.41886518618E+02 -0.46201819321E+02 -0.83007261756E+02  0.10390748989E+03  0.41800000000E+01 0. -1.
         -5    1    1    2    0  502 -0.80091732596E+02 -0.38131389788E+02 -0.20636314504E+03  0.22465953919E+03  0.41800000000E+01 0. -1.
        -11    1    3    3    0    0 -0.13906511109E+02  0.65883591576E+02 -0.15052862735E+02  0.68997299706E+02  0.00000000000E+00 0.  1.
         11    1    3    3    0    0  0.52111725087E+02  0.18449617533E+02 -0.63722725879E+02  0.84359979090E+02  0.00000000000E+00 0. -1.
</event>
<event>
 7    1  0.6684706E-006  0.7125762E+02  0.7561462E-02  0.1355868E+00
         -1   -1    0    0    0  501 -0.00000000000E+00  0.00000000000E+00  0.10782535226E+03  0.10782535226E+03  0.00000000000E+00 0.  1.
          1   -1    0    0  501    0  0.00000000000E+00 -0.00000000000E+00 -0.11422251604E+03  0.11422251604E+03  0.00000000000E+00 0. -1.
         23    2    1    2    0    0  0.18440612580E+02 -0.18338586094E+01  0.43513005682E+01  0.95133235299E+02  0.93209331143E+02 0.  0.
          5    1    1    2  502    0 -0.39185006273E+02  0.22627181421E+02 -0.56425612307E+02  0.72448438078E+02  0.41800000000E+01 0. -1.
         -5    1    1    2    0  502  0.20744393693E+02 -0.20793322812E+02  0.45677147962E+02  0.54466194921E+02  0.41800000000E+01 0. -1.
        -11    1    3    3    0    0  0.35609823949E+02  0.19038392494E+02  0.35590448780E+02  0.53825644397E+02  0.00000000000E+00 0.  1.
         11    1    3    3    0    0 -0.17169211369E+02 -0.20872251103E+02 -0.31239148211E+02  0.41307590902E+02  0.00000000000E+00 0. -1.
</event>
<event>
 7    1  0.6684706E-006  0.1096773E+03  0.7561462E-02  0.1261169E+00
         -2   -1    0    0    0  501 -0.00000000000E+00  0.00000000000E+00  0.27545082501E+02  0.27545082501E+02  0.00000000000E+00 0.  1.
          2   -1    0    0  501    0  0.00000000000E+00 -0.00000000000E+00 -0.25937934068E+04  0.25937934068E+04  0.00000000000E+00 0. -1.
         23    2    1    2    0    0  0.19228665550E+02 -0.61861372765E+02 -0.89279880423E+02  0.14084694816E+03  0.87580789781E+02 0.  0.
          5    1    1    2  502    0  0.39014651925E+01  0.80395557260E+02 -0.22635155165E+04  0.22649500288E+04  0.41800000000E+01 0. -1.
         -5    1    1    2    0  502 -0.23130130743E+02 -0.18534184495E+02 -0.21345292737E+03  0.21554151235E+03  0.41800000000E+01 0.  1.
        -11    1    3    3    0    0 -0.34579038464E+02 -0.32837439018E+02 -0.35956571570E+02  0.59723381865E+02  0.00000000000E+00 0.  1.
         11    1    3    3    0    0  0.53807704015E+02 -0.29023933747E+02 -0.53323308853E+02  0.81123566296E+02  0.00000000000E+00 0. -1.
</event>
<event>
 7    1  0.1191743E-005  0.9703416E+02  0.7561462E-02  0.1286659E+00
         -2   -1    0    0    0  501 -0.00000000000E+00  0.00000000000E+00  0.14871677634E+03  0.14871677634E+03  0.00000000000E+00 0.  1.
          2   -1    0    0  501    0  0.00000000000E+00 -0.00000000000E+00 -0.86606512045E+02  0.86606512045E+02  0.00000000000E+00 0. -1.
         23    2    1    2    0    0 -0.33675857254E+01  0.51064561988E+01  0.64044010588E+02  0.11006966642E+03  0.89310019843E+02 0.  0.
          5    1    1    2  502    0  0.24236254464E+02 -0.54876855151E+02  0.24596362144E+02  0.64971676078E+02  0.41800000000E+01 0. -1.
         -5    1    1    2    0  502 -0.20868668738E+02  0.49770398952E+02 -0.26530108436E+02  0.60281945891E+02  0.41800000000E+01 0. -1.
        -11    1    3    3    0    0 -0.17156414112E+02 -0.34137589922E+02  0.55860145879E+02  0.67676240207E+02  0.00000000000E+00 0.  1.
         11    1    3    3    0    0  0.13788828387E+02  0.39244046121E+02  0.81838647085E+01  0.42393426209E+02  0.00000000000E+00 0. -1.
</event>
<event>
 7    1  0.6684706E-006  0.2775389E+03  0.7561462E-02  0.1097041E+00
         -1   -1    0    0    0  501 -0.00000000000E+00  0.00000000000E+00  0.56203547780E+02  0.56203547780E+02  0.00000000000E+00 0.  1.
          1   -1    0    0  501    0  0.00000000000E+00 -0.00000000000E+00 -0.20094120758E+04  0.20094120758E+04  0.00000000000E+00 0. -1.
         23    2    1    2    0    0 -0.10921283668E+03  0.25239472756E+03 -0.46936207401E+03  0.55132465799E+03  0.89596762232E+02 0.  0.
          5    1    1    2  502    0  0.70300432299E+02 -0.97311033590E+02 -0.36977158098E+03  0.38879311020E+03  0.41800000000E+01 0.  1.
         -5    1    1    2    0  502  0.38912404376E+02 -0.15508369397E+03 -0.11140748731E+04  0.11254978554E+04  0.41800000000E+01 0.  1.
        -11    1    3    3    0    0 -0.18354145243E+02  0.41701265580E+02 -0.15872659161E+03  0.16513631061E+03  0.00000000000E+00 0. -1.
         11    1    3    3    0    0 -0.90858691432E+02  0.21069346198E+03 -0.31063548239E+03  0.38618834738E+03  0.00000000000E+00 0.  1.
</event>
<event>
 7    1  0.6684706E-006  0.1127603E+03  0.7561462E-02  0.1255542E+00
          2   -1    0    0  501    0  0.00000000000E+00  0.00000000000E+00  0.67454770807E+03  0.67454770807E+03  0.00000000000E+00 0. -1.
         -2   -1    0    0    0  501 -0.00000000000E+00 -0.00000000000E+00 -0.33251526444E+02  0.33251526444E+02  0.00000000000E+00 0.  1.
         23    2    1    2    0    0  0.74727620875E+01  0.49307947581E+02  0.78907436473E+02  0.12939118322E+03  0.89602337567E+02 0.  0.
          5    1    1    2  502    0  0.36569972941E+02  0.22514983981E+02  0.29187444578E+03  0.29504652501E+03  0.41800000000E+01 0. -1.
         -5    1    1    2    0  502 -0.44042735028E+02 -0.71822931562E+02  0.27051429937E+03  0.28336152627E+03  0.41800000000E+01 0. -1.
        -11    1    3    3    0    0 -0.14672616935E+02 -0.20257065609E+02  0.50019227492E+01  0.25507913007E+02  0.00000000000E+00 0.  1.
         11    1    3    3    0    0  0.22145379022E+02  0.69565013189E+02  0.73905513724E+02  0.10388327022E+03  0.00000000000E+00 0. -1.
</event>
<event>
 7    1  0.1448627E-005  0.2624555E+03  0.7561462E-02  0.1105677E+00
          1   -1    0    0  501    0  0.00000000000E+00  0.00000000000E+00  0.77006244659E+03  0.77006244659E+03  0.00000000000E+00 0. -1.
         -1   -1    0    0    0  501 -0.00000000000E+00 -0.00000000000E+00 -0.10947284560E+03  0.10947284560E+03  0.00000000000E+00 0.  1.
         23    2    1    2    0    0 -0.22685942235E+03 -0.13117554407E+03  0.22863684892E+03  0.35905174583E+03  0.89281166145E+02 0.  0.
          5    1    1    2  502    0  0.71005291137E+02  0.40859499040E+02  0.44820944930E+02  0.93475341859E+02  0.41800000000E+01 0.  1.
         -5    1    1    2    0  502  0.15585413121E+03  0.90316045034E+02  0.38713180714E+03  0.42700820450E+03  0.41800000000E+01 0.  1.
        -11    1    3    3    0    0 -0.74545422471E+02 -0.53252653422E+02  0.28913233356E+02  0.96066852613E+02  0.00000000000E+00 0.  1.
         11    1    3    3    0    0 -0.15231399988E+03 -0.77922890652E+02  0.19972361557E+03  0.26298489322E+03  0.00000000000E+00 0. -1.
</event>
<event>
 7    1  0.6684706E-006  0.2032518E+03  0.7561462E-02  0.1147024E+00
          1   -1    0    0  501    0  0.00000000000E+00  0.00000000000E+00  0.11408717597E+04  0.11408717597E+04  0.00000000000E+00 0. -1.
         -1   -1    0    0    0  501 -0.00000000000E+00 -0.00000000000E+00 -0.42392204414E+02  0.42392204414E+02  0.00000000000E+00 0.  1.
         23    2    1    2    0    0  0.18508966720E+03  0.13336967114E+02  0.40083389226E+03  0.45060279670E+03  0.89101131422E+02 0.  0.
          5    1    1    2  502    0 -0.13324513926E+03 -0.56266201449E+02  0.35347657210E+03  0.38194673973E+03  0.41800000000E+01 0.  1.
         -5    1    1    2    0  502 -0.51844527935E+02  0.42929234335E+02  0.34416909096E+03  0.35071442771E+03  0.41800000000E+01 0.  1.
        -11    1    3    3    0    0  0.96040559105E+02 -0.22054368967E+02  0.27711841561E+03  0.29411698430E+03  0.00000000000E+00 0.  1.
         11    1    3    3    0    0  0.89049108092E+02  0.35391336081E+02  0.12371547665E+03  0.15648581240E+03  0.00000000000E+00 0. -1.
</event>
<event>
 7    1  0.6684706E-006  0.1097923E+03  0.7561462E-02  0.1260955E+00
          2   -1    0    0  501    0  0.00000000000E+00  0.00000000000E+00  0.45263584948E+03  0.45263584948E+03  0.00000000000E+00 0. -1.
         -2   -1    0    0    0  501 -0.00000000000E+00 -0.00000000000E+00 -0.32294067143E+02  0.32294067143E+02  0.00000000000E+00 0.  1.
         23    2    1    2    0    0  0.17511816521E+02 -0.34574781581E+02  0.18696183766E+03  0.21219339710E+03  0.92570134465E+02 0.  0.
          5    1    1    2  502    0 -0.48553489330E+02  0.61427616277E+02  0.21248329557E+03  0.22648933014E+03  0.41800000000E+01 0. -1.
         -5    1    1    2    0  502  0.31041672809E+02 -0.26852834696E+02  0.20896649104E+02  0.46247189382E+02  0.41800000000E+01 0.  1.
        -11    1    3    3    0    0  0.26865384703E+02 -0.63803040067E+02  0.13837678322E+03  0.15472786094E+03  0.00000000000E+00 0.  1.
         11    1    3    3    0    0 -0.93535681815E+01  0.29228258486E+02  0.48585054441E+02  0.57465536166E+02  0.00000000000E+00 0. -1.
</event>
<event>
 7    1  0.6684706E-006  0.1771953E+03  0.7561462E-02  0.1170545E+00
         -2   -1    0    0    0  501 -0.00000000000E+00  0.00000000000E+00  0.29214652792E+02  0.29214652792E+02  0.00000000000E+00 0.  1.
          2   -1    0    0  501    0  0.00000000000E+00 -0.00000000000E+00 -0.16382161118E+04  0.16382161118E+04  0.00000000000E+00 0. -1.
         23    2    1    2    0    0 -0.35338029935E+02 -0.16493395730E+03 -0.44754674544E+03  0.48714427523E+03  0.92517397860E+02 0.  0.
          5    1    1    2  502    0  0.76383047619E+01  0.34236092895E+02 -0.67142355990E+03  0.67235223131E+03  0.41800000000E+01 0.  1.
         -5    1    1    2    0  502  0.27699725173E+02  0.13069786441E+03 -0.49003115366E+03  0.50793425804E+03  0.41800000000E+01 0.  1.
        -11    1    3    3    0    0  0.20831805320E+02 -0.86201494138E+02 -0.14978718702E+03  0.17407143103E+03  0.00000000000E+00 0.  1.
         11    1    3    3    0    0 -0.56169835255E+02 -0.78732463166E+02 -0.29775955842E+03  0.31307284421E+03  0.00000000000E+00 0. -1.
</event>
<event>
 7    1  0.6684706E-006  0.8826019E+02  0.7561462E-02  0.1307120E+00
          2   -1    0    0  501    0  0.00000000000E+00  0.00000000000E+00  0.56959217560E+03  0.56959217560E+03  0.00000000000E+00 0. -1.
         -2   -1    0    0    0  501 -0.00000000000E+00 -0.00000000000E+00 -0.28902523387E+02  0.28902523387E+02  0.00000000000E+00 0.  1.
         23    2    1    2    0    0  0.16530468036E+01 -0.28545670494E+02  0.88887213448E+02  0.12882394723E+03  0.88752942476E+02 0.  0.
          5    1    1    2  502    0  0.33732644954E+02  0.65730790720E+02  0.31281320950E+03  0.32144673683E+03  0.41800000000E+01 0. -1.
         -5    1    1    2    0  502 -0.35385691757E+02 -0.37185120226E+02  0.13898922927E+03  0.14822401493E+03  0.41800000000E+01 0. -1.
        -11    1    3    3    0    0  0.14590204765E+02  0.47140120659E+01 -0.13479124771E+02  0.20415258740E+02  0.00000000000E+00 0.  1.
         11    1    3    3    0    0 -0.12937157961E+02 -0.33259682560E+02  0.10236633822E+03  0.10840868849E+03  0.00000000000E+00 0. -1.
</event>
<event>
 7    1  0.7824192E-006  0.2927257E+03  0.7561462E-02  0.1088935E+00
         -2   -1    0    0    0  501 -0.00000000000E+00  0.00000000000E+00  0.17179507132E+03  0.17179507132E+03  0.00000000000E+00 0.  1.
          2   -1    0    0  501    0  0.00000000000E+00 -0.00000000000E+00 -0.11788126950E+04  0.11788126950E+04  0.00000000000E+00 0. -1.
         23    2    1    2    0    0  0.20132640800E+03 -0.18532360225E+03  0.12005064802E+02  0.28809577063E+03  0.89319042541E+02 0.  0.
          5    1    1    2  502    0  0.61937822902E+01 -0.10757253403E+02 -0.79055944129E+02  0.80133614308E+02  0.41800000000E+01 0. -1.
         -5    1    1    2    0  502 -0.20752019029E+03  0.19608085565E+03 -0.93996674438E+03  0.98237838142E+03  0.41800000000E+01 0. -1.
        -11    1    3    3    0    0  0.39021461117E+02 -0.91198916663E+02  0.15730567291E+02  0.10043588789E+03  0.00000000000E+00 0.  1.
         11    1    3    3    0    0  0.16230494689E+03 -0.94124685587E+02 -0.37255024894E+01  0.18765988274E+03  0.00000000000E+00 0. -1.
</event>
<event>
 7    1  0.6684706E-006  0.1440125E+03  0.7561462E-02  0.1208030E+00
          1   -1    0    0  501    0  0.00000000000E+00  0.00000000000E+00  0.10950869204E+04  0.10950869204E+04  0.00000000000E+00 0. -1.
         -1   -1    0    0    0  501 -0.00000000000E+00 -0.00000000000E+00 -0.22192147750E+02  0.22192147750E+02  0.00000000000E+00 0.  1.
         23    2    1    2    0    0  0.64972545214E+02 -0.89443907916E+02  0.48191033929E+03  0.50316885910E+03  0.93379234113E+02 0.  0.
          5    1    1    2  502    0  0.20663704943E+02  0.62703818576E+02  0.36475905549E+03  0.37070931810E+03  0.41800000000E+01 0.  1.
         -5    1    1    2    0  502 -0.85636250157E+02  0.26740089340E+02  0.22622537787E+03  0.24340089094E+03  0.41800000000E+01 0.  1.
        -11    1    3    3    0    0  0.21143464934E+02  0.99981229219E+01  0.28255752529E+02  0.36679641797E+02  0.00000000000E+00 0.  1.
         11    1    3    3    0    0  0.43829080280E+02 -0.99442030838E+02  0.45365458676E+03  0.46648921731E+03  0.00000000000E+00 0. -1.
</event>
<event>
 7    1  0.6684706E-006  0.1728627E+03  0.7561462E-02  0.1174895E+00
          1   -1    0    0  501    0  0.00000000000E+00  0.00000000000E+00  0.38502749486E+03  0.38502749486E+03  0.00000000000E+00 0. -1.
         -1   -1    0    0    0  501 -0.00000000000E+00 -0.00000000000E+00 -0.99112436158E+02  0.99112436158E+02  0.00000000000E+00 0.  1.
         23    2    1    2    0    0  0.60270567242E+02 -0.14882983868E+03  0.12789284960E+03  0.22652328953E+03  0.95777646455E+02 0.  0.
          5    1    1    2  502    0 -0.64587614710E+02  0.10747965505E+03  0.38863485086E+02  0.13134412471E+03  0.41800000000E+01 0.  1.
         -5    1    1    2    0  502  0.43170474676E+01  0.41350183638E+02  0.11915872402E+03  0.12627251679E+03  0.41800000000E+01 0.  1.
        -11    1    3    3    0    0 -0.18130150012E+02 -0.15724255215E+02 -0.28186936897E+01  0.24164014063E+02  0.00000000000E+00 0.  1.
         11    1    3    3    0    0  0.78400717254E+02 -0.13310558347E+03  0.13071154329E+03  0.20235927546E+03  0.00000000000E+00 0. -1.
</event>
<event>
 7    1  0.6684706E-006  0.1087427E+03  0.7561462E-02  0.1262916E+00
          1   -1    0    0  501    0  0.00000000000E+00  0.00000000000E+00  0.11581527112E+03  0.11581527112E+03  0.00000000000E+00 0. -1.
         -1   -1    0    0    0  501 -0.00000000000E+00 -0.00000000000E+00 -0.11457550530E+03  0.11457550530E+03  0.00000000000E+00 0.  1.
         23    2    1    2    0    0 -0.27532529751E+00 -0.34666460821E+02 -0.18548320640E+02  0.99085181426E+02  0.90950501207E+02 0.  0.
          5    1    1    2  502    0  0.59795651176E+02  0.26908360605E+02 -0.57199498434E+01  0.65952786115E+02  0.41800000000E+01 0. -1.
         -5    1    1    2    0  502 -0.59520325879E+02  0.77581002161E+01  0.25508036302E+02  0.65352808874E+02  0.41800000000E+01 0. -1.
        -11    1    3    3    0    0  0.38943319382E+02  0.48425005693E+00  0.85247935795E+01  0.39868392596E+02  0.00000000000E+00 0. -1.
         11    1    3    3    0    0 -0.39218644680E+02 -0.35150710878E+02 -0.27073114220E+02  0.59216788830E+02  0.00000000000E+00 0.  1.
</event>
<event>
 7    1  0.6684706E-006  0.9911565E+02  0.7561462E-02  0.1282167E+00
          1   -1    0    0  501    0  0.00000000000E+00  0.00000000000E+00  0.48541034576E+03  0.48541034576E+03  0.00000000000E+00 0. -1.
         -1   -1    0    0    0  501 -0.00000000000E+00 -0.00000000000E+00 -0.25017690769E+02  0.25017690769E+02  0.00000000000E+00 0.  1.
         23    2    1    2    0    0  0.95508817110E+01  0.21344949078E+02  0.16836487666E+03  0.19183704357E+03  0.88926336930E+02 0.  0.
          5    1    1    2  502    0  0.73461799460E+01  0.51586297129E+02  0.12633550252E+03  0.13672323872E+03  0.41800000000E+01 0. -1.
         -5    1    1    2    0  502 -0.16897061657E+02 -0.72931246208E+02  0.16569227582E+03  0.18186775424E+03  0.41800000000E+01 0. -1.
        -11    1    3    3    0    0  0.38599712869E+02  0.10919541954E+02  0.30052505836E+02  0.50123121781E+02  0.00000000000E+00 0.  1.
         11    1    3    3    0    0 -0.29048831158E+02  0.10425407124E+02  0.13831237082E+03  0.14171392178E+03  0.00000000000E+00 0. -1.
</event>
<event>
 7    1  0.6684706E-006  0.1472508E+03  0.7561462E-02  0.1203893E+00
          1   -1    0    0  501    0  0.00000000000E+00  0.00000000000E+00  0.58703997547E+03  0.58703997547E+03  0.00000000000E+00 0. -1.
         -1   -1    0    0    0  501 -0.00000000000E+00 -0.00000000000E+00 -0.42360649019E+02  0.42360649019E+02  0.00000000000E+00 0.  1.
         23    2    1    2    0    0 -0.92803223298E+02  0.64585861387E+02  0.20723135256E+03  0.25217057844E+03  0.88664510387E+02 0.  0.
          5    1    1    2  502    0  0.88022922867E+02 -0.92873717005E+02  0.20537333636E+03  0.24201083023E+03  0.41800000000E+01 0. -1.
         -5    1    1    2    0  502  0.47803004316E+01  0.28287855618E+02  0.13207463753E+03  0.13521921582E+03  0.41800000000E+01 0. -1.
        -11    1    3    3    0    0 -0.75918448026E+00 -0.15473434684E+02  0.55323755513E+01  0.16450249884E+02  0.00000000000E+00 0.  1.
         11    1    3    3    0    0 -0.92044038818E+02  0.80059296071E+02  0.20169897701E+03  0.23572032856E+03  0.00000000000E+00 0. -1.
</event>
<event>
 7    1  0.6684706E-006  0.9024995E+02  0.7561462E-02  0.1302248E+00
          1   -1    0    0  501    0  0.00000000000E+00  0.00000000000E+00  0.27412438884E+03  0.27412438884E+03  0.00000000000E+00 0. -1.
         -1   -1    0    0    0  501 -0.00000000000E+00 -0.00000000000E+00 -0.26096334792E+03  0.26096334792E+03  0.00000000000E+00 0.  1.
         23    2    1    2    0    0  0.26704200488E+02 -0.54780069756E+02 -0.23139235830E+03  0.25592424742E+03  0.90778998503E+02 0.  0.
          5    1    1    2  502    0  0.12928700456E+01 -0.79787594926E+01  0.19284714193E+03  0.19306171207E+03  0.41800000000E+01 0. -1.
         -5    1    1    2    0  502 -0.27997070533E+02  0.62758829249E+02  0.51706257293E+02  0.86101777278E+02  0.41800000000E+01 0.  1.
        -11    1    3    3    0    0 -0.25520418579E+02  0.17636170542E+01 -0.25523103098E+02  0.36136282339E+02  0.00000000000E+00 0. -1.
         11    1    3    3    0    0  0.52224619066E+02 -0.56543686810E+02 -0.20586925521E+03  0.21978796508E+03  0.00000000000E+00 0.  1.
</event>
<event>
 7    1  0.6684706E-006  0.3773863E+03  0.7561462E-02  0.1051904E+00
          1   -1    0    0  501    0  0.00000000000E+00  0.00000000000E+00  0.16261596939E+04  0.16261596939E+04  0.00000000000E+00 0. -1.
         -1   -1    0    0    0  501 -0.00000000000E+00 -0.00000000000E+00 -0.13295681831E+03  0.13295681831E+03  0.00000000000E+00 0.  1.
         23    2    1    2    0    0  0.12271374290E+03 -0.34218741620E+03  0.23244409073E+03  0.44104539772E+03  0.91323036711E+02 0.  0.
          5    1    1    2  502    0 -0.61760372037E+02  0.38965190986E+02  0.19234470845E+03  0.20578286841E+03  0.41800000000E+01 0.  1.
         -5    1    1    2    0  502 -0.60953370861E+02  0.30322222522E+03  0.10684140764E+04  0.11122882461E+04  0.41800000000E+01 0.  1.
        -11    1    3    3    0    0  0.12081251716E+03 -0.22732689719E+03  0.18368848577E+03  0.31625091666E+03  0.00000000000E+00 0. -1.
         11    1    3    3    0    0  0.19012257419E+01 -0.11486051902E+03  0.48755604961E+02  0.12479448106E+03  0.00000000000E+00 0.  1.
</event>
<event>
 7    1  0.6684706E-006  0.1544293E+03  0.7561462E-02  0.1195134E+00
         -2   -1    0    0    0  501 -0.00000000000E+00  0.00000000000E+00  0.41911372943E+02  0.41911372943E+02  0.00000000000E+00 0.  1.
          2   -1    0    0  501    0  0.00000000000E+00 -0.00000000000E+00 -0.75729675538E+03  0.75729675538E+03  0.00000000000E+00 0. -1.
         23    2    1    2    0    0  0.18355440476E+02  0.33615092429E+01 -0.80609695649E+02  0.12550756686E+03  0.94371629030E+02 0.  0.
          5    1    1    2  502    0 -0.24469945627E+02  0.10821956074E+03 -0.26315213186E+03  0.28561647093E+03  0.41800000000E+01 0. -1.
         -5    1    1    2    0  502  0.61145051502E+01 -0.11158106998E+03 -0.37162355493E+03  0.38808409054E+03  0.41800000000E+01 0.  1.
        -11    1    3    3    0    0  0.23889523123E+01 -0.39856791852E+02 -0.66063859609E+02  0.77192645352E+02  0.00000000000E+00 0.  1.
         11    1    3    3    0    0  0.15966488164E+02  0.43218301095E+02 -0.14545836040E+02  0.48314921504E+02  0.00000000000E+00 0. -1.
</event>
<event>
 7    1  0.6684706E-006  0.1252781E+03  0.7561462E-02  0.1234635E+00
         -2   -1    0    0    0  501 -0.00000000000E+00  0.00000000000E+00  0.12415679228E+03  0.12415679228E+03  0.00000000000E+00 0.  1.
          2   -1    0    0  501    0  0.00000000000E+00 -0.00000000000E+00 -0.26155755030E+03  0.26155755030E+03  0.00000000000E+00 0. -1.
         23    2    1    2    0    0  0.34645818159E+02 -0.11276270740E+03  0.18626759740E+02  0.15353301445E+03  0.96486628349E+02 0.  0.
          5    1    1    2  502    0 -0.52856551303E+01  0.11171743436E+02  0.21706019296E+02  0.25325277398E+02  0.41800000000E+01 0.  1.
         -5    1    1    2    0  502 -0.29360163028E+02  0.10159096396E+03 -0.17773353706E+03  0.20685605074E+03  0.41800000000E+01 0.  1.
        -11    1    3    3    0    0  0.45780562585E+02 -0.49426804908E+02  0.48113743068E+02  0.82787687648E+02  0.00000000000E+00 0.  1.
         11    1    3    3    0    0 -0.11134744426E+02 -0.63335902492E+02 -0.29486983328E+02  0.70745326798E+02  0.00000000000E+00 0. -1.
</event>
<event>
 7    1  0.6684706E-006  0.1213465E+03  0.7561462E-02  0.1240892E+00
          1   -1    0    0  501    0  0.00000000000E+00  0.00000000000E+00  0.12089150251E+03  0.12089150251E+03  0.00000000000E+00 0. -1.
         -1   -1    0    0    0  501 -0.00000000000E+00 -0.00000000000E+00 -0.14371485561E+03  0.14371485561E+03  0.00000000000E+00 0.  1.
         23    2    1    2    0    0 -0.26536234673E+02 -0.50212394295E+02 -0.59554150134E+02  0.12208284849E+03  0.90177984039E+02 0.  0.
          5    1    1    2  502    0 -0.28176395648E+02  0.72867388433E+02  0.18096406089E+02  0.80302664228E+02  0.41800000000E+01 0. -1.
         -5    1    1    2    0  502  0.54712630322E+02 -0.22654994138E+02  0.18634390948E+02  0.62220845398E+02  0.41800000000E+01 0.  1.
        -11    1    3    3    0    0  0.12901053892E+02  0.20443577203E+02 -0.55594522738E+01  0.24804929952E+02  0.00000000000E+00 0. -1.
         11    1    3    3    0    0 -0.39437288565E+02 -0.70655971498E+02 -0.53994697860E+02  0.97277918536E+02  0.00000000000E+00 0.  1.
</event>
<event>
 7    1  0.6684706E-006  0.1221355E+03  0.7561462E-02  0.1239615E+00
         -2   -1    0    0    0  501 -0.00000000000E+00  0.00000000000E+00  0.13104613353E+03  0.13104613353E+03  0.00000000000E+00 0.  1.
          2   -1    0    0  501    0  0.00000000000E+00 -0.00000000000E+00 -0.12085494535E+03  0.12085494535E+03  0.00000000000E+00 0. -1.
         23    2    1    2    0    0 -0.42998242252E+02  0.41897481277E+02 -0.20620426676E+02  0.10976366864E+03  0.89546709498E+02 0.  0.
          5    1    1    2  502    0 -0.36697679780E+01  0.41494350765E+02  0.75294727574E+00  0.41872278085E+02  0.41800000000E+01 0. -1.
         -5    1    1    2    0  502  0.46668010230E+02 -0.83391832042E+02  0.30058667578E+02  0.10026513216E+03  0.41800000000E+01 0. -1.
        -11    1    3    3    0    0  0.25590800514E+02  0.25717320312E+02  0.19907445116E+00  0.36280976635E+02  0.00000000000E+00 0.  1.
         11    1    3    3    0    0 -0.68589042766E+02  0.16180160965E+02 -0.20819501127E+02  0.73482692000E+02  0.00000000000E+00 0. -1.
</event>
<event>
 7    1  0.6684706E-006  0.1312079E+03  0.7561462E-02  0.1225674E+00
         -1   -1    0    0    0  501 -0.00000000000E+00  0.00000000000E+00  0.89879836902E+02  0.89879836902E+02  0.00000000000E+00 0.  1.
          1   -1    0    0  501    0  0.00000000000E+00 -0.00000000000E+00 -0.20396683251E+03  0.20396683251E+03  0.00000000000E+00 0. -1.
         23    2    1    2    0    0  0.70391807253E+02 -0.29173225349E+02 -0.19907888199E+02  0.11971219539E+03  0.90158760561E+02 0.  0.
          5    1    1    2  502    0  0.36074698903E+02  0.18254543487E+01 -0.26275973277E+02  0.44862181803E+02  0.41800000000E+01 0.  1.
         -5    1    1    2    0  502 -0.10646650616E+03  0.27347771000E+02 -0.67903134135E+02  0.12927229223E+03  0.41800000000E+01 0.  1.
        -11    1    3    3    0    0  0.80862212740E+02 -0.48341348993E+02 -0.72992066041E+01  0.94492655211E+02  0.00000000000E+00 0.  1.
         11    1    3    3    0    0 -0.10470405487E+02  0.19168123644E+02 -0.12608681595E+02  0.25219540175E+02  0.00000000000E+00 0. -1.
</event>
<event>
 7    1  0.6684706E-006  0.1164721E+03  0.7561462E-02  0.1249033E+00
          2   -1    0    0  501    0  0.00000000000E+00  0.00000000000E+00  0.92013171193E+03  0.92013171193E+03  0.00000000000E+00 0. -1.
         -2   -1    0    0    0  501 -0.00000000000E+00 -0.00000000000E+00 -0.28873151685E+02  0.28873151685E+02  0.00000000000E+00 0.  1.
         23    2    1    2    0    0  0.76570041401E+02  0.26389028568E+02  0.15152751111E+03  0.19441315860E+03  0.90975477725E+02 0.  0.
          5    1    1    2  502    0 -0.99567244688E+02 -0.52399472549E+02  0.51570018415E+03  0.52784798311E+03  0.41800000000E+01 0. -1.
         -5    1    1    2    0  502  0.22997203287E+02  0.26010443981E+02  0.22403086498E+03  0.22674372190E+03  0.41800000000E+01 0. -1.
        -11    1    3    3    0    0  0.36211968125E+02 -0.16358688753E+01  0.12099182537E+01  0.36269086074E+02  0.00000000000E+00 0.  1.
         11    1    3    3    0    0  0.40358073276E+02  0.28024897443E+02  0.15031759285E+03  0.15814407253E+03  0.00000000000E+00 0. -1.
</event>
<event>
 7    1  0.6684706E-006  0.1335351E+03  0.7561462E-02  0.1222303E+00
         -1   -1    0    0    0  501 -0.00000000000E+00  0.00000000000E+00  0.27606241631E+03  0.27606241631E+03  0.00000000000E+00 0.  1.
          1   -1    0    0  501    0  0.00000000000E+00 -0.00000000000E+00 -0.13874563229E+03  0.13874563229E+03  0.00000000000E+00 0. -1.
         23    2    1    2    0    0 -0.42422327015E+02  0.77758725002E+02  0.21022642677E+03  0.24639142267E+03  0.93099460290E+02 0.  0.
          5    1    1    2  502    0  0.17462622301E+02 -0.10296826781E+03 -0.22969390577E+02  0.10701622614E+03  0.41800000000E+01 0. -1.
         -5    1    1    2    0  502  0.24959704714E+02  0.25209542807E+02 -0.49940252180E+02  0.61400399802E+02  0.41800000000E+01 0.  1.
        -11    1    3    3    0    0  0.28885295094E+02  0.22568954210E+02  0.43870573766E+02  0.57169442968E+02  0.00000000000E+00 0. -1.
         11    1    3    3    0    0 -0.71307622109E+02  0.55189770792E+02  0.16635585301E+03  0.18922197970E+03  0.00000000000E+00 0.  1.
</event>
<event>
 7    1  0.6684706E-006  0.1108852E+03  0.7561462E-02  0.1258939E+00
         -2   -1    0    0    0  501 -0.00000000000E+00  0.00000000000E+00  0.47275183590E+02  0.47275183590E+02  0.00000000000E+00 0.  1.
          2   -1    0    0  501    0  0.00000000000E+00 -0.00000000000E+00 -0.42560012225E+03  0.42560012225E+03  0.00000000000E+00 0. -1.
         23    2    1    2    0    0 -0.55181365334E+02 -0.70087524380E+02 -0.13549267469E+03  0.18551883109E+03  0.90009597489E+02 0.  0.
          5    1    1    2  502    0  0.49129264313E+02  0.31978970629E+02 -0.24147206712E+03  0.24852076527E+03  0.41800000000E+01 0.  1.
         -5    1    1    2    0  502  0.60521010210E+01  0.38108553751E+02 -0.13601968614E+01  0.38835709486E+02  0.41800000000E+01 0.  1.
        -11    1    3    3    0    0 -0.25704375350E+01  0.19838298135E+02 -0.98454207965E+01  0.22295684171E+02  0.00000000000E+00 0.  1.
         11    1    3    3    0    0 -0.52610927799E+02 -0.89925822514E+02 -0.12564725389E+03  0.16322314691E+03  0.00000000000E+00 0. -1.
</event>
<event>
 7    1  0.6684706E-006  0.1318005E+03  0.7561462E-02  0.1224808E+00
         -1   -1    0    0    0  501 -0.00000000000E+00  0.00000000000E+00  0.66237834583E+02  0.66237834583E+02  0.00000000000E+00 0.  1.
          1   -1    0    0  501    0  0.00000000000E+00 -0.00000000000E+00 -0.32147701405E+03  0.32147701405E+03  0.00000000000E+00 0. -1.
         23    2    1    2    0    0 -0.96077693888E+02 -0.92677107906E+01 -0.10959207503E+03  0.17284340043E+03  0.92453255406E+02 0.  0.
          5    1    1    2  502    0  0.38896315050E+01  0.53705960045E+02 -0.64982032487E+02  0.84496132005E+02  0.41800000000E+01 0.  1.
         -5    1    1    2    0  502  0.92188062383E+02 -0.44438249254E+02 -0.80665071953E+02  0.13037531621E+03  0.41800000000E+01 0.  1.
        -11    1    3    3    0    0 -0.79862152733E+02  0.11642761764E+02 -0.11982724969E+03  0.14447175194E+03  0.00000000000E+00 0. -1.
         11    1    3    3    0    0 -0.16215541155E+02 -0.20910472554E+02  0.10235174660E+02  0.28371648484E+02  0.00000000000E+00 0.  1.
</event>
<event>
 7    1  0.6684706E-006  0.8644985E+02  0.7561462E-02  0.1311684E+00
         -2   -1    0    0    0  501 -0.00000000000E+00  0.00000000000E+00  0.48039873762E+02  0.48039873762E+02  0.00000000000E+00 0.  1.
          2   -1    0    0  501    0  0.00000000000E+00 -0.00000000000E+00 -0.36773459728E+03  0.36773459728E+03  0.00000000000E+00 0. -1.
         23    2    1    2    0    0  0.29140663521E+02 -0.46475721682E+02 -0.51359581176E+02  0.11467635664E+03  0.86623837465E+02 0.  0.
          5    1    1    2  502    0 -0.50555624831E+02  0.65815031085E+02 -0.98910323325E+02  0.12918287030E+03  0.41800000000E+01 0. -1.
         -5    1    1    2    0  502  0.21414961309E+02 -0.19339309403E+02 -0.16942481901E+03  0.17191524410E+03  0.41800000000E+01 0. -1.
        -11    1    3    3    0    0  0.12039358297E+01 -0.25957442600E+02  0.21671991037E+02  0.33836570207E+02  0.00000000000E+00 0.  1.
         11    1    3    3    0    0  0.27936727692E+02 -0.20518279082E+02 -0.73031572213E+02  0.80839786433E+02  0.00000000000E+00 0. -1.
</event>
<event>
 7    1  0.6684706E-006  0.1142142E+03  0.7561462E-02  0.1252959E+00
          1   -1    0    0  501    0  0.00000000000E+00  0.00000000000E+00  0.98564178212E+02  0.98564178212E+02  0.00000000000E+00 0. -1.
         -1   -1    0    0    0  501 -0.00000000000E+00 -0.00000000000E+00 -0.13469521030E+03  0.13469521030E+03  0.00000000000E+00 0.  1.
         23    2    1    2    0    0 -0.18366504381E+02  0.34944698930E+02 -0.17553633421E+02  0.10078755633E+03  0.91057899157E+02 0.  0.
          5    1    1    2  502    0 -0.24498823748E+02  0.38370376219E+02 -0.14767364842E+01  0.45739821675E+02  0.41800000000E+01 0. -1.
         -5    1    1    2    0  502  0.42865328129E+02 -0.73315075149E+02 -0.17100662187E+02  0.86732010509E+02  0.41800000000E+01 0. -1.
        -11    1    3    3    0    0  0.30474946677E+02 -0.92152260691E+01 -0.14189144191E+02  0.34856485470E+02  0.00000000000E+00 0.  1.
         11    1    3    3    0    0 -0.48841451058E+02  0.44159924999E+02 -0.33644892298E+01  0.65931070863E+02  0.00000000000E+00 0. -1.
</event>
<event>
 7    1  0.6684706E-006  0.1997900E+03  0.7561462E-02  0.1149916E+00
          1   -1    0    0  501    0  0.00000000000E+00  0.00000000000E+00  0.47005432040E+03  0.47005432040E+03  0.00000000000E+00 0. -1.
         -1   -1    0    0    0  501 -0.00000000000E+00 -0.00000000000E+00 -0.10173842701E+03  0.10173842701E+03  0.00000000000E+00 0.  1.
         23    2    1    2    0    0 -0.17443533053E+03  0.61078207390E+02  0.12175772649E+03  0.23923462310E+03  0.90829670141E+02 0.  0.
          5    1    1    2  502    0  0.18008619870E+03 -0.77428444827E+02  0.24622946197E+03  0.31475803941E+03  0.41800000000E+01 0.  1.
         -5    1    1    2    0  502 -0.56508681744E+01  0.16350237437E+02  0.32870493226E+00  0.17800084896E+02  0.41800000000E+01 0.  1.
        -11    1    3    3    0    0 -0.12514725667E+03  0.34994348917E+02  0.32436022919E+02  0.13393481956E+03  0.00000000000E+00 0.  1.
         11    1    3    3    0    0 -0.49288073855E+02  0.26083858474E+02  0.89321703569E+02  0.10529980354E+03  0.00000000000E+00 0. -1.
</event>
<event>
 7    1  0.6684706E-006  0.1103076E+03  0.7561462E-02  0.1260001E+00
         -2   -1    0    0    0  501 -0.00000000000E+00  0.00000000000E+00  0.15144154813E+02  0.15144154813E+02  0.00000000000E+00 0.  1.
          2   -1    0    0  501    0  0.00000000000E+00 -0.00000000000E+00 -0.92643873880E+03  0.92643873880E+03  0.00000000000E+00 0. -1.
         23    2    1    2    0    0 -0.16259670548E+02  0.33662497163E+02 -0.27844906911E+03  0.29541065378E+03  0.91301860227E+02 0.  0.
          5    1    1    2  502    0  0.69117680556E+02 -0.17885467692E+02 -0.27857466443E+03  0.28760817058E+03  0.41800000000E+01 0. -1.
         -5    1    1    2    0  502 -0.52858010008E+02 -0.15777029471E+02 -0.35427085045E+03  0.35856406925E+03  0.41800000000E+01 0. -1.
        -11    1    3    3    0    0  0.12766840451E+02  0.55819793380E+02 -0.21190705042E+03  0.21950726540E+03  0.00000000000E+00 0. -1.
         11    1    3    3    0    0 -0.29026510999E+02 -0.22157296217E+02 -0.66542018691E+02  0.75903388382E+02  0.00000000000E+00 0.  1.
</event>
<event>
 7    1  0.6684706E-006  0.9892647E+02  0.7561462E-02  0.1282570E+00
          2   -1    0    0  501    0  0.00000000000E+00  0.00000000000E+00  0.78498523469E+03  0.78498523469E+03  0.00000000000E+00 0. -1.
         -2   -1    0    0    0  501 -0.00000000000E+00 -0.00000000000E+00 -0.11219939863E+03  0.11219939863E+03  0.00000000000E+00 0.  1.
         23    2    1    2    0    0 -0.68489141608E+02 -0.11632417229E+02 -0.72474100901E+02  0.13691731576E+03  0.93100915173E+02 0.  0.
          5    1    1    2  502    0  0.59447809357E+02  0.34087435845E+02  0.72549982133E+03  0.72874100919E+03  0.41800000000E+01 0. -1.
         -5    1    1    2    0  502  0.90413322509E+01 -0.22455018617E+02  0.19760115629E+02  0.31526308373E+02  0.41800000000E+01 0.  1.
        -11    1    3    3    0    0  0.43496161962E+01  0.23404810745E+02  0.56914570371E+01  0.24476458287E+02  0.00000000000E+00 0. -1.
         11    1    3    3    0    0 -0.72838757804E+02 -0.35037227974E+02 -0.78165557938E+02  0.11244085748E+03  0.00000000000E+00 0.  1.
</event>
<event>
 7    1  0.6684706E-006  0.1133911E+03  0.7561462E-02  0.1254416E+00
         -1   -1    0    0    0  501 -0.00000000000E+00  0.00000000000E+00  0.43173012346E+02  0.43173012346E+02  0.00000000000E+00 0.  1.
          1   -1    0    0  501    0  0.00000000000E+00 -0.00000000000E+00 -0.49868562044E+03  0.49868562044E+03  0.00000000000E+00 0. -1.
         23    2    1    2    0    0 -0.84426076800E+01 -0.95444665296E+02 -0.16477805294E+03  0.21116861265E+03  0.90881320849E+02 0.  0.
          5    1    1    2  502    0  0.26187066486E+01 -0.10131984809E+02  0.79653202872E+01  0.13799763330E+02  0.41800000000E+01 0. -1.
         -5    1    1    2    0  502  0.58239010314E+01  0.10557665010E+03 -0.29869987544E+03  0.31689025681E+03  0.41800000000E+01 0. -1.
        -11    1    3    3    0    0  0.22563228276E+02 -0.47656580430E+02 -0.21430168963E+02  0.56916615064E+02  0.00000000000E+00 0.  1.
         11    1    3    3    0    0 -0.31005835956E+02 -0.47788084866E+02 -0.14334788397E+03  0.15425199758E+03  0.00000000000E+00 0. -1.
</event>
<event>
 7    1  0.6684706E-006  0.1409347E+03  0.7561462E-02  0.1212077E+00
         -1   -1    0    0    0  501 -0.00000000000E+00  0.00000000000E+00  0.36696601812E+03  0.36696601812E+03  0.00000000000E+00 0.  1.
          1   -1    0    0  501    0  0.00000000000E+00 -0.00000000000E+00 -0.69736989492E+02  0.69736989492E+02  0.00000000000E+00 0. -1.
         23    2    1    2    0    0  0.10339852322E+03 -0.48776280696E+02  0.19971123614E+03  0.24118532134E+03  0.72217734838E+02 0.  0.
          5    1    1    2  502    0 -0.35063537764E+02 -0.27212046116E+02 -0.11491015053E+02  0.46037625496E+02  0.41800000000E+01 0. -1.
         -5    1    1    2    0  502 -0.68334985457E+02  0.75988326812E+02  0.10900880754E+03  0.14948006078E+03  0.41800000000E+01 0. -1.
        -11    1    3    3    0    0  0.96763683488E+02 -0.11845451810E+02  0.15018276630E+03  0.17904856454E+03  0.00000000000E+00 0.  1.
         11    1    3    3    0    0  0.66348397334E+01 -0.36930828886E+02  0.49528469847E+02  0.62136756802E+02  0.00000000000E+00 0. -1.
</event>
<event>
 7    1  0.6684706E-006  0.1093307E+03  0.7561462E-02  0.1261814E+00
         -2   -1    0    0    0  501 -0.00000000000E+00  0.00000000000E+00  0.12012965757E+02  0.12012965757E+02  0.00000000000E+00 0.  1.
          2   -1    0    0  501    0  0.00000000000E+00 -0.00000000000E+00 -0.12693409590E+04  0.12693409590E+04  0.00000000000E+00 0. -1.
         23    2    1    2    0    0  0.90693911837E+01  0.49199185345E+02 -0.39936120674E+03  0.41287404567E+03  0.92047761763E+02 0.  0.
          5    1    1    2  502    0 -0.36798111086E+02  0.18454984507E+02 -0.56444578732E+03  0.56596042853E+03  0.41800000000E+01 0.  1.
         -5    1    1    2    0  502  0.27728719903E+02 -0.67654169852E+02 -0.29352099915E+03  0.30251945053E+03  0.41800000000E+01 0.  1.
        -11    1    3    3    0    0  0.34896147051E+02  0.64997081323E+02 -0.30395037938E+03  0.31277499067E+03  0.00000000000E+00 0.  1.
         11    1    3    3    0    0 -0.25826755867E+02 -0.15797895978E+02 -0.95410827354E+02  0.10009905500E+03  0.00000000000E+00 0. -1.
</event>
<event>
 7    1  0.6684706E-006  0.1062365E+03  0.7561462E-02  0.1267702E+00
          1   -1    0    0  501    0  0.00000000000E+00  0.00000000000E+00  0.85543034916E+02  0.85543034916E+02  0.00000000000E+00 0. -1.
         -1   -1    0    0    0  501 -0.00000000000E+00 -0.00000000000E+00 -0.18587817012E+03  0.18587817012E+03  0.00000000000E+00 0.  1.
         23    2    1    2    0    0 -0.12619524995E+02 -0.64001374382E+01 -0.11346828976E+03  0.14485019698E+03  0.88917448314E+02 0.  0.
          5    1    1    2  502    0  0.41433170061E+02  0.53483026738E+02 -0.58820677957E+01  0.68038318997E+02  0.41800000000E+01 0. -1.
         -5    1    1    2    0  502 -0.28813645066E+02 -0.47082889300E+02  0.19015222353E+02  0.58532689055E+02  0.41800000000E+01 0. -1.
        -11    1    3    3    0    0  0.28509616507E+02 -0.30428588747E+02 -0.62047812131E+02  0.74757128335E+02  0.00000000000E+00 0.  1.
         11    1    3    3    0    0 -0.41129141502E+02  0.24028451309E+02 -0.51420477627E+02  0.70093068648E+02  0.00000000000E+00 0. -1.
</event>
<event>
 7    1  0.6684706E-006  0.9900470E+02  0.7561462E-02  0.1282403E+00
          2   -1    0    0  501    0  0.00000000000E+00  0.00000000000E+00  0.13545387385E+04  0.13545387385E+04  0.00000000000E+00 0. -1.
         -2   -1    0    0    0  501 -0.00000000000E+00 -0.00000000000E+00 -0.11723812644E+02  0.11723812644E+02  0.00000000000E+00 0.  1.
         23    2    1    2    0    0  0.31698527973E+02  0.10215866404E+02  0.29016777606E+03  0.30576061340E+03  0.90460233472E+02 0.  0.
          5    1    1    2  502    0 -0.11403637407E+02  0.43684215245E+02  0.80234193642E+03  0.80362205604E+03  0.41800000000E+01 0. -1.
         -5    1    1    2    0  502 -0.20294890566E+02 -0.53900081649E+02  0.25030521338E+03  0.25687988171E+03  0.41800000000E+01 0.  1.
        -11    1    3    3    0    0 -0.19318154630E+02  0.33634458780E+02  0.14556930199E+03  0.15064823132E+03  0.00000000000E+00 0. -1.
         11    1    3    3    0    0  0.51016682603E+02 -0.23418592377E+02  0.14459847406E+03  0.15511238208E+03  0.00000000000E+00 0.  1.
</event>
<event>
 7    1  0.6684706E-006  0.1189621E+03  0.7561462E-02  0.1244819E+00
         -2   -1    0    0    0  501 -0.00000000000E+00  0.00000000000E+00  0.19493513877E+02  0.19493513877E+02  0.00000000000E+00 0.  1.
          2   -1    0    0  501    0  0.00000000000E+00 -0.00000000000E+00 -0.95889654280E+03  0.95889654280E+03  0.00000000000E+00 0. -1.
         23    2    1    2    0    0  0.38656810997E+02 -0.46169742318E+02 -0.23620777829E+03  0.26162153570E+03  0.95003785570E+02 0.  0.
          5    1    1    2  502    0 -0.78877571458E+02  0.56209583918E+02 -0.47299222733E+03  0.48282533914E+03  0.41800000000E+01 0.  1.
         -5    1    1    2    0  502  0.40220760461E+02 -0.10039841600E+02 -0.23020302329E+03  0.23394318183E+03  0.41800000000E+01 0.  1.
        -11    1    3    3    0    0 -0.39709302035E+01 -0.55527767913E+02 -0.19031657410E+03  0.19829145134E+03  0.00000000000E+00 0. -1.
         11    1    3    3    0    0  0.42627741200E+02  0.93580255950E+01 -0.45891204192E+02  0.63330084360E+02  0.00000000000E+00 0.  1.
</event>
<event>
 7    1  0.6684706E-006  0.1119109E+03  0.7561462E-02  0.1257072E+00
         -4   -1    0    0    0  501 -0.00000000000E+00  0.00000000000E+00  0.14901921523E+03  0.14901921523E+03  0.00000000000E+00 0.  1.
          4   -1    0    0  501    0  0.00000000000E+00 -0.00000000000E+00 -0.10638883366E+03  0.10638883366E+03  0.00000000000E+00 0. -1.
         23    2    1    2    0    0 -0.25575440331E+02 -0.53126837885E+02  0.47093032579E+02  0.11704925506E+03  0.89477429219E+02 0.  0.
          5    1    1    2  502    0 -0.46647112196E+02  0.37427079561E+02 -0.19054568491E+02  0.62906981655E+02  0.41800000000E+01 0. -1.
         -5    1    1    2    0  502  0.72222552527E+02  0.15699758324E+02  0.14591917481E+02  0.75451812176E+02  0.41800000000E+01 0. -1.
        -11    1    3    3    0    0  0.96921177331E+01 -0.53702889131E+02 -0.42743397412E+01  0.54737623509E+02  0.00000000000E+00 0. -1.
         11    1    3    3    0    0 -0.35267558064E+02  0.57605124623E+00  0.51367372320E+02  0.62311631546E+02  0.00000000000E+00 0.  1.
</event>
<event>
 7    1  0.6684706E-006  0.1125100E+03  0.7561462E-02  0.1255991E+00
          1   -1    0    0  501    0  0.00000000000E+00  0.00000000000E+00  0.13389415629E+03  0.13389415629E+03  0.00000000000E+00 0. -1.
         -1   -1    0    0    0  501 -0.00000000000E+00 -0.00000000000E+00 -0.15957017117E+03  0.15957017117E+03  0.00000000000E+00 0.  1.
         23    2    1    2    0    0 -0.95129807751E+02  0.19429373960E+02 -0.21247194111E+01  0.13337283621E+03  0.91414539930E+02 0.  0.
          5    1    1    2  502    0  0.10080249188E+02 -0.15990190465E+01 -0.63434577246E+02  0.64386227378E+02  0.41800000000E+01 0.  1.
         -5    1    1    2    0  502  0.85049558563E+02 -0.17830354914E+02  0.39883281780E+02  0.95705263876E+02  0.41800000000E+01 0.  1.
        -11    1    3    3    0    0 -0.20088029481E+02  0.43722109788E+02  0.18976926714E+02  0.51723066037E+02  0.00000000000E+00 0.  1.
         11    1    3    3    0    0 -0.75041778271E+02 -0.24292735828E+02 -0.21101646125E+02  0.81649770173E+02  0.00000000000E+00 0. -1.
</event>
<event>
 7    1  0.6684706E-006  0.1503599E+03  0.7561462E-02  0.1200031E+00
         -1   -1    0    0    0  501 -0.00000000000E+00  0.00000000000E+00  0.30852234056E+02  0.30852234056E+02  0.00000000000E+00 0.  1.
          1   -1    0    0  501    0  0.00000000000E+00 -0.00000000000E+00 -0.84507294845E+03  0.84507294845E+03  0.00000000000E+00 0. -1.
         23    2    1    2    0    0  0.15326561384E+02 -0.10145765223E+03 -0.25303039180E+03  0.28806337704E+03  0.91801804644E+02 0.  0.
          5    1    1    2  502    0  0.44856637321E+02  0.10486899576E+03 -0.34527329365E+03  0.36364920444E+03  0.41800000000E+01 0. -1.
         -5    1    1    2    0  502 -0.60183198704E+02 -0.34113435305E+01 -0.21591702895E+03  0.22421260103E+03  0.41800000000E+01 0.  1.
        -11    1    3    3    0    0 -0.29241370007E+02 -0.29639835719E+02 -0.35594838228E+02  0.54777459687E+02  0.00000000000E+00 0.  1.
         11    1    3    3    0    0  0.44567931390E+02 -0.71817816512E+02 -0.21743555357E+03  0.23328591735E+03  0.00000000000E+00 0. -1.
</event>
<event>
 7    1  0.6684706E-006  0.1429021E+03  0.7561462E-02  0.1209477E+00
          1   -1    0    0  501    0  0.00000000000E+00  0.00000000000E+00  0.17268919223E+02  0.17268919223E+02  0.00000000000E+00 0. -1.
         -1   -1    0    0    0  501 -0.00000000000E+00 -0.00000000000E+00 -0.11929333781E+04  0.11929333781E+04  0.00000000000E+00 0.  1.
         23    2    1    2    0    0  0.81590034899E+02 -0.45834234168E+02 -0.54796516701E+03  0.56335549711E+03  0.91355793790E+02 0.  0.
          5    1    1    2  502    0  0.31784133870E+02 -0.16122020167E+01 -0.16445159636E+03  0.16755485761E+03  0.41800000000E+01 0. -1.
         -5    1    1    2    0  502 -0.11337416877E+03  0.47446436185E+02 -0.46324769548E+03  0.47929194258E+03  0.41800000000E+01 0. -1.
        -11    1    3    3    0    0  0.33869430287E+02  0.27234866690E+02 -0.18940895383E+03  0.19433123285E+03  0.00000000000E+00 0. -1.
         11    1    3    3    0    0  0.47720604612E+02 -0.73069100858E+02 -0.35855621318E+03  0.36902426426E+03  0.00000000000E+00 0.  1.
</event>
<event>
 7    1  0.6684706E-006  0.8159278E+02  0.7561462E-02  0.1324591E+00
         -1   -1    0    0    0  501 -0.00000000000E+00  0.00000000000E+00  0.84985382584E+02  0.84985382584E+02  0.00000000000E+00 0.  1.
          1   -1    0    0  501    0  0.00000000000E+00 -0.00000000000E+00 -0.18167665142E+03  0.18167665142E+03  0.00000000000E+00 0. -1.
         23    2    1    2    0    0 -0.27426557425E+02 -0.16544869950E+02  0.12456480439E+02  0.97585902311E+02  0.91333978623E+02 0.  0.
          5    1    1    2  502    0 -0.21802931916E+01 -0.33466906598E+02  0.11001760667E+02  0.35542912844E+02  0.41800000000E+01 0. -1.
         -5    1    1    2    0  502  0.29606850616E+02  0.50011776549E+02 -0.12014950994E+03  0.13353321885E+03  0.41800000000E+01 0. -1.
        -11    1    3    3    0    0  0.14204709023E+02 -0.24892082496E+02  0.38332962444E+02  0.47862360359E+02  0.00000000000E+00 0.  1.
         11    1    3    3    0    0 -0.41631266448E+02  0.83472125456E+01 -0.25876482005E+02  0.49723541953E+02  0.00000000000E+00 0. -1.
</event>
<event>
 7    1  0.6684706E-006  0.1350184E+03  0.7561462E-02  0.1220194E+00
         -3   -1    0    0    0  501 -0.00000000000E+00  0.00000000000E+00  0.22784730704E+03  0.22784730704E+03  0.00000000000E+00 0.  1.
          3   -1    0    0  501    0  0.00000000000E+00 -0.00000000000E+00 -0.12029143324E+03  0.12029143324E+03  0.00000000000E+00 0. -1.
         23    2    1    2    0    0 -0.38923295669E+02  0.76632243857E+02  0.14578249689E+03  0.19162418869E+03  0.89887538343E+02 0.  0.
          5    1    1    2  502    0  0.13616825124E+02 -0.10584267524E+03 -0.46971054697E+02  0.11666979990E+03  0.41800000000E+01 0. -1.
         -5    1    1    2    0  502  0.25306470545E+02  0.29210431388E+02  0.87444316135E+01  0.39844751694E+02  0.41800000000E+01 0. -1.
        -11    1    3    3    0    0  0.28661429072E+02  0.33957642492E+02  0.51713293994E+02  0.68182576775E+02  0.00000000000E+00 0. -1.
         11    1    3    3    0    0 -0.67584724740E+02  0.42674601365E+02  0.94069202892E+02  0.12344161192E+03  0.00000000000E+00 0.  1.
</event>
<event>
 7    1  0.6684706E-006  0.1099158E+03  0.7561462E-02  0.1260726E+00
         -1   -1    0    0    0  501 -0.00000000000E+00  0.00000000000E+00  0.22852647614E+02  0.22852647614E+02  0.00000000000E+00 0.  1.
          1   -1    0    0  501    0  0.00000000000E+00 -0.00000000000E+00 -0.11267238158E+04  0.11267238158E+04  0.00000000000E+00 0. -1.
         23    2    1    2    0    0 -0.68001925388E+02  0.43123027604E+02 -0.19133398399E+03  0.22627618514E+03  0.90046438926E+02 0.  0.
          5    1    1    2  502    0  0.25268095732E+02  0.17719429060E+02 -0.64044230009E+03  0.64119908528E+03  0.41800000000E+01 0. -1.
         -5    1    1    2    0  502  0.42733829656E+02 -0.60842456664E+02 -0.27209488406E+03  0.28210119294E+03  0.41800000000E+01 0.  1.
        -11    1    3    3    0    0 -0.52518030700E+02 -0.14556901294E+02 -0.54964171793E+02  0.77402242246E+02  0.00000000000E+00 0. -1.
         11    1    3    3    0    0 -0.15483894688E+02  0.57679928898E+02 -0.13636981220E+03  0.14887394289E+03  0.00000000000E+00 0.  1.
</event>
<event>
 7    1  0.6684706E-006  0.1626745E+03  0.7561462E-02  0.1185710E+00
         -2   -1    0    0    0  501 -0.00000000000E+00  0.00000000000E+00  0.87100377507E+02  0.87100377507E+02  0.00000000000E+00 0.  1.
          2   -1    0    0  501    0  0.00000000000E+00 -0.00000000000E+00 -0.45202592011E+03  0.45202592011E+03  0.00000000000E+00 0. -1.
         23    2    1    2    0    0  0.18035821772E+02  0.12315942849E+03 -0.24435391151E+02  0.15562358779E+03  0.90155848645E+02 0.  0.
          5    1    1    2  502    0 -0.68685189694E+02 -0.70437190548E+02 -0.23775531384E+03  0.25734046467E+03  0.41800000000E+01 0.  1.
         -5    1    1    2    0  502  0.50649367922E+02 -0.52722237937E+02 -0.10273483761E+03  0.12616224516E+03  0.41800000000E+01 0.  1.
        -11    1    3    3    0    0 -0.25226225481E+00 -0.14639664768E+02 -0.34287620007E+01  0.15037946324E+02  0.00000000000E+00 0. -1.
         11    1    3    3    0    0  0.18288084027E+02  0.13779909325E+03 -0.21006629151E+02  0.14058564147E+03  0.00000000000E+00 0.  1.
</event>
<event>
 7    1  0.6684706E-006  0.1031814E+03  0.7561462E-02  0.1273745E+00
          2   -1    0    0  501    0  0.00000000000E+00  0.00000000000E+00  0.25653429639E+03  0.25653429639E+03  0.00000000000E+00 0. -1.
         -2   -1    0    0    0  501 -0.00000000000E+00 -0.00000000000E+00 -0.75060006377E+02  0.75060006377E+02  0.00000000000E+00 0.  1.
         23    2    1    2    0    0  0.47405706498E+02  0.68751620621E+02  0.10875074680E+03  0.16454359949E+03  0.90960347707E+02 0.  0.
          5    1    1    2  502    0 -0.48835897655E+02 -0.65558537552E+02  0.10566480623E+03  0.13366147695E+03  0.41800000000E+01 0.  1.
         -5    1    1    2    0  502  0.14301911564E+01 -0.31930830694E+01 -0.32941263013E+02  0.33389226333E+02  0.41800000000E+01 0.  1.
        -11    1    3    3    0    0  0.70144285893E+02  0.65710623097E+02  0.67858464087E+02  0.11765576050E+03  0.00000000000E+00 0.  1.
         11    1    3    3    0    0 -0.22738579395E+02  0.30409975243E+01  0.40892282714E+02  0.46887838982E+02  0.00000000000E+00 0. -1.
</event>
<event>
 7    1  0.6684706E-006  0.9984755E+02  0.7561462E-02  0.1280617E+00
          1   -1    0    0  501    0  0.00000000000E+00  0.00000000000E+00  0.15350042208E+03  0.15350042208E+03  0.00000000000E+00 0. -1.
         -1   -1    0    0    0  501 -0.00000000000E+00 -0.00000000000E+00 -0.96959322126E+02  0.96959322126E+02  0.00000000000E+00 0.  1.
         23    2    1    2    0    0  0.30703495165E+02 -0.47451767055E+02  0.22511781580E+02  0.10902566192E+03  0.90473420602E+02 0.  0.
          5    1    1    2  502    0 -0.69123995358E+02  0.45782273156E+01 -0.82426787625E+01  0.69889205553E+02  0.41800000000E+01 0. -1.
         -5    1    1    2    0  502  0.38420500193E+02  0.42873539740E+02  0.42271997138E+02  0.71544876734E+02  0.41800000000E+01 0. -1.
        -11    1    3    3    0    0 -0.47657203724E+01 -0.34476546818E+02 -0.28895460708E+02  0.45235959377E+02  0.00000000000E+00 0.  1.
         11    1    3    3    0    0  0.35469215538E+02 -0.12975220237E+02  0.51407242288E+02  0.63789702545E+02  0.00000000000E+00 0. -1.
</event>
<event>
 7    1  0.6684706E-006  0.1267465E+03  0.7561462E-02  0.1232365E+00
         -2   -1    0    0    0  501 -0.00000000000E+00  0.00000000000E+00  0.10897013324E+03  0.10897013324E+03  0.00000000000E+00 0.  1.
          2   -1    0    0  501    0  0.00000000000E+00 -0.00000000000E+00 -0.31572767429E+03  0.31572767429E+03  0.00000000000E+00 0. -1.
         23    2    1    2    0    0  0.21539235578E+02  0.74815244210E+02  0.49057288945E+02  0.12948471195E+03  0.91095628849E+02 0.  0.
          5    1    1    2  502    0 -0.64335028514E+02 -0.28282945790E+02 -0.19528853003E+03  0.20759095182E+03  0.41800000000E+01 0.  1.
         -5    1    1    2    0  502  0.42795792936E+02 -0.46532298420E+02 -0.60526299964E+02  0.87622143757E+02  0.41800000000E+01 0.  1.
        -11    1    3    3    0    0  0.52978509450E+02  0.70215160576E+02  0.33705041560E+02  0.94196183918E+02  0.00000000000E+00 0.  1.
         11    1    3    3    0    0 -0.31439273872E+02  0.46000836342E+01  0.15352247385E+02  0.35288528034E+02  0.00000000000E+00 0. -1.
</event>
<event>
 7    1  0.6684706E-006  0.6177104E+02  0.7561462E-02  0.1390546E+00
         -2   -1    0    0    0  501 -0.00000000000E+00  0.00000000000E+00  0.80927929652E+02  0.80927929652E+02  0.00000000000E+00 0. -1.
          2   -1    0    0  501    0  0.00000000000E+00 -0.00000000000E+00 -0.17725885555E+03  0.17725885555E+03  0.00000000000E+00 0.  1.
         23    2    1    2    0    0 -0.30880569759E+02  0.17723344503E+02 -0.32562843229E+02  0.11333578461E+03  0.10255210766E+03 0.  0.
          5    1    1    2  502    0  0.18366614497E+02 -0.20192794771E+02  0.35333638671E+02  0.44844396645E+02  0.41800000000E+01 0. -1.
         -5    1    1    2    0  502  0.12513955262E+02  0.24694502683E+01 -0.99101721344E+02  0.10000660395E+03  0.41800000000E+01 0. -1.
        -11    1    3    3    0    0 -0.47849234028E+02  0.34229823379E+02  0.14554561996E+02  0.60605818867E+02  0.00000000000E+00 0. -1.
         11    1    3    3    0    0  0.16968664269E+02 -0.16506478876E+02 -0.47117405224E+02  0.52729965741E+02  0.00000000000E+00 0.  1.
</event>
<event>
 7    1  0.6684706E-006  0.9477503E+02  0.7561462E-02  0.1291684E+00
         -2   -1    0    0    0  501 -0.00000000000E+00  0.00000000000E+00  0.16659443405E+03  0.16659443405E+03  0.00000000000E+00 0.  1.
          2   -1    0    0  501    0  0.00000000000E+00 -0.00000000000E+00 -0.77264045258E+02  0.77264045258E+02  0.00000000000E+00 0. -1.
         23    2    1    2    0    0 -0.25003321320E+02  0.11362661638E+01  0.85713221260E+02  0.12726326533E+03  0.90679243638E+02 0.  0.
          5    1    1    2  502    0 -0.37485553114E+02 -0.28241641659E+02  0.96128432311E+01  0.48089875970E+02  0.41800000000E+01 0. -1.
         -5    1    1    2    0  502  0.62488874434E+02  0.27105375495E+02 -0.59956756938E+01  0.68505338009E+02  0.41800000000E+01 0.  1.
        -11    1    3    3    0    0  0.23668978549E+02 -0.73452733730E+01 -0.37498193317E+01  0.25064611138E+02  0.00000000000E+00 0.  1.
         11    1    3    3    0    0 -0.48672299869E+02  0.84815395368E+01  0.89463040591E+02  0.10219865420E+03  0.00000000000E+00 0. -1.
</event>
<event>
 7    1  0.6684706E-006  0.1902267E+03  0.7561462E-02  0.1158257E+00
         -2   -1    0    0    0  501 -0.00000000000E+00  0.00000000000E+00  0.91294259615E+03  0.91294259615E+03  0.00000000000E+00 0.  1.
          2   -1    0    0  501    0  0.00000000000E+00 -0.00000000000E+00 -0.44393767471E+02  0.44393767471E+02  0.00000000000E+00 0. -1.
         23    2    1    2    0    0 -0.13997467407E+03  0.90457515363E+02  0.48754857556E+03  0.52307388720E+03  0.90151020384E+02 0.  0.
          5    1    1    2  502    0  0.89078682598E+02 -0.10886597193E+03  0.19482892324E+03  0.24033849726E+03  0.41800000000E+01 0.  1.
         -5    1    1    2    0  502  0.50895991471E+02  0.18408456567E+02  0.18617132988E+03  0.19392397915E+03  0.41800000000E+01 0.  1.
        -11    1    3    3    0    0 -0.68886628966E+01  0.43915071995E+02  0.76007006573E+02  0.88051418347E+02  0.00000000000E+00 0. -1.
         11    1    3    3    0    0 -0.13308601117E+03  0.46542443368E+02  0.41154156899E+03  0.43502246885E+03  0.00000000000E+00 0.  1.
</event>
<event>
 7    1  0.8226663E-006  0.1389529E+03  0.7561462E-02  0.1214745E+00
          2   -1    0    0  501    0  0.00000000000E+00  0.00000000000E+00  0.16316386404E+04  0.16316386404E+04  0.00000000000E+00 0. -1.
         -2   -1    0    0    0  501 -0.00000000000E+00 -0.00000000000E+00 -0.16638057782E+02  0.16638057782E+02  0.00000000000E+00 0.  1.
         23    2    1    2    0    0 -0.30922154480E+01 -0.10751963272E+03  0.47400312921E+03  0.49541373182E+03  0.95842401669E+02 0.  0.
          5    1    1    2  502    0  0.10175261135E+02 -0.27436657014E+02  0.18320790317E+03  0.18557724610E+03  0.41800000000E+01 0.  1.
         -5    1    1    2    0  502 -0.70830456866E+01  0.13495628973E+03  0.95778955020E+03  0.96728572023E+03  0.41800000000E+01 0.  1.
        -11    1    3    3    0    0  0.15712640071E+02 -0.37977882357E+02  0.47254913672E+02  0.62627737245E+02  0.00000000000E+00 0.  1.
         11    1    3    3    0    0 -0.18804855518E+02 -0.69541750361E+02  0.42674821554E+03  0.43278599458E+03  0.00000000000E+00 0. -1.
</event>
<event>
 7    1  0.6684706E-006  0.1103972E+03  0.7561462E-02  0.1259836E+00
         -2   -1    0    0    0  501 -0.00000000000E+00  0.00000000000E+00  0.61621438920E+03  0.61621438920E+03  0.00000000000E+00 0.  1.
          2   -1    0    0  501    0  0.00000000000E+00 -0.00000000000E+00 -0.31888631346E+02  0.31888631346E+02  0.00000000000E+00 0. -1.
         23    2    1    2    0    0  0.58335906863E+02  0.66493577590E+02  0.26318310364E+03  0.29228595265E+03  0.91330488806E+02 0.  0.
          5    1    1    2  502    0 -0.36877172097E+02 -0.73880614185E+02  0.32227646017E+03  0.33271287945E+03  0.41800000000E+01 0.  1.
         -5    1    1    2    0  502 -0.21458734766E+02  0.73870365954E+01 -0.11338059589E+01  0.23104188438E+02  0.41800000000E+01 0.  1.
        -11    1    3    3    0    0  0.14295242236E+01  0.57392138925E+02  0.69150880080E+02  0.89876278103E+02  0.00000000000E+00 0. -1.
         11    1    3    3    0    0  0.56906382639E+02  0.91014386645E+01  0.19403222356E+03  0.20240967455E+03  0.00000000000E+00 0.  1.
</event>
<event>
 7    1  0.6684706E-006  0.8096475E+02  0.7561462E-02  0.1326336E+00
         -2   -1    0    0    0  501 -0.00000000000E+00  0.00000000000E+00  0.26487267544E+03  0.26487267544E+03  0.00000000000E+00 0.  1.
          2   -1    0    0  501    0  0.00000000000E+00 -0.00000000000E+00 -0.52070587466E+02  0.52070587466E+02  0.00000000000E+00 0. -1.
         23    2    1    2    0    0 -0.25281325344E+02  0.11968951528E+02  0.14318053090E+03  0.17107289363E+03  0.89346904229E+02 0.  0.
          5    1    1    2  502    0  0.40117837902E+02  0.42247702376E+02  0.28371655011E+01  0.58479322688E+02  0.41800000000E+01 0. -1.
         -5    1    1    2    0  502 -0.14836512557E+02 -0.54216653904E+02  0.66784391580E+02  0.87391046590E+02  0.41800000000E+01 0. -1.
        -11    1    3    3    0    0 -0.92292875216E+01 -0.13914399897E+02 -0.68018814380E+01  0.18029305692E+02  0.00000000000E+00 0. -1.
         11    1    3    3    0    0 -0.16052037823E+02  0.25883351425E+02  0.14998241233E+03  0.15304358794E+03  0.00000000000E+00 0.  1.
</event>
<event>
 7    1  0.6684706E-006  0.1109321E+03  0.7561462E-02  0.1258853E+00
          1   -1    0    0  501    0  0.00000000000E+00  0.00000000000E+00  0.80515512898E+03  0.80515512898E+03  0.00000000000E+00 0. -1.
         -1   -1    0    0    0  501 -0.00000000000E+00 -0.00000000000E+00 -0.21635518634E+02  0.21635518634E+02  0.00000000000E+00 0.  1.
         23    2    1    2    0    0  0.56111977783E+02  0.45346738876E+02  0.30201133139E+03  0.32409536500E+03  0.92855158978E+02 0.  0.
          5    1    1    2  502    0  0.63193172094E+01  0.29237933411E+02  0.24615348173E+03  0.24799959575E+03  0.41800000000E+01 0. -1.
         -5    1    1    2    0  502 -0.62431294992E+02 -0.74584672287E+02  0.23535479722E+03  0.25469568687E+03  0.41800000000E+01 0. -1.
        -11    1    3    3    0    0  0.66638565644E+02  0.24587483285E+02  0.28864234182E+03  0.29725350167E+03  0.00000000000E+00 0. -1.
         11    1    3    3    0    0 -0.10526587861E+02  0.20759255591E+02  0.13368989568E+02  0.26841863325E+02  0.00000000000E+00 0.  1.
</event>
<event>
 7    1  0.6684706E-006  0.1693969E+03  0.7561462E-02  0.1178478E+00
          2   -1    0    0  501    0  0.00000000000E+00  0.00000000000E+00  0.30653942165E+03  0.30653942165E+03  0.00000000000E+00 0. -1.
         -2   -1    0    0    0  501 -0.00000000000E+00 -0.00000000000E+00 -0.10479840866E+03  0.10479840866E+03  0.00000000000E+00 0.  1.
         23    2    1    2    0    0 -0.78387639407E+02  0.11860536194E+03  0.99359194598E+02  0.19606855279E+03  0.91426330718E+02 0.  0.
          5    1    1    2  502    0  0.18696786217E+02 -0.12360837591E+03  0.89636791104E+02  0.15388576000E+03  0.41800000000E+01 0.  1.
         -5    1    1    2    0  502  0.59690853190E+02  0.50030139658E+01  0.12745027281E+02  0.61383517525E+02  0.41800000000E+01 0.  1.
        -11    1    3    3    0    0 -0.88001475839E+02  0.10493079738E+03  0.53100393210E+02  0.14688221045E+03  0.00000000000E+00 0.  1.
         11    1    3    3    0    0  0.96138364313E+01  0.13674564569E+02  0.46258801387E+02  0.49186342341E+02  0.00000000000E+00 0. -1.
</event>
<event>
 7    1  0.6684706E-006  0.9239764E+02  0.7561462E-02  0.1297147E+00
         -2   -1    0    0    0  501 -0.00000000000E+00  0.00000000000E+00  0.67549493334E+02  0.67549493334E+02  0.00000000000E+00 0.  1.
          2   -1    0    0  501    0  0.00000000000E+00 -0.00000000000E+00 -0.38689751644E+03  0.38689751644E+03  0.00000000000E+00 0. -1.
         23    2    1    2    0    0  0.18096773991E+02  0.83121160304E+02 -0.24969898491E+02  0.12347488058E+03  0.85941432293E+02 0.  0.
          5    1    1    2  502    0 -0.22218181368E+02 -0.46842662951E+02 -0.28922212489E+03  0.29386185969E+03  0.41800000000E+01 0.  1.
         -5    1    1    2    0  502  0.41214073769E+01 -0.36278497353E+02 -0.51559997206E+01  0.37110269496E+02  0.41800000000E+01 0.  1.
        -11    1    3    3    0    0  0.32264708821E+02  0.68249597919E+02 -0.50411817795E+02  0.90776486079E+02  0.00000000000E+00 0. -1.
         11    1    3    3    0    0 -0.14167934830E+02  0.14871562385E+02  0.25441919304E+02  0.32698394502E+02  0.00000000000E+00 0.  1.
</event>
<event>
 7    1  0.6684706E-006  0.1102845E+03  0.7561462E-02  0.1260044E+00
         -1   -1    0    0    0  501 -0.00000000000E+00  0.00000000000E+00  0.54082941369E+02  0.54082941369E+02  0.00000000000E+00 0.  1.
          1   -1    0    0  501    0  0.00000000000E+00 -0.00000000000E+00 -0.42445514770E+03  0.42445514770E+03  0.00000000000E+00 0. -1.
         23    2    1    2    0    0 -0.10673173125E+02  0.90890870502E+02 -0.66663396530E+02  0.13756537064E+03  0.78135496401E+02 0.  0.
          5    1    1    2  502    0  0.27401110167E+02 -0.66041542792E+02 -0.54667941053E+02  0.90101955538E+02  0.41800000000E+01 0. -1.
         -5    1    1    2    0  502 -0.16727937041E+02 -0.24849327710E+02 -0.24904086874E+03  0.25087076288E+03  0.41800000000E+01 0. -1.
        -11    1    3    3    0    0 -0.41737681823E+02  0.33805083245E+02 -0.41491597905E+02  0.67870247044E+02  0.00000000000E+00 0. -1.
         11    1    3    3    0    0  0.31064508697E+02  0.57085787257E+02 -0.25171798625E+02  0.69695123598E+02  0.00000000000E+00 0.  1.
</event>
<event>
 7    1  0.6684706E-006  0.1083840E+03  0.7561462E-02  0.1263592E+00
          1   -1    0    0  501    0  0.00000000000E+00  0.00000000000E+00  0.18573368828E+03  0.18573368828E+03  0.00000000000E+00 0. -1.
         -1   -1    0    0    0  501 -0.00000000000E+00 -0.00000000000E+00 -0.10643606661E+03  0.10643606661E+03  0.00000000000E+00 0.  1.
         23    2    1    2    0    0  0.70615239569E+01  0.17510492150E+02 -0.54292553536E+02  0.10818365348E+03  0.91648999202E+02 0.  0.
          5    1    1    2  502    0  0.24071442864E+02 -0.63722504303E+02  0.90899512225E+02  0.11366699450E+03  0.41800000000E+01 0.  1.
         -5    1    1    2    0  502 -0.31132966821E+02  0.46212012153E+02  0.42690662986E+02  0.70319106909E+02  0.41800000000E+01 0.  1.
        -11    1    3    3    0    0  0.46878191871E+02  0.23401875333E+02 -0.23096933048E+02  0.57259767362E+02  0.00000000000E+00 0. -1.
         11    1    3    3    0    0 -0.39816667914E+02 -0.58913831827E+01 -0.31195620488E+02  0.50923886117E+02  0.00000000000E+00 0.  1.
</event>
<event>
 7    1  0.6684706E-006  0.1512852E+03  0.7561462E-02  0.1198903E+00
         -2   -1    0    0    0  501 -0.00000000000E+00  0.00000000000E+00  0.50180464171E+02  0.50180464171E+02  0.00000000000E+00 0.  1.
          2   -1    0    0  501    0  0.00000000000E+00 -0.00000000000E+00 -0.50528222508E+03  0.50528222508E+03  0.00000000000E+00 0. -1.
         23    2    1    2    0    0  0.72784416146E+02  0.76529311420E+02 -0.12601118694E+03  0.18790051387E+03  0.90958656211E+02 0.  0.
          5    1    1    2  502    0 -0.73981664500E+02  0.12008144223E+02 -0.15142457297E+03  0.16900992843E+03  0.41800000000E+01 0.  1.
         -5    1    1    2    0  502  0.11972483541E+01 -0.88537455643E+02 -0.17766600100E+03  0.19855224694E+03  0.41800000000E+01 0.  1.
        -11    1    3    3    0    0  0.85603308265E+02  0.30175208750E+02 -0.74476838640E+02  0.11741068564E+03  0.00000000000E+00 0.  1.
         11    1    3    3    0    0 -0.12818892118E+02  0.46354102670E+02 -0.51534348299E+02  0.70489828231E+02  0.00000000000E+00 0. -1.
</event>
<event>
 7    1  0.6684706E-006  0.1079021E+03  0.7561462E-02  0.1264505E+00
         -1   -1    0    0    0  501 -0.00000000000E+00  0.00000000000E+00  0.25537184129E+02  0.25537184129E+02  0.00000000000E+00 0.  1.
          1   -1    0    0  501    0  0.00000000000E+00 -0.00000000000E+00 -0.83891272080E+03  0.83891272080E+03  0.00000000000E+00 0. -1.
         23    2    1    2    0    0 -0.25175574721E+02 -0.35530798951E+02 -0.10631837025E+03  0.14652203158E+03  0.90933286809E+02 0.  0.
          5    1    1    2  502    0  0.67126277558E+02  0.31030471999E+02 -0.56011752154E+03  0.56499375011E+03  0.41800000000E+01 0. -1.
         -5    1    1    2    0  502 -0.41950702838E+02  0.45003269527E+01 -0.14693964489E+03  0.15293412324E+03  0.41800000000E+01 0.  1.
        -11    1    3    3    0    0 -0.43435335710E+02  0.14727408786E+02 -0.61700686576E+02  0.76879774205E+02  0.00000000000E+00 0. -1.
         11    1    3    3    0    0  0.18259760989E+02 -0.50258207737E+02 -0.44617683677E+02  0.69642257380E+02  0.00000000000E+00 0.  1.
</event>
<event>
 7    1  0.6684706E-006  0.1230693E+03  0.7561462E-02  0.1238118E+00
         -1   -1    0    0    0  501 -0.00000000000E+00  0.00000000000E+00  0.18387060199E+03  0.18387060199E+03  0.00000000000E+00 0.  1.
          1   -1    0    0  501    0  0.00000000000E+00 -0.00000000000E+00 -0.87313394478E+02  0.87313394478E+02  0.00000000000E+00 0. -1.
         23    2    1    2    0    0  0.66549139560E+01 -0.63338343315E+02  0.55523893581E+02  0.12493826622E+03  0.92036047253E+02 0.  0.
          5    1    1    2  502    0 -0.10751936662E+01  0.98907429632E+02  0.11843494683E+02  0.99707454306E+02  0.41800000000E+01 0.  1.
         -5    1    1    2    0  502 -0.55797202898E+01 -0.35569086317E+02  0.29189819248E+02  0.46538275942E+02  0.41800000000E+01 0.  1.
        -11    1    3    3    0    0  0.42165827855E+02 -0.48192083439E+01  0.29599349670E+02  0.51742664298E+02  0.00000000000E+00 0.  1.
         11    1    3    3    0    0 -0.35510913899E+02 -0.58519134971E+02  0.25924543911E+02  0.73195601921E+02  0.00000000000E+00 0. -1.
</event>
<event>
 7    1  0.6684706E-006  0.9534782E+02  0.7561462E-02  0.1290395E+00
          2   -1    0    0  501    0  0.00000000000E+00  0.00000000000E+00  0.66355635496E+03  0.66355635496E+03  0.00000000000E+00 0. -1.
         -2   -1    0    0    0  501 -0.00000000000E+00 -0.00000000000E+00 -0.32935383738E+02  0.32935383738E+02  0.00000000000E+00 0.  1.
         23    2    1    2    0    0  0.39506428253E+02  0.26099814947E+02  0.78072768013E+02  0.12798603626E+03  0.89683388423E+02 0.  0.
          5    1    1    2  502    0 -0.39746929325E+02 -0.53414335366E+02  0.14051532790E+03  0.15554722559E+03  0.41800000000E+01 0.  1.
         -5    1    1    2    0  502  0.24050107272E+00  0.27314520419E+02  0.41203287530E+03  0.41295847685E+03  0.41800000000E+01 0.  1.
        -11    1    3    3    0    0  0.14171147628E+02 -0.30888810190E+02  0.94855570620E+01  0.35283364534E+02  0.00000000000E+00 0.  1.
         11    1    3    3    0    0  0.25335280625E+02  0.56988625137E+02  0.68587210951E+02  0.92702671727E+02  0.00000000000E+00 0. -1.
</event>
<event>
 7    1  0.6684706E-006  0.3054174E+03  0.7561462E-02  0.1082563E+00
         -1   -1    0    0    0  501 -0.00000000000E+00  0.00000000000E+00  0.20552152094E+03  0.20552152094E+03  0.00000000000E+00 0.  1.
          1   -1    0    0  501    0  0.00000000000E+00 -0.00000000000E+00 -0.51510293031E+03  0.51510293031E+03  0.00000000000E+00 0. -1.
         23    2    1    2    0    0 -0.17341489936E+03 -0.24405695603E+03 -0.81722047168E+02  0.32413498726E+03  0.93533266101E+02 0.  0.
          5    1    1    2  502    0  0.12023222310E+03  0.15214188363E+03 -0.21480551101E+03  0.28941634402E+03  0.41800000000E+01 0.  1.
         -5    1    1    2    0  502  0.53182676254E+02  0.91915072406E+02 -0.13053851198E+02  0.10707311997E+03  0.41800000000E+01 0.  1.
        -11    1    3    3    0    0 -0.25640505043E+01 -0.57782724381E+02 -0.33418886977E+02  0.66799996996E+02  0.00000000000E+00 0.  1.
         11    1    3    3    0    0 -0.17085084885E+03 -0.18627423165E+03 -0.48303160191E+02  0.25733499027E+03  0.00000000000E+00 0. -1.
</event>
<event>
 7    1  0.6684706E-006  0.1890527E+03  0.7561462E-02  0.1159319E+00
          1   -1    0    0  501    0  0.00000000000E+00  0.00000000000E+00  0.93834534275E+03  0.93834534275E+03  0.00000000000E+00 0. -1.
         -1   -1    0    0    0  501 -0.00000000000E+00 -0.00000000000E+00 -0.51401811480E+02  0.51401811480E+02  0.00000000000E+00 0.  1.
         23    2    1    2    0    0  0.12110885172E+03 -0.12720639435E+03  0.26262664763E+03  0.32924181195E+03  0.92620699440E+02 0.  0.
          5    1    1    2  502    0 -0.11955828926E+03  0.13328933980E+03  0.42695248439E+03  0.46299689951E+03  0.41800000000E+01 0. -1.
         -5    1    1    2    0  502 -0.15505624687E+01 -0.60829454539E+01  0.19736439926E+03  0.19750844277E+03  0.41800000000E+01 0. -1.
        -11    1    3    3    0    0  0.65939213246E+02 -0.11849740742E+03  0.14221050944E+03  0.19650303917E+03  0.00000000000E+00 0. -1.
         11    1    3    3    0    0  0.55169638479E+02 -0.87089869287E+01  0.12041613819E+03  0.13273877278E+03  0.00000000000E+00 0.  1.
</event>
<event>
 7    1  0.6684706E-006  0.1089059E+03  0.7561462E-02  0.1262610E+00
          1   -1    0    0  501    0  0.00000000000E+00  0.00000000000E+00  0.16114087117E+03  0.16114087117E+03  0.00000000000E+00 0. -1.
         -1   -1    0    0    0  501 -0.00000000000E+00 -0.00000000000E+00 -0.83640598438E+02  0.83640598438E+02  0.00000000000E+00 0.  1.
         23    2    1    2    0    0  0.15562935801E+02  0.12718530435E+02  0.30689287977E+01  0.97829946574E+02  0.95693856310E+02 0.  0.
          5    1    1    2  502    0  0.10811957871E+02  0.53790092265E+02  0.33366186231E+02  0.64350969243E+02  0.41800000000E+01 0.  1.
         -5    1    1    2    0  502 -0.26374893672E+02 -0.66508622700E+02  0.41065157707E+02  0.82600553794E+02  0.41800000000E+01 0.  1.
        -11    1    3    3    0    0  0.17829790161E+02  0.50352062442E+02 -0.15754289090E+02  0.55690477050E+02  0.00000000000E+00 0.  1.
         11    1    3    3    0    0 -0.22668543595E+01 -0.37633532007E+02  0.18823217888E+02  0.42139469523E+02  0.00000000000E+00 0. -1.
</event>
<event>
 7    1  0.6684706E-006  0.6217530E+02  0.7561462E-02  0.1388923E+00
          2   -1    0    0  501    0  0.00000000000E+00  0.00000000000E+00  0.22459837101E+03  0.22459837101E+03  0.00000000000E+00 0. -1.
         -2   -1    0    0    0  501 -0.00000000000E+00 -0.00000000000E+00 -0.82640725417E+02  0.82640725417E+02  0.00000000000E+00 0.  1.
         23    2    1    2    0    0 -0.17242376405E+02  0.53589092572E+02 -0.51049199417E+01  0.10613283727E+03  0.89827771609E+02 0.  0.
          5    1    1    2  502    0  0.28019620828E+02 -0.31301498603E+02  0.16495774811E+03  0.17027452548E+03  0.41800000000E+01 0.  1.
         -5    1    1    2    0  502 -0.10777244424E+02 -0.22287593969E+02 -0.17895182575E+02  0.30831733679E+02  0.41800000000E+01 0.  1.
        -11    1    3    3    0    0 -0.90867530035E+01  0.41221440480E+02  0.40307547018E+02  0.58365011625E+02  0.00000000000E+00 0. -1.
         11    1    3    3    0    0 -0.81556234013E+01  0.12367652092E+02 -0.45412466960E+02  0.47767825643E+02  0.00000000000E+00 0.  1.
</event>
<event>
 7    1  0.6684706E-006  0.1289609E+03  0.7561462E-02  0.1229006E+00
          2   -1    0    0  501    0  0.00000000000E+00  0.00000000000E+00  0.17153792304E+04  0.17153792304E+04  0.00000000000E+00 0. -1.
         -2   -1    0    0    0  501 -0.00000000000E+00 -0.00000000000E+00 -0.17914917915E+02  0.17914917915E+02  0.00000000000E+00 0.  1.
         23    2    1    2    0    0  0.79658930866E+02 -0.14724138690E+02  0.24410935275E+03  0.27231841775E+03  0.89474013088E+02 0.  0.
          5    1    1    2  502    0  0.26583134204E+02 -0.11382798563E+02  0.13728778892E+03  0.14036253244E+03  0.41800000000E+01 0.  1.
         -5    1    1    2    0  502 -0.10624206507E+03  0.26106937253E+02  0.13160671709E+04  0.13206131982E+04  0.41800000000E+01 0.  1.
        -11    1    3    3    0    0  0.52481056022E+02  0.34631209461E+02  0.14978426880E+03  0.16244663459E+03  0.00000000000E+00 0.  1.
         11    1    3    3    0    0  0.27177874844E+02 -0.49355348151E+02  0.94325083953E+02  0.10987178316E+03  0.00000000000E+00 0. -1.
</event>
<event>
 7    1  0.6684706E-006  0.1050594E+03  0.7561462E-02  0.1270003E+00
          1   -1    0    0  501    0  0.00000000000E+00  0.00000000000E+00  0.94545472796E+03  0.94545472796E+03  0.00000000000E+00 0. -1.
         -1   -1    0    0    0  501 -0.00000000000E+00 -0.00000000000E+00 -0.20372370289E+02  0.20372370289E+02  0.00000000000E+00 0.  1.
         23    2    1    2    0    0  0.65243288358E+02 -0.50931916641E+02  0.34286210595E+03  0.36459661289E+03  0.92333740459E+02 0.  0.
          5    1    1    2  502    0 -0.75920083425E+02  0.94180109172E+01  0.16646167476E+03  0.18324715430E+03  0.41800000000E+01 0.  1.
         -5    1    1    2    0  502  0.10676795067E+02  0.41513905724E+02  0.41575857697E+03  0.41798333106E+03  0.41800000000E+01 0.  1.
        -11    1    3    3    0    0  0.63026220888E+02 -0.30743521095E+02  0.33587693614E+03  0.34311919917E+03  0.00000000000E+00 0. -1.
         11    1    3    3    0    0  0.22170674706E+01 -0.20188395546E+02  0.69851698100E+01  0.21477413721E+02  0.00000000000E+00 0.  1.
</event>
<event>
 7    1  0.6684706E-006  0.1294245E+03  0.7561462E-02  0.1228312E+00
         -2   -1    0    0    0  501 -0.00000000000E+00  0.00000000000E+00  0.11762675136E+03  0.11762675136E+03  0.00000000000E+00 0.  1.
          2   -1    0    0  501    0  0.00000000000E+00 -0.00000000000E+00 -0.17042914044E+03  0.17042914044E+03  0.00000000000E+00 0. -1.
         23    2    1    2    0    0  0.84759292106E+02 -0.32852691296E+02 -0.16115101166E+02  0.12913066932E+03  0.90286191359E+02 0.  0.
          5    1    1    2  502    0 -0.70380259699E+02  0.71870078356E+02  0.37827508620E+01  0.10074954453E+03  0.41800000000E+01 0. -1.
         -5    1    1    2    0  502 -0.14379032407E+02 -0.39017387059E+02 -0.40470038775E+02  0.58175677945E+02  0.41800000000E+01 0. -1.
        -11    1    3    3    0    0  0.76340434321E+02  0.60455831957E+01 -0.36024560776E+02  0.84629663638E+02  0.00000000000E+00 0. -1.
         11    1    3    3    0    0  0.84188577851E+01 -0.38898274492E+02  0.19909459610E+02  0.44501005683E+02  0.00000000000E+00 0.  1.
</event>
<event>
 7    1  0.6684706E-006  0.1090949E+03  0.7561462E-02  0.1262255E+00
         -1   -1    0    0    0  501 -0.00000000000E+00  0.00000000000E+00  0.18129010966E+02  0.18129010966E+02  0.00000000000E+00 0.  1.
          1   -1    0    0  501    0  0.00000000000E+00 -0.00000000000E+00 -0.85605393896E+03  0.85605393896E+03  0.00000000000E+00 0. -1.
         23    2    1    2    0    0  0.27485864482E+02 -0.37122570068E+02 -0.22745492152E+03  0.24931870127E+03  0.91052268096E+02 0.  0.
          5    1    1    2  502    0 -0.43269431423E+02 -0.26229756869E+02 -0.42837874115E+03  0.43137693738E+03  0.41800000000E+01 0.  1.
         -5    1    1    2    0  502  0.15783566941E+02  0.63352326937E+02 -0.18209126533E+03  0.19348731127E+03  0.41800000000E+01 0.  1.
        -11    1    3    3    0    0  0.60295677043E+02 -0.14122174333E+02 -0.14349913608E+03  0.15629141542E+03  0.00000000000E+00 0.  1.
         11    1    3    3    0    0 -0.32809812561E+02 -0.23000395735E+02 -0.83955785435E+02  0.93027285849E+02  0.00000000000E+00 0. -1.
</event>
<event>
 7    1  0.6684706E-006  0.2802936E+03  0.7561462E-02  0.1095529E+00
         -2   -1    0    0    0  501 -0.00000000000E+00  0.00000000000E+00  0.58489324449E+03  0.58489324449E+03  0.00000000000E+00 0.  1.
          2   -1    0    0  501    0  0.00000000000E+00 -0.00000000000E+00 -0.48303298377E+03  0.48303298377E+03  0.00000000000E+00 0. -1.
         23    2    1    2    0    0  0.43022800860E+02  0.23117754339E+03  0.17818291339E+03  0.30808424380E+03  0.88728420984E+02 0.  0.
          5    1    1    2  502    0 -0.96423217758E+02 -0.28509252985E+02 -0.37873591464E+03  0.39187827175E+03  0.41800000000E+01 0. -1.
         -5    1    1    2    0  502  0.53400416898E+02 -0.20266829040E+03  0.30241326197E+03  0.36796371271E+03  0.41800000000E+01 0.  1.
        -11    1    3    3    0    0 -0.17644367506E+02  0.86042806664E+01  0.22049683937E+02  0.29521956443E+02  0.00000000000E+00 0. -1.
         11    1    3    3    0    0  0.60667168366E+02  0.22257326272E+03  0.15613322946E+03  0.27856228736E+03  0.00000000000E+00 0.  1.
</event>
<event>
 7    1  0.6684706E-006  0.1302155E+03  0.7561462E-02  0.1227136E+00
          1   -1    0    0  501    0  0.00000000000E+00  0.00000000000E+00  0.45603125359E+03  0.45603125359E+03  0.00000000000E+00 0. -1.
         -1   -1    0    0    0  501 -0.00000000000E+00 -0.00000000000E+00 -0.51479755283E+02  0.51479755283E+02  0.00000000000E+00 0.  1.
         23    2    1    2    0    0  0.65883024716E+02  0.80268944639E+02  0.19908889007E+03  0.24550614151E+03  0.99263301129E+02 0.  0.
          5    1    1    2  502    0 -0.65271574438E+02  0.92875855310E+01  0.51195505269E+02  0.83576849871E+02  0.41800000000E+01 0.  1.
         -5    1    1    2    0  502 -0.61145027793E+00 -0.89556530170E+02  0.15426710297E+03  0.17842801749E+03  0.41800000000E+01 0.  1.
        -11    1    3    3    0    0  0.15517220052E+02  0.10792027684E+02 -0.86163868714E+01  0.20772436120E+02  0.00000000000E+00 0.  1.
         11    1    3    3    0    0  0.50365804665E+02  0.69476916955E+02  0.20770527695E+03  0.22473370539E+03  0.00000000000E+00 0. -1.
</event>
<event>
 7    1  0.6684706E-006  0.1777225E+03  0.7561462E-02  0.1170026E+00
         -1   -1    0    0    0  501 -0.00000000000E+00  0.00000000000E+00  0.16845280944E+03  0.16845280944E+03  0.00000000000E+00 0.  1.
          1   -1    0    0  501    0  0.00000000000E+00 -0.00000000000E+00 -0.19816928155E+03  0.19816928155E+03  0.00000000000E+00 0. -1.
         23    2    1    2    0    0  0.10686790213E+03  0.10063533527E+03  0.31979785779E+01  0.17097075134E+03  0.87593102110E+02 0.  0.
          5    1    1    2  502    0 -0.12860719284E+03 -0.64512071291E+02 -0.33343964093E+01  0.14397988745E+03  0.41800000000E+01 0. -1.
         -5    1    1    2    0  502  0.21739290706E+02 -0.36123263979E+02 -0.29580054271E+02  0.51671452191E+02  0.41800000000E+01 0. -1.
        -11    1    3    3    0    0  0.19707436241E+02  0.76068955650E+02 -0.10868554078E+02  0.79328396710E+02  0.00000000000E+00 0.  1.
         11    1    3    3    0    0  0.87160465892E+02  0.24566379621E+02  0.14066532655E+02  0.91642354635E+02  0.00000000000E+00 0. -1.
</event>
<event>
 7    1  0.6684706E-006  0.6862445E+02  0.7561462E-02  0.1364834E+00
         -2   -1    0    0    0  501 -0.00000000000E+00  0.00000000000E+00  0.21219590638E+03  0.21219590638E+03  0.00000000000E+00 0.  1.
          2   -1    0    0  501    0  0.00000000000E+00 -0.00000000000E+00 -0.22006747892E+03  0.22006747892E+03  0.00000000000E+00 0. -1.
         23    2    1    2    0    0  0.97701193952E+01 -0.33230384963E+02  0.16071200422E+03  0.18910992344E+03  0.93458552993E+02 0.  0.
          5    1    1    2  502    0  0.37162415576E+01  0.55549526827E+02 -0.19676420606E+03  0.20453162486E+03  0.41800000000E+01 0. -1.
         -5    1    1    2    0  502 -0.13486360953E+02 -0.22319141864E+02  0.28180629295E+02  0.38621836993E+02  0.41800000000E+01 0.  1.
        -11    1    3    3    0    0 -0.16994272896E+02 -0.14517830367E+02 -0.26573057861E+01  0.22508531357E+02  0.00000000000E+00 0. -1.
         11    1    3    3    0    0  0.26764392291E+02 -0.18712554596E+02  0.16336931000E+03  0.16660139209E+03  0.00000000000E+00 0.  1.
</event>
<event>
 7    1  0.6684706E-006  0.1019748E+03  0.7561462E-02  0.1276197E+00
         -2   -1    0    0    0  501 -0.00000000000E+00  0.00000000000E+00  0.73690765727E+02  0.73690765727E+02  0.00000000000E+00 0.  1.
          2   -1    0    0  501    0  0.00000000000E+00 -0.00000000000E+00 -0.76995041130E+03  0.76995041130E+03  0.00000000000E+00 0. -1.
         23    2    1    2    0    0  0.24557897822E+02 -0.59868450344E+02 -0.34365277121E+02  0.11623970215E+03  0.90240647117E+02 0.  0.
          5    1    1    2  502    0 -0.99212205880E+01 -0.17780771956E+02 -0.64644637270E+03  0.64678046635E+03  0.41800000000E+01 0. -1.
         -5    1    1    2    0  502 -0.14636677234E+02  0.77649222300E+02 -0.15447995753E+02  0.80621008534E+02  0.41800000000E+01 0.  1.
        -11    1    3    3    0    0  0.35890048857E+01 -0.76923653500E+02 -0.42572823498E+02  0.87991901471E+02  0.00000000000E+00 0.  1.
         11    1    3    3    0    0  0.20968892936E+02  0.17055203155E+02  0.82075463769E+01  0.28247800678E+02  0.00000000000E+00 0. -1.
</event>
<event>
 7    1  0.6684706E-006  0.9021995E+02  0.7561462E-02  0.1302320E+00
          1   -1    0    0  501    0  0.00000000000E+00  0.00000000000E+00  0.21462778041E+02  0.21462778041E+02  0.00000000000E+00 0.  1.
         -1   -1    0    0    0  501 -0.00000000000E+00 -0.00000000000E+00 -0.61264772487E+03  0.61264772487E+03  0.00000000000E+00 0. -1.
         23    2    1    2    0    0 -0.19661347409E+02  0.13361490495E+02 -0.33156770596E+03  0.34494950471E+03  0.92129903680E+02 0.  0.
          5    1    1    2  502    0  0.30203210788E+02 -0.43822762903E+02 -0.38880993111E+02  0.66044473771E+02  0.41800000000E+01 0.  1.
         -5    1    1    2    0  502 -0.10541863379E+02  0.30461272408E+02 -0.22073624775E+03  0.22311652443E+03  0.41800000000E+01 0.  1.
        -11    1    3    3    0    0  0.35054073372E+02 -0.77532711703E+01 -0.10765383071E+03  0.11348237105E+03  0.00000000000E+00 0.  1.
         11    1    3    3    0    0 -0.54715420781E+02  0.21114761665E+02 -0.22391387526E+03  0.23146713366E+03  0.00000000000E+00 0. -1.
</event>
<event>
 7    1  0.6684706E-006  0.9646625E+02  0.7561462E-02  0.1287907E+00
          1   -1    0    0  501    0  0.00000000000E+00  0.00000000000E+00  0.39184897265E+03  0.39184897265E+03  0.00000000000E+00 0. -1.
         -1   -1    0    0    0  501 -0.00000000000E+00 -0.00000000000E+00 -0.35342783658E+02  0.35342783658E+02  0.00000000000E+00 0.  1.
         23    2    1    2    0    0 -0.42881794213E+02  0.59562905291E+01  0.18372071960E+03  0.20951949204E+03  0.90943878641E+02 0.  0.
          5    1    1    2  502    0 -0.33830163837E+02 -0.28228296004E+02  0.10068996042E+03  0.10998753206E+03  0.41800000000E+01 0. -1.
         -5    1    1    2    0  502  0.76711958049E+02  0.22272005475E+02  0.72095508975E+02  0.10768473220E+03  0.41800000000E+01 0. -1.
        -11    1    3    3    0    0  0.64351742658E+01 -0.14058757825E+02 -0.26596178417E+01  0.15688648969E+02  0.00000000000E+00 0.  1.
         11    1    3    3    0    0 -0.49316968478E+02  0.20015048354E+02  0.18638033744E+03  0.19383084307E+03  0.00000000000E+00 0. -1.
</event>
<event>
 7    1  0.6684706E-006  0.1131297E+03  0.7561462E-02  0.1254881E+00
         -1   -1    0    0    0  501 -0.00000000000E+00  0.00000000000E+00  0.56552956088E+02  0.56552956088E+02  0.00000000000E+00 0.  1.
          1   -1    0    0  501    0  0.00000000000E+00 -0.00000000000E+00 -0.30790492684E+03  0.30790492684E+03  0.00000000000E+00 0. -1.
         23    2    1    2    0    0 -0.63942893362E+02  0.41139831534E+01 -0.46693592901E+02  0.11618737273E+03  0.84932888176E+02 0.  0.
          5    1    1    2  502    0 -0.57005880051E+01 -0.47541833273E+02 -0.12456290717E+03  0.13351446685E+03  0.41800000000E+01 0. -1.
         -5    1    1    2    0  502  0.69643481367E+02  0.43427850120E+02 -0.80095470676E+02  0.11475604335E+03  0.41800000000E+01 0. -1.
        -11    1    3    3    0    0 -0.10027330899E+02  0.33250434256E+02  0.61453842000E+01  0.35269030184E+02  0.00000000000E+00 0.  1.
         11    1    3    3    0    0 -0.53915562463E+02 -0.29136451102E+02 -0.52838977101E+02  0.80918342541E+02  0.00000000000E+00 0. -1.
</event>
<event>
 7    1  0.6684706E-006  0.1731250E+03  0.7561462E-02  0.1174628E+00
          3   -1    0    0  501    0  0.00000000000E+00  0.00000000000E+00  0.60154287073E+02  0.60154287073E+02  0.00000000000E+00 0. -1.
         -3   -1    0    0    0  501 -0.00000000000E+00 -0.00000000000E+00 -0.55126982509E+03  0.55126982509E+03  0.00000000000E+00 0.  1.
         23    2    1    2    0    0 -0.30727439218E+02  0.13195059800E+03 -0.32367315242E+03  0.36234568951E+03  0.90415448195E+02 0.  0.
          5    1    1    2  502    0 -0.15683079440E+02  0.19794520162E+02 -0.25538569085E+02  0.36158995009E+02  0.41800000000E+01 0. -1.
         -5    1    1    2    0  502  0.46410518658E+02 -0.15174511817E+03 -0.14190381651E+03  0.21291942765E+03  0.41800000000E+01 0. -1.
        -11    1    3    3    0    0 -0.16756254156E+02  0.14307591321E+03 -0.29894171815E+03  0.33183978038E+03  0.00000000000E+00 0.  1.
         11    1    3    3    0    0 -0.13971185061E+02 -0.11125315206E+02 -0.24731434276E+02  0.30505909130E+02  0.00000000000E+00 0. -1.
</event>
<event>
 7    1  0.6684706E-006  0.1448013E+03  0.7561462E-02  0.1207011E+00
          2   -1    0    0  501    0  0.00000000000E+00  0.00000000000E+00  0.63788573821E+03  0.63788573821E+03  0.00000000000E+00 0. -1.
         -2   -1    0    0    0  501 -0.00000000000E+00 -0.00000000000E+00 -0.33419387093E+02  0.33419387093E+02  0.00000000000E+00 0.  1.
         23    2    1    2    0    0 -0.68843453739E+02 -0.69615853332E+02  0.27665770879E+03  0.30703561960E+03  0.90252954056E+02 0.  0.
          5    1    1    2  502    0 -0.30005305390E+02  0.45410155297E+02  0.14603545211E+03  0.15590454204E+03  0.41800000000E+01 0. -1.
         -5    1    1    2    0  502  0.98848759128E+02  0.24205698035E+02  0.18177319022E+03  0.20836496366E+03  0.41800000000E+01 0. -1.
        -11    1    3    3    0    0 -0.58281150284E+02 -0.91714717700E+02  0.22582979712E+03  0.25061400437E+03  0.00000000000E+00 0.  1.
         11    1    3    3    0    0 -0.10562303455E+02  0.22098864367E+02  0.50827911667E+02  0.56421615229E+02  0.00000000000E+00 0. -1.
</event>
<event>
 7    1  0.6684706E-006  0.1327023E+03  0.7561462E-02  0.1223500E+00
         -1   -1    0    0    0  501 -0.00000000000E+00  0.00000000000E+00  0.41824963314E+03  0.41824963314E+03  0.00000000000E+00 0.  1.
          1   -1    0    0  501    0  0.00000000000E+00 -0.00000000000E+00 -0.49480504674E+02  0.49480504674E+02  0.00000000000E+00 0. -1.
         23    2    1    2    0    0  0.10400177617E+02 -0.87550706350E+02  0.21929920765E+03  0.25380775906E+03  0.92482139926E+02 0.  0.
          5    1    1    2  502    0  0.81917072173E+01  0.10891178819E+03  0.70851552398E+02  0.13025473715E+03  0.41800000000E+01 0. -1.
         -5    1    1    2    0  502 -0.18591884834E+02 -0.21361081837E+02  0.78618368414E+02  0.83667641601E+02  0.41800000000E+01 0. -1.
        -11    1    3    3    0    0 -0.30460306453E+02 -0.80428003222E+02  0.13969840375E+03  0.16404919379E+03  0.00000000000E+00 0.  1.
         11    1    3    3    0    0  0.40860484069E+02 -0.71227031279E+01  0.79600803898E+02  0.89758565270E+02  0.00000000000E+00 0. -1.
</event>
<event>
 7    1  0.6684706E-006  0.1595186E+03  0.7561462E-02  0.1189241E+00
         -1   -1    0    0    0  501 -0.00000000000E+00  0.00000000000E+00  0.62063864313E+02  0.62063864313E+02  0.00000000000E+00 0.  1.
          1   -1    0    0  501    0  0.00000000000E+00 -0.00000000000E+00 -0.52569161885E+03  0.52569161885E+03  0.00000000000E+00 0. -1.
         23    2    1    2    0    0 -0.11468242588E+03 -0.57957046550E+02 -0.12023329962E+03  0.20036330815E+03  0.95803605697E+02 0.  0.
          5    1    1    2  502    0 -0.14940323449E+02 -0.20278140643E+02 -0.74785824546E+02  0.79024098893E+02  0.41800000000E+01 0. -1.
         -5    1    1    2    0  502  0.12962274933E+03  0.78235187193E+02 -0.26860863037E+03  0.30836807612E+03  0.41800000000E+01 0. -1.
        -11    1    3    3    0    0 -0.28246536318E+02 -0.47112163484E+02 -0.94882105255E+02  0.10963592778E+03  0.00000000000E+00 0. -1.
         11    1    3    3    0    0 -0.86435889564E+02 -0.10844883067E+02 -0.25351194363E+02  0.90727380372E+02  0.00000000000E+00 0.  1.
</event>
<event>
 7    1  0.6684706E-006  0.1092048E+03  0.7561462E-02  0.1262050E+00
          1   -1    0    0  501    0  0.00000000000E+00  0.00000000000E+00  0.51970750111E+03  0.51970750111E+03  0.00000000000E+00 0. -1.
         -1   -1    0    0    0  501 -0.00000000000E+00 -0.00000000000E+00 -0.27525349607E+02  0.27525349607E+02  0.00000000000E+00 0.  1.
         23    2    1    2    0    0  0.34250605306E+02 -0.39004251435E+02  0.14098892372E+03  0.17542254026E+03  0.90558022434E+02 0.  0.
          5    1    1    2  502    0  0.30746756104E+02  0.45897154832E+02  0.13537827377E+03  0.14627597630E+03  0.41800000000E+01 0. -1.
         -5    1    1    2    0  502 -0.64997361410E+02 -0.68929033973E+01  0.21581495401E+03  0.22553433416E+03  0.41800000000E+01 0.  1.
        -11    1    3    3    0    0 -0.25188861540E+02 -0.26901132384E+02  0.25009194409E+02  0.44537730906E+02  0.00000000000E+00 0.  1.
         11    1    3    3    0    0  0.59439466846E+02 -0.12103119050E+02  0.11597972931E+03  0.13088480936E+03  0.00000000000E+00 0. -1.
</event>
<event>
 7    1  0.6684706E-006  0.8255766E+02  0.7561462E-02  0.1321946E+00
         -2   -1    0    0    0  501 -0.00000000000E+00  0.00000000000E+00  0.29901381535E+02  0.29901381535E+02  0.00000000000E+00 0.  1.
          2   -1    0    0  501    0  0.00000000000E+00 -0.00000000000E+00 -0.42690224504E+03  0.42690224504E+03  0.00000000000E+00 0. -1.
         23    2    1    2    0    0 -0.82775323928E+01  0.41649270703E+01 -0.98487368505E+02  0.13300791045E+03  0.88912756829E+02 0.  0.
          5    1    1    2  502    0 -0.32155350883E+02  0.10801920026E+02 -0.26950448544E+03  0.27166300473E+03  0.41800000000E+01 0.  1.
         -5    1    1    2    0  502  0.40432883276E+02 -0.14966847096E+02 -0.29009009562E+02  0.52132711398E+02  0.41800000000E+01 0.  1.
        -11    1    3    3    0    0 -0.22770660288E+01  0.45648872854E+02 -0.38122362801E+02  0.59517385426E+02  0.00000000000E+00 0.  1.
         11    1    3    3    0    0 -0.60004663640E+01 -0.41483945783E+02 -0.60365005705E+02  0.73490525022E+02  0.00000000000E+00 0. -1.
</event>
<event>
 7    1  0.6684706E-006  0.1753910E+03  0.7561462E-02  0.1172340E+00
          1   -1    0    0  501    0  0.00000000000E+00  0.00000000000E+00  0.96227511373E+03  0.96227511373E+03  0.00000000000E+00 0. -1.
         -1   -1    0    0    0  501 -0.00000000000E+00 -0.00000000000E+00 -0.36237150769E+02  0.36237150769E+02  0.00000000000E+00 0.  1.
         23    2    1    2    0    0  0.13932801664E+03  0.56973736574E+02  0.38726155201E+03  0.42528700701E+03  0.90770181161E+02 0.  0.
          5    1    1    2  502    0  0.13751454420E+02  0.18743488435E+02  0.89558145817E+02  0.92620487688E+02  0.41800000000E+01 0. -1.
         -5    1    1    2    0  502 -0.15307947106E+03 -0.75717225009E+02  0.44921826514E+03  0.48060476980E+03  0.41800000000E+01 0. -1.
        -11    1    3    3    0    0  0.45383590267E+02  0.40751039373E+02  0.64639421189E+02  0.88873912073E+02  0.00000000000E+00 0.  1.
         11    1    3    3    0    0  0.93944426373E+02  0.16222697201E+02  0.32262213082E+03  0.33641309494E+03  0.00000000000E+00 0. -1.
</event>
<event>
 7    1  0.6684706E-006  0.1092650E+03  0.7561462E-02  0.1261937E+00
          3   -1    0    0  501    0  0.00000000000E+00  0.00000000000E+00  0.63524932759E+02  0.63524932759E+02  0.00000000000E+00 0. -1.
         -3   -1    0    0    0  501 -0.00000000000E+00 -0.00000000000E+00 -0.28925291055E+03  0.28925291055E+03  0.00000000000E+00 0.  1.
         23    2    1    2    0    0 -0.24528216137E+02 -0.60584439028E+02 -0.16655295387E+03  0.19973856900E+03  0.88789086384E+02 0.  0.
          5    1    1    2  502    0  0.13254258685E+02 -0.31667191249E+02 -0.48256615090E+02  0.59368844311E+02  0.41800000000E+01 0. -1.
         -5    1    1    2    0  502  0.11273957452E+02  0.92251630278E+02 -0.10918408826E+02  0.93670430002E+02  0.41800000000E+01 0. -1.
        -11    1    3    3    0    0 -0.46030199661E+02 -0.37538091569E+02 -0.45979047060E+02  0.75112984018E+02  0.00000000000E+00 0. -1.
         11    1    3    3    0    0  0.21501983524E+02 -0.23046347460E+02 -0.12057390681E+03  0.12462558498E+03  0.00000000000E+00 0.  1.
</event>
<event>
 7    1  0.6684706E-006  0.1230026E+03  0.7561462E-02  0.1238224E+00
          1   -1    0    0  501    0  0.00000000000E+00  0.00000000000E+00  0.21536870282E+03  0.21536870282E+03  0.00000000000E+00 0. -1.
         -1   -1    0    0    0  501 -0.00000000000E+00 -0.00000000000E+00 -0.79396443280E+02  0.79396443280E+02  0.00000000000E+00 0.  1.
         23    2    1    2    0    0  0.24267868492E+01 -0.71293685503E+02  0.44500771943E+02  0.12416276097E+03  0.91364071822E+02 0.  0.
          5    1    1    2  502    0 -0.56507259391E+02  0.17832968535E+02  0.69314566018E+02  0.91285631908E+02  0.41800000000E+01 0.  1.
         -5    1    1    2    0  502  0.54080472542E+02  0.53460716968E+02  0.22156921584E+02  0.79316753231E+02  0.41800000000E+01 0.  1.
        -11    1    3    3    0    0  0.43388602326E+02 -0.36406759860E+02  0.39289547632E+01  0.56775519908E+02  0.00000000000E+00 0.  1.
         11    1    3    3    0    0 -0.40961815477E+02 -0.34886925643E+02  0.40571817180E+02  0.67387241057E+02  0.00000000000E+00 0. -1.
</event>
<event>
 7    1  0.6684706E-006  0.8601148E+02  0.7561462E-02  0.1312808E+00
         -1   -1    0    0    0  501 -0.00000000000E+00  0.00000000000E+00  0.19396542761E+03  0.19396542761E+03  0.00000000000E+00 0.  1.
          1   -1    0    0  501    0  0.00000000000E+00 -0.00000000000E+00 -0.63025539489E+02  0.63025539489E+02  0.00000000000E+00 0. -1.
         23    2    1    2    0    0 -0.14983385348E+02 -0.84296049882E+01  0.42518464105E+02  0.10284544629E+03  0.92053277811E+02 0.  0.
          5    1    1    2  502    0 -0.43496477454E+02 -0.29298790419E+02  0.57319497857E+02  0.77803341223E+02  0.41800000000E+01 0.  1.
         -5    1    1    2    0  502  0.58479862801E+02  0.37728395407E+02  0.31101926159E+02  0.76342179587E+02  0.41800000000E+01 0.  1.
        -11    1    3    3    0    0  0.74025616340E-01  0.18681382300E+02  0.62979551011E+02  0.65691882071E+02  0.00000000000E+00 0.  1.
         11    1    3    3    0    0 -0.15057410964E+02 -0.27110987289E+02 -0.20461086906E+02  0.37153564218E+02  0.00000000000E+00 0. -1.
</event>
<event>
 7    1  0.6684706E-006  0.1008630E+03  0.7561462E-02  0.1278492E+00
         -1   -1    0    0    0  501 -0.00000000000E+00  0.00000000000E+00  0.35258522345E+02  0.35258522345E+02  0.00000000000E+00 0.  1.
          1   -1    0    0  501    0  0.00000000000E+00 -0.00000000000E+00 -0.44476968704E+03  0.44476968704E+03  0.00000000000E+00 0. -1.
         23    2    1    2    0    0 -0.44410091535E+01 -0.44599004732E+02 -0.98450399063E+02  0.14176905813E+03  0.91636188170E+02 0.  0.
          5    1    1    2  502    0  0.45400366322E+02  0.38591797806E+02 -0.63318825122E+02  0.87047493559E+02  0.41800000000E+01 0. -1.
         -5    1    1    2    0  502 -0.40959357169E+02  0.60072069256E+01 -0.24774194051E+03  0.25121165769E+03  0.41800000000E+01 0. -1.
        -11    1    3    3    0    0  0.28357522361E+02  0.15205806715E+02 -0.20327567553E+02  0.38060158104E+02  0.00000000000E+00 0.  1.
         11    1    3    3    0    0 -0.32798531514E+02 -0.59804811446E+02 -0.78122831511E+02  0.10370890003E+03  0.00000000000E+00 0. -1.
</event>
<event>
 7    1  0.6684706E-006  0.1053800E+03  0.7561462E-02  0.1269373E+00
         -1   -1    0    0    0  501 -0.00000000000E+00  0.00000000000E+00  0.25596844913E+03  0.25596844913E+03  0.00000000000E+00 0.  1.
          1   -1    0    0  501    0  0.00000000000E+00 -0.00000000000E+00 -0.12156020306E+03  0.12156020306E+03  0.00000000000E+00 0. -1.
         23    2    1    2    0    0 -0.21229481994E+02 -0.50325216048E+02  0.19797597534E+03  0.22401207866E+03  0.89462876628E+02 0.  0.
          5    1    1    2  502    0  0.48714493357E+02 -0.90420221016E+00 -0.79280251600E+02  0.93149074813E+02  0.41800000000E+01 0. -1.
         -5    1    1    2    0  502 -0.27485011364E+02  0.51229418258E+02  0.15712522325E+02  0.60367498727E+02  0.41800000000E+01 0.  1.
        -11    1    3    3    0    0  0.17188185666E+01 -0.71990977157E+02  0.12084307523E+03  0.14067232834E+03  0.00000000000E+00 0.  1.
         11    1    3    3    0    0 -0.22948300560E+02  0.21665761109E+02  0.77132900114E+02  0.83339750318E+02  0.00000000000E+00 0. -1.
</event>
<event>
 7    1  0.6684706E-006  0.1795029E+03  0.7561462E-02  0.1168285E+00
         -3   -1    0    0    0  501 -0.00000000000E+00  0.00000000000E+00  0.75828841555E+02  0.75828841555E+02  0.00000000000E+00 0.  1.
          3   -1    0    0  501    0  0.00000000000E+00 -0.00000000000E+00 -0.53473187559E+03  0.53473187559E+03  0.00000000000E+00 0. -1.
         23    2    1    2    0    0  0.48446044401E+01  0.16883891239E+03 -0.25309824060E+03  0.31639624759E+03  0.86705349129E+02 0.  0.
          5    1    1    2  502    0 -0.28747267231E+02 -0.11075943222E+03 -0.47797517717E+02  0.12408115207E+03  0.41800000000E+01 0.  1.
         -5    1    1    2    0  502  0.23902662791E+02 -0.58079480174E+02 -0.15800727572E+03  0.17008331749E+03  0.41800000000E+01 0.  1.
        -11    1    3    3    0    0  0.34435189682E+02  0.64687043860E+02 -0.14973673466E+03  0.16670718532E+03  0.00000000000E+00 0. -1.
         11    1    3    3    0    0 -0.29590585242E+02  0.10415186853E+03 -0.10336150594E+03  0.14968906227E+03  0.00000000000E+00 0.  1.
</event>
<event>
 7    1  0.6684706E-006  0.1086946E+03  0.7561462E-02  0.1263007E+00
          1   -1    0    0  501    0  0.00000000000E+00  0.00000000000E+00  0.35316077535E+02  0.35316077535E+02  0.00000000000E+00 0. -1.
         -1   -1    0    0    0  501 -0.00000000000E+00 -0.00000000000E+00 -0.45647552416E+03  0.45647552416E+03  0.00000000000E+00 0.  1.
         23    2    1    2    0    0 -0.23730680179E+02  0.24271358260E+02 -0.29898544619E+03  0.31367185127E+03  0.88574766349E+02 0.  0.
          5    1    1    2  502    0  0.74519189714E+02 -0.12317315516E+02 -0.58097975645E+02  0.95381722941E+02  0.41800000000E+01 0.  1.
         -5    1    1    2    0  502 -0.50788509534E+02 -0.11954042744E+02 -0.64076024789E+02  0.82738027481E+02  0.41800000000E+01 0.  1.
        -11    1    3    3    0    0 -0.13104125872E+02  0.55180434155E+02 -0.23590174807E+03  0.24262364512E+03  0.00000000000E+00 0.  1.
         11    1    3    3    0    0 -0.10626554307E+02 -0.30909075895E+02 -0.63083698119E+02  0.71048206152E+02  0.00000000000E+00 0. -1.
</event>
<event>
 7    1  0.6684706E-006  0.7646000E+02  0.7561462E-02  0.1339409E+00
         -4   -1    0    0    0  501 -0.00000000000E+00  0.00000000000E+00  0.15871737728E+03  0.15871737728E+03  0.00000000000E+00 0.  1.
          4   -1    0    0  501    0  0.00000000000E+00 -0.00000000000E+00 -0.15788011337E+03  0.15788011337E+03  0.00000000000E+00 0. -1.
         23    2    1    2    0    0 -0.32720845507E+02  0.60099408625E+02  0.10000152867E+03  0.15165627537E+03  0.91196093525E+02 0.  0.
          5    1    1    2  502    0  0.88724952981E+01 -0.19737876740E+02 -0.11359386686E+03  0.11571233270E+03  0.41800000000E+01 0. -1.
         -5    1    1    2    0  502  0.23848350209E+02 -0.40361531884E+02  0.14429602104E+02  0.49228882585E+02  0.41800000000E+01 0.  1.
        -11    1    3    3    0    0 -0.43833778385E+02  0.34091874706E+02  0.10870309107E+03  0.12206563012E+03  0.00000000000E+00 0.  1.
         11    1    3    3    0    0  0.11112932878E+02  0.26007533918E+02 -0.87015624038E+01  0.29590645244E+02  0.00000000000E+00 0. -1.
</event>
<event>
 7    1  0.6684706E-006  0.9619138E+02  0.7561462E-02  0.1288515E+00
          1   -1    0    0  501    0  0.00000000000E+00  0.00000000000E+00  0.89094270130E+03  0.89094270130E+03  0.00000000000E+00 0. -1.
         -1   -1    0    0    0  501 -0.00000000000E+00 -0.00000000000E+00 -0.14122346450E+02  0.14122346450E+02  0.00000000000E+00 0.  1.
         23    2    1    2    0    0  0.11188408431E+02  0.17838926852E+02  0.23050559380E+03  0.24898743629E+03  0.91752421571E+02 0.  0.
          5    1    1    2  502    0 -0.26829106291E+01 -0.64648272913E+02  0.38947339731E+03  0.39483363182E+03  0.41800000000E+01 0. -1.
         -5    1    1    2    0  502 -0.85054978022E+01  0.46809346061E+02  0.25684136374E+03  0.26124397964E+03  0.41800000000E+01 0.  1.
        -11    1    3    3    0    0  0.40690970854E+02 -0.69134279899E+01  0.52074503556E+02  0.66447757797E+02  0.00000000000E+00 0. -1.
         11    1    3    3    0    0 -0.29502562423E+02  0.24752354842E+02  0.17843109024E+03  0.18253967850E+03  0.00000000000E+00 0.  1.
</event>
<event>
 7    1  0.6684706E-006  0.9269515E+02  0.7561462E-02  0.1296453E+00
         -3   -1    0    0    0  501 -0.00000000000E+00  0.00000000000E+00  0.93433416497E+02  0.93433416497E+02  0.00000000000E+00 0.  1.
          3   -1    0    0  501    0  0.00000000000E+00 -0.00000000000E+00 -0.16247540507E+03  0.16247540507E+03  0.00000000000E+00 0. -1.
         23    2    1    2    0    0  0.12950576820E+02 -0.92948489845E+01  0.28085184723E+02  0.96729033784E+02  0.91179036616E+02 0.  0.
          5    1    1    2  502    0  0.41134694786E+02  0.15148378271E+02 -0.94847386305E+02  0.10457072042E+03  0.41800000000E+01 0. -1.
         -5    1    1    2    0  502 -0.54085271606E+02 -0.58535292863E+01 -0.22797869883E+01  0.54609067365E+02  0.41800000000E+01 0. -1.
        -11    1    3    3    0    0 -0.16972009765E+02  0.31749419472E+02 -0.46508717390E+01  0.36300211573E+02  0.00000000000E+00 0. -1.
         11    1    3    3    0    0  0.29922586585E+02 -0.41044268457E+02  0.32736056462E+02  0.60428822211E+02  0.00000000000E+00 0.  1.
</event>
<event>
 7    1  0.6684706E-006  0.1009105E+03  0.7561462E-02  0.1278393E+00
         -2   -1    0    0    0  501 -0.00000000000E+00  0.00000000000E+00  0.61721105265E+02  0.61721105265E+02  0.00000000000E+00 0.  1.
          2   -1    0    0  501    0  0.00000000000E+00 -0.00000000000E+00 -0.27582899628E+03  0.27582899628E+03  0.00000000000E+00 0. -1.
         23    2    1    2    0    0 -0.72293944581E+02  0.13820782410E+02 -0.93165020947E+02  0.14862566360E+03  0.89400437934E+02 0.  0.
          5    1    1    2  502    0  0.32157783624E+02 -0.59111306148E+02 -0.10733999148E+03  0.12675809928E+03  0.41800000000E+01 0.  1.
         -5    1    1    2    0  502  0.40136160957E+02  0.45290523738E+02 -0.13602878583E+02  0.62166338661E+02  0.41800000000E+01 0.  1.
        -11    1    3    3    0    0 -0.51107791519E+02  0.11833315612E+02  0.61330836634E+00  0.52463414485E+02  0.00000000000E+00 0.  1.
         11    1    3    3    0    0 -0.21186153062E+02  0.19874667981E+01 -0.93778329313E+02  0.96162249114E+02  0.00000000000E+00 0. -1.
</event>
<event>
 7    1  0.6684706E-006  0.1449536E+03  0.7561462E-02  0.1206815E+00
         -2   -1    0    0    0  501 -0.00000000000E+00  0.00000000000E+00  0.10627076063E+03  0.10627076063E+03  0.00000000000E+00 0.  1.
          2   -1    0    0  501    0  0.00000000000E+00 -0.00000000000E+00 -0.21163106642E+03  0.21163106642E+03  0.00000000000E+00 0. -1.
         23    2    1    2    0    0  0.34867142405E+01  0.97789035280E+02 -0.22752996637E+02  0.13888481263E+03  0.95898069458E+02 0.  0.
          5    1    1    2  502    0  0.35352568968E+02  0.15537993834E+02 -0.17443548201E+02  0.42579139949E+02  0.41800000000E+01 0.  1.
         -5    1    1    2    0  502 -0.38839283208E+02 -0.11332702911E+03 -0.65163760953E+02  0.13643787447E+03  0.41800000000E+01 0.  1.
        -11    1    3    3    0    0  0.44736447859E+02  0.62794457438E+02  0.65243172984E+01  0.77376096879E+02  0.00000000000E+00 0.  1.
         11    1    3    3    0    0 -0.41249733618E+02  0.34994577842E+02 -0.29277313936E+02  0.61508715750E+02  0.00000000000E+00 0. -1.
</event>
<event>
 7    1  0.6684706E-006  0.1798728E+03  0.7561462E-02  0.1167926E+00
          1   -1    0    0  501    0  0.00000000000E+00  0.00000000000E+00  0.83759799174E+03  0.83759799174E+03  0.00000000000E+00 0. -1.
         -1   -1    0    0    0  501 -0.00000000000E+00 -0.00000000000E+00 -0.47254300259E+02  0.47254300259E+02  0.00000000000E+00 0.  1.
         23    2    1    2    0    0  0.14849371315E+03  0.71145391714E+02  0.44182740450E+03  0.47960783568E+03  0.87750618614E+02 0.  0.
          5    1    1    2  502    0 -0.11635293464E+03 -0.94970444941E+02  0.19288414034E+03  0.24449776033E+03  0.41800000000E+01 0.  1.
         -5    1    1    2    0  502 -0.32140778507E+02  0.23825053227E+02  0.15563214664E+03  0.16074669599E+03  0.41800000000E+01 0.  1.
        -11    1    3    3    0    0  0.52187845451E+02  0.49788515403E+01  0.24638510885E+03  0.25190073846E+03  0.00000000000E+00 0. -1.
         11    1    3    3    0    0  0.96305867700E+02  0.66166540174E+02  0.19544229565E+03  0.22770709721E+03  0.00000000000E+00 0.  1.
</event>
<event>
 7    1  0.6684706E-006  0.2013280E+03  0.7561462E-02  0.1148623E+00
          1   -1    0    0  501    0  0.00000000000E+00  0.00000000000E+00  0.72895599410E+03  0.72895599410E+03  0.00000000000E+00 0. -1.
         -1   -1    0    0    0  501 -0.00000000000E+00 -0.00000000000E+00 -0.59317105084E+02  0.59317105084E+02  0.00000000000E+00 0.  1.
         23    2    1    2    0    0 -0.14419487794E+03 -0.10154838133E+03  0.28426243372E+03  0.34638178574E+03  0.89838598039E+02 0.  0.
          5    1    1    2  502    0  0.44972826827E+02  0.10184165342E+03  0.25265873911E+03  0.27613074507E+03  0.41800000000E+01 0. -1.
         -5    1    1    2    0  502  0.99222051112E+02 -0.29327209519E+00  0.13271771619E+03  0.16576056837E+03  0.41800000000E+01 0. -1.
        -11    1    3    3    0    0 -0.73700584073E+02 -0.70431035740E+01  0.15281809782E+03  0.16980798692E+03  0.00000000000E+00 0.  1.
         11    1    3    3    0    0 -0.70494293865E+02 -0.94505277755E+02  0.13144433590E+03  0.17657379882E+03  0.00000000000E+00 0. -1.
</event>
<event>
 7    1  0.6684706E-006  0.1035552E+03  0.7561462E-02  0.1272993E+00
          1   -1    0    0  501    0  0.00000000000E+00  0.00000000000E+00  0.12905257059E+03  0.12905257059E+03  0.00000000000E+00 0. -1.
         -1   -1    0    0    0  501 -0.00000000000E+00 -0.00000000000E+00 -0.32694335211E+03  0.32694335211E+03  0.00000000000E+00 0.  1.
         23    2    1    2    0    0  0.46941715026E+02  0.49282456748E+02 -0.27248534994E+03  0.29523511799E+03  0.91012217891E+02 0.  0.
          5    1    1    2  502    0  0.27901546052E+02  0.21449172746E+02  0.36520867962E+02  0.50890170763E+02  0.41800000000E+01 0.  1.
         -5    1    1    2    0  502 -0.74843261078E+02 -0.70731629494E+02  0.38073700462E+02  0.10987063396E+03  0.41800000000E+01 0.  1.
        -11    1    3    3    0    0  0.37589714400E+02  0.43984437070E+02 -0.27743344748E+03  0.28340242609E+03  0.00000000000E+00 0.  1.
         11    1    3    3    0    0  0.93520006255E+01  0.52980196784E+01  0.49480975381E+01  0.11832691894E+02  0.00000000000E+00 0. -1.
</event>
<event>
 7    1  0.6684706E-006  0.9013437E+02  0.7561462E-02  0.1302527E+00
         -2   -1    0    0    0  501 -0.00000000000E+00  0.00000000000E+00  0.28414822838E+02  0.28414822838E+02  0.00000000000E+00 0. -1.
          2   -1    0    0  501    0  0.00000000000E+00 -0.00000000000E+00 -0.47515181219E+03  0.47515181219E+03  0.00000000000E+00 0.  1.
         23    2    1    2    0    0 -0.67481313190E+01  0.35947900089E+02 -0.14360758385E+03  0.17360780638E+03  0.90436405836E+02 0.  0.
          5    1    1    2  502    0  0.32116326820E+02 -0.68798976661E+02 -0.11943487524E+03  0.14158714441E+03  0.41800000000E+01 0. -1.
         -5    1    1    2    0  502 -0.25368195501E+02  0.32851076572E+02 -0.18369453026E+03  0.18837168423E+03  0.41800000000E+01 0. -1.
        -11    1    3    3    0    0  0.16576518980E+02  0.35503958973E+02 -0.14503559325E+03  0.15023526681E+03  0.00000000000E+00 0.  1.
         11    1    3    3    0    0 -0.23324650299E+02  0.44394111605E+00  0.14280093970E+01  0.23372539574E+02  0.00000000000E+00 0. -1.
</event>
<event>
 7    1  0.6684706E-006  0.1042675E+03  0.7561462E-02  0.1271569E+00
          4   -1    0    0  501    0  0.00000000000E+00  0.00000000000E+00  0.11468254238E+03  0.11468254238E+03  0.00000000000E+00 0.  1.
         -4   -1    0    0    0  501 -0.00000000000E+00 -0.00000000000E+00 -0.11276671980E+03  0.11276671980E+03  0.00000000000E+00 0. -1.
         23    2    1    2    0    0 -0.19686622761E+02 -0.18441027159E+02 -0.27124653027E+02  0.96233071898E+02  0.88303016520E+02 0.  0.
          5    1    1    2  502    0 -0.28355576375E+02 -0.35798974525E+02  0.36005751541E+02  0.58305161287E+02  0.41800000000E+01 0.  1.
         -5    1    1    2    0  502  0.48042199136E+02  0.54240001685E+02 -0.69652759261E+01  0.72911028997E+02  0.41800000000E+01 0.  1.
        -11    1    3    3    0    0 -0.53938571314E+02 -0.11174229022E+02 -0.26705736786E+02  0.61216249860E+02  0.00000000000E+00 0. -1.
         11    1    3    3    0    0  0.34251948553E+02 -0.72667981376E+01 -0.41891624143E+00  0.35016822038E+02  0.00000000000E+00 0.  1.
</event>
<event>
 7    1  0.6684706E-006  0.9968568E+02  0.7561462E-02  0.1280958E+00
          1   -1    0    0  501    0  0.00000000000E+00  0.00000000000E+00  0.84531804203E+03  0.84531804203E+03  0.00000000000E+00 0. -1.
         -1   -1    0    0    0  501 -0.00000000000E+00 -0.00000000000E+00 -0.22787598935E+02  0.22787598935E+02  0.00000000000E+00 0.  1.
         23    2    1    2    0    0  0.41532223754E+02 -0.30674676747E+02  0.15188239510E+03  0.18393931124E+03  0.89997482609E+02 0.  0.
          5    1    1    2  502    0  0.25064592358E+02  0.19890469782E+02  0.49360467231E+03  0.49465837656E+03  0.41800000000E+01 0.  1.
         -5    1    1    2    0  502 -0.66596816112E+02  0.10784206965E+02  0.17704337569E+03  0.18950795317E+03  0.41800000000E+01 0.  1.
        -11    1    3    3    0    0 -0.26407471637E+02 -0.12273799809E+02  0.23074423954E+02  0.37154135177E+02  0.00000000000E+00 0.  1.
         11    1    3    3    0    0  0.67939695391E+02 -0.18400876938E+02  0.12880797115E+03  0.14678517607E+03  0.00000000000E+00 0. -1.
</event>
<event>
 7    1  0.6684706E-006  0.9585321E+02  0.7561462E-02  0.1289266E+00
          1   -1    0    0  501    0  0.00000000000E+00  0.00000000000E+00  0.27665948814E+03  0.27665948814E+03  0.00000000000E+00 0. -1.
         -1   -1    0    0    0  501 -0.00000000000E+00 -0.00000000000E+00 -0.54931390551E+02  0.54931390551E+02  0.00000000000E+00 0.  1.
         23    2    1    2    0    0  0.49360980356E+02 -0.14712579319E+02  0.14106079041E+03  0.17408604278E+03  0.88061554187E+02 0.  0.
          5    1    1    2  502    0 -0.11821768681E+02 -0.30351671284E+02 -0.21763525162E+02  0.39396720574E+02  0.41800000000E+01 0.  1.
         -5    1    1    2    0  502 -0.37539211675E+02  0.45064250603E+02  0.10243083234E+03  0.11810811534E+03  0.41800000000E+01 0.  1.
        -11    1    3    3    0    0  0.64094672604E+01  0.34301918610E+02  0.33817330461E+02  0.48593360971E+02  0.00000000000E+00 0.  1.
         11    1    3    3    0    0  0.42951513095E+02 -0.49014497929E+02  0.10724345995E+03  0.12549268181E+03  0.00000000000E+00 0. -1.
</event>
<event>
 7    1  0.6684706E-006  0.1181259E+03  0.7561462E-02  0.1246221E+00
          2   -1    0    0  501    0  0.00000000000E+00  0.00000000000E+00  0.25209712101E+04  0.25209712101E+04  0.00000000000E+00 0. -1.
         -2   -1    0    0    0  501 -0.00000000000E+00 -0.00000000000E+00 -0.16396863232E+02  0.16396863232E+02  0.00000000000E+00 0.  1.
         23    2    1    2    0    0  0.12980818085E+02  0.45711183012E+02  0.18338553239E+03  0.21232368521E+03  0.95880550265E+02 0.  0.
          5    1    1    2  502    0 -0.30579732582E+02 -0.84188966515E+02  0.17350717350E+04  0.17373872050E+04  0.41800000000E+01 0.  1.
         -5    1    1    2    0  502  0.17598914497E+02  0.38477783503E+02  0.58611707950E+03  0.58765718314E+03  0.41800000000E+01 0.  1.
        -11    1    3    3    0    0  0.19451991590E+02  0.73244049862E+02  0.15343329531E+03  0.17112815936E+03  0.00000000000E+00 0. -1.
         11    1    3    3    0    0 -0.64711735052E+01 -0.27532866850E+02  0.29952237082E+02  0.41195525846E+02  0.00000000000E+00 0.  1.
</event>
<event>
 7    1  0.6684706E-006  0.1092392E+03  0.7561462E-02  0.1261985E+00
          1   -1    0    0  501    0  0.00000000000E+00  0.00000000000E+00  0.73929389584E+03  0.73929389584E+03  0.00000000000E+00 0. -1.
         -1   -1    0    0    0  501 -0.00000000000E+00 -0.00000000000E+00 -0.19986662743E+02  0.19986662743E+02  0.00000000000E+00 0.  1.
         23    2    1    2    0    0 -0.29423099473E+02  0.28274677626E+02  0.25194496801E+03  0.27375041151E+03  0.98984062964E+02 0.  0.
          5    1    1    2  502    0  0.21156384428E+02 -0.70484010664E+02  0.17350937701E+03  0.18851674905E+03  0.41800000000E+01 0.  1.
         -5    1    1    2    0  502  0.82667150451E+01  0.42209333038E+02  0.29385288808E+03  0.29701339802E+03  0.41800000000E+01 0.  1.
        -11    1    3    3    0    0 -0.46004872143E+02 -0.20258363822E+02  0.81491551065E+02  0.95748224321E+02  0.00000000000E+00 0.  1.
         11    1    3    3    0    0  0.16581772670E+02  0.48533041449E+02  0.17045341694E+03  0.17800218719E+03  0.00000000000E+00 0. -1.
</event>
<event>
 7    1  0.6684706E-006  0.8728810E+02  0.7561462E-02  0.1309555E+00
         -2   -1    0    0    0  501 -0.00000000000E+00  0.00000000000E+00  0.22060085328E+02  0.22060085328E+02  0.00000000000E+00 0.  1.
          2   -1    0    0  501    0  0.00000000000E+00 -0.00000000000E+00 -0.56203761143E+03  0.56203761143E+03  0.00000000000E+00 0. -1.
         23    2    1    2    0    0  0.37435749381E+01  0.26974165151E+02 -0.22688758860E+03  0.24584370045E+03  0.90661608482E+02 0.  0.
          5    1    1    2  502    0 -0.27363237201E+02  0.34613847821E+02 -0.21793929943E+03  0.22240026044E+03  0.41800000000E+01 0. -1.
         -5    1    1    2    0  502  0.23619662262E+02 -0.61588012972E+02 -0.95150638077E+02  0.11585373586E+03  0.41800000000E+01 0. -1.
        -11    1    3    3    0    0  0.23120443865E+02 -0.77597978603E+01 -0.11768903384E+02  0.27079078164E+02  0.00000000000E+00 0.  1.
         11    1    3    3    0    0 -0.19376868927E+02  0.34733963011E+02 -0.21511868522E+03  0.21876462229E+03  0.00000000000E+00 0. -1.
</event>
<event>
 6    1  0.6684706E-006  0.7813796E+02  0.7561462E-02  0.1334420E+00
          1   -1    0    0  501    0  0.00000000000E+00  0.00000000000E+00  0.18376367821E+03  0.18376367821E+03  0.00000000000E+00 0. -1.
         -1   -1    0    0    0  501 -0.00000000000E+00 -0.00000000000E+00 -0.55747757646E+02  0.55747757646E+02  0.00000000000E+00 0.  1.
          5    1    1    2  502    0 -0.40123722834E+02  0.43309184644E+02  0.12478143777E+03  0.13810676385E+03  0.41800000000E+01 0. -1.
         -5    1    1    2    0  502  0.34257989425E+02 -0.81884632930E+01 -0.83658773491E+01  0.36443395483E+02  0.41800000000E+01 0. -1.
        -11    1    1    2    0    0 -0.18486379297E+02 -0.32150517360E+02  0.15361664112E+02  0.40142031716E+02  0.00000000000E+00 0. -1.
         11    1    1    2    0    0  0.24352112706E+02 -0.29702039913E+01 -0.37613039745E+01  0.24819244803E+02  0.00000000000E+00 0.  1.
</event>
<event>
 7    1  0.6684706E-006  0.8583059E+02  0.7561462E-02  0.1313275E+00
         -2   -1    0    0    0  501 -0.00000000000E+00  0.00000000000E+00  0.18449788485E+02  0.18449788485E+02  0.00000000000E+00 0.  1.
          2   -1    0    0  501    0  0.00000000000E+00 -0.00000000000E+00 -0.81563361743E+03  0.81563361743E+03  0.00000000000E+00 0. -1.
         23    2    1    2    0    0  0.38699034018E+02 -0.26016470065E+02 -0.27317815970E+03  0.29333929036E+03  0.96162156721E+02 0.  0.
          5    1    1    2  502    0 -0.57351084896E+01 -0.29747499458E+02 -0.39638767843E+03  0.39756567910E+03  0.41800000000E+01 0.  1.
         -5    1    1    2    0  502 -0.32963925528E+02  0.55763969523E+02 -0.12761799082E+03  0.14317843645E+03  0.41800000000E+01 0.  1.
        -11    1    3    3    0    0 -0.15341888388E+02 -0.14077222172E+02 -0.77731082424E+01  0.22225276941E+02  0.00000000000E+00 0.  1.
         11    1    3    3    0    0  0.54040922405E+02 -0.11939247893E+02 -0.26540505146E+03  0.27111401342E+03  0.00000000000E+00 0. -1.
</event>
<event>
 7    1  0.7263824E-006  0.1914599E+03  0.7561462E-02  0.1157151E+00
          2   -1    0    0  501    0  0.00000000000E+00  0.00000000000E+00  0.14832843683E+03  0.14832843683E+03  0.00000000000E+00 0. -1.
         -2   -1    0    0    0  501 -0.00000000000E+00 -0.00000000000E+00 -0.25480636719E+03  0.25480636719E+03  0.00000000000E+00 0.  1.
         23    2    1    2    0    0  0.55433236214E+02 -0.14822346824E+03 -0.82573672877E+02  0.20000506033E+03  0.90225121192E+02 0.  0.
          5    1    1    2  502    0 -0.94348880205E+02  0.11946524073E+03 -0.26121028351E+02  0.15451030859E+03  0.41800000000E+01 0. -1.
         -5    1    1    2    0  502  0.38915643991E+02  0.28758227511E+02  0.22167708670E+01  0.48619435104E+02  0.41800000000E+01 0. -1.
        -11    1    3    3    0    0  0.73447848677E+02 -0.68849048431E+02 -0.42375298953E+02  0.10922657143E+03  0.00000000000E+00 0.  1.
         11    1    3    3    0    0 -0.18014612463E+02 -0.79374419804E+02 -0.40198373924E+02  0.90778488903E+02  0.00000000000E+00 0. -1.
</event>
<event>
 7    1  0.6684706E-006  0.1376476E+03  0.7561462E-02  0.1216530E+00
          3   -1    0    0  501    0  0.00000000000E+00  0.00000000000E+00  0.62524436485E+03  0.62524436485E+03  0.00000000000E+00 0. -1.
         -3   -1    0    0    0  501 -0.00000000000E+00 -0.00000000000E+00 -0.52542797114E+02  0.52542797114E+02  0.00000000000E+00 0.  1.
         23    2    1    2    0    0 -0.88797731343E+02  0.95302168554E+02  0.15551065321E+03  0.22318459788E+03  0.93060523565E+02 0.  0.
          5    1    1    2  502    0  0.90183011463E+02 -0.80063359001E+02  0.42128076665E+03  0.43822148939E+03  0.41800000000E+01 0.  1.
         -5    1    1    2    0  502 -0.13852801199E+01 -0.15238809553E+02 -0.40898521305E+01  0.16381074692E+02  0.41800000000E+01 0.  1.
        -11    1    3    3    0    0 -0.94241186962E+01  0.42265089178E+02  0.31882145870E+01  0.43420231329E+02  0.00000000000E+00 0.  1.
         11    1    3    3    0    0 -0.79373612647E+02  0.53037079376E+02  0.15232243862E+03  0.17976436655E+03  0.00000000000E+00 0. -1.
</event>
<event>
 7    1  0.6684706E-006  0.1252368E+03  0.7561462E-02  0.1234700E+00
         -3   -1    0    0    0  501 -0.00000000000E+00  0.00000000000E+00  0.49897176731E+03  0.49897176731E+03  0.00000000000E+00 0.  1.
          3   -1    0    0  501    0  0.00000000000E+00 -0.00000000000E+00 -0.34859080464E+02  0.34859080464E+02  0.00000000000E+00 0. -1.
         23    2    1    2    0    0  0.56973393064E+00  0.81020073865E+02  0.18123355939E+03  0.21409284535E+03  0.80159630824E+02 0.  0.
          5    1    1    2  502    0 -0.63741751969E+01 -0.10823063259E+03  0.26513206383E+03  0.28647335585E+03  0.41800000000E+01 0. -1.
         -5    1    1    2    0  502  0.58044412662E+01  0.27210558727E+02  0.17747063626E+02  0.33264646578E+02  0.41800000000E+01 0. -1.
        -11    1    3    3    0    0  0.26749706840E+02 -0.19663039244E+01  0.38399728646E+02  0.46839644824E+02  0.00000000000E+00 0. -1.
         11    1    3    3    0    0 -0.26179972910E+02  0.82986377789E+02  0.14283383074E+03  0.16725320052E+03  0.00000000000E+00 0.  1.
</event>
<event>
 7    1  0.6684706E-006  0.1602388E+03  0.7561462E-02  0.1188427E+00
          1   -1    0    0  501    0  0.00000000000E+00  0.00000000000E+00  0.14993040962E+03  0.14993040962E+03  0.00000000000E+00 0. -1.
         -1   -1    0    0    0  501 -0.00000000000E+00 -0.00000000000E+00 -0.19623854749E+03  0.19623854749E+03  0.00000000000E+00 0.  1.
         23    2    1    2    0    0 -0.33393180711E+02 -0.11161095272E+03 -0.73993478945E+02  0.17300436284E+03  0.10432336915E+03 0.  0.
          5    1    1    2  502    0  0.33356075428E+02 -0.20002272883E+02  0.92970656654E+01  0.40207294344E+02  0.41800000000E+01 0. -1.
         -5    1    1    2    0  502  0.37105282641E-01  0.13161322560E+03  0.18388275402E+02  0.13295729992E+03  0.41800000000E+01 0. -1.
        -11    1    3    3    0    0  0.30075836923E+02 -0.62739603620E+02 -0.96171917263E+01  0.70237484335E+02  0.00000000000E+00 0. -1.
         11    1    3    3    0    0 -0.63469017634E+02 -0.48871349100E+02 -0.64376287218E+02  0.10276687851E+03  0.00000000000E+00 0.  1.
</event>
<event>
 7    1  0.6684706E-006  0.1709674E+03  0.7561462E-02  0.1176843E+00
          1   -1    0    0  501    0  0.00000000000E+00  0.00000000000E+00  0.60603831631E+03  0.60603831631E+03  0.00000000000E+00 0. -1.
         -1   -1    0    0    0  501 -0.00000000000E+00 -0.00000000000E+00 -0.53468874907E+02  0.53468874907E+02  0.00000000000E+00 0.  1.
         23    2    1    2    0    0 -0.13930825417E+03 -0.33339584926E+02  0.24166011400E+03  0.29504541546E+03  0.90187964162E+02 0.  0.
          5    1    1    2  502    0  0.52051036968E+01  0.51263164103E+02  0.58657763979E+02  0.78187024329E+02  0.41800000000E+01 0. -1.
         -5    1    1    2    0  502  0.13410315047E+03 -0.17923579177E+02  0.25225156343E+03  0.28627475143E+03  0.41800000000E+01 0. -1.
        -11    1    3    3    0    0 -0.11004447328E+03  0.62461840356E+00  0.10849437423E+03  0.15453545059E+03  0.00000000000E+00 0.  1.
         11    1    3    3    0    0 -0.29263780891E+02 -0.33964203330E+02  0.13316573977E+03  0.14050996487E+03  0.00000000000E+00 0. -1.
</event>
<event>
 7    1  0.6684706E-006  0.2002986E+03  0.7561462E-02  0.1149487E+00
         -2   -1    0    0    0  501 -0.00000000000E+00  0.00000000000E+00  0.67087537156E+03  0.67087537156E+03  0.00000000000E+00 0.  1.
          2   -1    0    0  501    0  0.00000000000E+00 -0.00000000000E+00 -0.12490378495E+03  0.12490378495E+03  0.00000000000E+00 0. -1.
         23    2    1    2    0    0 -0.17040738517E+03 -0.22385445763E+02  0.55034763348E+03  0.58316101697E+03  0.87489821883E+02 0.  0.
          5    1    1    2  502    0  0.10603880490E+02  0.46566368581E+02 -0.15957822330E+02  0.50527155647E+02  0.41800000000E+01 0. -1.
         -5    1    1    2    0  502  0.15980350468E+03 -0.24180922818E+02  0.11581775462E+02  0.16209098389E+03  0.41800000000E+01 0. -1.
        -11    1    3    3    0    0 -0.11454349663E+03 -0.54169615329E+02  0.40180025607E+03  0.42130512176E+03  0.00000000000E+00 0.  1.
         11    1    3    3    0    0 -0.55863888543E+02  0.31784169566E+02  0.14854737741E+03  0.16185589521E+03  0.00000000000E+00 0. -1.
</event>
<event>
 7    1  0.6684706E-006  0.9949509E+02  0.7561462E-02  0.1281361E+00
          3   -1    0    0  501    0  0.00000000000E+00  0.00000000000E+00  0.55870362850E+02  0.55870362850E+02  0.00000000000E+00 0. -1.
         -3   -1    0    0    0  501 -0.00000000000E+00 -0.00000000000E+00 -0.43668931938E+03  0.43668931938E+03  0.00000000000E+00 0.  1.
         23    2    1    2    0    0  0.25085957607E+02 -0.49103284121E+02 -0.32932681825E+03  0.34648019084E+03  0.92476654590E+02 0.  0.
          5    1    1    2  502    0 -0.33631898540E+02 -0.16555154155E+02 -0.67957233831E+02  0.77722813629E+02  0.41800000000E+01 0. -1.
         -5    1    1    2    0  502  0.85459409332E+01  0.65658438276E+02  0.16465095550E+02  0.68356677762E+02  0.41800000000E+01 0. -1.
        -11    1    3    3    0    0 -0.22851755006E+02  0.42053025186E+01 -0.26326000428E+02  0.35113324745E+02  0.00000000000E+00 0. -1.
         11    1    3    3    0    0  0.47937712612E+02 -0.53308586639E+02 -0.30300081782E+03  0.31136686609E+03  0.00000000000E+00 0.  1.
</event>
<event>
 7    1  0.6684706E-006  0.1943469E+03  0.7561462E-02  0.1154598E+00
          2   -1    0    0  501    0  0.00000000000E+00  0.00000000000E+00  0.24475128978E+04  0.24475128978E+04  0.00000000000E+00 0. -1.
         -2   -1    0    0    0  501 -0.00000000000E+00 -0.00000000000E+00 -0.18856661205E+02  0.18856661205E+02  0.00000000000E+00 0.  1.
         23    2    1    2    0    0  0.18472449256E+03 -0.11874511221E+02  0.10560253310E+04  0.10756777610E+04  0.87344167771E+02 0.  0.
          5    1    1    2  502    0 -0.10340609960E+03  0.12653391009E+02  0.11291884651E+04  0.11339916190E+04  0.41800000000E+01 0. -1.
         -5    1    1    2    0  502 -0.81318392960E+02 -0.77887978896E+00  0.24344244047E+03  0.25670017902E+03  0.41800000000E+01 0. -1.
        -11    1    3    3    0    0  0.11459461176E+03 -0.47850730022E+02  0.71104201697E+03  0.72180493715E+03  0.00000000000E+00 0. -1.
         11    1    3    3    0    0  0.70129880805E+02  0.35976218802E+02  0.34498331405E+03  0.35387282387E+03  0.00000000000E+00 0.  1.
</event>
<event>
 7    1  0.6684706E-006  0.8833269E+02  0.7561462E-02  0.1306940E+00
          1   -1    0    0  501    0  0.00000000000E+00  0.00000000000E+00  0.17107372811E+03  0.17107372811E+03  0.00000000000E+00 0. -1.
         -1   -1    0    0    0  501 -0.00000000000E+00 -0.00000000000E+00 -0.10146623337E+03  0.10146623337E+03  0.00000000000E+00 0.  1.
         23    2    1    2    0    0  0.43109370198E+01 -0.25986882642E+02 -0.39051664698E+02  0.10476490315E+03  0.93577508885E+02 0.  0.
          5    1    1    2  502    0 -0.18936226918E+02 -0.45473654113E+02  0.21134927324E+02  0.53764221014E+02  0.41800000000E+01 0.  1.
         -5    1    1    2    0  502  0.14625289898E+02  0.71460536755E+02  0.87524232113E+02  0.11401083731E+03  0.41800000000E+01 0.  1.
        -11    1    3    3    0    0  0.25591081251E+02 -0.96891491511E+01 -0.63084970036E+02  0.68764063982E+02  0.00000000000E+00 0.  1.
         11    1    3    3    0    0 -0.21280144231E+02 -0.16297733491E+02  0.24033305338E+02  0.36000839170E+02  0.00000000000E+00 0. -1.
</event>
<event>
 7    1  0.6684706E-006  0.1521861E+03  0.7561462E-02  0.1197812E+00
         -2   -1    0    0    0  501 -0.00000000000E+00  0.00000000000E+00  0.30263761886E+02  0.30263761886E+02  0.00000000000E+00 0.  1.
          2   -1    0    0  501    0  0.00000000000E+00 -0.00000000000E+00 -0.10419791376E+04  0.10419791376E+04  0.00000000000E+00 0. -1.
         23    2    1    2    0    0 -0.47433144989E+02  0.11827167255E+03 -0.29720525374E+03  0.33575772536E+03  0.90355937912E+02 0.  0.
          5    1    1    2  502    0  0.65665585655E+02 -0.93897178094E+01 -0.31801699960E+03  0.32488831985E+03  0.41800000000E+01 0. -1.
         -5    1    1    2    0  502 -0.18232440666E+02 -0.10888195474E+03 -0.39649312234E+03  0.41159685424E+03  0.41800000000E+01 0. -1.
        -11    1    3    3    0    0 -0.22308331869E+02  0.56374682844E+02 -0.24083804348E+03  0.24835202783E+03  0.00000000000E+00 0. -1.
         11    1    3    3    0    0 -0.25124813120E+02  0.61896989705E+02 -0.56367210255E+02  0.87405697531E+02  0.00000000000E+00 0.  1.
</event>
<event>
 7    1  0.6684706E-006  0.1293737E+03  0.7561462E-02  0.1228388E+00
          2   -1    0    0  501    0  0.00000000000E+00  0.00000000000E+00  0.79237438615E+03  0.79237438615E+03  0.00000000000E+00 0. -1.
         -2   -1    0    0    0  501 -0.00000000000E+00 -0.00000000000E+00 -0.37141474850E+02  0.37141474850E+02  0.00000000000E+00 0.  1.
         23    2    1    2    0    0  0.51813285117E+01  0.10631593224E+03  0.17288062365E+03  0.22371519250E+03  0.93972622130E+02 0.  0.
          5    1    1    2  502    0  0.22141820651E+02 -0.26665675377E+02  0.43211902837E+03  0.43352698364E+03  0.41800000000E+01 0. -1.
         -5    1    1    2    0  502 -0.27323149163E+02 -0.79650256867E+02  0.15023325929E+03  0.17227368486E+03  0.41800000000E+01 0.  1.
        -11    1    3    3    0    0 -0.42581672090E+02  0.51277880417E+02  0.10344157778E+03  0.12305600283E+03  0.00000000000E+00 0.  1.
         11    1    3    3    0    0  0.47763000602E+02  0.55038051826E+02  0.69439045867E+02  0.10065918968E+03  0.00000000000E+00 0. -1.
</event>
<event>
 7    1  0.6684706E-006  0.6433788E+02  0.7561462E-02  0.1380480E+00
          1   -1    0    0  501    0  0.00000000000E+00  0.00000000000E+00  0.16725804866E+03  0.16725804866E+03  0.00000000000E+00 0. -1.
         -1   -1    0    0    0  501 -0.00000000000E+00 -0.00000000000E+00 -0.77498680474E+02  0.77498680474E+02  0.00000000000E+00 0.  1.
         23    2    1    2    0    0  0.31632408945E+02  0.95247467839E+01  0.35146837531E+02  0.10432312883E+03  0.92502350910E+02 0.  0.
          5    1    1    2  502    0  0.76455306228E+01  0.25354651930E+02 -0.30325403595E+02  0.40477339539E+02  0.41800000000E+01 0. -1.
         -5    1    1    2    0  502 -0.39277939568E+02 -0.34879398714E+02  0.84937934252E+02  0.99956260766E+02  0.41800000000E+01 0. -1.
        -11    1    3    3    0    0  0.29332435422E+02 -0.88606590990E+01 -0.26152498788E+02  0.40284689900E+02  0.00000000000E+00 0.  1.
         11    1    3    3    0    0  0.22999735227E+01  0.18385405883E+02  0.61299336319E+02  0.64038438932E+02  0.00000000000E+00 0. -1.
</event>
<event>
 7    1  0.6684706E-006  0.1544182E+03  0.7561462E-02  0.1195147E+00
          2   -1    0    0  501    0  0.00000000000E+00  0.00000000000E+00  0.68710965408E+03  0.68710965408E+03  0.00000000000E+00 0. -1.
         -2   -1    0    0    0  501 -0.00000000000E+00 -0.00000000000E+00 -0.37421499075E+02  0.37421499075E+02  0.00000000000E+00 0.  1.
         23    2    1    2    0    0 -0.73551822062E+01 -0.11423036718E+03  0.23873234119E+03  0.27996922620E+03  0.91032749040E+02 0.  0.
          5    1    1    2  502    0  0.63605708052E+02  0.76243294905E+02  0.27789839265E+03  0.29513338536E+03  0.41800000000E+01 0. -1.
         -5    1    1    2    0  502 -0.56250525846E+02  0.37987072270E+02  0.13305742116E+03  0.14942854160E+03  0.41800000000E+01 0. -1.
        -11    1    3    3    0    0 -0.43872107506E+02 -0.80810841861E+02  0.11884197125E+03  0.15026166547E+03  0.00000000000E+00 0.  1.
         11    1    3    3    0    0  0.36516925300E+02 -0.33419525314E+02  0.11989036994E+03  0.12970756073E+03  0.00000000000E+00 0. -1.
</event>
<event>
 7    1  0.6684706E-006  0.2072089E+03  0.7561462E-02  0.1143795E+00
         -2   -1    0    0    0  501 -0.00000000000E+00  0.00000000000E+00  0.51950597624E+03  0.51950597624E+03  0.00000000000E+00 0.  1.
          2   -1    0    0  501    0  0.00000000000E+00 -0.00000000000E+00 -0.91067562919E+02  0.91067562919E+02  0.00000000000E+00 0. -1.
         23    2    1    2    0    0 -0.13785628909E+02 -0.18713850179E+03  0.19477889950E+03  0.28584635667E+03  0.92511931734E+02 0.  0.
          5    1    1    2  502    0  0.46604238240E+02  0.45397604099E+02  0.13189867848E+03  0.14713134019E+03  0.41800000000E+01 0. -1.
         -5    1    1    2    0  502 -0.32818609331E+02  0.14174089769E+03  0.10176083533E+03  0.17759584230E+03  0.41800000000E+01 0. -1.
        -11    1    3    3    0    0 -0.47079625461E+02 -0.10800827896E+03  0.14416530678E+03  0.18618784905E+03  0.00000000000E+00 0.  1.
         11    1    3    3    0    0  0.33293996552E+02 -0.79130222829E+02  0.50613592729E+02  0.99658507616E+02  0.00000000000E+00 0. -1.
</event>
<event>
 7    1  0.6684706E-006  0.1082466E+03  0.7561462E-02  0.1263852E+00
          2   -1    0    0  501    0  0.00000000000E+00  0.00000000000E+00  0.12287939928E+03  0.12287939928E+03  0.00000000000E+00 0. -1.
         -2   -1    0    0    0  501 -0.00000000000E+00 -0.00000000000E+00 -0.12529581981E+03  0.12529581981E+03  0.00000000000E+00 0.  1.
         23    2    1    2    0    0  0.38220442752E+02  0.37576810434E+02 -0.31193078745E+02  0.10907847633E+03  0.89734535772E+02 0.  0.
          5    1    1    2  502    0 -0.71915851339E+02 -0.30682255867E+02  0.54965428714E+02  0.95665883431E+02  0.41800000000E+01 0.  1.
         -5    1    1    2    0  502  0.33695408587E+02 -0.68945545673E+01 -0.26188770498E+02  0.43430859336E+02  0.41800000000E+01 0.  1.
        -11    1    3    3    0    0 -0.10518792059E+02  0.51734921960E+02 -0.23331722123E+02  0.57719289616E+02  0.00000000000E+00 0.  1.
         11    1    3    3    0    0  0.48739234811E+02 -0.14158111526E+02 -0.78613566227E+01  0.51359186714E+02  0.00000000000E+00 0. -1.
</event>
<event>
 7    1  0.6684706E-006  0.1776276E+03  0.7561462E-02  0.1170119E+00
          1   -1    0    0  501    0  0.00000000000E+00  0.00000000000E+00  0.14364632148E+03  0.14364632148E+03  0.00000000000E+00 0. -1.
         -1   -1    0    0    0  501 -0.00000000000E+00 -0.00000000000E+00 -0.28253761159E+03  0.28253761159E+03  0.00000000000E+00 0.  1.
         23    2    1    2    0    0 -0.31474701512E+02 -0.16369806643E+03 -0.96196910954E+02  0.21344775417E+03  0.92295093560E+02 0.  0.
          5    1    1    2  502    0  0.54377676430E+01  0.16078551808E+03 -0.69249800831E+02  0.17519862858E+03  0.41800000000E+01 0. -1.
         -5    1    1    2    0  502  0.26036933869E+02  0.29125483491E+01  0.26555421676E+02  0.37537550314E+02  0.41800000000E+01 0. -1.
        -11    1    3    3    0    0 -0.18841681737E+02 -0.13661646592E+03 -0.30454397490E+02  0.14123221324E+03  0.00000000000E+00 0. -1.
         11    1    3    3    0    0 -0.12633019776E+02 -0.27081600509E+02 -0.65742513464E+02  0.72215540926E+02  0.00000000000E+00 0.  1.
</event>
<event>
 7    1  0.6684706E-006  0.1327420E+03  0.7561462E-02  0.1223443E+00
         -3   -1    0    0    0  501 -0.00000000000E+00  0.00000000000E+00  0.16682637495E+03  0.16682637495E+03  0.00000000000E+00 0.  1.
          3   -1    0    0  501    0  0.00000000000E+00 -0.00000000000E+00 -0.17800819183E+03  0.17800819183E+03  0.00000000000E+00 0. -1.
         23    2    1    2    0    0 -0.93153247509E+02 -0.87732236013E+02 -0.46577024053E+02  0.16241889393E+03  0.88521213157E+02 0.  0.
          5    1    1    2  502    0 -0.39611111494E+01  0.13736267468E+02 -0.37365673196E+02  0.40224885070E+02  0.41800000000E+01 0.  1.
         -5    1    1    2    0  502  0.97114358658E+02  0.73995968545E+02  0.72760880365E+02  0.14219078778E+03  0.41800000000E+01 0.  1.
        -11    1    3    3    0    0 -0.81450409906E+02 -0.71283340986E+02  0.36367404495E+01  0.10829916831E+03  0.00000000000E+00 0.  1.
         11    1    3    3    0    0 -0.11702837603E+02 -0.16448895028E+02 -0.50213764502E+02  0.54119725619E+02  0.00000000000E+00 0. -1.
</event>
<event>
 7    1  0.6684706E-006  0.1127804E+03  0.7561462E-02  0.1255506E+00
         -2   -1    0    0    0  501 -0.00000000000E+00  0.00000000000E+00  0.37253373371E+02  0.37253373371E+02  0.00000000000E+00 0.  1.
          2   -1    0    0  501    0  0.00000000000E+00 -0.00000000000E+00 -0.25629008070E+04  0.25629008070E+04  0.00000000000E+00 0. -1.
         23    2    1    2    0    0  0.15172020774E+02 -0.11017570347E+03 -0.11710657298E+03  0.18580465838E+03  0.91872443056E+02 0.  0.
          5    1    1    2  502    0 -0.38332576644E+01  0.43202597185E+01 -0.56476240840E+01  0.90954145673E+01  0.41800000000E+01 0.  1.
         -5    1    1    2    0  502 -0.11338763109E+02  0.10585544375E+03 -0.24028932366E+04  0.24052541074E+04  0.41800000000E+01 0.  1.
        -11    1    3    3    0    0  0.12960260475E+02 -0.49386456190E+02 -0.11398140676E+03  0.12489496185E+03  0.00000000000E+00 0. -1.
         11    1    3    3    0    0  0.22117602983E+01 -0.60789247279E+02 -0.31251662132E+01  0.60909696537E+02  0.00000000000E+00 0.  1.
</event>
<event>
 7    1  0.6684706E-006  0.1251067E+03  0.7561462E-02  0.1234903E+00
          1   -1    0    0  501    0  0.00000000000E+00  0.00000000000E+00  0.13436554503E+04  0.13436554503E+04  0.00000000000E+00 0. -1.
         -1   -1    0    0    0  501 -0.00000000000E+00 -0.00000000000E+00 -0.22578203264E+02  0.22578203264E+02  0.00000000000E+00 0.  1.
         23    2    1    2    0    0  0.85206009843E+02 -0.26882899984E+02  0.21452333131E+03  0.24995575692E+03  0.92059037118E+02 0.  0.
          5    1    1    2  502    0 -0.50692896327E+02  0.73178705613E+02  0.66683487825E+03  0.67276379209E+03  0.41800000000E+01 0. -1.
         -5    1    1    2    0  502 -0.34513113516E+02 -0.46295805629E+02  0.43971903751E+03  0.44351410459E+03  0.41800000000E+01 0.  1.
        -11    1    3    3    0    0  0.12589890786E+02 -0.27862527887E+02  0.88387284748E+01  0.31826858646E+02  0.00000000000E+00 0.  1.
         11    1    3    3    0    0  0.72616119057E+02  0.97962790282E+00  0.20568460284E+03  0.21812889827E+03  0.00000000000E+00 0. -1.
</event>
<event>
 7    1  0.6684706E-006  0.1107019E+03  0.7561462E-02  0.1259275E+00
          2   -1    0    0  501    0  0.00000000000E+00  0.00000000000E+00  0.29416849072E+03  0.29416849072E+03  0.00000000000E+00 0. -1.
         -2   -1    0    0    0  501 -0.00000000000E+00 -0.00000000000E+00 -0.51007127442E+02  0.51007127442E+02  0.00000000000E+00 0.  1.
         23    2    1    2    0    0 -0.60677427655E+02 -0.24499703985E+02  0.11515753053E+03  0.15461418193E+03  0.79764043857E+02 0.  0.
          5    1    1    2  502    0 -0.10629816314E+02  0.57008613148E+02  0.78818097127E+02  0.97942533164E+02  0.41800000000E+01 0.  1.
         -5    1    1    2    0  502  0.71307243968E+02 -0.32508909163E+02  0.49185735617E+02  0.92618903068E+02  0.41800000000E+01 0.  1.
        -11    1    3    3    0    0 -0.70566224344E+02 -0.17609263301E+02  0.49779413929E+02  0.88134375945E+02  0.00000000000E+00 0.  1.
         11    1    3    3    0    0  0.98887966891E+01 -0.68904406842E+01  0.65378116603E+02  0.66479805982E+02  0.00000000000E+00 0. -1.
</event>
<event>
 7    1  0.6684706E-006  0.1084313E+03  0.7561462E-02  0.1263503E+00
          1   -1    0    0  501    0  0.00000000000E+00  0.00000000000E+00  0.60226149653E+03  0.60226149653E+03  0.00000000000E+00 0. -1.
         -1   -1    0    0    0  501 -0.00000000000E+00 -0.00000000000E+00 -0.29563211953E+02  0.29563211953E+02  0.00000000000E+00 0.  1.
         23    2    1    2    0    0 -0.31914567144E+02 -0.47858460129E+02  0.19887768029E+03  0.23345521711E+03  0.10788899330E+03 0.  0.
          5    1    1    2  502    0 -0.14142667142E+02 -0.25852989974E+02  0.25033763359E+02  0.38891565055E+02  0.41800000000E+01 0. -1.
         -5    1    1    2    0  502  0.46057234285E+02  0.73711450103E+02  0.34878684093E+03  0.35947792632E+03  0.41800000000E+01 0. -1.
        -11    1    3    3    0    0 -0.67660150576E+01 -0.67706604843E+02  0.59330785842E+02  0.90277934446E+02  0.00000000000E+00 0.  1.
         11    1    3    3    0    0 -0.25148552086E+02  0.19848144714E+02  0.13954689445E+03  0.14317728266E+03  0.00000000000E+00 0. -1.
</event>
<event>
 7    1  0.6684706E-006  0.1204030E+03  0.7561462E-02  0.1242434E+00
          1   -1    0    0  501    0  0.00000000000E+00  0.00000000000E+00  0.25828656979E+03  0.25828656979E+03  0.00000000000E+00 0. -1.
         -1   -1    0    0    0  501 -0.00000000000E+00 -0.00000000000E+00 -0.10441365487E+03  0.10441365487E+03  0.00000000000E+00 0.  1.
         23    2    1    2    0    0  0.43943684191E+02  0.36237560893E-03 -0.51046494681E+02  0.11398651742E+03  0.91957240902E+02 0.  0.
          5    1    1    2  502    0 -0.90145177716E+02 -0.15636969157E+02  0.14236557418E+03  0.16928111821E+03  0.41800000000E+01 0. -1.
         -5    1    1    2    0  502  0.46201493525E+02  0.15636606782E+02  0.62553835412E+02  0.79432589032E+02  0.41800000000E+01 0.  1.
        -11    1    3    3    0    0  0.66554111784E+02 -0.20607898626E+02 -0.44592434966E+02  0.82720133808E+02  0.00000000000E+00 0.  1.
         11    1    3    3    0    0 -0.22610427593E+02  0.20608261001E+02 -0.64540597154E+01  0.31266383613E+02  0.00000000000E+00 0. -1.
</event>
<event>
 7    1  0.6684706E-006  0.8292880E+02  0.7561462E-02  0.1320940E+00
          2   -1    0    0  501    0  0.00000000000E+00  0.00000000000E+00  0.46402695442E+03  0.46402695442E+03  0.00000000000E+00 0. -1.
         -2   -1    0    0    0  501 -0.00000000000E+00 -0.00000000000E+00 -0.21155019755E+02  0.21155019755E+02  0.00000000000E+00 0.  1.
         23    2    1    2    0    0  0.20485767732E+02  0.21285289535E+02  0.15623671470E+03  0.17659478699E+03  0.76831487951E+02 0.  0.
          5    1    1    2  502    0 -0.46177054934E+02 -0.39190465697E+02  0.26080853532E+03  0.26778121199E+03  0.41800000000E+01 0. -1.
         -5    1    1    2    0  502  0.25691287202E+02  0.17905176162E+02  0.25826684648E+02  0.40805975192E+02  0.41800000000E+01 0.  1.
        -11    1    3    3    0    0 -0.20210114261E+02  0.25616651722E+02  0.11051882778E+03  0.11523485956E+03  0.00000000000E+00 0. -1.
         11    1    3    3    0    0  0.40695881993E+02 -0.43313621878E+01  0.45717886923E+02  0.61359927431E+02  0.00000000000E+00 0.  1.
</event>
<event>
 7    1  0.6684706E-006  0.2282895E+03  0.7561462E-02  0.1127850E+00
         -2   -1    0    0    0  501 -0.00000000000E+00  0.00000000000E+00  0.92656853900E+02  0.92656853900E+02  0.00000000000E+00 0.  1.
          2   -1    0    0  501    0  0.00000000000E+00 -0.00000000000E+00 -0.62953223123E+03  0.62953223123E+03  0.00000000000E+00 0. -1.
         23    2    1    2    0    0  0.12643804573E+03  0.15600702007E+03 -0.14331221221E+03  0.26298831143E+03  0.91102645752E+02 0.  0.
          5    1    1    2  502    0 -0.13466010081E+03 -0.74089392684E+02 -0.24330004474E+03  0.28781064093E+03  0.41800000000E+01 0.  1.
         -5    1    1    2    0  502  0.82220550823E+01 -0.81917627381E+02 -0.15026312038E+03  0.17139013277E+03  0.41800000000E+01 0.  1.
        -11    1    3    3    0    0  0.20463991427E+01  0.67960891809E+02 -0.48233129811E+02  0.83362493823E+02  0.00000000000E+00 0.  1.
         11    1    3    3    0    0  0.12439164659E+03  0.88046128256E+02 -0.95079082395E+02  0.17962581761E+03  0.00000000000E+00 0. -1.
</event>
<event>
 7    1  0.6684706E-006  0.1380180E+03  0.7561462E-02  0.1216021E+00
         -1   -1    0    0    0  501 -0.00000000000E+00  0.00000000000E+00  0.41659423068E+02  0.41659423068E+02  0.00000000000E+00 0.  1.
          1   -1    0    0  501    0  0.00000000000E+00 -0.00000000000E+00 -0.58738498379E+03  0.58738498379E+03  0.00000000000E+00 0. -1.
         23    2    1    2    0    0 -0.59413894883E+02  0.85459467824E+02 -0.26434732032E+03  0.29846417440E+03  0.91476915615E+02 0.  0.
          5    1    1    2  502    0  0.97794978805E+02 -0.26877108002E+02 -0.14213463577E+03  0.17465956572E+03  0.41800000000E+01 0. -1.
         -5    1    1    2    0  502 -0.38381083922E+02 -0.58582359822E+02 -0.13924360464E+03  0.15592066674E+03  0.41800000000E+01 0.  1.
        -11    1    3    3    0    0 -0.19286201051E+02  0.34284676874E+02 -0.21017739497E+03  0.21382687852E+03  0.00000000000E+00 0. -1.
         11    1    3    3    0    0 -0.40127693832E+02  0.51174790950E+02 -0.54169925348E+02  0.84637295876E+02  0.00000000000E+00 0.  1.
</event>
<event>
 7    1  0.6684706E-006  0.1402829E+03  0.7561462E-02  0.1212949E+00
          2   -1    0    0  501    0  0.00000000000E+00  0.00000000000E+00  0.32469765600E+03  0.32469765600E+03  0.00000000000E+00 0. -1.
         -2   -1    0    0    0  501 -0.00000000000E+00 -0.00000000000E+00 -0.64362539270E+02  0.64362539270E+02  0.00000000000E+00 0.  1.
         23    2    1    2    0    0  0.80640551000E+02  0.40220519155E+02  0.93141233349E+02  0.15816042557E+03  0.90657830555E+02 0.  0.
          5    1    1    2  502    0 -0.10066688833E+03 -0.65675848828E+02  0.15466141221E+03  0.19592030102E+03  0.41800000000E+01 0. -1.
         -5    1    1    2    0  502  0.20026337327E+02  0.25455329674E+02  0.12532471177E+02  0.34979468683E+02  0.41800000000E+01 0.  1.
        -11    1    3    3    0    0  0.98767863489E+02  0.20536516011E+02  0.77011730865E+02  0.12691590144E+03  0.00000000000E+00 0. -1.
         11    1    3    3    0    0 -0.18127312488E+02  0.19684003144E+02  0.16129502484E+02  0.31244524131E+02  0.00000000000E+00 0.  1.
</event>
<event>
 7    1  0.6684706E-006  0.9645309E+02  0.7561462E-02  0.1287936E+00
         -2   -1    0    0    0  501 -0.00000000000E+00  0.00000000000E+00  0.54524023769E+02  0.54524023769E+02  0.00000000000E+00 0. -1.
          2   -1    0    0  501    0  0.00000000000E+00 -0.00000000000E+00 -0.31044119360E+03  0.31044119360E+03  0.00000000000E+00 0.  1.
         23    2    1    2    0    0 -0.97051145756E+01  0.24871823699E+02 -0.21942283334E+02  0.98312696914E+02  0.92038718557E+02 0.  0.
          5    1    1    2  502    0 -0.49384394537E+02  0.93055120513E+01 -0.15059260469E+03  0.15881125894E+03  0.41800000000E+01 0.  1.
         -5    1    1    2    0  502  0.59089509112E+02 -0.34177335750E+02 -0.83382281806E+02  0.10784126152E+03  0.41800000000E+01 0.  1.
        -11    1    3    3    0    0 -0.27473573536E+02 -0.14375629358E+02 -0.40832228945E+02  0.51271111583E+02  0.00000000000E+00 0.  1.
         11    1    3    3    0    0  0.17768458960E+02  0.39247453057E+02  0.18889945612E+02  0.47041585331E+02  0.00000000000E+00 0. -1.
</event>
<event>
 7    1  0.6684706E-006  0.1116043E+03  0.7561462E-02  0.1257627E+00
         -2   -1    0    0    0  501 -0.00000000000E+00  0.00000000000E+00  0.21267372030E+03  0.21267372030E+03  0.00000000000E+00 0.  1.
          2   -1    0    0  501    0  0.00000000000E+00 -0.00000000000E+00 -0.79825352588E+02  0.79825352588E+02  0.00000000000E+00 0. -1.
         23    2    1    2    0    0 -0.22509135469E+02 -0.67032351181E+02  0.50563128600E+02  0.12691204988E+03  0.92466432544E+02 0.  0.
          5    1    1    2  502    0 -0.49141491929E+01  0.77632671882E+02  0.10317381302E+03  0.12927988513E+03  0.41800000000E+01 0.  1.
         -5    1    1    2    0  502  0.27423284662E+02 -0.10600320701E+02 -0.20888573910E+02  0.36307137874E+02  0.41800000000E+01 0.  1.
        -11    1    3    3    0    0  0.31952335564E+02 -0.48508760655E+02  0.18010166930E+02  0.60814617660E+02  0.00000000000E+00 0. -1.
         11    1    3    3    0    0 -0.54461471033E+02 -0.18523590525E+02  0.32552961670E+02  0.66097432223E+02  0.00000000000E+00 0.  1.
</event>
<event>
 7    1  0.6684706E-006  0.1099975E+03  0.7561462E-02  0.1260575E+00
          1   -1    0    0  501    0  0.00000000000E+00  0.00000000000E+00  0.55538917614E+02  0.55538917614E+02  0.00000000000E+00 0. -1.
         -1   -1    0    0    0  501 -0.00000000000E+00 -0.00000000000E+00 -0.24745187164E+03  0.24745187164E+03  0.00000000000E+00 0.  1.
         23    2    1    2    0    0  0.73686699634E+01  0.32436629467E+02 -0.11254243892E+03  0.15711910955E+03  0.10447096152E+03 0.  0.
          5    1    1    2  502    0  0.51640244061E+02  0.55119031544E+01 -0.34392661871E+02  0.62429347855E+02  0.41800000000E+01 0. -1.
         -5    1    1    2    0  502 -0.59008914024E+02 -0.37948532622E+02 -0.44977853236E+02  0.83442331847E+02  0.41800000000E+01 0.  1.
        -11    1    3    3    0    0 -0.37226255020E+02 -0.72363743992E+01 -0.81388236506E+02  0.89789777919E+02  0.00000000000E+00 0.  1.
         11    1    3    3    0    0  0.44594924983E+02  0.39673003867E+02 -0.31154202416E+02  0.67329331634E+02  0.00000000000E+00 0. -1.
</event>
<event>
 6    1  0.6684706E-006  0.7412085E+02  0.7561462E-02  0.1346615E+00
         -2   -1    0    0    0  501 -0.00000000000E+00  0.00000000000E+00  0.85838790232E+01  0.85838790232E+01  0.00000000000E+00 0.  1.
          2   -1    0    0  501    0  0.00000000000E+00 -0.00000000000E+00 -0.83544695708E+03  0.83544695708E+03  0.00000000000E+00 0. -1.
          5    1    1    2  502    0  0.45967772773E+02 -0.11257187595E+02 -0.48274784574E+03  0.48508011233E+03  0.41800000000E+01 0. -1.
         -5    1    1    2    0  502 -0.63330505678E+02 -0.18498018787E+02 -0.20922357286E+03  0.21941947381E+03  0.41800000000E+01 0.  1.
        -11    1    1    2    0    0  0.10587689256E+02  0.21311072362E+02 -0.10695568399E+03  0.10957088713E+03  0.00000000000E+00 0.  1.
         11    1    1    2    0    0  0.67750436502E+01  0.84441340192E+01 -0.27935975465E+02  0.29960362831E+02  0.00000000000E+00 0. -1.
</event>
<event>
 7    1  0.6684706E-006  0.3974194E+03  0.7561462E-02  0.1044677E+00
          1   -1    0    0  501    0  0.00000000000E+00  0.00000000000E+00  0.38026657990E+03  0.38026657990E+03  0.00000000000E+00 0. -1.
         -1   -1    0    0    0  501 -0.00000000000E+00 -0.00000000000E+00 -0.52145399869E+03  0.52145399869E+03  0.00000000000E+00 0.  1.
         23    2    1    2    0    0 -0.25362686430E+03 -0.29075396091E+03 -0.26367646288E+03  0.47802912471E+03  0.10060872184E+03 0.  0.
          5    1    1    2  502    0  0.26165522927E+03  0.25079483754E+03  0.12285906980E+03  0.38271834679E+03  0.41800000000E+01 0.  1.
         -5    1    1    2    0  502 -0.80283649769E+01  0.39959123376E+02 -0.37002570185E+00  0.40973107085E+02  0.41800000000E+01 0.  1.
        -11    1    3    3    0    0 -0.17185273242E+03 -0.14758159061E+03 -0.19690537177E+03  0.30014232117E+03  0.00000000000E+00 0.  1.
         11    1    3    3    0    0 -0.81774131878E+02 -0.14317237031E+03 -0.66771091110E+02  0.17788680353E+03  0.00000000000E+00 0. -1.
</event>
<event>
 7    1  0.6684706E-006  0.1303227E+03  0.7561462E-02  0.1226978E+00
         -1   -1    0    0    0  501 -0.00000000000E+00  0.00000000000E+00  0.13259805672E+03  0.13259805672E+03  0.00000000000E+00 0.  1.
          1   -1    0    0  501    0  0.00000000000E+00 -0.00000000000E+00 -0.21247783895E+03  0.21247783895E+03  0.00000000000E+00 0. -1.
         23    2    1    2    0    0  0.32823684406E+01 -0.93795505382E+02  0.52944357593E+02  0.13989816474E+03  0.89218948240E+02 0.  0.
          5    1    1    2  502    0 -0.60704862774E+02  0.56081658637E+02 -0.47008108908E+02  0.95170728184E+02  0.41800000000E+01 0. -1.
         -5    1    1    2    0  502  0.57422494334E+02  0.37713846744E+02 -0.85816030913E+02  0.11000700275E+03  0.41800000000E+01 0. -1.
        -11    1    3    3    0    0 -0.23856453743E+02 -0.66181387520E+02 -0.46457263291E+01  0.70503114912E+02  0.00000000000E+00 0. -1.
         11    1    3    3    0    0  0.27138822184E+02 -0.27614117862E+02  0.57590083922E+02  0.69395049830E+02  0.00000000000E+00 0.  1.
</event>
<event>
 7    1  0.6684706E-006  0.1022623E+03  0.7561462E-02  0.1275609E+00
          1   -1    0    0  501    0  0.00000000000E+00  0.00000000000E+00  0.67436583115E+02  0.67436583115E+02  0.00000000000E+00 0. -1.
         -1   -1    0    0    0  501 -0.00000000000E+00 -0.00000000000E+00 -0.31537316285E+03  0.31537316285E+03  0.00000000000E+00 0.  1.
         23    2    1    2    0    0 -0.57799017437E+02  0.73451869152E+02 -0.14987380948E+03  0.19866836965E+03  0.90945361791E+02 0.  0.
          5    1    1    2  502    0  0.40866248786E+02 -0.73149008588E+02  0.65212093088E+00  0.83897112042E+02  0.41800000000E+01 0.  1.
         -5    1    1    2    0  502  0.16932768651E+02 -0.30286056348E+00 -0.98714891181E+02  0.10024426427E+03  0.41800000000E+01 0.  1.
        -11    1    3    3    0    0 -0.89953729950E+01  0.46646094494E+02 -0.10596042859E+02  0.48672897912E+02  0.00000000000E+00 0. -1.
         11    1    3    3    0    0 -0.48803644442E+02  0.26805774658E+02 -0.13927776662E+03  0.14999547174E+03  0.00000000000E+00 0.  1.
</event>
<event>
 7    1  0.6684706E-006  0.1022334E+03  0.7561462E-02  0.1275668E+00
          1   -1    0    0  501    0  0.00000000000E+00  0.00000000000E+00  0.38011253268E+03  0.38011253268E+03  0.00000000000E+00 0. -1.
         -1   -1    0    0    0  501 -0.00000000000E+00 -0.00000000000E+00 -0.56538955623E+02  0.56538955623E+02  0.00000000000E+00 0.  1.
         23    2    1    2    0    0  0.55991186967E+02 -0.33620995004E+02  0.41971634525E+02  0.12167327760E+03  0.93687694249E+02 0.  0.
          5    1    1    2  502    0 -0.33456745540E+02 -0.27779953281E+02  0.25416979550E+02  0.50542802414E+02  0.41800000000E+01 0.  1.
         -5    1    1    2    0  502 -0.22534441427E+02  0.61400948285E+02  0.25618496299E+03  0.26443540830E+03  0.41800000000E+01 0.  1.
        -11    1    3    3    0    0  0.23672167008E+02 -0.52656403027E+02  0.57126765119E+02  0.81219059115E+02  0.00000000000E+00 0. -1.
         11    1    3    3    0    0  0.32319019959E+02  0.19035408024E+02 -0.15155130593E+02  0.40454218483E+02  0.00000000000E+00 0.  1.
</event>
<event>
 6    1  0.6684706E-006  0.6702221E+02  0.7561462E-02  0.1370522E+00
         -1   -1    0    0    0  501 -0.00000000000E+00  0.00000000000E+00  0.61695306688E+02  0.61695306688E+02  0.00000000000E+00 0.  1.
          1   -1    0    0  501    0  0.00000000000E+00 -0.00000000000E+00 -0.15164354872E+03  0.15164354872E+03  0.00000000000E+00 0. -1.
          5    1    1    2  502    0 -0.38890563246E+02 -0.36447109763E+02  0.24181592132E+02  0.58677845204E+02  0.41800000000E+01 0.  1.
         -5    1    1    2    0  502 -0.10730722466E+02  0.21490984137E+02 -0.87432298214E+02  0.90768331343E+02  0.41800000000E+01 0.  1.
        -11    1    1    2    0    0  0.61974430699E+01  0.10960960843E+02 -0.13204056409E+02  0.18245494481E+02  0.00000000000E+00 0. -1.
         11    1    1    2    0    0  0.43423842642E+02  0.39951647828E+01 -0.13493479537E+02  0.45647184376E+02  0.00000000000E+00 0.  1.
</event>
<event>
 7    1  0.6684706E-006  0.9713640E+02  0.7561462E-02  0.1286436E+00
          3   -1    0    0  501    0  0.00000000000E+00  0.00000000000E+00  0.13958640048E+03  0.13958640048E+03  0.00000000000E+00 0. -1.
         -3   -1    0    0    0  501 -0.00000000000E+00 -0.00000000000E+00 -0.13913913982E+03  0.13913913982E+03  0.00000000000E+00 0.  1.
         23    2    1    2    0    0  0.46000563865E+02  0.70070867186E+02  0.21974704023E+02  0.12663182257E+03  0.92340416757E+02 0.  0.
          5    1    1    2  502    0 -0.62497805165E+02 -0.62820964670E+02  0.32893692885E+02  0.94614569090E+02  0.41800000000E+01 0.  1.
         -5    1    1    2    0  502  0.16497241300E+02 -0.72499025154E+01 -0.54421136256E+02  0.57479148640E+02  0.41800000000E+01 0.  1.
        -11    1    3    3    0    0  0.18310197926E+02  0.98770792765E+01 -0.34023585650E+02  0.39880125672E+02  0.00000000000E+00 0.  1.
         11    1    3    3    0    0  0.27690365939E+02  0.60193787909E+02  0.55998289673E+02  0.86751696900E+02  0.00000000000E+00 0. -1.
</event>
<event>
 7    1  0.6684706E-006  0.1095384E+03  0.7561462E-02  0.1261427E+00
          2   -1    0    0  501    0  0.00000000000E+00  0.00000000000E+00  0.16030932531E+04  0.16030932531E+04  0.00000000000E+00 0. -1.
         -2   -1    0    0    0  501 -0.00000000000E+00 -0.00000000000E+00 -0.20027506627E+02  0.20027506627E+02  0.00000000000E+00 0.  1.
         23    2    1    2    0    0  0.44523869976E+02  0.44497130401E+02  0.17038373934E+03  0.20351520352E+03  0.91790249050E+02 0.  0.
          5    1    1    2  502    0  0.14189527695E+02 -0.46599671526E+02  0.11194247205E+04  0.11204918783E+04  0.41800000000E+01 0.  1.
         -5    1    1    2    0  502 -0.58713397671E+02  0.21025411244E+01  0.29325728671E+03  0.29911367798E+03  0.41800000000E+01 0.  1.
        -11    1    3    3    0    0  0.37501395141E+02  0.72925691530E+02  0.12409846502E+03  0.14874454660E+03  0.00000000000E+00 0.  1.
         11    1    3    3    0    0  0.70224748351E+01 -0.28428561129E+02  0.46285274324E+02  0.54770656924E+02  0.00000000000E+00 0. -1.
</event>
<event>
 7    1  0.6684706E-006  0.8171625E+02  0.7561462E-02  0.1324250E+00
          2   -1    0    0  501    0  0.00000000000E+00  0.00000000000E+00  0.11578455929E+03  0.11578455929E+03  0.00000000000E+00 0. -1.
         -2   -1    0    0    0  501 -0.00000000000E+00 -0.00000000000E+00 -0.11331925695E+03  0.11331925695E+03  0.00000000000E+00 0.  1.
         23    2    1    2    0    0  0.30762263521E+01  0.36829211795E+02 -0.13192025754E+02  0.97731943162E+02  0.89507816199E+02 0.  0.
          5    1    1    2  502    0 -0.53639741159E+02 -0.39397715203E+02 -0.19634255580E+02  0.69515309012E+02  0.41800000000E+01 0.  1.
         -5    1    1    2    0  502  0.50563514807E+02  0.25685034077E+01  0.35291583678E+02  0.61856564065E+02  0.41800000000E+01 0.  1.
        -11    1    3    3    0    0  0.10349329096E+02  0.22242856418E+01  0.35788339669E+02  0.37321057268E+02  0.00000000000E+00 0. -1.
         11    1    3    3    0    0 -0.72731027437E+01  0.34604926153E+02 -0.48980365423E+02  0.60410885894E+02  0.00000000000E+00 0.  1.
</event>
<event>
 7    1  0.6684706E-006  0.1068560E+03  0.7561462E-02  0.1266505E+00
         -1   -1    0    0    0  501 -0.00000000000E+00  0.00000000000E+00  0.29256071573E+02  0.29256071573E+02  0.00000000000E+00 0.  1.
          1   -1    0    0  501    0  0.00000000000E+00 -0.00000000000E+00 -0.82871220723E+03  0.82871220723E+03  0.00000000000E+00 0. -1.
         23    2    1    2    0    0 -0.67592062607E+02 -0.42395276307E+02 -0.16554840089E+03  0.20692845792E+03  0.95116072654E+02 0.  0.
          5    1    1    2  502    0  0.75916120973E+01  0.29326183107E+02 -0.26332766664E+02  0.40355230021E+02  0.41800000000E+01 0. -1.
         -5    1    1    2    0  502  0.60000450510E+02  0.13069093200E+02 -0.60757496810E+03  0.61068459086E+03  0.41800000000E+01 0. -1.
        -11    1    3    3    0    0 -0.89614724624E+01  0.28330987579E+02 -0.24072570599E+02  0.38241881506E+02  0.00000000000E+00 0.  1.
         11    1    3    3    0    0 -0.58630590145E+02 -0.70726263886E+02 -0.14147583029E+03  0.16868657641E+03  0.00000000000E+00 0. -1.
</event>
<event>
 7    1  0.6684706E-006  0.1194133E+03  0.7561462E-02  0.1244068E+00
          1   -1    0    0  501    0  0.00000000000E+00  0.00000000000E+00  0.10631540347E+04  0.10631540347E+04  0.00000000000E+00 0. -1.
         -1   -1    0    0    0  501 -0.00000000000E+00 -0.00000000000E+00 -0.19414825207E+02  0.19414825207E+02  0.00000000000E+00 0.  1.
         23    2    1    2    0    0 -0.48718113283E+02  0.69131304635E+02  0.32275206000E+03  0.34593966953E+03  0.91393494708E+02 0.  0.
          5    1    1    2  502    0  0.49770855147E+02 -0.43818730135E+01  0.57111168072E+03  0.57330826183E+03  0.41800000000E+01 0.  1.
         -5    1    1    2    0  502 -0.10527418643E+01 -0.64749431622E+02  0.14987546875E+03  0.16332092852E+03  0.41800000000E+01 0.  1.
        -11    1    3    3    0    0 -0.75627623566E+02  0.53960827901E+02  0.22511992694E+03  0.24353704010E+03  0.00000000000E+00 0.  1.
         11    1    3    3    0    0  0.26909510283E+02  0.15170476735E+02  0.97632133057E+02  0.10240262943E+03  0.00000000000E+00 0. -1.
</event>
<event>
 7    1  0.6684706E-006  0.1665504E+03  0.7561462E-02  0.1181494E+00
         -2   -1    0    0    0  501 -0.00000000000E+00  0.00000000000E+00  0.51103676706E+02  0.51103676706E+02  0.00000000000E+00 0.  1.
          2   -1    0    0  501    0  0.00000000000E+00 -0.00000000000E+00 -0.13406225263E+04  0.13406225263E+04  0.00000000000E+00 0. -1.
         23    2    1    2    0    0 -0.12807525260E+02 -0.43082077199E+02 -0.38908973246E+02  0.10965121235E+03  0.92137842881E+02 0.  0.
          5    1    1    2  502    0  0.43956207661E+02  0.13913682227E+03 -0.10186212902E+04  0.10290277007E+04  0.41800000000E+01 0. -1.
         -5    1    1    2    0  502 -0.31148682401E+02 -0.96054745069E+02 -0.23198858613E+03  0.25304728996E+03  0.41800000000E+01 0.  1.
        -11    1    3    3    0    0 -0.37316948504E+02 -0.48265162316E+02 -0.53081554208E+02  0.80868609090E+02  0.00000000000E+00 0.  1.
         11    1    3    3    0    0  0.24509423244E+02  0.51830851164E+01  0.14172580963E+02  0.28782603256E+02  0.00000000000E+00 0. -1.
</event>
<event>
 7    1  0.6684706E-006  0.1096425E+03  0.7561462E-02  0.1261233E+00
         -1   -1    0    0    0  501 -0.00000000000E+00  0.00000000000E+00  0.47401524318E+02  0.47401524318E+02  0.00000000000E+00 0.  1.
          1   -1    0    0  501    0  0.00000000000E+00 -0.00000000000E+00 -0.27337763874E+03  0.27337763874E+03  0.00000000000E+00 0. -1.
         23    2    1    2    0    0  0.68914898769E+00  0.31445296933E+02 -0.66706631446E+02  0.11583107621E+03  0.89318429848E+02 0.  0.
          5    1    1    2  502    0 -0.15219128607E+02 -0.77628843179E+02 -0.84980494223E+02  0.11617665844E+03  0.41800000000E+01 0.  1.
         -5    1    1    2    0  502  0.14529979620E+02  0.46183546246E+02 -0.74288988752E+02  0.88771428407E+02  0.41800000000E+01 0.  1.
        -11    1    3    3    0    0 -0.37263363313E+02 -0.64758150938E+01 -0.42735936481E+02  0.57068859226E+02  0.00000000000E+00 0.  1.
         11    1    3    3    0    0  0.37952512300E+02  0.37921112027E+02 -0.23970694965E+02  0.58762216979E+02  0.00000000000E+00 0. -1.
</event>
<event>
 7    1  0.6684706E-006  0.8552371E+02  0.7561462E-02  0.1314069E+00
          1   -1    0    0  501    0  0.00000000000E+00  0.00000000000E+00  0.17420938568E+03  0.17420938568E+03  0.00000000000E+00 0. -1.
         -1   -1    0    0    0  501 -0.00000000000E+00 -0.00000000000E+00 -0.79750552166E+02  0.79750552166E+02  0.00000000000E+00 0.  1.
         23    2    1    2    0    0 -0.37381288807E+02 -0.25486150790E+02  0.29989613058E+02  0.10613996173E+03  0.91210799526E+02 0.  0.
          5    1    1    2  502    0  0.14152463265E+02  0.39743279428E+02  0.96591799977E+02  0.10548586966E+03  0.41800000000E+01 0. -1.
         -5    1    1    2    0  502  0.23228825542E+02 -0.14257128638E+02 -0.32122579526E+02  0.42334106445E+02  0.41800000000E+01 0. -1.
        -11    1    3    3    0    0  0.27495618454E+02  0.72152215076E+01  0.27912082116E+01  0.28563250845E+02  0.00000000000E+00 0. -1.
         11    1    3    3    0    0 -0.64876907261E+02 -0.32701372298E+02  0.27198404846E+02  0.77576710887E+02  0.00000000000E+00 0.  1.
</event>
<event>
 7    1  0.6684706E-006  0.1128043E+03  0.7561462E-02  0.1255463E+00
         -2   -1    0    0    0  501 -0.00000000000E+00  0.00000000000E+00  0.12335462706E+02  0.12335462706E+02  0.00000000000E+00 0.  1.
          2   -1    0    0  501    0  0.00000000000E+00 -0.00000000000E+00 -0.10857346707E+04  0.10857346707E+04  0.00000000000E+00 0. -1.
         23    2    1    2    0    0 -0.44434988483E+01 -0.33233495619E+02 -0.34773195513E+03  0.36093832036E+03  0.90745515452E+02 0.  0.
          5    1    1    2  502    0 -0.20565421228E+02  0.76240600748E+02 -0.41269985387E+03  0.42020733875E+03  0.41800000000E+01 0.  1.
         -5    1    1    2    0  502  0.25008920077E+02 -0.43007105129E+02 -0.31296739904E+03  0.31692447434E+03  0.41800000000E+01 0.  1.
        -11    1    3    3    0    0 -0.16065804547E+02 -0.62808405067E+02 -0.24212924302E+03  0.25065828561E+03  0.00000000000E+00 0. -1.
         11    1    3    3    0    0  0.11622305699E+02  0.29574909448E+02 -0.10560271211E+03  0.11028003475E+03  0.00000000000E+00 0.  1.
</event>
<event>
 7    1  0.6684706E-006  0.1255202E+03  0.7561462E-02  0.1234259E+00
          2   -1    0    0  501    0  0.00000000000E+00  0.00000000000E+00  0.13112896208E+04  0.13112896208E+04  0.00000000000E+00 0. -1.
         -2   -1    0    0    0  501 -0.00000000000E+00 -0.00000000000E+00 -0.15818471043E+02  0.15818471043E+02  0.00000000000E+00 0.  1.
         23    2    1    2    0    0  0.60901897091E+02  0.20974041203E+02  0.29101708639E+03  0.31284747285E+03  0.95045490279E+02 0.  0.
          5    1    1    2  502    0 -0.58487422994E+02  0.42694558399E+02  0.65667162058E+03  0.66066534164E+03  0.41800000000E+01 0. -1.
         -5    1    1    2    0  502 -0.24144740974E+01 -0.63668599602E+02  0.34778244282E+03  0.35359527739E+03  0.41800000000E+01 0. -1.
        -11    1    3    3    0    0  0.15808695090E+02 -0.37568877348E+02  0.11146725500E+03  0.11868565340E+03  0.00000000000E+00 0.  1.
         11    1    3    3    0    0  0.45093202001E+02  0.58542918551E+02  0.17954983139E+03  0.19416181945E+03  0.00000000000E+00 0. -1.
</event>
<event>
 7    1  0.6684706E-006  0.1130882E+03  0.7561462E-02  0.1254956E+00
          2   -1    0    0  501    0  0.00000000000E+00  0.00000000000E+00  0.12680612867E+04  0.12680612867E+04  0.00000000000E+00 0. -1.
         -2   -1    0    0    0  501 -0.00000000000E+00 -0.00000000000E+00 -0.24513829743E+02  0.24513829743E+02  0.00000000000E+00 0.  1.
         23    2    1    2    0    0 -0.16376441871E+02  0.80062931346E+02  0.17572705230E+03  0.21435125273E+03  0.91587126906E+02 0.  0.
          5    1    1    2  502    0 -0.30719444382E+02 -0.71668913519E+02  0.90783405894E+03  0.91118618756E+03  0.41800000000E+01 0. -1.
         -5    1    1    2    0  502  0.47095886253E+02 -0.83940178265E+01  0.15998634576E+03  0.16703767619E+03  0.41800000000E+01 0. -1.
        -11    1    3    3    0    0 -0.37832481595E+02  0.43269793000E+02  0.34942149752E+02  0.67264593057E+02  0.00000000000E+00 0.  1.
         11    1    3    3    0    0  0.21456039724E+02  0.36793138346E+02  0.14078490254E+03  0.14708665967E+03  0.00000000000E+00 0. -1.
</event>
<event>
 7    1  0.6684706E-006  0.1117749E+03  0.7561462E-02  0.1257318E+00
          4   -1    0    0  501    0  0.00000000000E+00  0.00000000000E+00  0.20015561998E+03  0.20015561998E+03  0.00000000000E+00 0. -1.
         -4   -1    0    0    0  501 -0.00000000000E+00 -0.00000000000E+00 -0.14335022829E+03  0.14335022829E+03  0.00000000000E+00 0.  1.
         23    2    1    2    0    0  0.32721195162E+02  0.57100888108E+02 -0.87793726107E+02  0.14129914419E+03  0.89031015768E+02 0.  0.
          5    1    1    2  502    0  0.39522816001E+02  0.11474261271E+02  0.48355922140E+02  0.63635518874E+02  0.41800000000E+01 0.  1.
         -5    1    1    2    0  502 -0.72244011162E+02 -0.68575149379E+02  0.96243195660E+02  0.13857118522E+03  0.41800000000E+01 0.  1.
        -11    1    3    3    0    0 -0.12885115747E+02  0.19535437142E+02 -0.77965292079E+02  0.81401758464E+02  0.00000000000E+00 0.  1.
         11    1    3    3    0    0  0.45606310909E+02  0.37565450966E+02 -0.98284340283E+01  0.59897385723E+02  0.00000000000E+00 0. -1.
</event>
<event>
 7    1  0.6684706E-006  0.1030103E+03  0.7561462E-02  0.1274090E+00
          1   -1    0    0  501    0  0.00000000000E+00  0.00000000000E+00  0.26974072489E+03  0.26974072489E+03  0.00000000000E+00 0. -1.
         -1   -1    0    0    0  501 -0.00000000000E+00 -0.00000000000E+00 -0.44371795158E+02  0.44371795158E+02  0.00000000000E+00 0.  1.
         23    2    1    2    0    0 -0.10550458347E+02 -0.84537287752E+01  0.10907274374E+03  0.14277949795E+03  0.91139145846E+02 0.  0.
          5    1    1    2  502    0 -0.29075594209E+01  0.65994168717E+02  0.54647552899E+02  0.85834210221E+02  0.41800000000E+01 0. -1.
         -5    1    1    2    0  502  0.13458017768E+02 -0.57540439942E+02  0.61648633096E+02  0.85498811884E+02  0.41800000000E+01 0. -1.
        -11    1    3    3    0    0  0.14624992199E+02  0.30719862622E+02  0.13761543267E+02  0.36701231988E+02  0.00000000000E+00 0. -1.
         11    1    3    3    0    0 -0.25175450546E+02 -0.39173591398E+02  0.95311200474E+02  0.10607826596E+03  0.00000000000E+00 0.  1.
</event>
<event>
 7    1  0.6684706E-006  0.1425207E+03  0.7561462E-02  0.1209977E+00
         -4   -1    0    0    0  501 -0.00000000000E+00  0.00000000000E+00  0.20492914848E+03  0.20492914848E+03  0.00000000000E+00 0.  1.
          4   -1    0    0  501    0  0.00000000000E+00 -0.00000000000E+00 -0.17904778906E+03  0.17904778906E+03  0.00000000000E+00 0. -1.
         23    2    1    2    0    0  0.78294509830E+02  0.41704881616E+02  0.11355199922E+03  0.17093123793E+03  0.91946202493E+02 0.  0.
          5    1    1    2  502    0  0.38558255923E+02 -0.57315410725E+02 -0.60662909412E+02  0.92028562875E+02  0.41800000000E+01 0. -1.
         -5    1    1    2    0  502 -0.11685276575E+03  0.15610529108E+02 -0.27007730379E+02  0.12101713673E+03  0.41800000000E+01 0.  1.
        -11    1    3    3    0    0  0.40811407397E+02 -0.12904558440E+01 -0.32342182253E+01  0.40959692595E+02  0.00000000000E+00 0. -1.
         11    1    3    3    0    0  0.37483102433E+02  0.42995337460E+02  0.11678621744E+03  0.12997154533E+03  0.00000000000E+00 0.  1.
</event>
<event>
 7    1  0.6684706E-006  0.9423656E+02  0.7561462E-02  0.1292905E+00
          2   -1    0    0  501    0  0.00000000000E+00  0.00000000000E+00  0.30670424231E+03  0.30670424231E+03  0.00000000000E+00 0.  1.
         -2   -1    0    0    0  501 -0.00000000000E+00 -0.00000000000E+00 -0.40077793570E+02  0.40077793570E+02  0.00000000000E+00 0. -1.
         23    2    1    2    0    0  0.25654037260E+02  0.31011442446E+01  0.91095535658E+02  0.12969931859E+03  0.88632781193E+02 0.  0.
          5    1    1    2  502    0  0.16698076404E+02 -0.44865554132E+02  0.22927511382E+02  0.53243655784E+02  0.41800000000E+01 0.  1.
         -5    1    1    2    0  502 -0.42352113665E+02  0.41764409887E+02  0.15260340170E+03  0.16383906151E+03  0.41800000000E+01 0.  1.
        -11    1    3    3    0    0  0.45794476688E+02  0.24054695269E+02  0.85756318210E+02  0.10014943121E+03  0.00000000000E+00 0.  1.
         11    1    3    3    0    0 -0.20140439428E+02 -0.20953551024E+02  0.53392174480E+01  0.29549887374E+02  0.00000000000E+00 0. -1.
</event>
<event>
 7    1  0.6684706E-006  0.1153458E+03  0.7561462E-02  0.1250979E+00
          1   -1    0    0  501    0  0.00000000000E+00  0.00000000000E+00  0.98608890319E+03  0.98608890319E+03  0.00000000000E+00 0. -1.
         -1   -1    0    0    0  501 -0.00000000000E+00 -0.00000000000E+00 -0.13937103498E+02  0.13937103498E+02  0.00000000000E+00 0.  1.
         23    2    1    2    0    0  0.19204948610E+02  0.34429377058E+02  0.37919821516E+03  0.39272558444E+03  0.94275586660E+02 0.  0.
          5    1    1    2  502    0  0.45507174244E+02  0.16072943139E+02  0.19279786510E+03  0.19879067281E+03  0.41800000000E+01 0.  1.
         -5    1    1    2    0  502 -0.64712122855E+02 -0.50502320198E+02  0.40015571943E+03  0.40850974943E+03  0.41800000000E+01 0.  1.
        -11    1    3    3    0    0  0.44404147486E+02  0.52712679486E+02  0.29531328249E+03  0.30324955021E+03  0.00000000000E+00 0. -1.
         11    1    3    3    0    0 -0.25199198875E+02 -0.18283302428E+02  0.83884932673E+02  0.89476034228E+02  0.00000000000E+00 0.  1.
</event>
<event>
 7    1  0.6684706E-006  0.1198799E+03  0.7561462E-02  0.1243295E+00
          2   -1    0    0  501    0  0.00000000000E+00  0.00000000000E+00  0.33486184109E+03  0.33486184109E+03  0.00000000000E+00 0. -1.
         -2   -1    0    0    0  501 -0.00000000000E+00 -0.00000000000E+00 -0.61024744508E+02  0.61024744508E+02  0.00000000000E+00 0.  1.
         23    2    1    2    0    0 -0.84392753662E+02 -0.29960595530E+02  0.89559877572E+02  0.15583391726E+03  0.90793523686E+02 0.  0.
          5    1    1    2  502    0  0.14792585248E+02 -0.22196165959E+02  0.13959674599E+03  0.14218373413E+03  0.41800000000E+01 0.  1.
         -5    1    1    2    0  502  0.69600168414E+02  0.52156761489E+02  0.44680473021E+02  0.97868934201E+02  0.41800000000E+01 0.  1.
        -11    1    3    3    0    0 -0.51582105190E+02  0.28289759683E+02  0.55170209160E+02  0.80652191895E+02  0.00000000000E+00 0.  1.
         11    1    3    3    0    0 -0.32810648472E+02 -0.58250355213E+02  0.34389668411E+02  0.75181725366E+02  0.00000000000E+00 0. -1.
</event>
<event>
 7    1  0.6684706E-006  0.1507691E+03  0.7561462E-02  0.1199531E+00
         -3   -1    0    0    0  501 -0.00000000000E+00  0.00000000000E+00  0.34432516867E+02  0.34432516867E+02  0.00000000000E+00 0.  1.
          3   -1    0    0  501    0  0.00000000000E+00 -0.00000000000E+00 -0.77933191970E+03  0.77933191970E+03  0.00000000000E+00 0. -1.
         23    2    1    2    0    0 -0.39094196295E+02  0.11561520639E+03 -0.32690758435E+03  0.36070622701E+03  0.91351964201E+02 0.  0.
          5    1    1    2  502    0 -0.41847088800E+02 -0.29172214511E+02 -0.18093601417E+03  0.18803592892E+03  0.41800000000E+01 0.  1.
         -5    1    1    2    0  502  0.80941285095E+02 -0.86442991879E+02 -0.23705580431E+03  0.26502228064E+03  0.41800000000E+01 0.  1.
        -11    1    3    3    0    0 -0.60638567488E+01  0.89624134744E+02 -0.29373079490E+03  0.30715962587E+03  0.00000000000E+00 0. -1.
         11    1    3    3    0    0 -0.33030339546E+02  0.25991071645E+02 -0.33176789448E+02  0.53546601142E+02  0.00000000000E+00 0.  1.
</event>
<event>
 7    1  0.6684706E-006  0.1765758E+03  0.7561462E-02  0.1171159E+00
         -1   -1    0    0    0  501 -0.00000000000E+00  0.00000000000E+00  0.26419448739E+02  0.26419448739E+02  0.00000000000E+00 0.  1.
          1   -1    0    0  501    0  0.00000000000E+00 -0.00000000000E+00 -0.12554486627E+04  0.12554486627E+04  0.00000000000E+00 0. -1.
         23    2    1    2    0    0  0.68602875950E+02 -0.12832873146E+03 -0.63342783420E+03  0.65611805587E+03  0.89919209189E+02 0.  0.
          5    1    1    2  502    0 -0.76867786466E+02  0.17551292563E+02 -0.20648033980E+03  0.22106177325E+03  0.41800000000E+01 0.  1.
         -5    1    1    2    0  502  0.82649105162E+01  0.11077743890E+03 -0.38912103991E+03  0.40468828228E+03  0.41800000000E+01 0.  1.
        -11    1    3    3    0    0  0.11645361834E+02 -0.97639700042E+02 -0.47342934111E+03  0.48353331478E+03  0.00000000000E+00 0.  1.
         11    1    3    3    0    0  0.56957514116E+02 -0.30689031418E+02 -0.15999849309E+03  0.17258474108E+03  0.00000000000E+00 0. -1.
</event>
<event>
 7    1  0.6684706E-006  0.9379907E+02  0.7561462E-02  0.1293904E+00
         -2   -1    0    0    0  501 -0.00000000000E+00  0.00000000000E+00  0.41195800710E+02  0.41195800710E+02  0.00000000000E+00 0.  1.
          2   -1    0    0  501    0  0.00000000000E+00 -0.00000000000E+00 -0.34421947953E+03  0.34421947953E+03  0.00000000000E+00 0. -1.
         23    2    1    2    0    0 -0.37296454324E+02  0.15614585582E+02 -0.88000300515E+02  0.13339170998E+03  0.91730336375E+02 0.  0.
          5    1    1    2  502    0 -0.41248681712E+01 -0.57700385133E+02 -0.49559134785E+02  0.76288460612E+02  0.41800000000E+01 0.  1.
         -5    1    1    2    0  502  0.41421322495E+02  0.42085799551E+02 -0.16546424352E+03  0.17573510966E+03  0.41800000000E+01 0.  1.
        -11    1    3    3    0    0 -0.42189660924E+02  0.32222874932E+02 -0.10672999770E+02  0.54149737597E+02  0.00000000000E+00 0.  1.
         11    1    3    3    0    0  0.48932065992E+01 -0.16608289350E+02 -0.77327300745E+02  0.79241972379E+02  0.00000000000E+00 0. -1.
</event>
<event>
 7    1  0.6684706E-006  0.1133157E+03  0.7561462E-02  0.1254550E+00
         -1   -1    0    0    0  501 -0.00000000000E+00  0.00000000000E+00  0.43088792294E+02  0.43088792294E+02  0.00000000000E+00 0.  1.
          1   -1    0    0  501    0  0.00000000000E+00 -0.00000000000E+00 -0.12054474051E+04  0.12054474051E+04  0.00000000000E+00 0. -1.
         23    2    1    2    0    0  0.63425648635E+02  0.70281161122E+02 -0.83427424143E+02  0.15487356655E+03  0.89796614659E+02 0.  0.
          5    1    1    2  502    0 -0.45250651164E+02 -0.82532474692E+02 -0.10606228223E+04  0.10647992649E+04  0.41800000000E+01 0. -1.
         -5    1    1    2    0  502 -0.18174997471E+02  0.12251313570E+02 -0.18308366314E+02  0.28863365957E+02  0.41800000000E+01 0.  1.
        -11    1    3    3    0    0  0.38851319312E+02  0.35781591290E+01 -0.73344668219E+02  0.83076281760E+02  0.00000000000E+00 0.  1.
         11    1    3    3    0    0  0.24574329323E+02  0.66703001993E+02 -0.10082755924E+02  0.71797284793E+02  0.00000000000E+00 0. -1.
</event>
<event>
 7    1  0.6684706E-006  0.9241694E+02  0.7561462E-02  0.1297102E+00
         -2   -1    0    0    0  501 -0.00000000000E+00  0.00000000000E+00  0.71591461219E+02  0.71591461219E+02  0.00000000000E+00 0. -1.
          2   -1    0    0  501    0  0.00000000000E+00 -0.00000000000E+00 -0.24986744190E+03  0.24986744190E+03  0.00000000000E+00 0.  1.
         23    2    1    2    0    0  0.33836597980E+02  0.67911052611E+02 -0.56189978781E+02  0.13090927756E+03  0.90681303510E+02 0.  0.
          5    1    1    2  502    0 -0.49643336453E+02 -0.25967179369E+02  0.43400331628E+01  0.56347702228E+02  0.41800000000E+01 0.  1.
         -5    1    1    2    0  502  0.15806738473E+02 -0.41943873242E+02 -0.12642603506E+03  0.13420192333E+03  0.41800000000E+01 0.  1.
        -11    1    3    3    0    0  0.11910401507E+02  0.58627489470E+02 -0.78216762679E+02  0.98472849810E+02  0.00000000000E+00 0.  1.
         11    1    3    3    0    0  0.21926196472E+02  0.92835631409E+01  0.22026783898E+02  0.32436427751E+02  0.00000000000E+00 0. -1.
</event>
<event>
 7    1  0.6684706E-006  0.9083700E+02  0.7561462E-02  0.1300837E+00
          4   -1    0    0  501    0  0.00000000000E+00  0.00000000000E+00  0.14329992330E+03  0.14329992330E+03  0.00000000000E+00 0.  1.
         -4   -1    0    0    0  501 -0.00000000000E+00 -0.00000000000E+00 -0.10939740427E+03  0.10939740427E+03  0.00000000000E+00 0. -1.
         23    2    1    2    0    0  0.72552790437E+01  0.19945979323E+02 -0.45381050387E+02  0.10308477315E+03  0.90091895058E+02 0.  0.
          5    1    1    2  502    0  0.13130486471E+02 -0.50976169011E+02  0.95308033545E+02  0.10895904341E+03  0.41800000000E+01 0.  1.
         -5    1    1    2    0  502 -0.20385765514E+02  0.31030189688E+02 -0.16024464129E+02  0.40653511021E+02  0.41800000000E+01 0.  1.
        -11    1    3    3    0    0  0.17789638102E+02 -0.33017581831E+02 -0.26317890321E+02  0.45817718022E+02  0.00000000000E+00 0.  1.
         11    1    3    3    0    0 -0.10534359058E+02  0.52963561154E+02 -0.19063160066E+02  0.57267055124E+02  0.00000000000E+00 0. -1.
</event>
<event>
 7    1  0.6684706E-006  0.1396413E+03  0.7561462E-02  0.1213812E+00
          1   -1    0    0  501    0  0.00000000000E+00  0.00000000000E+00  0.11820486679E+04  0.11820486679E+04  0.00000000000E+00 0. -1.
         -1   -1    0    0    0  501 -0.00000000000E+00 -0.00000000000E+00 -0.23744365624E+02  0.23744365624E+02  0.00000000000E+00 0.  1.
         23    2    1    2    0    0  0.10947924479E+03  0.52323865503E+02  0.39765233583E+03  0.42543185748E+03  0.90229669318E+02 0.  0.
          5    1    1    2  502    0 -0.37125119834E+02  0.21380967592E+01  0.42987476707E+02  0.56993346402E+02  0.41800000000E+01 0. -1.
         -5    1    1    2    0  502 -0.72354124957E+02 -0.54461962263E+02  0.71766448972E+03  0.72336782962E+03  0.41800000000E+01 0. -1.
        -11    1    3    3    0    0  0.12550691982E+03  0.49574134629E+02  0.35610976958E+03  0.38081983895E+03  0.00000000000E+00 0.  1.
         11    1    3    3    0    0 -0.16027675027E+02  0.27497308748E+01  0.41542566247E+02  0.44612018527E+02  0.00000000000E+00 0. -1.
</event>
<event>
 7    1  0.6684706E-006  0.1096311E+03  0.7561462E-02  0.1261254E+00
          3   -1    0    0  501    0  0.00000000000E+00  0.00000000000E+00  0.24623822834E+03  0.24623822834E+03  0.00000000000E+00 0. -1.
         -3   -1    0    0    0  501 -0.00000000000E+00 -0.00000000000E+00 -0.59159205579E+02  0.59159205579E+02  0.00000000000E+00 0.  1.
         23    2    1    2    0    0 -0.22160826575E+02 -0.26856611336E+02  0.29758776750E+02  0.10141041915E+03  0.90477115954E+02 0.  0.
          5    1    1    2  502    0  0.26611693604E+02 -0.44104409261E+02  0.99992592162E+02  0.11255830507E+03  0.41800000000E+01 0.  1.
         -5    1    1    2    0  502 -0.44508670288E+01  0.70961020597E+02  0.57327653847E+02  0.91428709698E+02  0.41800000000E+01 0.  1.
        -11    1    3    3    0    0  0.25152078681E+02  0.18182706619E+02  0.14860469656E+02  0.34410339149E+02  0.00000000000E+00 0.  1.
         11    1    3    3    0    0 -0.47312905256E+02 -0.45039317956E+02  0.14898307094E+02  0.67000080000E+02  0.00000000000E+00 0. -1.
</event>
<event>
 7    1  0.6684706E-006  0.9873920E+02  0.7561462E-02  0.1282970E+00
         -1   -1    0    0    0  501 -0.00000000000E+00  0.00000000000E+00  0.23502490304E+02  0.23502490304E+02  0.00000000000E+00 0.  1.
          1   -1    0    0  501    0  0.00000000000E+00 -0.00000000000E+00 -0.67224501888E+03  0.67224501888E+03  0.00000000000E+00 0. -1.
         23    2    1    2    0    0  0.16141400834E+02 -0.12185148306E+02 -0.11781950863E+03  0.14964156265E+03  0.90011876980E+02 0.  0.
          5    1    1    2  502    0 -0.36643864159E+02  0.62667431259E+02 -0.27858413032E+03  0.28791764411E+03  0.41800000000E+01 0. -1.
         -5    1    1    2    0  502  0.20502463325E+02 -0.50482282953E+02 -0.25233888962E+03  0.25818830243E+03  0.41800000000E+01 0.  1.
        -11    1    3    3    0    0  0.25843237042E+02 -0.36049341784E+02 -0.11556179542E+03  0.12378189085E+03  0.00000000000E+00 0.  1.
         11    1    3    3    0    0 -0.97018362087E+01  0.23864193478E+02 -0.22577132128E+01  0.25859671791E+02  0.00000000000E+00 0. -1.
</event>
<event>
 7    1  0.6684706E-006  0.1328772E+03  0.7561462E-02  0.1223248E+00
          2   -1    0    0  501    0  0.00000000000E+00  0.00000000000E+00  0.82693636320E+03  0.82693636320E+03  0.00000000000E+00 0. -1.
         -2   -1    0    0    0  501 -0.00000000000E+00 -0.00000000000E+00 -0.36306900665E+02  0.36306900665E+02  0.00000000000E+00 0.  1.
         23    2    1    2    0    0  0.84990149969E+02 -0.35922977751E+01  0.11605430932E+03  0.17191638869E+03  0.94076627234E+02 0.  0.
          5    1    1    2  502    0  0.38223236977E+01  0.42083391242E+02  0.35097630897E+03  0.35353566133E+03  0.41800000000E+01 0.  1.
         -5    1    1    2    0  502 -0.88812473667E+02 -0.38491093467E+02  0.32359884425E+03  0.33779121385E+03  0.41800000000E+01 0.  1.
        -11    1    3    3    0    0 -0.18270279372E+02 -0.13434986922E+02  0.26487901337E+02  0.34869913954E+02  0.00000000000E+00 0. -1.
         11    1    3    3    0    0  0.10326042934E+03  0.98426891472E+01  0.89566407987E+02  0.13704647473E+03  0.00000000000E+00 0.  1.
</event>
<event>
 7    1  0.6684706E-006  0.9023819E+02  0.7561462E-02  0.1302276E+00
          1   -1    0    0  501    0  0.00000000000E+00  0.00000000000E+00  0.25225069274E+02  0.25225069274E+02  0.00000000000E+00 0. -1.
         -1   -1    0    0    0  501 -0.00000000000E+00 -0.00000000000E+00 -0.63382963652E+03  0.63382963652E+03  0.00000000000E+00 0.  1.
         23    2    1    2    0    0  0.43532622997E+01 -0.52592521290E+02 -0.37062132979E+03  0.38506771072E+03  0.90177866222E+02 0.  0.
          5    1    1    2  502    0  0.22566344719E+02  0.40164144966E+02 -0.23957625115E+03  0.24400133396E+03  0.41800000000E+01 0. -1.
         -5    1    1    2    0  502 -0.26919607019E+02  0.12428376324E+02  0.15930136971E+01  0.29985661119E+02  0.41800000000E+01 0. -1.
        -11    1    3    3    0    0  0.39449390907E+02  0.18580545859E+01 -0.12871268024E+03  0.13463528834E+03  0.00000000000E+00 0.  1.
         11    1    3    3    0    0 -0.35096128607E+02 -0.54450575876E+02 -0.24190864954E+03  0.25043242238E+03  0.00000000000E+00 0. -1.
</event>
<event>
 7    1  0.6684706E-006  0.1035746E+03  0.7561462E-02  0.1272954E+00
          2   -1    0    0  501    0  0.00000000000E+00  0.00000000000E+00  0.21531419129E+03  0.21531419129E+03  0.00000000000E+00 0. -1.
         -2   -1    0    0    0  501 -0.00000000000E+00 -0.00000000000E+00 -0.77192785255E+02  0.77192785255E+02  0.00000000000E+00 0.  1.
         23    2    1    2    0    0  0.71902845207E+01 -0.66769090269E+02  0.76971552797E+02  0.13792187885E+03  0.92671533482E+02 0.  0.
          5    1    1    2  502    0  0.43364022684E+02  0.40314088361E+02 -0.13165828779E+02  0.60798648268E+02  0.41800000000E+01 0. -1.
         -5    1    1    2    0  502 -0.50554307205E+02  0.26455001908E+02  0.74315682014E+02  0.93786449427E+02  0.41800000000E+01 0. -1.
        -11    1    3    3    0    0  0.24083130405E+02 -0.69423642724E+02  0.16814324259E+02  0.75381435643E+02  0.00000000000E+00 0.  1.
         11    1    3    3    0    0 -0.16892845885E+02  0.26545524553E+01  0.60157228538E+02  0.62540443204E+02  0.00000000000E+00 0. -1.
</event>
<event>
 7    1  0.6684706E-006  0.1259899E+03  0.7561462E-02  0.1233530E+00
         -2   -1    0    0    0  501 -0.00000000000E+00  0.00000000000E+00  0.72025647556E+02  0.72025647556E+02  0.00000000000E+00 0.  1.
          2   -1    0    0  501    0  0.00000000000E+00 -0.00000000000E+00 -0.31271618149E+03  0.31271618149E+03  0.00000000000E+00 0. -1.
         23    2    1    2    0    0 -0.65390661171E+01 -0.10194870941E+03 -0.11854497393E+03  0.18224829364E+03  0.93408944723E+02 0.  0.
          5    1    1    2  502    0  0.54893460408E+01 -0.89265405629E+01 -0.84608160349E+02  0.85357069093E+02  0.41800000000E+01 0.  1.
         -5    1    1    2    0  502  0.10497200763E+01  0.11087524997E+03 -0.37537399662E+02  0.11713646632E+03  0.41800000000E+01 0.  1.
        -11    1    3    3    0    0  0.34439226783E+02 -0.69147233980E+02 -0.10046854826E+03  0.12673330067E+03  0.00000000000E+00 0. -1.
         11    1    3    3    0    0 -0.40978292900E+02 -0.32801475429E+02 -0.18076425663E+02  0.55514992967E+02  0.00000000000E+00 0.  1.
</event>
<event>
 7    1  0.6684706E-006  0.1710764E+03  0.7561462E-02  0.1176730E+00
         -2   -1    0    0    0  501 -0.00000000000E+00  0.00000000000E+00  0.34108139975E+02  0.34108139975E+02  0.00000000000E+00 0.  1.
          2   -1    0    0  501    0  0.00000000000E+00 -0.00000000000E+00 -0.87034408936E+03  0.87034408936E+03  0.00000000000E+00 0. -1.
         23    2    1    2    0    0 -0.10723835382E+03  0.75882414708E+02 -0.38351629895E+03  0.41674400972E+03  0.96605448512E+02 0.  0.
          5    1    1    2  502    0 -0.27461540817E+02 -0.93807241864E+01 -0.10242122593E+03  0.10653503710E+03  0.41800000000E+01 0. -1.
         -5    1    1    2    0  502  0.13469989463E+03 -0.66501690522E+02 -0.35029842450E+03  0.38117318251E+03  0.41800000000E+01 0. -1.
        -11    1    3    3    0    0 -0.96859514958E+01 -0.22198596079E+02 -0.46190482843E+02  0.52155115085E+02  0.00000000000E+00 0.  1.
         11    1    3    3    0    0 -0.97552402320E+02  0.98081010787E+02 -0.33732581611E+03  0.36458889463E+03  0.00000000000E+00 0. -1.
</event>
<event>
 7    1  0.6684706E-006  0.2106331E+03  0.7561462E-02  0.1141066E+00
          1   -1    0    0  501    0  0.00000000000E+00  0.00000000000E+00  0.77120428253E+03  0.77120428253E+03  0.00000000000E+00 0. -1.
         -1   -1    0    0    0  501 -0.00000000000E+00 -0.00000000000E+00 -0.82319671456E+02  0.82319671456E+02  0.00000000000E+00 0.  1.
         23    2    1    2    0    0  0.18783575474E+03 -0.87876824965E+02  0.17814948646E+03  0.28827870178E+03  0.91448145149E+02 0.  0.
          5    1    1    2  502    0 -0.76793191047E+02  0.25669765391E+02  0.35465124615E+03  0.36380092062E+03  0.41800000000E+01 0.  1.
         -5    1    1    2    0  502 -0.11104256369E+03  0.62207059575E+02  0.15608387846E+03  0.20144433158E+03  0.41800000000E+01 0.  1.
        -11    1    3    3    0    0  0.13648389658E+03 -0.39001888337E+02  0.68261994953E+02  0.15750778163E+03  0.00000000000E+00 0.  1.
         11    1    3    3    0    0  0.51351858154E+02 -0.48874936629E+02  0.10988749151E+03  0.13077092015E+03  0.00000000000E+00 0. -1.
</event>
<event>
 6    1  0.6684706E-006  0.1248782E+03  0.7561462E-02  0.1235260E+00
          2   -1    0    0  501    0  0.00000000000E+00  0.00000000000E+00  0.10058399512E+04  0.10058399512E+04  0.00000000000E+00 0.  1.
         -2   -1    0    0    0  501 -0.00000000000E+00 -0.00000000000E+00 -0.20393771598E+02  0.20393771598E+02  0.00000000000E+00 0. -1.
          5    1    1    2  502    0  0.25327099845E+02 -0.21343615697E+02  0.47276982174E+02  0.57875706138E+02  0.41800000000E+01 0. -1.
         -5    1    1    2    0  502 -0.58222433952E+02  0.31733402016E+02  0.51000801354E+03  0.51431751564E+03  0.41800000000E+01 0. -1.
        -11    1    1    2    0    0  0.72818979265E+02  0.42000801616E+02  0.26761031545E+03  0.28050303387E+03  0.00000000000E+00 0.  1.
         11    1    1    2    0    0 -0.39923645157E+02 -0.52390587935E+02  0.16055086844E+03  0.17353746715E+03  0.00000000000E+00 0. -1.
</event>
<event>
 7    1  0.6684706E-006  0.1598187E+03  0.7561462E-02  0.1188902E+00
          4   -1    0    0  501    0  0.00000000000E+00  0.00000000000E+00  0.21012696678E+03  0.21012696678E+03  0.00000000000E+00 0. -1.
         -4   -1    0    0    0  501 -0.00000000000E+00 -0.00000000000E+00 -0.18123634823E+03  0.18123634823E+03  0.00000000000E+00 0.  1.
         23    2    1    2    0    0  0.17580802244E+02  0.14719744487E+03 -0.50733307167E+02  0.18168560194E+03  0.91976176865E+02 0.  0.
          5    1    1    2  502    0  0.15970658158E+01 -0.86881007499E+02  0.10926156277E+03  0.13966539150E+03  0.41800000000E+01 0.  1.
         -5    1    1    2    0  502 -0.19177868059E+02 -0.60316437373E+02 -0.29637637060E+02  0.70012321566E+02  0.41800000000E+01 0.  1.
        -11    1    3    3    0    0 -0.29600760932E+02  0.91750481251E+02 -0.50603929184E+02  0.10888118986E+03  0.00000000000E+00 0.  1.
         11    1    3    3    0    0  0.47181563176E+02  0.55446963621E+02 -0.12937798245E+00  0.72804412072E+02  0.00000000000E+00 0. -1.
</event>
<event>
 7    1  0.6684706E-006  0.1389945E+03  0.7561462E-02  0.1214688E+00
         -1   -1    0    0    0  501 -0.00000000000E+00  0.00000000000E+00  0.41812377366E+03  0.41812377366E+03  0.00000000000E+00 0.  1.
          1   -1    0    0  501    0  0.00000000000E+00 -0.00000000000E+00 -0.57717288198E+02  0.57717288198E+02  0.00000000000E+00 0. -1.
         23    2    1    2    0    0  0.17291947574E+02 -0.10510649605E+03  0.20921409974E+03  0.25256475549E+03  0.93123730702E+02 0.  0.
          5    1    1    2  502    0 -0.12989302695E+02  0.12710048296E+03  0.85623870436E+02  0.15385764310E+03  0.41800000000E+01 0. -1.
         -5    1    1    2    0  502 -0.43026448792E+01 -0.21993986905E+02  0.65568515284E+02  0.69418663265E+02  0.41800000000E+01 0. -1.
        -11    1    3    3    0    0 -0.23848441119E+02 -0.67623641043E+02  0.16993683623E+03  0.18444574617E+03  0.00000000000E+00 0.  1.
         11    1    3    3    0    0  0.41140388694E+02 -0.37482855012E+02  0.39277263512E+02  0.68119009320E+02  0.00000000000E+00 0. -1.
</event>
<event>
 7    1  0.6684706E-006  0.1176242E+03  0.7561462E-02  0.1247069E+00
         -2   -1    0    0    0  501 -0.00000000000E+00  0.00000000000E+00  0.18865872189E+03  0.18865872189E+03  0.00000000000E+00 0.  1.
          2   -1    0    0  501    0  0.00000000000E+00 -0.00000000000E+00 -0.90075821486E+02  0.90075821486E+02  0.00000000000E+00 0. -1.
         23    2    1    2    0    0  0.57281844443E+02 -0.39170096500E+02  0.69634476131E+02  0.13278433486E+03  0.89259246895E+02 0.  0.
          5    1    1    2  502    0 -0.26502800159E+02  0.77405585564E+02  0.45834908172E+02  0.93874034215E+02  0.41800000000E+01 0. -1.
         -5    1    1    2    0  502 -0.30779044284E+02 -0.38235489064E+02 -0.16886483899E+02  0.52076174298E+02  0.41800000000E+01 0. -1.
        -11    1    3    3    0    0  0.33704105454E+02 -0.62427067212E+02  0.21078501045E+02  0.74009517304E+02  0.00000000000E+00 0. -1.
         11    1    3    3    0    0  0.23577738989E+02  0.23256970712E+02  0.48555975086E+02  0.58774817559E+02  0.00000000000E+00 0.  1.
</event>
<event>
 7    1  0.6684706E-006  0.1068492E+03  0.7561462E-02  0.1266519E+00
         -1   -1    0    0    0  501 -0.00000000000E+00  0.00000000000E+00  0.68682112768E+02  0.68682112768E+02  0.00000000000E+00 0.  1.
          1   -1    0    0  501    0  0.00000000000E+00 -0.00000000000E+00 -0.23693567245E+03  0.23693567245E+03  0.00000000000E+00 0. -1.
         23    2    1    2    0    0 -0.47018211893E+02  0.32707600139E+02 -0.33855435314E+02  0.11328736985E+03  0.91691538922E+02 0.  0.
          5    1    1    2  502    0  0.76662701488E+02  0.97611345170E+01 -0.11106624577E+03  0.13537220134E+03  0.41800000000E+01 0.  1.
         -5    1    1    2    0  502 -0.29644489595E+02 -0.42468734656E+02 -0.23331878599E+02  0.56958214031E+02  0.41800000000E+01 0.  1.
        -11    1    3    3    0    0 -0.62286798062E+02  0.23885525322E+02  0.86511371542E+01  0.67268162653E+02  0.00000000000E+00 0.  1.
         11    1    3    3    0    0  0.15268586168E+02  0.88220748177E+01 -0.42506572468E+02  0.46019207193E+02  0.00000000000E+00 0. -1.
</event>
<event>
 7    1  0.6684706E-006  0.7386537E+02  0.7561462E-02  0.1347421E+00
          1   -1    0    0  501    0  0.00000000000E+00  0.00000000000E+00  0.84894704812E+02  0.84894704812E+02  0.00000000000E+00 0. -1.
         -1   -1    0    0    0  501 -0.00000000000E+00 -0.00000000000E+00 -0.13910508473E+03  0.13910508473E+03  0.00000000000E+00 0.  1.
         23    2    1    2    0    0  0.61480860015E+01  0.58462692737E+01 -0.12809959826E+02  0.91962386845E+02  0.90669772789E+02 0.  0.
          5    1    1    2  502    0 -0.20276625864E+02  0.25085616496E+02 -0.76414766614E+02  0.83048893238E+02  0.41800000000E+01 0. -1.
         -5    1    1    2    0  502  0.14128539862E+02 -0.30931885770E+02  0.35014346526E+02  0.48988509455E+02  0.41800000000E+01 0. -1.
        -11    1    3    3    0    0 -0.23230492397E+02  0.33387586857E+02 -0.27498877758E+02  0.49097606979E+02  0.00000000000E+00 0.  1.
         11    1    3    3    0    0  0.29378578398E+02 -0.27541317583E+02  0.14688917932E+02  0.42864779866E+02  0.00000000000E+00 0. -1.
</event>
<event>
 7    1  0.6684706E-006  0.1197920E+03  0.7561462E-02  0.1243441E+00
         -2   -1    0    0    0  501 -0.00000000000E+00  0.00000000000E+00  0.14520585733E+03  0.14520585733E+03  0.00000000000E+00 0.  1.
          2   -1    0    0  501    0  0.00000000000E+00 -0.00000000000E+00 -0.26807933619E+03  0.26807933619E+03  0.00000000000E+00 0. -1.
         23    2    1    2    0    0 -0.10795988305E+03  0.48904731454E+02  0.61705111796E+02  0.16080674989E+03  0.89466646759E+02 0.  0.
          5    1    1    2  502    0  0.54460317783E+02 -0.20909582716E+02 -0.27061258734E+00  0.58486600974E+02  0.41800000000E+01 0.  1.
         -5    1    1    2    0  502  0.53499565262E+02 -0.27995148738E+02 -0.18430797807E+03  0.19399184265E+03  0.41800000000E+01 0.  1.
        -11    1    3    3    0    0 -0.66953400233E+02  0.18316583577E+02  0.80509813194E+02  0.10630185820E+03  0.00000000000E+00 0.  1.
         11    1    3    3    0    0 -0.41006482812E+02  0.30588147877E+02 -0.18804701397E+02  0.54504891687E+02  0.00000000000E+00 0. -1.
</event>
<event>
 7    1  0.6684706E-006  0.1125693E+03  0.7561462E-02  0.1255885E+00
         -2   -1    0    0    0  501 -0.00000000000E+00  0.00000000000E+00  0.24279888440E+02  0.24279888440E+02  0.00000000000E+00 0.  1.
          2   -1    0    0  501    0  0.00000000000E+00 -0.00000000000E+00 -0.71234114586E+03  0.71234114586E+03  0.00000000000E+00 0. -1.
         23    2    1    2    0    0  0.36738137676E+02  0.69712845547E+02 -0.24436253346E+03  0.26893816007E+03  0.80031959804E+02 0.  0.
          5    1    1    2  502    0  0.41642652076E+02 -0.44045942977E+01 -0.18123026938E+03  0.18605212674E+03  0.41800000000E+01 0. -1.
         -5    1    1    2    0  502 -0.78380789752E+02 -0.65308251249E+02 -0.26246845458E+03  0.28163074749E+03  0.41800000000E+01 0. -1.
        -11    1    3    3    0    0  0.23320517539E+02  0.24669416136E+02 -0.20453534207E+03  0.20733338560E+03  0.00000000000E+00 0. -1.
         11    1    3    3    0    0  0.13417620137E+02  0.45043429411E+02 -0.39827191391E+02  0.61604774469E+02  0.00000000000E+00 0.  1.
</event>
<event>
 7    1  0.6684706E-006  0.1221556E+03  0.7561462E-02  0.1239583E+00
          3   -1    0    0  501    0  0.00000000000E+00  0.00000000000E+00  0.25616041511E+02  0.25616041511E+02  0.00000000000E+00 0. -1.
         -3   -1    0    0    0  501 -0.00000000000E+00 -0.00000000000E+00 -0.71252095353E+03  0.71252095353E+03  0.00000000000E+00 0.  1.
         23    2    1    2    0    0  0.52228916254E+02  0.53887348290E+02 -0.38671894935E+03  0.40438308481E+03  0.91336890111E+02 0.  0.
          5    1    1    2  502    0 -0.42970515820E+02 -0.84487977388E+02 -0.28017955216E+03  0.29580861617E+03  0.41800000000E+01 0. -1.
         -5    1    1    2    0  502 -0.92584004339E+01  0.30600629098E+02 -0.20006410508E+02  0.37945294058E+02  0.41800000000E+01 0. -1.
        -11    1    3    3    0    0 -0.22129417188E+01 -0.22929520786E+02 -0.99247223048E+02  0.10188557954E+03  0.00000000000E+00 0.  1.
         11    1    3    3    0    0  0.54441857973E+02  0.76816869076E+02 -0.28747172630E+03  0.30249750527E+03  0.00000000000E+00 0. -1.
</event>
<event>
 7    1  0.6684706E-006  0.1447480E+03  0.7561462E-02  0.1207079E+00
         -2   -1    0    0    0  501 -0.00000000000E+00  0.00000000000E+00  0.64320435351E+02  0.64320435351E+02  0.00000000000E+00 0.  1.
          2   -1    0    0  501    0  0.00000000000E+00 -0.00000000000E+00 -0.52705361598E+03  0.52705361598E+03  0.00000000000E+00 0. -1.
         23    2    1    2    0    0  0.20214956757E+02 -0.11169965694E+03 -0.64840155605E+02  0.15911027268E+03  0.90699367460E+02 0.  0.
          5    1    1    2  502    0 -0.54687928155E+02  0.14774721147E+02 -0.21505730065E+03  0.22243240959E+03  0.41800000000E+01 0.  1.
         -5    1    1    2    0  502  0.34472971397E+02  0.96924935792E+02 -0.18283572438E+03  0.20983136907E+03  0.41800000000E+01 0.  1.
        -11    1    3    3    0    0 -0.22858139366E+02 -0.36173427418E+02  0.10504774169E+02  0.44060885906E+02  0.00000000000E+00 0.  1.
         11    1    3    3    0    0  0.43073096123E+02 -0.75526229521E+02 -0.75344929775E+02  0.11504938678E+03  0.00000000000E+00 0. -1.
</event>
<event>
 7    1  0.6684706E-006  0.9686999E+02  0.7561462E-02  0.1287019E+00
          1   -1    0    0  501    0  0.00000000000E+00  0.00000000000E+00  0.91082516135E+02  0.91082516135E+02  0.00000000000E+00 0. -1.
         -1   -1    0    0    0  501 -0.00000000000E+00 -0.00000000000E+00 -0.17774080729E+03  0.17774080729E+03  0.00000000000E+00 0.  1.
         23    2    1    2    0    0 -0.12902025691E+02 -0.19502534949E+02 -0.52191548062E+02  0.85630591522E+02  0.63732482918E+02 0.  0.
          5    1    1    2  502    0  0.19662278182E+01 -0.58158986289E+02  0.43309148349E+02  0.72660088554E+02  0.41800000000E+01 0. -1.
         -5    1    1    2    0  502  0.10935797873E+02  0.77661521238E+02 -0.77775891440E+02  0.11053264335E+03  0.41800000000E+01 0.  1.
        -11    1    3    3    0    0 -0.21266321689E+02 -0.34010748137E+02 -0.11655144340E+02  0.41771160106E+02  0.00000000000E+00 0. -1.
         11    1    3    3    0    0  0.83642959978E+01  0.14508213187E+02 -0.40536403722E+02  0.43859431416E+02  0.00000000000E+00 0.  1.
</event>
<event>
 7    1  0.6684706E-006  0.1371369E+03  0.7561462E-02  0.1217234E+00
          2   -1    0    0  501    0  0.00000000000E+00  0.00000000000E+00  0.21344679795E+03  0.21344679795E+03  0.00000000000E+00 0. -1.
         -2   -1    0    0    0  501 -0.00000000000E+00 -0.00000000000E+00 -0.95167688946E+02  0.95167688946E+02  0.00000000000E+00 0.  1.
         23    2    1    2    0    0  0.46872723826E+02  0.78658654864E+02  0.43648907640E+02  0.13656300737E+03  0.91432989779E+02 0.  0.
          5    1    1    2  502    0  0.32401115823E+02 -0.67144813567E+02  0.32364311869E+02  0.81382918221E+02  0.41800000000E+01 0. -1.
         -5    1    1    2    0  502 -0.79273839649E+02 -0.11513841297E+02  0.42265889495E+02  0.90668561304E+02  0.41800000000E+01 0. -1.
        -11    1    3    3    0    0  0.65985591812E+02  0.42496181483E+02  0.52872061112E+02  0.94633390585E+02  0.00000000000E+00 0. -1.
         11    1    3    3    0    0 -0.19112867986E+02  0.36162473382E+02 -0.92231534725E+01  0.41929616785E+02  0.00000000000E+00 0.  1.
</event>
<event>
 7    1  0.6684706E-006  0.1019879E+03  0.7561462E-02  0.1276170E+00
          2   -1    0    0  501    0  0.00000000000E+00  0.00000000000E+00  0.26378454835E+02  0.26378454835E+02  0.00000000000E+00 0. -1.
         -2   -1    0    0    0  501 -0.00000000000E+00 -0.00000000000E+00 -0.51274673626E+03  0.51274673626E+03  0.00000000000E+00 0.  1.
         23    2    1    2    0    0 -0.21778440395E+02  0.27209877365E+02 -0.26374088300E+03  0.28139485216E+03  0.91701317139E+02 0.  0.
          5    1    1    2  502    0  0.17294237477E+02 -0.77180954433E+02 -0.12742042836E+03  0.15003142451E+03  0.41800000000E+01 0. -1.
         -5    1    1    2    0  502  0.44842029178E+01  0.49971077068E+02 -0.95206970060E+02  0.10769891442E+03  0.41800000000E+01 0. -1.
        -11    1    3    3    0    0  0.23249590316E+02  0.15354783126E+02 -0.22817451978E+02  0.36013177164E+02  0.00000000000E+00 0. -1.
         11    1    3    3    0    0 -0.45028030711E+02  0.11855094239E+02 -0.24092343102E+03  0.24538167500E+03  0.00000000000E+00 0.  1.
</event>
<event>
 7    1  0.6684706E-006  0.2398135E+03  0.7561462E-02  0.1119917E+00
          1   -1    0    0  501    0  0.00000000000E+00  0.00000000000E+00  0.91757152337E+03  0.91757152337E+03  0.00000000000E+00 0.  1.
         -1   -1    0    0    0  501 -0.00000000000E+00 -0.00000000000E+00 -0.88905207037E+02  0.88905207037E+02  0.00000000000E+00 0. -1.
         23    2    1    2    0    0  0.88500192048E+01  0.23015716873E+03  0.63296315260E+03  0.67937197485E+03  0.88618748025E+02 0.  0.
          5    1    1    2  502    0  0.13117674475E+02 -0.30521527805E+02 -0.14374552780E+02  0.36438128530E+02  0.41800000000E+01 0.  1.
         -5    1    1    2    0  502 -0.21967693679E+02 -0.19963564092E+03  0.21007771651E+03  0.29066662703E+03  0.41800000000E+01 0.  1.
        -11    1    3    3    0    0 -0.37412829641E+02  0.12243662671E+03  0.29253612561E+03  0.31932402379E+03  0.00000000000E+00 0.  1.
         11    1    3    3    0    0  0.46262848846E+02  0.10772054202E+03  0.34042702699E+03  0.36004795106E+03  0.00000000000E+00 0. -1.
</event>
<event>
 7    1  0.6684706E-006  0.1243392E+03  0.7561462E-02  0.1236106E+00
         -2   -1    0    0    0  501 -0.00000000000E+00  0.00000000000E+00  0.89501666832E+02  0.89501666832E+02  0.00000000000E+00 0.  1.
          2   -1    0    0  501    0  0.00000000000E+00 -0.00000000000E+00 -0.25237707611E+03  0.25237707611E+03  0.00000000000E+00 0. -1.
         23    2    1    2    0    0  0.47590555758E+02 -0.68586203989E+02 -0.74997325370E+01  0.12564465795E+03  0.93602380895E+02 0.  0.
          5    1    1    2  502    0 -0.55421721229E+02 -0.41221999195E+01 -0.12514282113E+03  0.13699181654E+03  0.41800000000E+01 0.  1.
         -5    1    1    2    0  502  0.78311654709E+01  0.72708403909E+02 -0.30232855608E+02  0.79242268454E+02  0.41800000000E+01 0.  1.
        -11    1    3    3    0    0 -0.18234177528E+02  0.69424311867E+01  0.12915578709E+02  0.23398605820E+02  0.00000000000E+00 0.  1.
         11    1    3    3    0    0  0.65824733287E+02 -0.75528635176E+02 -0.20415311246E+02  0.10224605213E+03  0.00000000000E+00 0. -1.
</event>
<event>
 7    1  0.6684706E-006  0.1549332E+03  0.7561462E-02  0.1194539E+00
         -2   -1    0    0    0  501 -0.00000000000E+00  0.00000000000E+00  0.67237964448E+02  0.67237964448E+02  0.00000000000E+00 0. -1.
          2   -1    0    0  501    0  0.00000000000E+00 -0.00000000000E+00 -0.41184381463E+03  0.41184381463E+03  0.00000000000E+00 0.  1.
         23    2    1    2    0    0 -0.10261892352E+03 -0.67433090788E+02 -0.19901389809E+03  0.25121669703E+03  0.91790152178E+02 0.  0.
          5    1    1    2  502    0  0.88799220067E+01 -0.33317064977E+02 -0.47383304648E+02  0.58749721640E+02  0.41800000000E+01 0. -1.
         -5    1    1    2    0  502  0.93739001515E+02  0.10075015576E+03 -0.98208647437E+02  0.16911536040E+03  0.41800000000E+01 0. -1.
        -11    1    3    3    0    0 -0.50033547358E+02 -0.68540133471E+02 -0.63904091702E+02  0.10623012141E+03  0.00000000000E+00 0. -1.
         11    1    3    3    0    0 -0.52585376164E+02  0.11070426833E+01 -0.13510980639E+03  0.14498657563E+03  0.00000000000E+00 0.  1.
</event>
<event>
 7    1  0.6684706E-006  0.1232894E+03  0.7561462E-02  0.1237767E+00
         -2   -1    0    0    0  501 -0.00000000000E+00  0.00000000000E+00  0.83529568356E+02  0.83529568356E+02  0.00000000000E+00 0. -1.
          2   -1    0    0  501    0  0.00000000000E+00 -0.00000000000E+00 -0.30413676358E+03  0.30413676358E+03  0.00000000000E+00 0.  1.
         23    2    1    2    0    0  0.62029295300E+01  0.87464863340E+02 -0.65595292085E+01  0.12469940977E+03  0.88421358962E+02 0.  0.
          5    1    1    2  502    0  0.58550051218E+02 -0.30681093165E+02 -0.10120344961E+03  0.12095060392E+03  0.41800000000E+01 0.  1.
         -5    1    1    2    0  502 -0.64752980748E+02 -0.56783770175E+02 -0.11284421641E+03  0.14201631825E+03  0.41800000000E+01 0.  1.
        -11    1    3    3    0    0  0.98939093523E+01  0.41596313493E+01  0.31323040477E+02  0.33110796426E+02  0.00000000000E+00 0. -1.
         11    1    3    3    0    0 -0.36909798223E+01  0.83305231991E+02 -0.37882569685E+02  0.91588613348E+02  0.00000000000E+00 0.  1.
</event>
<event>
 7    1  0.6684706E-006  0.1000311E+03  0.7561462E-02  0.1280230E+00
         -4   -1    0    0    0  501 -0.00000000000E+00  0.00000000000E+00  0.39331791582E+02  0.39331791582E+02  0.00000000000E+00 0.  1.
          4   -1    0    0  501    0  0.00000000000E+00 -0.00000000000E+00 -0.34120241022E+03  0.34120241022E+03  0.00000000000E+00 0. -1.
         23    2    1    2    0    0 -0.38438151755E+02  0.14903057773E+02 -0.14038061173E+03  0.17214239352E+03  0.90701129305E+02 0.  0.
          5    1    1    2  502    0 -0.40294286492E+02  0.15173731428E+02 -0.31900680815E+02  0.53749395214E+02  0.41800000000E+01 0.  1.
         -5    1    1    2    0  502  0.78732438248E+02 -0.30076789201E+02 -0.12958932610E+03  0.15464241307E+03  0.41800000000E+01 0.  1.
        -11    1    3    3    0    0 -0.53251219832E+02  0.19804956760E+02 -0.14511194961E+03  0.15583775744E+03  0.00000000000E+00 0. -1.
         11    1    3    3    0    0  0.14813068077E+02 -0.49018989867E+01  0.47313378811E+01  0.16304636079E+02  0.00000000000E+00 0.  1.
</event>
<event>
 7    1  0.6684706E-006  0.2253705E+03  0.7561462E-02  0.1129941E+00
          1   -1    0    0  501    0  0.00000000000E+00  0.00000000000E+00  0.90312036447E+03  0.90312036447E+03  0.00000000000E+00 0. -1.
         -1   -1    0    0    0  501 -0.00000000000E+00 -0.00000000000E+00 -0.61197739153E+02  0.61197739153E+02  0.00000000000E+00 0.  1.
         23    2    1    2    0    0 -0.17210953194E+03 -0.11590031732E+03  0.43736949378E+03  0.49276153194E+03  0.92017817464E+02 0.  0.
          5    1    1    2  502    0  0.17312420463E+03  0.12800626219E+03  0.31800577422E+03  0.38406085224E+03  0.41800000000E+01 0.  1.
         -5    1    1    2    0  502 -0.10146726907E+01 -0.12105944870E+02  0.86547357325E+02  0.87495719449E+02  0.41800000000E+01 0.  1.
        -11    1    3    3    0    0 -0.17184361579E+03 -0.85131456746E+02  0.33658888452E+03  0.38738826828E+03  0.00000000000E+00 0.  1.
         11    1    3    3    0    0 -0.26591614954E+00 -0.30768860570E+02  0.10078060925E+03  0.10537326366E+03  0.00000000000E+00 0. -1.
</event>
<event>
 7    1  0.6684706E-006  0.1063607E+03  0.7561462E-02  0.1267462E+00
          2   -1    0    0  501    0  0.00000000000E+00  0.00000000000E+00  0.12093462245E+03  0.12093462245E+03  0.00000000000E+00 0. -1.
         -2   -1    0    0    0  501 -0.00000000000E+00 -0.00000000000E+00 -0.10972983819E+03  0.10972983819E+03  0.00000000000E+00 0.  1.
         23    2    1    2    0    0 -0.19941258709E+02  0.76808847316E+01 -0.30036691210E+02  0.97228203995E+02  0.89969278334E+02 0.  0.
          5    1    1    2  502    0 -0.50784918061E+02  0.55104444477E+01  0.18072676720E+01  0.51285587809E+02  0.41800000000E+01 0.  1.
         -5    1    1    2    0  502  0.70726176770E+02 -0.13191329179E+02  0.39434207802E+02  0.82150668840E+02  0.41800000000E+01 0.  1.
        -11    1    3    3    0    0 -0.45137415029E+02 -0.22210878158E+02 -0.44444068204E+01  0.50502099917E+02  0.00000000000E+00 0.  1.
         11    1    3    3    0    0  0.25196156320E+02  0.29891762889E+02 -0.25592284390E+02  0.46726104077E+02  0.00000000000E+00 0. -1.
</event>
<event>
 7    1  0.6684706E-006  0.9659866E+02  0.7561462E-02  0.1287616E+00
         -1   -1    0    0    0  501 -0.00000000000E+00  0.00000000000E+00  0.80695017894E+02  0.80695017894E+02  0.00000000000E+00 0.  1.
          1   -1    0    0  501    0  0.00000000000E+00 -0.00000000000E+00 -0.15576767625E+03  0.15576767625E+03  0.00000000000E+00 0. -1.
         23    2    1    2    0    0  0.16658370510E+02  0.42538692737E+02 -0.24032054889E+02  0.10569486374E+03  0.92232439364E+02 0.  0.
          5    1    1    2  502    0  0.29936899348E+02 -0.30516875752E+02 -0.67268452358E+02  0.79812372042E+02  0.41800000000E+01 0. -1.
         -5    1    1    2    0  502 -0.46595269857E+02 -0.12021816985E+02  0.16227848896E+02  0.50955458358E+02  0.41800000000E+01 0.  1.
        -11    1    3    3    0    0  0.33056503446E+02  0.65709274780E+02 -0.23791497409E+02  0.77307674659E+02  0.00000000000E+00 0. -1.
         11    1    3    3    0    0 -0.16398132936E+02 -0.23170582043E+02 -0.24055748061E+00  0.28387189081E+02  0.00000000000E+00 0.  1.
</event>
<event>
 7    1  0.6684706E-006  0.1030798E+03  0.7561462E-02  0.1273950E+00
         -2   -1    0    0    0  501 -0.00000000000E+00  0.00000000000E+00  0.32070311312E+02  0.32070311312E+02  0.00000000000E+00 0.  1.
          2   -1    0    0  501    0  0.00000000000E+00 -0.00000000000E+00 -0.41999903666E+03  0.41999903666E+03  0.00000000000E+00 0. -1.
         23    2    1    2    0    0  0.29095281543E+02  0.26376175038E+02 -0.17338813175E+03  0.20063762996E+03  0.93004173595E+02 0.  0.
          5    1    1    2  502    0 -0.68336946397E+02  0.16491692412E+02 -0.14097950432E+03  0.15758999715E+03  0.41800000000E+01 0. -1.
         -5    1    1    2    0  502  0.39241664854E+02 -0.42867867450E+02 -0.73561089282E+02  0.93841720874E+02  0.41800000000E+01 0. -1.
        -11    1    3    3    0    0  0.24423037066E+02  0.48796794355E+02 -0.16863967299E+03  0.17724827555E+03  0.00000000000E+00 0. -1.
         11    1    3    3    0    0  0.46722444776E+01 -0.22420619317E+02 -0.47484587556E+01  0.23389354407E+02  0.00000000000E+00 0.  1.
</event>
<event>
 7    1  0.6684706E-006  0.1248865E+03  0.7561462E-02  0.1235247E+00
         -2   -1    0    0    0  501 -0.00000000000E+00  0.00000000000E+00  0.15646400695E+02  0.15646400695E+02  0.00000000000E+00 0. -1.
          2   -1    0    0  501    0  0.00000000000E+00 -0.00000000000E+00 -0.10836991233E+04  0.10836991233E+04  0.00000000000E+00 0.  1.
         23    2    1    2    0    0  0.62637553418E+02 -0.35708468002E+02 -0.40970254923E+03  0.42534931347E+03  0.88697811891E+02 0.  0.
          5    1    1    2  502    0  0.22809953083E+02  0.50500220803E+02 -0.31337880555E+03  0.31826767733E+03  0.41800000000E+01 0.  1.
         -5    1    1    2    0  502 -0.85447506501E+02 -0.14791752801E+02 -0.34497136781E+03  0.35572853320E+03  0.41800000000E+01 0.  1.
        -11    1    3    3    0    0  0.72881327325E+02 -0.28187324926E+01 -0.33827864805E+03  0.34605213025E+03  0.00000000000E+00 0.  1.
         11    1    3    3    0    0 -0.10243773906E+02 -0.32889735509E+02 -0.71423901179E+02  0.79297183212E+02  0.00000000000E+00 0. -1.
</event>
<event>
 7    1  0.6684706E-006  0.1115299E+03  0.7561462E-02  0.1257763E+00
          2   -1    0    0  501    0  0.00000000000E+00  0.00000000000E+00  0.41347908805E+03  0.41347908805E+03  0.00000000000E+00 0. -1.
         -2   -1    0    0    0  501 -0.00000000000E+00 -0.00000000000E+00 -0.30631988435E+02  0.30631988435E+02  0.00000000000E+00 0.  1.
         23    2    1    2    0    0 -0.26325039157E+02 -0.14356295212E+02  0.14557143798E+03  0.17421321246E+03  0.90885031447E+02 0.  0.
          5    1    1    2  502    0  0.15763851360E+02 -0.54856002380E+02  0.88094971758E+02  0.10505177988E+03  0.41800000000E+01 0. -1.
         -5    1    1    2    0  502  0.10561187797E+02  0.69212297592E+02  0.14918068988E+03  0.16484608415E+03  0.41800000000E+01 0. -1.
        -11    1    3    3    0    0 -0.43361004146E+02  0.26920812982E+02  0.76326903945E+02  0.91818860361E+02  0.00000000000E+00 0.  1.
         11    1    3    3    0    0  0.17035964989E+02 -0.41277108194E+02  0.69244534031E+02  0.82394352096E+02  0.00000000000E+00 0. -1.
</event>
<event>
 7    1  0.6684706E-006  0.1984449E+03  0.7561462E-02  0.1151058E+00
          2   -1    0    0  501    0  0.00000000000E+00  0.00000000000E+00  0.13564457748E+04  0.13564457748E+04  0.00000000000E+00 0. -1.
         -2   -1    0    0    0  501 -0.00000000000E+00 -0.00000000000E+00 -0.39844625166E+02  0.39844625166E+02  0.00000000000E+00 0.  1.
         23    2    1    2    0    0 -0.14836519250E+03 -0.99528329336E+02  0.33595979371E+03  0.39168969963E+03  0.92917808418E+02 0.  0.
          5    1    1    2  502    0 -0.36430809347E+01 -0.22302511509E+02  0.11954765137E+03  0.12173654918E+03  0.41800000000E+01 0.  1.
         -5    1    1    2    0  502  0.15200827343E+03  0.12183084085E+03  0.86109370454E+03  0.88286415115E+03  0.41800000000E+01 0.  1.
        -11    1    3    3    0    0 -0.66900824606E+02 -0.37738785414E+02  0.60219764386E+02  0.97603054666E+02  0.00000000000E+00 0.  1.
         11    1    3    3    0    0 -0.81464367891E+02 -0.61789543922E+02  0.27574002933E+03  0.29408664497E+03  0.00000000000E+00 0. -1.
</event>
<event>
 7    1  0.6684706E-006  0.1088010E+03  0.7561462E-02  0.1262806E+00
         -1   -1    0    0    0  501 -0.00000000000E+00  0.00000000000E+00  0.53321723889E+02  0.53321723889E+02  0.00000000000E+00 0.  1.
          1   -1    0    0  501    0  0.00000000000E+00 -0.00000000000E+00 -0.36104717257E+03  0.36104717257E+03  0.00000000000E+00 0. -1.
         23    2    1    2    0    0 -0.65882038575E+02  0.24570045173E+02 -0.69120239262E+02  0.13593861927E+03  0.93581892520E+02 0.  0.
          5    1    1    2  502    0 -0.10346877197E+02  0.12077599442E+02  0.75656393288E+01  0.18100761709E+02  0.41800000000E+01 0. -1.
         -5    1    1    2    0  502  0.76228915772E+02 -0.36647644615E+02 -0.24617084874E+03  0.26032951547E+03  0.41800000000E+01 0. -1.
        -11    1    3    3    0    0 -0.89758392285E+02  0.16438376423E+02 -0.48378492707E+02  0.10328246590E+03  0.00000000000E+00 0.  1.
         11    1    3    3    0    0  0.23876353711E+02  0.81316687498E+01 -0.20741746555E+02  0.32656153376E+02  0.00000000000E+00 0. -1.
</event>
<event>
 7    1  0.6684706E-006  0.9515259E+02  0.7561462E-02  0.1290833E+00
          1   -1    0    0  501    0  0.00000000000E+00  0.00000000000E+00  0.61933066876E+03  0.61933066876E+03  0.00000000000E+00 0. -1.
         -1   -1    0    0    0  501 -0.00000000000E+00 -0.00000000000E+00 -0.30013661345E+02  0.30013661345E+02  0.00000000000E+00 0.  1.
         23    2    1    2    0    0 -0.15399458865E+02  0.25712903326E+02  0.92117546297E+02  0.13577572520E+03  0.95137313845E+02 0.  0.
          5    1    1    2  502    0 -0.43207107142E+02  0.25201973006E+02  0.22154450176E+03  0.22715948629E+03  0.41800000000E+01 0.  1.
         -5    1    1    2    0  502  0.58606566006E+02 -0.50914876332E+02  0.27565495936E+03  0.28640911862E+03  0.41800000000E+01 0.  1.
        -11    1    3    3    0    0 -0.15611054099E+02  0.42654467208E+02  0.10505788268E+03  0.11445639910E+03  0.00000000000E+00 0. -1.
         11    1    3    3    0    0  0.21159523474E+00 -0.16941563882E+02 -0.12940336381E+02  0.21319326091E+02  0.00000000000E+00 0.  1.
</event>
<event>
 7    1  0.6684706E-006  0.1261314E+03  0.7561462E-02  0.1233312E+00
          1   -1    0    0  501    0  0.00000000000E+00  0.00000000000E+00  0.12372007810E+04  0.12372007810E+04  0.00000000000E+00 0. -1.
         -1   -1    0    0    0  501 -0.00000000000E+00 -0.00000000000E+00 -0.15589542650E+02  0.15589542650E+02  0.00000000000E+00 0.  1.
         23    2    1    2    0    0 -0.63039009294E+02 -0.57392490630E+02  0.51015513453E+03  0.52540856040E+03  0.92347600871E+02 0.  0.
          5    1    1    2  502    0  0.65944802825E+02 -0.72216878123E+01  0.54014399622E+03  0.54421859472E+03  0.41800000000E+01 0. -1.
         -5    1    1    2    0  502 -0.29057935311E+01  0.64614178442E+02  0.17131210764E+03  0.18316316856E+03  0.41800000000E+01 0. -1.
        -11    1    3    3    0    0  0.10071865712E+02 -0.45872051605E+02  0.13270526040E+03  0.14077064231E+03  0.00000000000E+00 0.  1.
         11    1    3    3    0    0 -0.73110875006E+02 -0.11520439025E+02  0.37744987413E+03  0.38463791810E+03  0.00000000000E+00 0. -1.
</event>
<event>
 7    1  0.6684706E-006  0.1237347E+03  0.7561462E-02  0.1237060E+00
          2   -1    0    0  501    0  0.00000000000E+00  0.00000000000E+00  0.18872012327E+04  0.18872012327E+04  0.00000000000E+00 0.  1.
         -2   -1    0    0    0  501 -0.00000000000E+00 -0.00000000000E+00 -0.15161035616E+02  0.15161035616E+02  0.00000000000E+00 0. -1.
         23    2    1    2    0    0  0.56980698006E+02 -0.46323133636E+02  0.27616206507E+03  0.29990593425E+03  0.91024450353E+02 0.  0.
          5    1    1    2  502    0 -0.83249271908E+02 -0.31610800814E+01  0.11559201870E+04  0.11589259618E+04  0.41800000000E+01 0. -1.
         -5    1    1    2    0  502  0.26268573903E+02  0.49484213717E+02  0.43995794496E+03  0.44353037226E+03  0.41800000000E+01 0. -1.
        -11    1    3    3    0    0  0.59824053884E+02 -0.65372881029E+02  0.26024879251E+03  0.27492174341E+03  0.00000000000E+00 0.  1.
         11    1    3    3    0    0 -0.28433558783E+01  0.19049747393E+02  0.15913272552E+02  0.24984190836E+02  0.00000000000E+00 0. -1.
</event>
<event>
 7    1  0.6684706E-006  0.1138007E+03  0.7561462E-02  0.1253689E+00
          4   -1    0    0  501    0  0.00000000000E+00  0.00000000000E+00  0.11532803864E+04  0.11532803864E+04  0.00000000000E+00 0. -1.
         -4   -1    0    0    0  501 -0.00000000000E+00 -0.00000000000E+00 -0.11729878469E+02  0.11729878469E+02  0.00000000000E+00 0.  1.
         23    2    1    2    0    0 -0.33000683690E+01  0.30969961713E+02  0.43607435172E+03  0.44785403461E+03  0.97171843163E+02 0.  0.
          5    1    1    2  502    0 -0.51323147230E+02  0.18631765356E+02  0.32220413769E+03  0.32682439760E+03  0.41800000000E+01 0.  1.
         -5    1    1    2    0  502  0.54623215599E+02 -0.49601727068E+02  0.38327201850E+03  0.39033183264E+03  0.41800000000E+01 0.  1.
        -11    1    3    3    0    0  0.36524935003E+02  0.43862963206E+02  0.19538779630E+03  0.20355446780E+03  0.00000000000E+00 0.  1.
         11    1    3    3    0    0 -0.39825003372E+02 -0.12893001494E+02  0.24068655543E+03  0.24429956681E+03  0.00000000000E+00 0. -1.
</event>
<event>
 7    1  0.6684706E-006  0.1879154E+03  0.7561462E-02  0.1160355E+00
         -3   -1    0    0    0  501 -0.00000000000E+00  0.00000000000E+00  0.15780967592E+03  0.15780967592E+03  0.00000000000E+00 0.  1.
          3   -1    0    0  501    0  0.00000000000E+00 -0.00000000000E+00 -0.40544659424E+03  0.40544659424E+03  0.00000000000E+00 0. -1.
         23    2    1    2    0    0 -0.11279051258E+03  0.10795548091E+03  0.64485589302E+02  0.19251962309E+03  0.92354363507E+02 0.  0.
          5    1    1    2  502    0  0.13166713131E+03 -0.53812666329E+02 -0.23086340467E+03  0.27119627678E+03  0.41800000000E+01 0. -1.
         -5    1    1    2    0  502 -0.18876618725E+02 -0.54142814581E+02 -0.81259102954E+02  0.99540370293E+02  0.41800000000E+01 0. -1.
        -11    1    3    3    0    0 -0.93771875980E+02  0.34109385069E+02  0.59331481475E+02  0.11608979098E+03  0.00000000000E+00 0.  1.
         11    1    3    3    0    0 -0.19018636603E+02  0.73846095840E+02  0.51541078267E+01  0.76429832111E+02  0.00000000000E+00 0. -1.
</event>
<event>
 7    1  0.6684706E-006  0.1166552E+03  0.7561462E-02  0.1248719E+00
          1   -1    0    0  501    0  0.00000000000E+00  0.00000000000E+00  0.35347869523E+03  0.35347869523E+03  0.00000000000E+00 0. -1.
         -1   -1    0    0    0  501 -0.00000000000E+00 -0.00000000000E+00 -0.78472462356E+02  0.78472462356E+02  0.00000000000E+00 0.  1.
         23    2    1    2    0    0  0.47410542706E+02 -0.10574474093E+03  0.63847236551E+02  0.16053922334E+03  0.90921190168E+02 0.  0.
          5    1    1    2  502    0 -0.94379264944E+01  0.23722658462E+02 -0.13525077382E+02  0.29193134453E+02  0.41800000000E+01 0. -1.
         -5    1    1    2    0  502 -0.37972616212E+02  0.82022082471E+02  0.22468407370E+03  0.24221879979E+03  0.41800000000E+01 0. -1.
        -11    1    3    3    0    0  0.21374470323E+02 -0.29796453295E+02 -0.22188855180E+02  0.42860726834E+02  0.00000000000E+00 0.  1.
         11    1    3    3    0    0  0.26036072383E+02 -0.75948287638E+02  0.86036091730E+02  0.11767849651E+03  0.00000000000E+00 0. -1.
</event>
<event>
 7    1  0.6684706E-006  0.1651532E+03  0.7561462E-02  0.1182999E+00
          2   -1    0    0  501    0  0.00000000000E+00  0.00000000000E+00  0.76629152960E+03  0.76629152960E+03  0.00000000000E+00 0. -1.
         -2   -1    0    0    0  501 -0.00000000000E+00 -0.00000000000E+00 -0.41728155480E+02  0.41728155480E+02  0.00000000000E+00 0.  1.
         23    2    1    2    0    0  0.58558532905E+02  0.11519845527E+03  0.20849596702E+03  0.26151075395E+03  0.90650539410E+02 0.  0.
          5    1    1    2  502    0  0.25950868347E+02  0.45135984937E+01  0.37675108738E+02  0.46159574930E+02  0.41800000000E+01 0. -1.
         -5    1    1    2    0  502 -0.84509401252E+02 -0.11971205376E+03  0.47839229836E+03  0.50034935620E+03  0.41800000000E+01 0. -1.
        -11    1    3    3    0    0 -0.31639891471E+01  0.90507381409E+02  0.10698541756E+03  0.14016945633E+03  0.00000000000E+00 0.  1.
         11    1    3    3    0    0  0.61722522052E+02  0.24691073861E+02  0.10151054946E+03  0.12134129762E+03  0.00000000000E+00 0. -1.
</event>
<event>
 7    1  0.6684706E-006  0.1250556E+03  0.7561462E-02  0.1234982E+00
          2   -1    0    0  501    0  0.00000000000E+00  0.00000000000E+00  0.41529235288E+03  0.41529235288E+03  0.00000000000E+00 0.  1.
         -2   -1    0    0    0  501 -0.00000000000E+00 -0.00000000000E+00 -0.57005839959E+02  0.57005839959E+02  0.00000000000E+00 0. -1.
         23    2    1    2    0    0 -0.10795065437E+03  0.18030794134E+00  0.13410409139E+03  0.19380305752E+03  0.89007536131E+02 0.  0.
          5    1    1    2  502    0  0.10715183150E+03  0.20820032810E+02  0.23139794217E+03  0.25588565572E+03  0.41800000000E+01 0. -1.
         -5    1    1    2    0  502  0.79882286881E+00 -0.21000340751E+02 -0.72155206422E+01  0.22609479600E+02  0.41800000000E+01 0. -1.
        -11    1    3    3    0    0 -0.90482066505E+02 -0.20093934582E+02  0.49518744808E+02  0.10508509244E+03  0.00000000000E+00 0. -1.
         11    1    3    3    0    0 -0.17468587861E+02  0.20274242523E+02  0.84585346578E+02  0.88717965078E+02  0.00000000000E+00 0.  1.
</event>
<event>
 7    1  0.6684706E-006  0.1012778E+03  0.7561462E-02  0.1277632E+00
         -1   -1    0    0    0  501 -0.00000000000E+00  0.00000000000E+00  0.77030652653E+02  0.77030652653E+02  0.00000000000E+00 0.  1.
          1   -1    0    0  501    0  0.00000000000E+00 -0.00000000000E+00 -0.19466275967E+03  0.19466275967E+03  0.00000000000E+00 0. -1.
         23    2    1    2    0    0 -0.45253069133E+02 -0.36589911576E+01 -0.14322514126E+02  0.10322119168E+03  0.91587398253E+02 0.  0.
          5    1    1    2  502    0 -0.13804977452E+02 -0.43836173525E+02 -0.83366739215E+01  0.46895202780E+02  0.41800000000E+01 0.  1.
         -5    1    1    2    0  502  0.59058046585E+02  0.47495164682E+02 -0.94972918970E+02  0.12157701786E+03  0.41800000000E+01 0.  1.
        -11    1    3    3    0    0 -0.32616423380E+02  0.30146968162E+02 -0.39320076492E+02  0.59318961377E+02  0.00000000000E+00 0. -1.
         11    1    3    3    0    0 -0.12636645753E+02 -0.33805959320E+02  0.24997562366E+02  0.43902230304E+02  0.00000000000E+00 0.  1.
</event>
<event>
 7    1  0.6684706E-006  0.1170007E+03  0.7561462E-02  0.1248129E+00
          1   -1    0    0  501    0  0.00000000000E+00  0.00000000000E+00  0.63186531751E+03  0.63186531751E+03  0.00000000000E+00 0. -1.
         -1   -1    0    0    0  501 -0.00000000000E+00 -0.00000000000E+00 -0.25678097793E+02  0.25678097793E+02  0.00000000000E+00 0.  1.
         23    2    1    2    0    0  0.58434781956E+01  0.43428488621E+02  0.15050873163E+03  0.18187575013E+03  0.92226516398E+02 0.  0.
          5    1    1    2  502    0  0.38148903223E+02  0.31108978597E+02  0.18307802023E+03  0.18962632005E+03  0.41800000000E+01 0. -1.
         -5    1    1    2    0  502 -0.43992381418E+02 -0.74537467218E+02  0.27260046786E+03  0.28604134512E+03  0.41800000000E+01 0.  1.
        -11    1    3    3    0    0  0.46012753339E+02  0.13816440175E+02  0.99628297026E+02  0.11060680385E+03  0.00000000000E+00 0. -1.
         11    1    3    3    0    0 -0.40169275144E+02  0.29612048446E+02  0.50880434609E+02  0.71268946286E+02  0.00000000000E+00 0.  1.
</event>
<event>
 7    1  0.6684706E-006  0.9196021E+02  0.7561462E-02  0.1298173E+00
         -4   -1    0    0    0  501 -0.00000000000E+00  0.00000000000E+00  0.44189775437E+02  0.44189775437E+02  0.00000000000E+00 0.  1.
          4   -1    0    0  501    0  0.00000000000E+00 -0.00000000000E+00 -0.45093796479E+03  0.45093796479E+03  0.00000000000E+00 0. -1.
         23    2    1    2    0    0 -0.47179081122E+02 -0.75792963448E+02 -0.16557175617E+03  0.20914839753E+03  0.91425416286E+02 0.  0.
          5    1    1    2  502    0  0.43528100704E+02  0.43282217954E+02 -0.23568412531E+02  0.65886177694E+02  0.41800000000E+01 0.  1.
         -5    1    1    2    0  502  0.36509804180E+01  0.32510745494E+02 -0.21760802065E+03  0.22009316500E+03  0.41800000000E+01 0.  1.
        -11    1    3    3    0    0 -0.22181468785E+02 -0.31029916324E+02 -0.15115038176E+03  0.15588877821E+03  0.00000000000E+00 0. -1.
         11    1    3    3    0    0 -0.24997612337E+02 -0.44763047124E+02 -0.14421374413E+02  0.53259619322E+02  0.00000000000E+00 0.  1.
</event>
<event>
 7    1  0.6684706E-006  0.9711982E+02  0.7561462E-02  0.1286472E+00
          2   -1    0    0  501    0  0.00000000000E+00  0.00000000000E+00  0.18740545999E+03  0.18740545999E+03  0.00000000000E+00 0. -1.
         -2   -1    0    0    0  501 -0.00000000000E+00 -0.00000000000E+00 -0.99302587210E+02  0.99302587210E+02  0.00000000000E+00 0.  1.
         23    2    1    2    0    0  0.65967223563E+01 -0.59797719332E+02 -0.19150273868E+02  0.11129535713E+03  0.91655002839E+02 0.  0.
          5    1    1    2  502    0 -0.34686034312E+02 -0.19158329305E+02  0.76114820761E+02  0.85913333643E+02  0.41800000000E+01 0. -1.
         -5    1    1    2    0  502  0.28089311956E+02  0.78956048637E+02  0.31138325884E+02  0.89499356430E+02  0.41800000000E+01 0. -1.
        -11    1    3    3    0    0  0.21891922364E+02 -0.32269307268E+02 -0.52518984307E+02  0.65412599467E+02  0.00000000000E+00 0.  1.
         11    1    3    3    0    0 -0.15295200008E+02 -0.27528412064E+02  0.33368710439E+02  0.45882757659E+02  0.00000000000E+00 0. -1.
</event>
<event>
 7    1  0.6684706E-006  0.1541671E+03  0.7561462E-02  0.1195444E+00
         -1   -1    0    0    0  501 -0.00000000000E+00  0.00000000000E+00  0.11666783064E+03  0.11666783064E+03  0.00000000000E+00 0.  1.
          1   -1    0    0  501    0  0.00000000000E+00 -0.00000000000E+00 -0.46671751749E+03  0.46671751749E+03  0.00000000000E+00 0. -1.
         23    2    1    2    0    0  0.11674730322E+02 -0.12393136499E+03  0.39571885579E+02  0.15566265168E+03  0.84673752982E+02 0.  0.
          5    1    1    2  502    0  0.37500113531E+02  0.99345074088E+02 -0.32918763462E+03  0.34591570281E+03  0.41800000000E+01 0.  1.
         -5    1    1    2    0  502 -0.49174843853E+02  0.24586290905E+02 -0.60433937806E+02  0.81806993632E+02  0.41800000000E+01 0.  1.
        -11    1    3    3    0    0 -0.30137948263E+02 -0.83465275681E+02  0.40319816798E+02  0.97470179012E+02  0.00000000000E+00 0.  1.
         11    1    3    3    0    0  0.41812678585E+02 -0.40466089312E+02 -0.74793121902E+00  0.58192472673E+02  0.00000000000E+00 0. -1.
</event>
<event>
 7    1  0.6684706E-006  0.1003964E+03  0.7561462E-02  0.1279465E+00
         -2   -1    0    0    0  501 -0.00000000000E+00  0.00000000000E+00  0.22071975781E+02  0.22071975781E+02  0.00000000000E+00 0.  1.
          2   -1    0    0  501    0  0.00000000000E+00 -0.00000000000E+00 -0.80118774963E+03  0.80118774963E+03  0.00000000000E+00 0. -1.
         23    2    1    2    0    0 -0.29034488450E+01  0.57820941944E+02 -0.19388704644E+03  0.22201756395E+03  0.91366955642E+02 0.  0.
          5    1    1    2  502    0  0.37998404032E+02 -0.83744156442E+02 -0.44075864852E+03  0.45026949829E+03  0.41800000000E+01 0.  1.
         -5    1    1    2    0  502 -0.35094955188E+02  0.25923214498E+02 -0.14447007888E+03  0.15097266316E+03  0.41800000000E+01 0.  1.
        -11    1    3    3    0    0 -0.14689425127E+02  0.45683396955E+02 -0.19871247231E+03  0.20442455483E+03  0.00000000000E+00 0. -1.
         11    1    3    3    0    0  0.11785976282E+02  0.12137544989E+02  0.48254258621E+01  0.17593009124E+02  0.00000000000E+00 0.  1.
</event>
<event>
 7    1  0.6684706E-006  0.1075959E+03  0.7561462E-02  0.1265088E+00
          2   -1    0    0  501    0  0.00000000000E+00  0.00000000000E+00  0.59002300233E+03  0.59002300233E+03  0.00000000000E+00 0. -1.
         -2   -1    0    0    0  501 -0.00000000000E+00 -0.00000000000E+00 -0.21044264718E+02  0.21044264718E+02  0.00000000000E+00 0.  1.
         23    2    1    2    0    0 -0.11834321049E+02 -0.12778311009E+02  0.19939387962E+03  0.22049868718E+03  0.92511704281E+02 0.  0.
          5    1    1    2  502    0 -0.51376522793E+02 -0.18210866619E+02  0.18737838215E+03  0.19519045380E+03  0.41800000000E+01 0. -1.
         -5    1    1    2    0  502  0.63210843841E+02  0.30989177628E+02  0.18220647585E+03  0.19537812608E+03  0.41800000000E+01 0. -1.
        -11    1    3    3    0    0  0.18958283381E+02  0.31083852696E+02  0.50521271667E+02  0.62273760911E+02  0.00000000000E+00 0.  1.
         11    1    3    3    0    0 -0.30792604430E+02 -0.43862163705E+02  0.14887260795E+03  0.15822492626E+03  0.00000000000E+00 0. -1.
</event>
<event>
 7    1  0.6684706E-006  0.9589404E+02  0.7561462E-02  0.1289175E+00
         -1   -1    0    0    0  501 -0.00000000000E+00  0.00000000000E+00  0.17928983683E+03  0.17928983683E+03  0.00000000000E+00 0.  1.
          1   -1    0    0  501    0  0.00000000000E+00 -0.00000000000E+00 -0.92481832067E+02  0.92481832067E+02  0.00000000000E+00 0. -1.
         23    2    1    2    0    0 -0.37136066900E+02 -0.18205110353E+02  0.10350395166E+03  0.14234584378E+03  0.88536759178E+02 0.  0.
          5    1    1    2  502    0  0.49595933796E+02  0.43258789932E+02  0.31854056536E+02  0.73234096384E+02  0.41800000000E+01 0. -1.
         -5    1    1    2    0  502 -0.12459866896E+02 -0.25053679579E+02 -0.48550003436E+02  0.56191728725E+02  0.41800000000E+01 0.  1.
        -11    1    3    3    0    0  0.86043957696E+01 -0.44140527233E+02  0.43577912664E+02  0.62621531785E+02  0.00000000000E+00 0. -1.
         11    1    3    3    0    0 -0.45740462669E+02  0.25935416880E+02  0.59926038994E+02  0.79724311998E+02  0.00000000000E+00 0.  1.
</event>
<event>
 7    1  0.6684706E-006  0.1545932E+03  0.7561462E-02  0.1194940E+00
         -2   -1    0    0    0  501 -0.00000000000E+00  0.00000000000E+00  0.93004700511E+02  0.93004700511E+02  0.00000000000E+00 0. -1.
          2   -1    0    0  501    0  0.00000000000E+00 -0.00000000000E+00 -0.35857406415E+03  0.35857406415E+03  0.00000000000E+00 0.  1.
         23    2    1    2    0    0 -0.57029640999E+02 -0.11261094636E+03 -0.34448476798E+02  0.16003467673E+03  0.92145509981E+02 0.  0.
          5    1    1    2  502    0 -0.38199993313E+02  0.26007770951E+02 -0.84427119069E+02  0.96338229552E+02  0.41800000000E+01 0.  1.
         -5    1    1    2    0  502  0.95229634312E+02  0.86603175408E+02 -0.14669376777E+03  0.19520585838E+03  0.41800000000E+01 0.  1.
        -11    1    3    3    0    0 -0.35994025362E+02 -0.24822025067E+02 -0.52137176159E+02  0.68044014638E+02  0.00000000000E+00 0.  1.
         11    1    3    3    0    0 -0.21035615637E+02 -0.87788921293E+02  0.17688699361E+02  0.91990662092E+02  0.00000000000E+00 0. -1.
</event>
<event>
 7    1  0.6684706E-006  0.1011768E+03  0.7561462E-02  0.1277841E+00
         -1   -1    0    0    0  501 -0.00000000000E+00  0.00000000000E+00  0.15477042547E+03  0.15477042547E+03  0.00000000000E+00 0.  1.
          1   -1    0    0  501    0  0.00000000000E+00 -0.00000000000E+00 -0.10532609849E+03  0.10532609849E+03  0.00000000000E+00 0. -1.
         23    2    1    2    0    0  0.17221507844E+02  0.61901159157E+02  0.43609864761E+02  0.11934918194E+03  0.90631523692E+02 0.  0.
          5    1    1    2  502    0 -0.64313999750E+02 -0.41854643649E+02 -0.25044999941E+02  0.80825900434E+02  0.41800000000E+01 0.  1.
         -5    1    1    2    0  502  0.47092491906E+02 -0.20046515507E+02  0.30879462161E+02  0.59921441582E+02  0.41800000000E+01 0.  1.
        -11    1    3    3    0    0 -0.11583680217E+02  0.22961525488E+02  0.62325528388E+02  0.67423176942E+02  0.00000000000E+00 0.  1.
         11    1    3    3    0    0  0.28805188061E+02  0.38939633669E+02 -0.18715663628E+02  0.51926004993E+02  0.00000000000E+00 0. -1.
</event>
<event>
 7    1  0.6684706E-006  0.4906641E+02  0.7561462E-02  0.1450443E+00
         -1   -1    0    0    0  501 -0.00000000000E+00  0.00000000000E+00  0.33755357093E+03  0.33755357093E+03  0.00000000000E+00 0.  1.
          1   -1    0    0  501    0  0.00000000000E+00 -0.00000000000E+00 -0.41138488971E+02  0.41138488971E+02  0.00000000000E+00 0. -1.
         23    2    1    2    0    0 -0.28669193844E+02 -0.10887238431E+01  0.19133462007E+03  0.21282136141E+03  0.88661643583E+02 0.  0.
          5    1    1    2  502    0  0.20232846071E+02 -0.13577002291E+02 -0.24687452058E+02  0.34937740918E+02  0.41800000000E+01 0. -1.
         -5    1    1    2    0  502  0.84363477730E+01  0.14665726135E+02  0.12976791395E+03  0.13093295757E+03  0.41800000000E+01 0. -1.
        -11    1    3    3    0    0  0.11426030127E+02  0.91075408245E+01 -0.23218831631E+01  0.14795019627E+02  0.00000000000E+00 0. -1.
         11    1    3    3    0    0 -0.40095223971E+02 -0.10196264668E+02  0.19365650323E+03  0.19802634179E+03  0.00000000000E+00 0.  1.
</event>
<event>
 7    1  0.6684706E-006  0.1023646E+03  0.7561462E-02  0.1275401E+00
         -2   -1    0    0    0  501 -0.00000000000E+00  0.00000000000E+00  0.13585211782E+03  0.13585211782E+03  0.00000000000E+00 0.  1.
          2   -1    0    0  501    0  0.00000000000E+00 -0.00000000000E+00 -0.10034687079E+03  0.10034687079E+03  0.00000000000E+00 0. -1.
         23    2    1    2    0    0  0.59919741542E+01  0.15256443689E+02  0.51561141481E+02  0.10902360643E+03  0.94651638232E+02 0.  0.
          5    1    1    2  502    0 -0.61588699145E+02 -0.80270440851E+01  0.13444197028E+02  0.63685321173E+02  0.41800000000E+01 0.  1.
         -5    1    1    2    0  502  0.55596724991E+02 -0.72293996041E+01 -0.29500091479E+02  0.63490060999E+02  0.41800000000E+01 0.  1.
        -11    1    3    3    0    0 -0.11725622653E+02 -0.32910232185E+02 -0.18056930427E+01  0.34983340842E+02  0.00000000000E+00 0.  1.
         11    1    3    3    0    0  0.17717596807E+02  0.48166675874E+02  0.53366834523E+02  0.74040265589E+02  0.00000000000E+00 0. -1.
</event>
<event>
 7    1  0.6684706E-006  0.1195432E+03  0.7561462E-02  0.1243853E+00
         -2   -1    0    0    0  501 -0.00000000000E+00  0.00000000000E+00  0.32721760421E+03  0.32721760421E+03  0.00000000000E+00 0.  1.
          2   -1    0    0  501    0  0.00000000000E+00 -0.00000000000E+00 -0.36289582813E+03  0.36289582813E+03  0.00000000000E+00 0. -1.
         23    2    1    2    0    0 -0.47052093435E+02  0.43902693752E+02  0.21272952724E+03  0.24079939429E+03  0.92677669987E+02 0.  0.
          5    1    1    2  502    0 -0.34813796999E+02 -0.22307895230E+02 -0.32943639365E+03  0.33204736486E+03  0.41800000000E+01 0. -1.
         -5    1    1    2    0  502  0.81865890433E+02 -0.21594798522E+02  0.81028642485E+02  0.11726667320E+03  0.41800000000E+01 0.  1.
        -11    1    3    3    0    0 -0.63360444192E+02 -0.26662199491E+01  0.12386347579E+03  0.13915392647E+03  0.00000000000E+00 0. -1.
         11    1    3    3    0    0  0.16308350757E+02  0.46568913701E+02  0.88866051455E+02  0.10164546782E+03  0.00000000000E+00 0.  1.
</event>
<event>
 7    1  0.6684706E-006  0.1046465E+03  0.7561462E-02  0.1270818E+00
         -2   -1    0    0    0  501 -0.00000000000E+00  0.00000000000E+00  0.17907440046E+02  0.17907440046E+02  0.00000000000E+00 0.  1.
          2   -1    0    0  501    0  0.00000000000E+00 -0.00000000000E+00 -0.13600393793E+04  0.13600393793E+04  0.00000000000E+00 0. -1.
         23    2    1    2    0    0  0.10942700225E+01 -0.93756469701E+02 -0.30831243531E+03  0.33237451943E+03  0.81392815154E+02 0.  0.
          5    1    1    2  502    0 -0.15220142948E+02 -0.43085064964E+01 -0.61331503297E+03  0.61353322490E+03  0.41800000000E+01 0. -1.
         -5    1    1    2    0  502  0.14125872926E+02  0.98064976197E+02 -0.42050447093E+03  0.43203907499E+03  0.41800000000E+01 0. -1.
        -11    1    3    3    0    0  0.33122906775E+00 -0.62240685785E+02 -0.28850666694E+03  0.29514421822E+03  0.00000000000E+00 0. -1.
         11    1    3    3    0    0  0.76304095478E+00 -0.31515783916E+02 -0.19805768377E+02  0.37230301212E+02  0.00000000000E+00 0.  1.
</event>
<event>
 7    1  0.6684706E-006  0.1233106E+03  0.7561462E-02  0.1237733E+00
          2   -1    0    0  501    0  0.00000000000E+00  0.00000000000E+00  0.13845775860E+03  0.13845775860E+03  0.00000000000E+00 0. -1.
         -2   -1    0    0    0  501 -0.00000000000E+00 -0.00000000000E+00 -0.33204273385E+03  0.33204273385E+03  0.00000000000E+00 0.  1.
         23    2    1    2    0    0 -0.53414959358E+02  0.28307822597E+02 -0.28377076446E+03  0.30484176406E+03  0.93531618471E+02 0.  0.
          5    1    1    2  502    0  0.37983284832E+02 -0.77706582902E+02  0.62704771140E+02  0.10691306598E+03  0.41800000000E+01 0. -1.
         -5    1    1    2    0  502  0.15431674526E+02  0.49398760305E+02  0.27481018059E+02  0.58745662409E+02  0.41800000000E+01 0.  1.
        -11    1    3    3    0    0 -0.69719812973E+02  0.46401534171E+02 -0.24631340420E+03  0.26016196452E+03  0.00000000000E+00 0.  1.
         11    1    3    3    0    0  0.16304853614E+02 -0.18093711574E+02 -0.37457360259E+02  0.44679799546E+02  0.00000000000E+00 0. -1.
</event>
<event>
 7    1  0.6684706E-006  0.1535869E+03  0.7561462E-02  0.1196133E+00
         -3   -1    0    0    0  501 -0.00000000000E+00  0.00000000000E+00  0.68120555350E+02  0.68120555350E+02  0.00000000000E+00 0.  1.
          3   -1    0    0  501    0  0.00000000000E+00 -0.00000000000E+00 -0.44230416340E+03  0.44230416340E+03  0.00000000000E+00 0. -1.
         23    2    1    2    0    0  0.10586400306E+03  0.13078355851E+02 -0.58312674841E+02  0.15433520573E+03  0.95082896177E+02 0.  0.
          5    1    1    2  502    0 -0.13419403592E+03 -0.38772683606E+01 -0.25811689104E+03  0.29097229134E+03  0.41800000000E+01 0.  1.
         -5    1    1    2    0  502  0.28330032853E+02 -0.92010874899E+01 -0.57754042168E+02  0.65117221679E+02  0.41800000000E+01 0.  1.
        -11    1    3    3    0    0  0.68855279617E+02  0.54074307559E+02 -0.38760001126E+02  0.95746634178E+02  0.00000000000E+00 0.  1.
         11    1    3    3    0    0  0.37008723446E+02 -0.40995951708E+02 -0.19552673715E+02  0.58588571556E+02  0.00000000000E+00 0. -1.
</event>
<event>
 7    1  0.6684706E-006  0.1009212E+03  0.7561462E-02  0.1278371E+00
          2   -1    0    0  501    0  0.00000000000E+00  0.00000000000E+00  0.37393357864E+03  0.37393357864E+03  0.00000000000E+00 0. -1.
         -2   -1    0    0    0  501 -0.00000000000E+00 -0.00000000000E+00 -0.47961374481E+02  0.47961374481E+02  0.00000000000E+00 0.  1.
         23    2    1    2    0    0 -0.45376101821E+02 -0.44849316440E+02  0.63664699181E+02  0.12436669577E+03  0.85693811289E+02 0.  0.
          5    1    1    2  502    0  0.43950990455E+02 -0.13683779244E+02  0.22092429836E+03  0.22570767240E+03  0.41800000000E+01 0.  1.
         -5    1    1    2    0  502  0.14251113659E+01  0.58533095684E+02  0.41383206626E+02  0.71820584956E+02  0.41800000000E+01 0.  1.
        -11    1    3    3    0    0 -0.65644009752E+02 -0.34847201933E+02  0.68702866307E+02  0.10121041121E+03  0.00000000000E+00 0. -1.
         11    1    3    3    0    0  0.20267907931E+02 -0.10002114507E+02 -0.50381671254E+01  0.23156284557E+02  0.00000000000E+00 0.  1.
</event>
<event>
 7    1  0.6684706E-006  0.1386670E+03  0.7561462E-02  0.1215134E+00
          3   -1    0    0  501    0  0.00000000000E+00  0.00000000000E+00  0.30430368745E+03  0.30430368745E+03  0.00000000000E+00 0. -1.
         -3   -1    0    0    0  501 -0.00000000000E+00 -0.00000000000E+00 -0.85228229442E+02  0.85228229442E+02  0.00000000000E+00 0.  1.
         23    2    1    2    0    0 -0.29049599320E+02 -0.87402840713E+02  0.12330190390E+02  0.13093174704E+03  0.92238565707E+02 0.  0.
          5    1    1    2  502    0 -0.40651442092E+02  0.66766724986E+02  0.76900653411E+02  0.10973385168E+03  0.41800000000E+01 0.  1.
         -5    1    1    2    0  502  0.69701041412E+02  0.20636115727E+02  0.12984461420E+03  0.14886631816E+03  0.41800000000E+01 0.  1.
        -11    1    3    3    0    0 -0.46655703537E+02 -0.11131877721E+02  0.20635198029E+02  0.52215752142E+02  0.00000000000E+00 0.  1.
         11    1    3    3    0    0  0.17606104217E+02 -0.76270962992E+02 -0.83050076398E+01  0.78715994902E+02  0.00000000000E+00 0. -1.
</event>
<event>
 7    1  0.6684706E-006  0.1375098E+03  0.7561462E-02  0.1216720E+00
         -2   -1    0    0    0  501 -0.00000000000E+00  0.00000000000E+00  0.52659920641E+02  0.52659920641E+02  0.00000000000E+00 0.  1.
          2   -1    0    0  501    0  0.00000000000E+00 -0.00000000000E+00 -0.54806309371E+03  0.54806309371E+03  0.00000000000E+00 0. -1.
         23    2    1    2    0    0  0.99920467557E+02 -0.47349950595E+02 -0.10925588463E+03  0.18003209662E+03  0.90821747558E+02 0.  0.
          5    1    1    2  502    0 -0.34428982918E+01 -0.17600510313E+02 -0.20208954215E+03  0.20292680197E+03  0.41800000000E+01 0.  1.
         -5    1    1    2    0  502 -0.96477569266E+02  0.64950460908E+02 -0.18405774629E+03  0.21776411576E+03  0.41800000000E+01 0.  1.
        -11    1    3    3    0    0  0.97293845938E+02 -0.46072131822E+01 -0.91611848363E+02  0.13371630279E+03  0.00000000000E+00 0. -1.
         11    1    3    3    0    0  0.26266216191E+01 -0.42742737413E+02 -0.17644036267E+02  0.46315793834E+02  0.00000000000E+00 0.  1.
</event>
<event>
 7    1  0.6684706E-006  0.1015851E+03  0.7561462E-02  0.1276997E+00
         -2   -1    0    0    0  501 -0.00000000000E+00  0.00000000000E+00  0.91308274687E+01  0.91308274687E+01  0.00000000000E+00 0. -1.
          2   -1    0    0  501    0  0.00000000000E+00 -0.00000000000E+00 -0.17774251999E+04  0.17774251999E+04  0.00000000000E+00 0.  1.
         23    2    1    2    0    0 -0.37952116824E+02  0.10078333757E+02 -0.36449512071E+03  0.37746531481E+03  0.89896801282E+02 0.  0.
          5    1    1    2  502    0 -0.79010048222E+01 -0.54138392456E+02 -0.48758757473E+03  0.49066537156E+03  0.41800000000E+01 0. -1.
         -5    1    1    2    0  502  0.45853121646E+02  0.44060058699E+02 -0.91621167702E+03  0.91842534103E+03  0.41800000000E+01 0.  1.
        -11    1    3    3    0    0 -0.32692241814E+02  0.41433260594E+02 -0.30928142464E+03  0.31375228666E+03  0.00000000000E+00 0. -1.
         11    1    3    3    0    0 -0.52598750097E+01 -0.31354926838E+02 -0.55213696071E+02  0.63713028150E+02  0.00000000000E+00 0.  1.
</event>
<event>
 7    1  0.6684706E-006  0.8548442E+02  0.7561462E-02  0.1314171E+00
          4   -1    0    0  501    0  0.00000000000E+00  0.00000000000E+00  0.62347339432E+03  0.62347339432E+03  0.00000000000E+00 0. -1.
         -4   -1    0    0    0  501 -0.00000000000E+00 -0.00000000000E+00 -0.38817493779E+02  0.38817493779E+02  0.00000000000E+00 0.  1.
         23    2    1    2    0    0  0.21021218656E+02  0.25295338233E+01  0.49447900042E+02  0.10581033721E+03  0.91117739588E+02 0.  0.
          5    1    1    2  502    0  0.30240069005E+02  0.35046737204E+01  0.47926543762E+03  0.48024949412E+03  0.41800000000E+01 0. -1.
         -5    1    1    2    0  502 -0.51261287661E+02 -0.60342075437E+01  0.55942562881E+02  0.76231056762E+02  0.41800000000E+01 0.  1.
        -11    1    3    3    0    0  0.13343345153E+02 -0.41587856378E+02  0.41658366429E+02  0.60357386885E+02  0.00000000000E+00 0. -1.
         11    1    3    3    0    0  0.76778735036E+01  0.44117390201E+02  0.77895336128E+01  0.45452950329E+02  0.00000000000E+00 0.  1.
</event>
<event>
 7    1  0.6684706E-006  0.9584275E+02  0.7561462E-02  0.1289289E+00
          1   -1    0    0  501    0  0.00000000000E+00  0.00000000000E+00  0.14267027744E+03  0.14267027744E+03  0.00000000000E+00 0. -1.
         -1   -1    0    0    0  501 -0.00000000000E+00 -0.00000000000E+00 -0.12914464940E+03  0.12914464940E+03  0.00000000000E+00 0.  1.
         23    2    1    2    0    0 -0.15561787236E+02 -0.44112247469E+02 -0.34601702626E+02  0.12985699004E+03  0.11609263732E+03 0.  0.
          5    1    1    2  502    0  0.54250834979E+02  0.49667141133E+02 -0.72723759344E+01  0.74029304035E+02  0.41800000000E+01 0.  1.
         -5    1    1    2    0  502 -0.38689047743E+02 -0.55548936639E+01  0.55399706594E+02  0.67928632766E+02  0.41800000000E+01 0.  1.
        -11    1    3    3    0    0  0.11818765194E+02  0.11642749854E+02 -0.60370519617E+02  0.62608597442E+02  0.00000000000E+00 0.  1.
         11    1    3    3    0    0 -0.27380552431E+02 -0.55754997323E+02  0.25768816991E+02  0.67248392598E+02  0.00000000000E+00 0. -1.
</event>
<event>
 7    1  0.6684706E-006  0.1104097E+03  0.7561462E-02  0.1259813E+00
          2   -1    0    0  501    0  0.00000000000E+00  0.00000000000E+00  0.27709618494E+02  0.27709618494E+02  0.00000000000E+00 0. -1.
         -2   -1    0    0    0  501 -0.00000000000E+00 -0.00000000000E+00 -0.60371340646E+03  0.60371340646E+03  0.00000000000E+00 0.  1.
         23    2    1    2    0    0 -0.66992933533E+02 -0.22683097088E+02 -0.26048425516E+03  0.28472034175E+03  0.90614843080E+02 0.  0.
          5    1    1    2  502    0 -0.14377836008E+02  0.19309136171E+02 -0.21894280334E+03  0.22030203912E+03  0.41800000000E+01 0.  1.
         -5    1    1    2    0  502  0.81370769541E+02  0.33739609177E+01 -0.96576729471E+02  0.12640064408E+03  0.41800000000E+01 0.  1.
        -11    1    3    3    0    0 -0.88457695251E+02 -0.27889363527E+02 -0.21521070784E+03  0.23434638725E+03  0.00000000000E+00 0. -1.
         11    1    3    3    0    0  0.21464761718E+02  0.52062664383E+01 -0.45273547319E+02  0.50373954507E+02  0.00000000000E+00 0.  1.
</event>
<event>
 7    1  0.6684706E-006  0.9648598E+02  0.7561462E-02  0.1287864E+00
         -2   -1    0    0    0  501 -0.00000000000E+00  0.00000000000E+00  0.40113000187E+02  0.40113000187E+02  0.00000000000E+00 0.  1.
          2   -1    0    0  501    0  0.00000000000E+00 -0.00000000000E+00 -0.34885698381E+03  0.34885698381E+03  0.00000000000E+00 0. -1.
         23    2    1    2    0    0  0.63567703738E+01 -0.24047583546E+00 -0.60601997504E+02  0.11100957481E+03  0.92790394117E+02 0.  0.
          5    1    1    2  502    0  0.53500552337E+01 -0.61692661953E+02 -0.12523308089E+03  0.13976911167E+03  0.41800000000E+01 0.  1.
         -5    1    1    2    0  502 -0.11706825607E+02  0.61933137788E+02 -0.12290890523E+03  0.13819129751E+03  0.41800000000E+01 0.  1.
        -11    1    3    3    0    0  0.16510860879E+02  0.30872624112E+02 -0.68865774527E+02  0.77254270741E+02  0.00000000000E+00 0. -1.
         11    1    3    3    0    0 -0.10154090505E+02 -0.31113099947E+02  0.82637770228E+01  0.33755304072E+02  0.00000000000E+00 0.  1.
</event>
<event>
 7    1  0.6684706E-006  0.7749393E+02  0.7561462E-02  0.1336318E+00
         -1   -1    0    0    0  501 -0.00000000000E+00  0.00000000000E+00  0.14220925354E+02  0.14220925354E+02  0.00000000000E+00 0.  1.
          1   -1    0    0  501    0  0.00000000000E+00 -0.00000000000E+00 -0.10950360557E+04  0.10950360557E+04  0.00000000000E+00 0. -1.
         23    2    1    2    0    0  0.36546732231E+01 -0.39309267644E+01 -0.20346887078E+03  0.22302258715E+03  0.91162953994E+02 0.  0.
          5    1    1    2  502    0 -0.28262322814E+02 -0.19159499635E+02 -0.81056862401E+03  0.81129822627E+03  0.41800000000E+01 0.  1.
         -5    1    1    2    0  502  0.24607649591E+02  0.23090426400E+02 -0.66777635578E+02  0.74936167657E+02  0.41800000000E+01 0.  1.
        -11    1    3    3    0    0 -0.37133570605E+02 -0.20667254519E+02 -0.64618690389E+02  0.77340885842E+02  0.00000000000E+00 0.  1.
         11    1    3    3    0    0  0.40788243828E+02  0.16736327755E+02 -0.13885018039E+03  0.14568170130E+03  0.00000000000E+00 0. -1.
</event>
<event>
 7    1  0.6684706E-006  0.1680646E+03  0.7561462E-02  0.1179881E+00
          2   -1    0    0  501    0  0.00000000000E+00  0.00000000000E+00  0.11663450749E+04  0.11663450749E+04  0.00000000000E+00 0. -1.
         -2   -1    0    0    0  501 -0.00000000000E+00 -0.00000000000E+00 -0.35041017260E+02  0.35041017260E+02  0.00000000000E+00 0.  1.
         23    2    1    2    0    0  0.10447257335E+03 -0.10216204563E+03  0.28012084469E+03  0.32873945466E+03  0.90831378240E+02 0.  0.
          5    1    1    2  502    0 -0.66807538180E+02 -0.24438004125E+01  0.17518602168E+03  0.18755488240E+03  0.41800000000E+01 0.  1.
         -5    1    1    2    0  502 -0.37665035171E+02  0.10460584605E+03  0.67599719131E+03  0.68509175514E+03  0.41800000000E+01 0.  1.
        -11    1    3    3    0    0  0.76088336161E+01 -0.44530187520E+02  0.29539984444E+02  0.53976315459E+02  0.00000000000E+00 0.  1.
         11    1    3    3    0    0  0.96863739735E+02 -0.57631858115E+02  0.25058086024E+03  0.27476313921E+03  0.00000000000E+00 0. -1.
</event>
<event>
 7    1  0.6684706E-006  0.1582909E+03  0.7561462E-02  0.1190640E+00
         -1   -1    0    0    0  501 -0.00000000000E+00  0.00000000000E+00  0.36113814207E+02  0.36113814207E+02  0.00000000000E+00 0.  1.
          1   -1    0    0  501    0  0.00000000000E+00 -0.00000000000E+00 -0.10157508564E+04  0.10157508564E+04  0.00000000000E+00 0. -1.
         23    2    1    2    0    0  0.11805244412E+03 -0.83432346852E+02 -0.30071749726E+03  0.34654451811E+03  0.93620263913E+02 0.  0.
          5    1    1    2  502    0 -0.46285117249E+02 -0.46006561820E+00 -0.56441874072E+02  0.73114166124E+02  0.41800000000E+01 0.  1.
         -5    1    1    2    0  502 -0.71767326868E+02  0.83892412470E+02 -0.62247767084E+03  0.63220598634E+03  0.41800000000E+01 0.  1.
        -11    1    3    3    0    0  0.21216346061E+02 -0.54616967431E+02 -0.17907200606E+03  0.18841425060E+03  0.00000000000E+00 0. -1.
         11    1    3    3    0    0  0.96836098057E+02 -0.28815379422E+02 -0.12164549119E+03  0.15813026752E+03  0.00000000000E+00 0.  1.
</event>
<event>
 7    1  0.6684706E-006  0.1018080E+03  0.7561462E-02  0.1276539E+00
          1   -1    0    0  501    0  0.00000000000E+00  0.00000000000E+00  0.33940402484E+02  0.33940402484E+02  0.00000000000E+00 0. -1.
         -1   -1    0    0    0  501 -0.00000000000E+00 -0.00000000000E+00 -0.36691635186E+03  0.36691635186E+03  0.00000000000E+00 0.  1.
         23    2    1    2    0    0  0.16693050190E+02 -0.78650940769E+01 -0.17999581968E+03  0.20238086740E+03  0.90658715842E+02 0.  0.
          5    1    1    2  502    0  0.45344723114E+02  0.16345304256E+02 -0.21816320481E+02  0.53072941550E+02  0.41800000000E+01 0. -1.
         -5    1    1    2    0  502 -0.62037773304E+02 -0.84802101789E+01 -0.13116380921E+03  0.14540294539E+03  0.41800000000E+01 0. -1.
        -11    1    3    3    0    0  0.48550995356E+02 -0.26763260169E+02 -0.10507038676E+03  0.11879923156E+03  0.00000000000E+00 0. -1.
         11    1    3    3    0    0 -0.31857945166E+02  0.18898166092E+02 -0.74925432923E+02  0.83581635845E+02  0.00000000000E+00 0.  1.
</event>
<event>
 7    1  0.6684706E-006  0.1534817E+03  0.7561462E-02  0.1196259E+00
         -2   -1    0    0    0  501 -0.00000000000E+00  0.00000000000E+00  0.55645266099E+02  0.55645266099E+02  0.00000000000E+00 0.  1.
          2   -1    0    0  501    0  0.00000000000E+00 -0.00000000000E+00 -0.49480081159E+03  0.49480081159E+03  0.00000000000E+00 0. -1.
         23    2    1    2    0    0 -0.98514354698E+02  0.67695541539E+02 -0.26668607266E+03  0.30615028774E+03  0.91207307312E+02 0.  0.
          5    1    1    2  502    0  0.97831614987E+02  0.41791240748E+01 -0.76556715749E+02  0.12436596438E+03  0.41800000000E+01 0.  1.
         -5    1    1    2    0  502  0.68273971018E+00 -0.71874665614E+02 -0.95912757076E+02  0.11992982557E+03  0.41800000000E+01 0.  1.
        -11    1    3    3    0    0 -0.66784778501E+02  0.78839673902E+02 -0.13366758137E+03  0.16894650967E+03  0.00000000000E+00 0.  1.
         11    1    3    3    0    0 -0.31729576197E+02 -0.11144132363E+02 -0.13301849129E+03  0.13720377807E+03  0.00000000000E+00 0. -1.
</event>
<event>
 7    1  0.6684706E-006  0.4648646E+03  0.7561462E-02  0.1023380E+00
          2   -1    0    0  501    0  0.00000000000E+00  0.00000000000E+00  0.19223797959E+04  0.19223797959E+04  0.00000000000E+00 0. -1.
         -2   -1    0    0    0  501 -0.00000000000E+00 -0.00000000000E+00 -0.12468776512E+03  0.12468776512E+03  0.00000000000E+00 0.  1.
         23    2    1    2    0    0  0.40491596181E+02  0.45764190271E+03  0.62507618175E+03  0.78146551886E+03  0.94299754491E+02 0.  0.
          5    1    1    2  502    0 -0.21647848933E+01 -0.23949178703E+03  0.76567655639E+03  0.80227119090E+03  0.41800000000E+01 0.  1.
         -5    1    1    2    0  502 -0.38326811288E+02 -0.21815011568E+03  0.40693929268E+03  0.46333085130E+03  0.41800000000E+01 0.  1.
        -11    1    3    3    0    0  0.60130689595E+02  0.16949563881E+03  0.25459637685E+03  0.31171106254E+03  0.00000000000E+00 0. -1.
         11    1    3    3    0    0 -0.19639093414E+02  0.28814626390E+03  0.37047980490E+03  0.46975445632E+03  0.00000000000E+00 0.  1.
</event>
<event>
 7    1  0.6684706E-006  0.1126471E+03  0.7561462E-02  0.1255745E+00
          2   -1    0    0  501    0  0.00000000000E+00  0.00000000000E+00  0.54791021819E+03  0.54791021819E+03  0.00000000000E+00 0.  1.
         -2   -1    0    0    0  501 -0.00000000000E+00 -0.00000000000E+00 -0.34160921395E+02  0.34160921395E+02  0.00000000000E+00 0. -1.
         23    2    1    2    0    0  0.77652376131E+02 -0.29414894043E+02  0.20959267950E+03  0.24287535849E+03  0.90356078647E+02 0.  0.
          5    1    1    2  502    0  0.13278420751E+02  0.20588542472E+02  0.36975935493E+01  0.25126661872E+02  0.41800000000E+01 0.  1.
         -5    1    1    2    0  502 -0.90930796882E+02  0.88263515708E+01  0.30045902374E+03  0.31406911923E+03  0.41800000000E+01 0.  1.
        -11    1    3    3    0    0  0.24375103443E+02 -0.46948561530E+02  0.46582931288E+02  0.70486045321E+02  0.00000000000E+00 0. -1.
         11    1    3    3    0    0  0.53277272688E+02  0.17533667487E+02  0.16300974822E+03  0.17238931317E+03  0.00000000000E+00 0.  1.
</event>
<event>
 7    1  0.6684706E-006  0.1587516E+03  0.7561462E-02  0.1190113E+00
          2   -1    0    0  501    0  0.00000000000E+00  0.00000000000E+00  0.25250405355E+03  0.25250405355E+03  0.00000000000E+00 0. -1.
         -2   -1    0    0    0  501 -0.00000000000E+00 -0.00000000000E+00 -0.14478568943E+03  0.14478568943E+03  0.00000000000E+00 0.  1.
         23    2    1    2    0    0 -0.10914509549E+03 -0.76298174899E+02 -0.35445023908E+02  0.16517082964E+03  0.91054872922E+02 0.  0.
          5    1    1    2  502    0  0.11475786249E+03  0.10183222036E+03  0.13502094263E+03  0.20441941066E+03  0.41800000000E+01 0. -1.
         -5    1    1    2    0  502 -0.56127670029E+01 -0.25534045465E+02  0.81424454039E+01  0.27699502674E+02  0.41800000000E+01 0. -1.
        -11    1    3    3    0    0 -0.99868495779E+02 -0.54309468025E+02 -0.61982965575E+02  0.12948020230E+03  0.00000000000E+00 0.  1.
         11    1    3    3    0    0 -0.92765997113E+01 -0.21988706874E+02  0.26537941668E+02  0.35690627343E+02  0.00000000000E+00 0. -1.
</event>
<event>
 6    1  0.6684706E-006  0.9156329E+02  0.7561462E-02  0.1299110E+00
          2   -1    0    0  501    0  0.00000000000E+00  0.00000000000E+00  0.30781706497E+03  0.30781706497E+03  0.00000000000E+00 0. -1.
         -2   -1    0    0    0  501 -0.00000000000E+00 -0.00000000000E+00 -0.30829042728E+02  0.30829042728E+02  0.00000000000E+00 0.  1.
          5    1    1    2  502    0  0.30325283922E+02 -0.60014907954E+02  0.13632047339E+03  0.15205971159E+03  0.41800000000E+01 0.  1.
         -5    1    1    2    0  502  0.75241707776E+01  0.52747630859E+02  0.36420466737E+02  0.64674944951E+02  0.41800000000E+01 0.  1.
        -11    1    1    2    0    0 -0.51453582004E+01 -0.19425613594E+02  0.43719344464E+02  0.48116631790E+02  0.00000000000E+00 0.  1.
         11    1    1    2    0    0 -0.32704096499E+02  0.26692890689E+02  0.60527737650E+02  0.73794819373E+02  0.00000000000E+00 0. -1.
</event>
<event>
 7    1  0.6684706E-006  0.9341797E+02  0.7561462E-02  0.1294779E+00
         -2   -1    0    0    0  501 -0.00000000000E+00  0.00000000000E+00  0.36060098037E+02  0.36060098037E+02  0.00000000000E+00 0.  1.
          2   -1    0    0  501    0  0.00000000000E+00 -0.00000000000E+00 -0.39751051953E+03  0.39751051953E+03  0.00000000000E+00 0. -1.
         23    2    1    2    0    0 -0.25944787058E+02  0.28705700652E+02 -0.97509010648E+02  0.13893570291E+03  0.91093211376E+02 0.  0.
          5    1    1    2  502    0 -0.20986694995E+02 -0.43737345410E+02 -0.22890194859E+03  0.23402344160E+03  0.41800000000E+01 0.  1.
         -5    1    1    2    0  502  0.46931482054E+02  0.15031644758E+02 -0.35039462264E+02  0.60611473069E+02  0.41800000000E+01 0.  1.
        -11    1    3    3    0    0 -0.72952970340E+01  0.55535526937E+02 -0.29092904720E+02  0.63117455716E+02  0.00000000000E+00 0.  1.
         11    1    3    3    0    0 -0.18649490024E+02 -0.26829826284E+02 -0.68416105928E+02  0.75818247190E+02  0.00000000000E+00 0. -1.
</event>
<event>
 7    1  0.6684706E-006  0.1428332E+03  0.7561462E-02  0.1209567E+00
         -2   -1    0    0    0  501 -0.00000000000E+00  0.00000000000E+00  0.29939911026E+02  0.29939911026E+02  0.00000000000E+00 0. -1.
          2   -1    0    0  501    0  0.00000000000E+00 -0.00000000000E+00 -0.10877865944E+04  0.10877865944E+04  0.00000000000E+00 0.  1.
         23    2    1    2    0    0  0.98679597199E+02  0.97181931323E+01 -0.17698714540E+03  0.22252079623E+03  0.91427287697E+02 0.  0.
          5    1    1    2  502    0 -0.12186997820E+03  0.15324606430E+02 -0.74458331417E+03  0.75465814730E+03  0.41800000000E+01 0.  1.
         -5    1    1    2    0  502  0.23190381003E+02 -0.25042799562E+02 -0.13627622380E+03  0.14054756189E+03  0.41800000000E+01 0.  1.
        -11    1    3    3    0    0  0.70554253388E+02  0.44677837924E+02 -0.14530645664E+03  0.16759468433E+03  0.00000000000E+00 0.  1.
         11    1    3    3    0    0  0.28125343812E+02 -0.34959644792E+02 -0.31680688764E+02  0.54926111905E+02  0.00000000000E+00 0. -1.
</event>
<event>
 7    1  0.6684706E-006  0.1180505E+03  0.7561462E-02  0.1246348E+00
          1   -1    0    0  501    0  0.00000000000E+00  0.00000000000E+00  0.45777261146E+03  0.45777261146E+03  0.00000000000E+00 0. -1.
         -1   -1    0    0    0  501 -0.00000000000E+00 -0.00000000000E+00 -0.50519722743E+02  0.50519722743E+02  0.00000000000E+00 0.  1.
         23    2    1    2    0    0 -0.38319226577E+02  0.48136148401E+02  0.40817821495E+02  0.11624031519E+03  0.89778975359E+02 0.  0.
          5    1    1    2  502    0  0.36842994225E+02  0.32325196684E+02  0.21451474160E+03  0.22008264659E+03  0.41800000000E+01 0.  1.
         -5    1    1    2    0  502  0.14762323525E+01 -0.80461345084E+02  0.15192032562E+03  0.17196937243E+03  0.41800000000E+01 0.  1.
        -11    1    3    3    0    0 -0.62284975457E+02  0.53104997881E+02  0.20370254168E+02  0.84347532403E+02  0.00000000000E+00 0.  1.
         11    1    3    3    0    0  0.23965748880E+02 -0.49688494808E+01  0.20447567327E+02  0.31892782791E+02  0.00000000000E+00 0. -1.
</event>
<event>
 7    1  0.6684706E-006  0.1206652E+03  0.7561462E-02  0.1242004E+00
          1   -1    0    0  501    0  0.00000000000E+00  0.00000000000E+00  0.19195312638E+03  0.19195312638E+03  0.00000000000E+00 0. -1.
         -1   -1    0    0    0  501 -0.00000000000E+00 -0.00000000000E+00 -0.87095837226E+02  0.87095837226E+02  0.00000000000E+00 0.  1.
         23    2    1    2    0    0 -0.72379229569E+02  0.35426469193E+01  0.47827461801E+02  0.12364784359E+03  0.88034197344E+02 0.  0.
          5    1    1    2  502    0 -0.72734042118E+01 -0.41262960356E+02  0.52160347274E+02  0.67035129103E+02  0.41800000000E+01 0.  1.
         -5    1    1    2    0  502  0.79652633781E+02  0.37720313437E+02  0.48694800804E+01  0.88365990914E+02  0.41800000000E+01 0.  1.
        -11    1    3    3    0    0 -0.13092644659E+01  0.33745030438E+02  0.28136169207E+02  0.43955491924E+02  0.00000000000E+00 0.  1.
         11    1    3    3    0    0 -0.71069965103E+02 -0.30202383518E+02  0.19691292594E+02  0.79692351665E+02  0.00000000000E+00 0. -1.
</event>
<event>
 7    1  0.6684706E-006  0.1563298E+03  0.7561462E-02  0.1192904E+00
          1   -1    0    0  501    0  0.00000000000E+00  0.00000000000E+00  0.20793690801E+03  0.20793690801E+03  0.00000000000E+00 0. -1.
         -1   -1    0    0    0  501 -0.00000000000E+00 -0.00000000000E+00 -0.39352868259E+03  0.39352868259E+03  0.00000000000E+00 0.  1.
         23    2    1    2    0    0 -0.58959363641E+02 -0.44632623066E+02 -0.32274198667E+03  0.34325957637E+03  0.90534353740E+02 0.  0.
          5    1    1    2  502    0 -0.18444729498E+02  0.99842755566E+02  0.12677297001E+03  0.16247351234E+03  0.41800000000E+01 0. -1.
         -5    1    1    2    0  502  0.77404093140E+02 -0.55210132500E+02  0.10377242078E+02  0.95732501893E+02  0.41800000000E+01 0.  1.
        -11    1    3    3    0    0 -0.82945676486E+02 -0.34712422301E+02 -0.26785857713E+03  0.28254761519E+03  0.00000000000E+00 0.  1.
         11    1    3    3    0    0  0.23986312844E+02 -0.99202007656E+01 -0.54883409539E+02  0.60711961176E+02  0.00000000000E+00 0. -1.
</event>
<event>
 7    1  0.6684706E-006  0.1065157E+03  0.7561462E-02  0.1267162E+00
         -2   -1    0    0    0  501 -0.00000000000E+00  0.00000000000E+00  0.18726012460E+02  0.18726012460E+02  0.00000000000E+00 0.  1.
          2   -1    0    0  501    0  0.00000000000E+00 -0.00000000000E+00 -0.64651240238E+03  0.64651240238E+03  0.00000000000E+00 0. -1.
         23    2    1    2    0    0 -0.70926949489E+01 -0.53712546146E+01 -0.21646155475E+03  0.23522239235E+03  0.91623209280E+02 0.  0.
          5    1    1    2  502    0 -0.57634856289E+02  0.71433790920E+01 -0.23577662919E+03  0.24285982747E+03  0.41800000000E+01 0. -1.
         -5    1    1    2    0  502  0.64727551238E+02 -0.17721244774E+01 -0.17554820597E+03  0.18715619502E+03  0.41800000000E+01 0. -1.
        -11    1    3    3    0    0  0.11764933055E+02 -0.44742976386E+02 -0.13640279210E+03  0.14403495853E+03  0.00000000000E+00 0. -1.
         11    1    3    3    0    0 -0.18857628004E+02  0.39371721772E+02 -0.80058762647E+02  0.91187433815E+02  0.00000000000E+00 0.  1.
</event>
<event>
 7    1  0.6684706E-006  0.1312988E+03  0.7561462E-02  0.1225541E+00
         -2   -1    0    0    0  501 -0.00000000000E+00  0.00000000000E+00  0.17465925244E+03  0.17465925244E+03  0.00000000000E+00 0.  1.
          2   -1    0    0  501    0  0.00000000000E+00 -0.00000000000E+00 -0.15733252184E+03  0.15733252184E+03  0.00000000000E+00 0. -1.
         23    2    1    2    0    0 -0.37829443922E+02 -0.11497606473E+03  0.39640603648E+02  0.15650458727E+03  0.90949140146E+02 0.  0.
          5    1    1    2  502    0 -0.13687509645E+02  0.72735627262E+02 -0.63024969428E+02  0.97300763434E+02  0.41800000000E+01 0. -1.
         -5    1    1    2    0  502  0.51516953567E+02  0.42240437463E+02  0.40711096387E+02  0.78186423571E+02  0.41800000000E+01 0. -1.
        -11    1    3    3    0    0 -0.16221062995E+02 -0.30793697165E+02  0.58031644066E+02  0.67668651404E+02  0.00000000000E+00 0.  1.
         11    1    3    3    0    0 -0.21608380927E+02 -0.84182367560E+02 -0.18391040419E+02  0.88835935871E+02  0.00000000000E+00 0. -1.
</event>
<event>
 7    1  0.6684706E-006  0.1791831E+03  0.7561462E-02  0.1168596E+00
         -2   -1    0    0    0  501 -0.00000000000E+00  0.00000000000E+00  0.31754569660E+03  0.31754569660E+03  0.00000000000E+00 0.  1.
          2   -1    0    0  501    0  0.00000000000E+00 -0.00000000000E+00 -0.21278494200E+03  0.21278494200E+03  0.00000000000E+00 0. -1.
         23    2    1    2    0    0  0.94328435208E+02  0.12424972104E+03  0.23164386559E+03  0.29351309421E+03  0.90306196600E+02 0.  0.
          5    1    1    2  502    0 -0.11102943067E+03 -0.10311496090E+03 -0.14019984997E+03  0.20647929670E+03  0.41800000000E+01 0. -1.
         -5    1    1    2    0  502  0.16700995458E+02 -0.21134760138E+02  0.13316738987E+02  0.30338247685E+02  0.41800000000E+01 0. -1.
        -11    1    3    3    0    0  0.45179595168E+02  0.12225215384E+03  0.15596828880E+03  0.20325573067E+03  0.00000000000E+00 0.  1.
         11    1    3    3    0    0  0.49148840041E+02  0.19975671944E+01  0.75675576788E+02  0.90257363546E+02  0.00000000000E+00 0. -1.
</event>
<event>
 7    1  0.6684706E-006  0.9738700E+02  0.7561462E-02  0.1285889E+00
          2   -1    0    0  501    0  0.00000000000E+00  0.00000000000E+00  0.28698288682E+02  0.28698288682E+02  0.00000000000E+00 0.  1.
         -2   -1    0    0    0  501 -0.00000000000E+00 -0.00000000000E+00 -0.45317720114E+03  0.45317720114E+03  0.00000000000E+00 0. -1.
         23    2    1    2    0    0  0.25986386292E+02  0.11371647747E+02 -0.22533520491E+03  0.24499904115E+03  0.91891071083E+02 0.  0.
          5    1    1    2  502    0 -0.50003174045E+02  0.25949775548E+02 -0.34247832576E+02  0.66061295036E+02  0.41800000000E+01 0.  1.
         -5    1    1    2    0  502  0.24016787753E+02 -0.37321423295E+02 -0.16489587496E+03  0.17081515363E+03  0.41800000000E+01 0.  1.
        -11    1    3    3    0    0  0.16245612873E+02  0.50673969948E+02 -0.15449945198E+03  0.16340701280E+03  0.00000000000E+00 0. -1.
         11    1    3    3    0    0  0.97407734195E+01 -0.39302322202E+02 -0.70835752930E+02  0.81592028351E+02  0.00000000000E+00 0.  1.
</event>
<event>
 7    1  0.6684706E-006  0.1041661E+03  0.7561462E-02  0.1271771E+00
         -3   -1    0    0    0  501 -0.00000000000E+00  0.00000000000E+00  0.17011764887E+03  0.17011764887E+03  0.00000000000E+00 0.  1.
          3   -1    0    0  501    0  0.00000000000E+00 -0.00000000000E+00 -0.82574930311E+02  0.82574930311E+02  0.00000000000E+00 0. -1.
         23    2    1    2    0    0  0.26472528385E+02  0.36865442494E+02  0.63902401998E+02  0.11753349912E+03  0.87582822654E+02 0.  0.
          5    1    1    2  502    0  0.34369351645E+02 -0.39292151450E+02 -0.24122316957E+02  0.57658339149E+02  0.41800000000E+01 0. -1.
         -5    1    1    2    0  502 -0.60841880030E+02  0.24267089558E+01  0.47762633519E+02  0.77500740917E+02  0.41800000000E+01 0. -1.
        -11    1    3    3    0    0  0.35243020079E+02 -0.17856449889E+02  0.42758100119E+02  0.58216650477E+02  0.00000000000E+00 0.  1.
         11    1    3    3    0    0 -0.87704916945E+01  0.54721892383E+02  0.21144301878E+02  0.59316848639E+02  0.00000000000E+00 0. -1.
</event>
<event>
 7    1  0.6684706E-006  0.1029810E+03  0.7561462E-02  0.1274149E+00
          2   -1    0    0  501    0  0.00000000000E+00  0.00000000000E+00  0.10643804117E+03  0.10643804117E+03  0.00000000000E+00 0. -1.
         -2   -1    0    0    0  501 -0.00000000000E+00 -0.00000000000E+00 -0.17196644932E+03  0.17196644932E+03  0.00000000000E+00 0.  1.
         23    2    1    2    0    0  0.52445691657E+02 -0.59126316740E+02 -0.45535267123E+02  0.12911054311E+03  0.91376145051E+02 0.  0.
          5    1    1    2  502    0 -0.68169516135E+02  0.70237960226E+02  0.24194972381E+02  0.10091245253E+03  0.41800000000E+01 0.  1.
         -5    1    1    2    0  502  0.15723824478E+02 -0.11111643486E+02 -0.44188113409E+02  0.48381494849E+02  0.41800000000E+01 0.  1.
        -11    1    3    3    0    0  0.32881539688E+02 -0.84220421504E+01 -0.63389501735E+02  0.71905183238E+02  0.00000000000E+00 0.  1.
         11    1    3    3    0    0  0.19564151969E+02 -0.50704274589E+02  0.17854234612E+02  0.57205359867E+02  0.00000000000E+00 0. -1.
</event>
<event>
 7    1  0.6684706E-006  0.1733000E+03  0.7561462E-02  0.1174450E+00
          2   -1    0    0  501    0  0.00000000000E+00  0.00000000000E+00  0.18422648736E+04  0.18422648736E+04  0.00000000000E+00 0.  1.
         -2   -1    0    0    0  501 -0.00000000000E+00 -0.00000000000E+00 -0.22803381418E+02  0.22803381418E+02  0.00000000000E+00 0. -1.
         23    2    1    2    0    0  0.11894986176E+03 -0.82247526131E+02  0.42760593883E+03  0.46013981724E+03  0.89264143552E+02 0.  0.
          5    1    1    2  502    0 -0.14414906608E+03  0.56615430189E+02  0.11456962697E+04  0.11561235553E+04  0.41800000000E+01 0. -1.
         -5    1    1    2    0  502  0.25199204318E+02  0.25632095942E+02  0.24615928359E+03  0.24880488246E+03  0.41800000000E+01 0. -1.
        -11    1    3    3    0    0  0.56034292890E+02 -0.55816076648E+01  0.25432290392E+03  0.26048250572E+03  0.00000000000E+00 0.  1.
         11    1    3    3    0    0  0.62915568874E+02 -0.76665918466E+02  0.17328303490E+03  0.19965731153E+03  0.00000000000E+00 0. -1.
</event>
<event>
 7    1  0.6684706E-006  0.1461022E+03  0.7561462E-02  0.1205346E+00
         -2   -1    0    0    0  501 -0.00000000000E+00  0.00000000000E+00  0.90952343795E+02  0.90952343795E+02  0.00000000000E+00 0.  1.
          2   -1    0    0  501    0  0.00000000000E+00 -0.00000000000E+00 -0.27251675648E+03  0.27251675648E+03  0.00000000000E+00 0. -1.
         23    2    1    2    0    0 -0.61091930542E+02 -0.89393310079E+02 -0.42074025246E+02  0.14706951603E+03  0.90198841910E+02 0.  0.
          5    1    1    2  502    0 -0.31548797528E+02  0.48211484061E+02 -0.23698114022E+02  0.62439945780E+02  0.41800000000E+01 0. -1.
         -5    1    1    2    0  502  0.92640728070E+02  0.41181826018E+02 -0.11579227341E+03  0.15395963846E+03  0.41800000000E+01 0. -1.
        -11    1    3    3    0    0  0.10921932921E+01 -0.66797460243E+02 -0.45483018340E+02  0.80819543048E+02  0.00000000000E+00 0. -1.
         11    1    3    3    0    0 -0.62184123834E+02 -0.22595849837E+02  0.34089930939E+01  0.66249972987E+02  0.00000000000E+00 0.  1.
</event>
<event>
 7    1  0.6684706E-006  0.2316192E+03  0.7561462E-02  0.1125505E+00
          2   -1    0    0  501    0  0.00000000000E+00  0.00000000000E+00  0.20693149789E+03  0.20693149789E+03  0.00000000000E+00 0. -1.
         -2   -1    0    0    0  501 -0.00000000000E+00 -0.00000000000E+00 -0.30383141430E+03  0.30383141430E+03  0.00000000000E+00 0.  1.
         23    2    1    2    0    0  0.16114725706E+03  0.14195847413E+03 -0.11841974480E+03  0.26130239257E+03  0.90194553979E+02 0.  0.
          5    1    1    2  502    0 -0.99333041392E+02 -0.70100109531E+01  0.15337101292E+02  0.10084092642E+03  0.41800000000E+01 0. -1.
         -5    1    1    2    0  502 -0.61814215669E+02 -0.13494846317E+03  0.61827270966E+01  0.14861959321E+03  0.41800000000E+01 0. -1.
        -11    1    3    3    0    0  0.45405263631E+02  0.33107926441E+02 -0.80126354073E+02  0.97867284501E+02  0.00000000000E+00 0.  1.
         11    1    3    3    0    0  0.11574199343E+03  0.10885054768E+03 -0.38293390726E+02  0.16343510806E+03  0.00000000000E+00 0. -1.
</event>
<event>
 7    1  0.6684706E-006  0.1296196E+03  0.7561462E-02  0.1228021E+00
          2   -1    0    0  501    0  0.00000000000E+00  0.00000000000E+00  0.77309552025E+03  0.77309552025E+03  0.00000000000E+00 0. -1.
         -2   -1    0    0    0  501 -0.00000000000E+00 -0.00000000000E+00 -0.29872052236E+02  0.29872052236E+02  0.00000000000E+00 0.  1.
         23    2    1    2    0    0  0.58209531983E+02 -0.48089200503E+01  0.14206357025E+03  0.17925456295E+03  0.92404897174E+02 0.  0.
          5    1    1    2  502    0 -0.54148007983E+02  0.75672821188E+02  0.29264856420E+03  0.30711404586E+03  0.41800000000E+01 0. -1.
         -5    1    1    2    0  502 -0.40615240005E+01 -0.70863901138E+02  0.30851133357E+03  0.31659896367E+03  0.41800000000E+01 0.  1.
        -11    1    3    3    0    0  0.36375581320E+02  0.34430863605E+02  0.11826242422E+03  0.12843157037E+03  0.00000000000E+00 0. -1.
         11    1    3    3    0    0  0.21833950664E+02 -0.39239783655E+02  0.23801146029E+02  0.50822992584E+02  0.00000000000E+00 0.  1.
</event>
<event>
 7    1  0.6684706E-006  0.1772305E+03  0.7561462E-02  0.1170511E+00
         -2   -1    0    0    0  501 -0.00000000000E+00  0.00000000000E+00  0.46387015659E+03  0.46387015659E+03  0.00000000000E+00 0.  1.
          2   -1    0    0  501    0  0.00000000000E+00 -0.00000000000E+00 -0.90792908774E+02  0.90792908774E+02  0.00000000000E+00 0. -1.
         23    2    1    2    0    0  0.60603053386E+02 -0.15205947918E+03  0.25545283412E+03  0.31794148383E+03  0.95056937655E+02 0.  0.
          5    1    1    2  502    0 -0.22210688630E+02  0.88778126723E+02 -0.68257346599E+01  0.91863668159E+02  0.41800000000E+01 0. -1.
         -5    1    1    2    0  502 -0.38392364756E+02  0.63281352455E+02  0.12445014836E+03  0.14485791337E+03  0.41800000000E+01 0.  1.
        -11    1    3    3    0    0  0.73016439869E+02 -0.15866165395E+03  0.22921902551E+03  0.28817751922E+03  0.00000000000E+00 0.  1.
         11    1    3    3    0    0 -0.12413386483E+02  0.66021747736E+01  0.26233808606E+02  0.29763964617E+02  0.00000000000E+00 0. -1.
</event>
<event>
 7    1  0.6684706E-006  0.2299858E+03  0.7561462E-02  0.1126650E+00
         -1   -1    0    0    0  501 -0.00000000000E+00  0.00000000000E+00  0.68242019861E+03  0.68242019861E+03  0.00000000000E+00 0.  1.
          1   -1    0    0  501    0  0.00000000000E+00 -0.00000000000E+00 -0.78378192870E+02  0.78378192870E+02  0.00000000000E+00 0. -1.
         23    2    1    2    0    0  0.47765206510E+02 -0.19754789029E+03  0.25117708997E+03  0.33480832865E+03  0.87749658080E+02 0.  0.
          5    1    1    2  502    0 -0.70159329094E+02  0.42992320934E+02  0.11841134377E+03  0.14425460080E+03  0.41800000000E+01 0.  1.
         -5    1    1    2    0  502  0.22394122584E+02  0.15455556936E+03  0.23445357200E+03  0.28173546203E+03  0.41800000000E+01 0.  1.
        -11    1    3    3    0    0 -0.24907924897E+02 -0.73286233841E+02  0.85766340920E+02  0.11552983177E+03  0.00000000000E+00 0.  1.
         11    1    3    3    0    0  0.72673131406E+02 -0.12426165645E+03  0.16541074905E+03  0.21927849688E+03  0.00000000000E+00 0. -1.
</event>
<event>
 7    1  0.6684706E-006  0.1630774E+03  0.7561462E-02  0.1185266E+00
         -2   -1    0    0    0  501 -0.00000000000E+00  0.00000000000E+00  0.41075909217E+02  0.41075909217E+02  0.00000000000E+00 0.  1.
          2   -1    0    0  501    0  0.00000000000E+00 -0.00000000000E+00 -0.79170428611E+03  0.79170428611E+03  0.00000000000E+00 0. -1.
         23    2    1    2    0    0  0.99375841388E+02 -0.10080815357E+03 -0.31449104683E+03  0.35749026155E+03  0.94110716126E+02 0.  0.
          5    1    1    2  502    0 -0.63875232898E+02  0.18576198085E+02 -0.63649976606E+02  0.92162424203E+02  0.41800000000E+01 0. -1.
         -5    1    1    2    0  502 -0.35500608491E+02  0.82231955484E+02 -0.37248735346E+03  0.38312750957E+03  0.41800000000E+01 0. -1.
        -11    1    3    3    0    0 -0.40224793927E+01  0.14448026680E+02 -0.23763228504E+02  0.28100121785E+02  0.00000000000E+00 0.  1.
         11    1    3    3    0    0  0.10339832078E+03 -0.11525618025E+03 -0.29072781832E+03  0.32939013976E+03  0.00000000000E+00 0. -1.
</event>
<event>
 7    1  0.6684706E-006  0.1049332E+03  0.7561462E-02  0.1270251E+00
         -3   -1    0    0    0  501 -0.00000000000E+00  0.00000000000E+00  0.77209881687E+02  0.77209881687E+02  0.00000000000E+00 0.  1.
          3   -1    0    0  501    0  0.00000000000E+00 -0.00000000000E+00 -0.28420844917E+03  0.28420844917E+03  0.00000000000E+00 0. -1.
         23    2    1    2    0    0  0.39983706886E+02  0.54311347432E+02 -0.95216299865E+00  0.11111634755E+03  0.88303549204E+02 0.  0.
          5    1    1    2  502    0 -0.15166253179E+02 -0.85937968016E+02 -0.18531602416E+03  0.20487764835E+03  0.41800000000E+01 0. -1.
         -5    1    1    2    0  502 -0.24817453707E+02  0.31626620584E+02 -0.20730380323E+02  0.45424334958E+02  0.41800000000E+01 0. -1.
        -11    1    3    3    0    0  0.21239572066E+01  0.42313801824E+02  0.36950948544E+02  0.56216915758E+02  0.00000000000E+00 0.  1.
         11    1    3    3    0    0  0.37859749680E+02  0.11997545608E+02 -0.37903111542E+02  0.54899431792E+02  0.00000000000E+00 0. -1.
</event>
<event>
 7    1  0.6684706E-006  0.1825716E+03  0.7561462E-02  0.1165337E+00
          3   -1    0    0  501    0  0.00000000000E+00  0.00000000000E+00  0.22932546937E+03  0.22932546937E+03  0.00000000000E+00 0. -1.
         -3   -1    0    0    0  501 -0.00000000000E+00 -0.00000000000E+00 -0.16810263827E+03  0.16810263827E+03  0.00000000000E+00 0.  1.
         23    2    1    2    0    0  0.14901387692E+03 -0.27902610178E+02 -0.32726357721E+02  0.17958032598E+03  0.90522857996E+02 0.  0.
          5    1    1    2  502    0 -0.22831207018E+02  0.59067301729E+02  0.13345796569E+02  0.64852084265E+02  0.41800000000E+01 0.  1.
         -5    1    1    2    0  502 -0.12618266990E+03 -0.31164691552E+02  0.80603392247E+02  0.15299569740E+03  0.41800000000E+01 0.  1.
        -11    1    3    3    0    0  0.11546074324E+03 -0.55580400993E+02 -0.42488980551E+02  0.13500250988E+03  0.00000000000E+00 0.  1.
         11    1    3    3    0    0  0.33553133674E+02  0.27677790815E+02  0.97626228302E+01  0.44577816101E+02  0.00000000000E+00 0. -1.
</event>
<event>
 7    1  0.9653802E-006  0.2580355E+03  0.7561462E-02  0.1108329E+00
         -2   -1    0    0    0  501 -0.00000000000E+00  0.00000000000E+00  0.11489173562E+03  0.11489173562E+03  0.00000000000E+00 0. -1.
          2   -1    0    0  501    0  0.00000000000E+00 -0.00000000000E+00 -0.65887718378E+03  0.65887718378E+03  0.00000000000E+00 0.  1.
         23    2    1    2    0    0 -0.20626386992E+03 -0.14396332421E+03 -0.28615094544E+03  0.39246015794E+03  0.94193360935E+02 0.  0.
          5    1    1    2  502    0  0.74196914389E+02  0.61392259872E+02 -0.22361225575E+02  0.98952960978E+02  0.41800000000E+01 0. -1.
         -5    1    1    2    0  502  0.13206695553E+03  0.82571064340E+02 -0.23547327715E+03  0.28235580048E+03  0.41800000000E+01 0. -1.
        -11    1    3    3    0    0 -0.71732389773E+02 -0.73096734988E+01 -0.47641849044E+02  0.86421715150E+02  0.00000000000E+00 0. -1.
         11    1    3    3    0    0 -0.13453148015E+03 -0.13665365071E+03 -0.23850909639E+03  0.30603844279E+03  0.00000000000E+00 0.  1.
</event>
<event>
 7    1  0.6684706E-006  0.1089483E+03  0.7561462E-02  0.1262530E+00
          2   -1    0    0  501    0  0.00000000000E+00  0.00000000000E+00  0.11169372138E+03  0.11169372138E+03  0.00000000000E+00 0. -1.
         -2   -1    0    0    0  501 -0.00000000000E+00 -0.00000000000E+00 -0.29254322452E+03  0.29254322452E+03  0.00000000000E+00 0.  1.
         23    2    1    2    0    0  0.24357095187E+02 -0.23160199546E+02 -0.24193078382E+03  0.26102992620E+03  0.92067666878E+02 0.  0.
          5    1    1    2  502    0 -0.72601138402E+01 -0.47589534483E+02  0.49876279329E+02  0.69444860753E+02  0.41800000000E+01 0. -1.
         -5    1    1    2    0  502 -0.17096981346E+02  0.70749734029E+02  0.11205001349E+02  0.73762158940E+02  0.41800000000E+01 0. -1.
        -11    1    3    3    0    0 -0.13706937654E+02  0.29012254208E+02 -0.61105866929E+02  0.69018244017E+02  0.00000000000E+00 0.  1.
         11    1    3    3    0    0  0.38064032841E+02 -0.52172453754E+02 -0.18082491689E+03  0.19201168218E+03  0.00000000000E+00 0. -1.
</event>
<event>
 7    1  0.6684706E-006  0.1089712E+03  0.7561462E-02  0.1262487E+00
         -1   -1    0    0    0  501 -0.00000000000E+00  0.00000000000E+00  0.39651185914E+03  0.39651185914E+03  0.00000000000E+00 0. -1.
          1   -1    0    0  501    0  0.00000000000E+00 -0.00000000000E+00 -0.38771699995E+02  0.38771699995E+02  0.00000000000E+00 0.  1.
         23    2    1    2    0    0  0.23469138797E+02  0.29898659794E+02  0.23847355700E+03  0.25831771326E+03  0.91726077319E+02 0.  0.
          5    1    1    2  502    0  0.42948803853E+02  0.19625500496E+02  0.36991954952E+02  0.60130168412E+02  0.41800000000E+01 0.  1.
         -5    1    1    2    0  502 -0.66417942650E+02 -0.49524160289E+02  0.82274647190E+02  0.11683567746E+03  0.41800000000E+01 0.  1.
        -11    1    3    3    0    0 -0.20516914707E+02 -0.14469847612E+02  0.23281077169E+02  0.34239287859E+02  0.00000000000E+00 0.  1.
         11    1    3    3    0    0  0.43986053504E+02  0.44368507405E+02  0.21519247983E+03  0.22407842540E+03  0.00000000000E+00 0. -1.
</event>
<event>
 7    1  0.6684706E-006  0.9600770E+02  0.7561462E-02  0.1288923E+00
         -2   -1    0    0    0  501 -0.00000000000E+00  0.00000000000E+00  0.58694832359E+02  0.58694832359E+02  0.00000000000E+00 0.  1.
          2   -1    0    0  501    0  0.00000000000E+00 -0.00000000000E+00 -0.30763583686E+03  0.30763583686E+03  0.00000000000E+00 0. -1.
         23    2    1    2    0    0 -0.42732848980E+02  0.43061706610E+02 -0.41404305260E+02  0.11653208885E+03  0.90471013479E+02 0.  0.
          5    1    1    2  502    0  0.21716976998E+02 -0.81412521709E+02 -0.85580232849E+02  0.12017102161E+03  0.41800000000E+01 0.  1.
         -5    1    1    2    0  502  0.21015871981E+02  0.38350815100E+02 -0.12195646639E+03  0.12962755875E+03  0.41800000000E+01 0.  1.
        -11    1    3    3    0    0 -0.14503924071E+02  0.28453312218E+02 -0.67975295776E+02  0.75103898870E+02  0.00000000000E+00 0. -1.
         11    1    3    3    0    0 -0.28228924908E+02  0.14608394391E+02  0.26570990516E+02  0.41428189982E+02  0.00000000000E+00 0.  1.
</event>
<event>
 7    1  0.6684706E-006  0.9531548E+02  0.7561462E-02  0.1290467E+00
          1   -1    0    0  501    0  0.00000000000E+00  0.00000000000E+00  0.33963951940E+02  0.33963951940E+02  0.00000000000E+00 0. -1.
         -1   -1    0    0    0  501 -0.00000000000E+00 -0.00000000000E+00 -0.49502348164E+03  0.49502348164E+03  0.00000000000E+00 0.  1.
         23    2    1    2    0    0  0.65121472734E+02 -0.23058155267E+02 -0.15099543622E+03  0.18757925735E+03  0.87257499928E+02 0.  0.
          5    1    1    2  502    0 -0.46288737300E+02 -0.11444516912E+02 -0.25736300639E+02  0.54345687398E+02  0.41800000000E+01 0.  1.
         -5    1    1    2    0  502 -0.18832735434E+02  0.34502672178E+02 -0.28432779284E+03  0.28706248883E+03  0.41800000000E+01 0.  1.
        -11    1    3    3    0    0  0.76905987526E+02  0.48583151096E+00 -0.13853499799E+03  0.15845097860E+03  0.00000000000E+00 0.  1.
         11    1    3    3    0    0 -0.11784514791E+02 -0.23543986778E+02 -0.12460438223E+02  0.29128278751E+02  0.00000000000E+00 0. -1.
</event>
<event>
 7    1  0.6684706E-006  0.1638365E+03  0.7561462E-02  0.1184432E+00
          2   -1    0    0  501    0  0.00000000000E+00  0.00000000000E+00  0.54744624964E+03  0.54744624964E+03  0.00000000000E+00 0. -1.
         -2   -1    0    0    0  501 -0.00000000000E+00 -0.00000000000E+00 -0.83388200995E+02  0.83388200995E+02  0.00000000000E+00 0.  1.
         23    2    1    2    0    0  0.51126709266E+02  0.13505093343E+03  0.21657550665E+03  0.27606052539E+03  0.91933500845E+02 0.  0.
          5    1    1    2  502    0 -0.28592599156E+02 -0.10274377062E+02  0.22358532002E+03  0.22567890305E+03  0.41800000000E+01 0. -1.
         -5    1    1    2    0  502 -0.22534110110E+02 -0.12477655637E+03  0.23897221969E+02  0.12909502219E+03  0.41800000000E+01 0.  1.
        -11    1    3    3    0    0  0.54825765940E+02  0.25394255083E+02  0.91877559191E+02  0.10996462470E+03  0.00000000000E+00 0. -1.
         11    1    3    3    0    0 -0.36990566739E+01  0.10965667835E+03  0.12469794746E+03  0.16609590070E+03  0.00000000000E+00 0.  1.
</event>
<event>
 7    1  0.6684706E-006  0.2063544E+03  0.7561462E-02  0.1144486E+00
         -2   -1    0    0    0  501 -0.00000000000E+00  0.00000000000E+00  0.10348591396E+03  0.10348591396E+03  0.00000000000E+00 0.  1.
          2   -1    0    0  501    0  0.00000000000E+00 -0.00000000000E+00 -0.69315334217E+03  0.69315334217E+03  0.00000000000E+00 0. -1.
         23    2    1    2    0    0  0.97670964231E+02  0.43570572223E+02 -0.37549911750E+02  0.14625335550E+03  0.92423136204E+02 0.  0.
          5    1    1    2  502    0 -0.18302608599E+03 -0.10350740358E+01 -0.51735937535E+03  0.54879669751E+03  0.41800000000E+01 0. -1.
         -5    1    1    2    0  502  0.85355121763E+02 -0.42535498187E+02 -0.34758141107E+02  0.10158920312E+03  0.41800000000E+01 0.  1.
        -11    1    3    3    0    0  0.32023981395E+02  0.58644532081E+02  0.42977175471E+01  0.66956604629E+02  0.00000000000E+00 0.  1.
         11    1    3    3    0    0  0.65646982836E+02 -0.15073959858E+02 -0.41847629298E+02  0.79296750874E+02  0.00000000000E+00 0. -1.
</event>
<event>
 7    1  0.6979375E-006  0.2504810E+03  0.7561462E-02  0.1113001E+00
          2   -1    0    0  501    0  0.00000000000E+00  0.00000000000E+00  0.65924372254E+03  0.65924372254E+03  0.00000000000E+00 0. -1.
         -2   -1    0    0    0  501 -0.00000000000E+00 -0.00000000000E+00 -0.14169483922E+03  0.14169483922E+03  0.00000000000E+00 0.  1.
         23    2    1    2    0    0 -0.17261089459E+03 -0.15809229262E+03  0.39038354370E+02  0.25375715967E+03  0.89894432822E+02 0.  0.
          5    1    1    2  502    0  0.54592605906E+02  0.22136648517E+01  0.42581093178E+02  0.69396504436E+02  0.41800000000E+01 0. -1.
         -5    1    1    2    0  502  0.11801828869E+03  0.15587862777E+03  0.43592943576E+03  0.47778489766E+03  0.41800000000E+01 0. -1.
        -11    1    3    3    0    0 -0.45330800814E+01 -0.51233469635E+02  0.11350572762E+02  0.52671175494E+02  0.00000000000E+00 0. -1.
         11    1    3    3    0    0 -0.16807781451E+03 -0.10685882299E+03  0.27687781608E+02  0.20108598418E+03  0.00000000000E+00 0.  1.
</event>
<event>
 7    1  0.6684706E-006  0.8424359E+02  0.7561462E-02  0.1317423E+00
          2   -1    0    0  501    0  0.00000000000E+00  0.00000000000E+00  0.11062408505E+03  0.11062408505E+03  0.00000000000E+00 0. -1.
         -2   -1    0    0    0  501 -0.00000000000E+00 -0.00000000000E+00 -0.11866458618E+03  0.11866458618E+03  0.00000000000E+00 0.  1.
         23    2    1    2    0    0  0.16689816900E+02 -0.52104584900E+01 -0.29550835761E+02  0.10116635034E+03  0.95161335013E+02 0.  0.
          5    1    1    2  502    0  0.67880881534E+01 -0.45679497153E+02  0.47343605705E+02  0.66269027472E+02  0.41800000000E+01 0. -1.
         -5    1    1    2    0  502 -0.23477905053E+02  0.50889955643E+02 -0.25833271077E+02  0.61853293410E+02  0.41800000000E+01 0. -1.
        -11    1    3    3    0    0  0.39263611282E+02 -0.14010712616E+02  0.19828062007E+02  0.46163657588E+02  0.00000000000E+00 0. -1.
         11    1    3    3    0    0 -0.22573794382E+02  0.88002541261E+01 -0.49378897767E+02  0.55002692754E+02  0.00000000000E+00 0.  1.
</event>
<event>
 7    1  0.6684706E-006  0.2347587E+03  0.7561462E-02  0.1123334E+00
          2   -1    0    0  501    0  0.00000000000E+00  0.00000000000E+00  0.16685342078E+04  0.16685342078E+04  0.00000000000E+00 0. -1.
         -2   -1    0    0    0  501 -0.00000000000E+00 -0.00000000000E+00 -0.38430584450E+02  0.38430584450E+02  0.00000000000E+00 0.  1.
         23    2    1    2    0    0  0.57430706276E+01  0.22819129539E+03  0.79299070156E+03  0.83031893269E+03  0.92146769203E+02 0.  0.
          5    1    1    2  502    0  0.14828420851E+02 -0.62123915539E+02  0.45497028719E+03  0.45945042994E+03  0.41800000000E+01 0.  1.
         -5    1    1    2    0  502 -0.20571491478E+02 -0.16606737986E+03  0.38214263459E+03  0.41719542961E+03  0.41800000000E+01 0.  1.
        -11    1    3    3    0    0 -0.26985740190E+02  0.16254881923E+03  0.44124535300E+03  0.47100722962E+03  0.00000000000E+00 0.  1.
         11    1    3    3    0    0  0.32728810818E+02  0.65642476164E+02  0.35174534856E+03  0.35931170308E+03  0.00000000000E+00 0. -1.
</event>
<event>
 7    1  0.6684706E-006  0.1029326E+03  0.7561462E-02  0.1274247E+00
         -2   -1    0    0    0  501 -0.00000000000E+00  0.00000000000E+00  0.26181521988E+03  0.26181521988E+03  0.00000000000E+00 0.  1.
          2   -1    0    0  501    0  0.00000000000E+00 -0.00000000000E+00 -0.56618753213E+02  0.56618753213E+02  0.00000000000E+00 0. -1.
         23    2    1    2    0    0  0.29526524479E+02 -0.27483273127E+02  0.13989406299E+03  0.17167176724E+03  0.90959885987E+02 0.  0.
          5    1    1    2  502    0 -0.62124102407E+02  0.37318351777E+02  0.81230607852E+02  0.10894010984E+03  0.41800000000E+01 0. -1.
         -5    1    1    2    0  502  0.32597577928E+02 -0.98350786500E+01 -0.15928204173E+02  0.37822096015E+02  0.41800000000E+01 0. -1.
        -11    1    3    3    0    0  0.18729668274E+01 -0.57860029450E+02  0.72949392356E+02  0.93128432059E+02  0.00000000000E+00 0.  1.
         11    1    3    3    0    0  0.27653557652E+02  0.30376756323E+02  0.66944670630E+02  0.78543335181E+02  0.00000000000E+00 0. -1.
</event>
<event>
 7    1  0.6684706E-006  0.1311411E+03  0.7561462E-02  0.1225772E+00
          2   -1    0    0  501    0  0.00000000000E+00  0.00000000000E+00  0.12044893162E+04  0.12044893162E+04  0.00000000000E+00 0.  1.
         -2   -1    0    0    0  501 -0.00000000000E+00 -0.00000000000E+00 -0.39095610398E+02  0.39095610398E+02  0.00000000000E+00 0. -1.
         23    2    1    2    0    0 -0.13750463587E+02  0.11417168262E+03  0.12623175682E+03  0.19062288619E+03  0.84725320587E+02 0.  0.
          5    1    1    2  502    0 -0.20133334457E+00 -0.11456343437E+03  0.10285949643E+04  0.10349637162E+04  0.41800000000E+01 0.  1.
         -5    1    1    2    0  502  0.13951796931E+02  0.39175174946E+00  0.10566984733E+02  0.17998324183E+02  0.41800000000E+01 0.  1.
        -11    1    3    3    0    0 -0.38298266587E+02  0.41996502594E+02  0.20815457429E+02  0.60528891628E+02  0.00000000000E+00 0. -1.
         11    1    3    3    0    0  0.24547803000E+02  0.72175180024E+02  0.10541629939E+03  0.13009399456E+03  0.00000000000E+00 0.  1.
</event>
<event>
 7    1  0.6684706E-006  0.1087793E+03  0.7561462E-02  0.1262847E+00
         -2   -1    0    0    0  501 -0.00000000000E+00  0.00000000000E+00  0.15515245689E+02  0.15515245689E+02  0.00000000000E+00 0.  1.
          2   -1    0    0  501    0  0.00000000000E+00 -0.00000000000E+00 -0.12125733899E+04  0.12125733899E+04  0.00000000000E+00 0. -1.
         23    2    1    2    0    0  0.59767246855E+02  0.38516158257E+02 -0.30448069406E+03  0.32398802944E+03  0.84877157828E+02 0.  0.
          5    1    1    2  502    0 -0.81506749820E+02 -0.36401358437E+02 -0.86015333142E+03  0.86478299886E+03  0.41800000000E+01 0. -1.
         -5    1    1    2    0  502  0.21739502964E+02 -0.21147998194E+01 -0.32424118719E+02  0.39317607278E+02  0.41800000000E+01 0. -1.
        -11    1    3    3    0    0  0.65966032266E+02 -0.98348093225E+00 -0.14072862622E+03  0.15542532254E+03  0.00000000000E+00 0.  1.
         11    1    3    3    0    0 -0.61987854101E+01  0.39499639189E+02 -0.16375206784E+03  0.16856270691E+03  0.00000000000E+00 0. -1.
</event>
<event>
 7    1  0.6684706E-006  0.1117759E+03  0.7561462E-02  0.1257316E+00
          1   -1    0    0  501    0  0.00000000000E+00  0.00000000000E+00  0.98038054103E+03  0.98038054103E+03  0.00000000000E+00 0. -1.
         -1   -1    0    0    0  501 -0.00000000000E+00 -0.00000000000E+00 -0.31445470084E+02  0.31445470084E+02  0.00000000000E+00 0.  1.
         23    2    1    2    0    0 -0.19293035897E+02  0.90422253695E+02  0.15129356506E+03  0.19915885795E+03  0.90697864762E+02 0.  0.
          5    1    1    2  502    0  0.50306904529E+01 -0.69330280058E+01 -0.95653910242E+00  0.95792531451E+01  0.41800000000E+01 0. -1.
         -5    1    1    2    0  502  0.14262345444E+02 -0.83489225690E+02  0.79859804499E+03  0.80308790003E+03  0.41800000000E+01 0. -1.
        -11    1    3    3    0    0  0.27978795473E+02  0.91314195038E+00  0.27407080093E+02  0.39176458027E+02  0.00000000000E+00 0. -1.
         11    1    3    3    0    0 -0.47271831370E+02  0.89509111745E+02  0.12388648497E+03  0.15998239992E+03  0.00000000000E+00 0.  1.
</event>
<event>
 7    1  0.6684706E-006  0.1165723E+03  0.7561462E-02  0.1248861E+00
          1   -1    0    0  501    0  0.00000000000E+00  0.00000000000E+00  0.40587078802E+03  0.40587078802E+03  0.00000000000E+00 0. -1.
         -1   -1    0    0    0  501 -0.00000000000E+00 -0.00000000000E+00 -0.49194467207E+02  0.49194467207E+02  0.00000000000E+00 0.  1.
         23    2    1    2    0    0 -0.61684379474E+02 -0.28065720317E+02  0.65042661129E+02  0.13058052274E+03  0.90708752747E+02 0.  0.
          5    1    1    2  502    0  0.59651701723E+02  0.67130405202E+02  0.12950216956E+03  0.15764866362E+03  0.41800000000E+01 0. -1.
         -5    1    1    2    0  502  0.20326777509E+01 -0.39064684885E+02  0.16213149012E+03  0.16683606886E+03  0.41800000000E+01 0. -1.
        -11    1    3    3    0    0 -0.73099581270E+02  0.54210463166E+00  0.19601191865E+02  0.75683877952E+02  0.00000000000E+00 0.  1.
         11    1    3    3    0    0  0.11415201797E+02 -0.28607824948E+02  0.45441469264E+02  0.54896644790E+02  0.00000000000E+00 0. -1.
</event>
<event>
 7    1  0.6684706E-006  0.1244125E+03  0.7561462E-02  0.1235990E+00
          1   -1    0    0  501    0  0.00000000000E+00  0.00000000000E+00  0.44537253785E+03  0.44537253785E+03  0.00000000000E+00 0. -1.
         -1   -1    0    0    0  501 -0.00000000000E+00 -0.00000000000E+00 -0.38725066836E+02  0.38725066836E+02  0.00000000000E+00 0.  1.
         23    2    1    2    0    0 -0.36229862912E+01  0.67076916552E+02  0.13795157205E+03  0.18019591444E+03  0.94485409379E+02 0.  0.
          5    1    1    2  502    0  0.23271143289E+02 -0.95787790603E+02  0.14533278668E+03  0.17565858425E+03  0.41800000000E+01 0.  1.
         -5    1    1    2    0  502 -0.19648156998E+02  0.28710874051E+02  0.12336311228E+03  0.12824310599E+03  0.41800000000E+01 0.  1.
        -11    1    3    3    0    0  0.40935211812E+02  0.89858520953E+01  0.40252244508E+02  0.58109210044E+02  0.00000000000E+00 0.  1.
         11    1    3    3    0    0 -0.44558198103E+02  0.58091064457E+02  0.97699327546E+02  0.12208670440E+03  0.00000000000E+00 0. -1.
</event>
<event>
 7    1  0.6684706E-006  0.2886148E+03  0.7561462E-02  0.1091075E+00
          2   -1    0    0  501    0  0.00000000000E+00  0.00000000000E+00  0.19005697851E+04  0.19005697851E+04  0.00000000000E+00 0. -1.
         -2   -1    0    0    0  501 -0.00000000000E+00 -0.00000000000E+00 -0.72826145461E+02  0.72826145461E+02  0.00000000000E+00 0.  1.
         23    2    1    2    0    0 -0.28069949466E+03  0.18098907595E+02  0.32575117339E+03  0.44018081438E+03  0.92333881261E+02 0.  0.
          5    1    1    2  502    0  0.18976529153E+03  0.27106815854E+02  0.73837834679E+03  0.76286676474E+03  0.41800000000E+01 0. -1.
         -5    1    1    2    0  502  0.90934203125E+02 -0.45205723450E+02  0.76361411943E+03  0.77034835141E+03  0.41800000000E+01 0. -1.
        -11    1    3    3    0    0 -0.93590322240E+02  0.24124279490E+02  0.55587915984E+02  0.11149504779E+03  0.00000000000E+00 0. -1.
         11    1    3    3    0    0 -0.18710917242E+03 -0.60253718946E+01  0.27016325741E+03  0.32868576660E+03  0.00000000000E+00 0.  1.
</event>
<event>
 7    1  0.6684706E-006  0.1037484E+03  0.7561462E-02  0.1272605E+00
         -1   -1    0    0    0  501 -0.00000000000E+00  0.00000000000E+00  0.13794416634E+03  0.13794416634E+03  0.00000000000E+00 0.  1.
          1   -1    0    0  501    0  0.00000000000E+00 -0.00000000000E+00 -0.15828507049E+03  0.15828507049E+03  0.00000000000E+00 0. -1.
         23    2    1    2    0    0  0.41711353287E+02  0.22561377465E+02  0.77850225490E+02  0.13028465293E+03  0.93083728086E+02 0.  0.
          5    1    1    2  502    0  0.23062978161E+01 -0.69020667213E+02 -0.57769215940E+02  0.90132825444E+02  0.41800000000E+01 0.  1.
         -5    1    1    2    0  502 -0.44017651103E+02  0.46459289748E+02 -0.40421913705E+02  0.75811758456E+02  0.41800000000E+01 0.  1.
        -11    1    3    3    0    0  0.56176120264E+02  0.17235665878E+02  0.92129244226E+02  0.10927315456E+03  0.00000000000E+00 0.  1.
         11    1    3    3    0    0 -0.14464766977E+02  0.53257115873E+01 -0.14279018737E+02  0.21011498369E+02  0.00000000000E+00 0. -1.
</event>
<event>
 7    1  0.6684706E-006  0.1063176E+03  0.7561462E-02  0.1267545E+00
         -2   -1    0    0    0  501 -0.00000000000E+00  0.00000000000E+00  0.40985173627E+02  0.40985173627E+02  0.00000000000E+00 0.  1.
          2   -1    0    0  501    0  0.00000000000E+00 -0.00000000000E+00 -0.51529798015E+03  0.51529798015E+03  0.00000000000E+00 0. -1.
         23    2    1    2    0    0  0.84956040090E+02  0.25527947733E+02 -0.24370425815E+03  0.27467498126E+03  0.90473062414E+02 0.  0.
          5    1    1    2  502    0 -0.23147705915E+02 -0.16209895996E+02 -0.21520920094E+03  0.21709686683E+03  0.41800000000E+01 0. -1.
         -5    1    1    2    0  502 -0.61808334175E+02 -0.93180517369E+01 -0.15399347435E+02  0.64511305699E+02  0.41800000000E+01 0.  1.
        -11    1    3    3    0    0 -0.20790799250E+01  0.33919860525E+02 -0.37003988283E+02  0.50241164997E+02  0.00000000000E+00 0.  1.
         11    1    3    3    0    0  0.87035120015E+02 -0.83919127919E+01 -0.20670026987E+03  0.22443381626E+03  0.00000000000E+00 0. -1.
</event>
<event>
 7    1  0.6684706E-006  0.1080381E+03  0.7561462E-02  0.1264247E+00
          1   -1    0    0  501    0  0.00000000000E+00  0.00000000000E+00  0.27207720243E+03  0.27207720243E+03  0.00000000000E+00 0. -1.
         -1   -1    0    0    0  501 -0.00000000000E+00 -0.00000000000E+00 -0.60519036522E+02  0.60519036522E+02  0.00000000000E+00 0.  1.
         23    2    1    2    0    0  0.31841742495E+02  0.56991155821E+02  0.56367584458E+02  0.12708244193E+03  0.93331420552E+02 0.  0.
          5    1    1    2  502    0  0.27282207156E+02  0.18752377494E+02  0.17841548068E+02  0.37838653867E+02  0.41800000000E+01 0. -1.
         -5    1    1    2    0  502 -0.59123949652E+02 -0.75743533315E+02  0.13734903338E+03  0.16767514316E+03  0.41800000000E+01 0.  1.
        -11    1    3    3    0    0 -0.99177099940E+01  0.40392962772E+02  0.68855148051E+02  0.80442425536E+02  0.00000000000E+00 0. -1.
         11    1    3    3    0    0  0.41759452489E+02  0.16598193048E+02 -0.12487563593E+02  0.46640016393E+02  0.00000000000E+00 0.  1.
</event>
<event>
 7    1  0.6684706E-006  0.1144854E+03  0.7561462E-02  0.1252482E+00
          1   -1    0    0  501    0  0.00000000000E+00  0.00000000000E+00  0.64184302781E+03  0.64184302781E+03  0.00000000000E+00 0. -1.
         -1   -1    0    0    0  501 -0.00000000000E+00 -0.00000000000E+00 -0.41491296430E+02  0.41491296430E+02  0.00000000000E+00 0.  1.
         23    2    1    2    0    0 -0.83214259256E+02 -0.62368440752E+02  0.16055359398E+03  0.21441533653E+03  0.96860955267E+02 0.  0.
          5    1    1    2  502    0  0.17300048247E+02 -0.27397392498E+01  0.30365423545E+03  0.30418771334E+03  0.41800000000E+01 0.  1.
         -5    1    1    2    0  502  0.65914211009E+02  0.65108180002E+02  0.13614390195E+03  0.16473127437E+03  0.41800000000E+01 0.  1.
        -11    1    3    3    0    0 -0.28045397398E+02 -0.56070565073E+02  0.24222609478E+02  0.67210024496E+02  0.00000000000E+00 0.  1.
         11    1    3    3    0    0 -0.55168861858E+02 -0.62978756794E+01  0.13633098450E+03  0.14720531203E+03  0.00000000000E+00 0. -1.
</event>
<event>
 7    1  0.6684706E-006  0.1079495E+03  0.7561462E-02  0.1264415E+00
          4   -1    0    0  501    0  0.00000000000E+00  0.00000000000E+00  0.17403551312E+03  0.17403551312E+03  0.00000000000E+00 0. -1.
         -4   -1    0    0    0  501 -0.00000000000E+00 -0.00000000000E+00 -0.98015973751E+02  0.98015973751E+02  0.00000000000E+00 0.  1.
         23    2    1    2    0    0  0.59954418770E+01 -0.46805593037E+02  0.28879675933E+02  0.10667045180E+03  0.91202197025E+02 0.  0.
          5    1    1    2  502    0  0.65209504432E+02  0.32494893353E+02  0.56146578823E+02  0.92076643487E+02  0.41800000000E+01 0. -1.
         -5    1    1    2    0  502 -0.71204946309E+02  0.14310699684E+02 -0.90067153828E+01  0.73304391589E+02  0.41800000000E+01 0.  1.
        -11    1    3    3    0    0  0.29102976632E+02 -0.24255188559E+02  0.53858540165E+02  0.65848612511E+02  0.00000000000E+00 0. -1.
         11    1    3    3    0    0 -0.23107534755E+02 -0.22550404478E+02 -0.24978864232E+02  0.40821839288E+02  0.00000000000E+00 0.  1.
</event>
<event>
 7    1  0.6684706E-006  0.1674457E+03  0.7561462E-02  0.1180538E+00
          2   -1    0    0  501    0  0.00000000000E+00  0.00000000000E+00  0.25038703357E+03  0.25038703357E+03  0.00000000000E+00 0. -1.
         -2   -1    0    0    0  501 -0.00000000000E+00 -0.00000000000E+00 -0.15977931578E+03  0.15977931578E+03  0.00000000000E+00 0.  1.
         23    2    1    2    0    0 -0.81479665733E+02 -0.14604658529E+03  0.40337604655E+02  0.19535745080E+03  0.92568192333E+02 0.  0.
          5    1    1    2  502    0  0.46429678632E+02  0.82889478999E+02 -0.36472068871E+02  0.10185315407E+03  0.41800000000E+01 0.  1.
         -5    1    1    2    0  502  0.35049987102E+02  0.63157106290E+02  0.86742182006E+02  0.11295574447E+03  0.41800000000E+01 0.  1.
        -11    1    3    3    0    0 -0.69359741739E+02 -0.12982118037E+03 -0.33261021562E+01  0.14722559425E+03  0.00000000000E+00 0.  1.
         11    1    3    3    0    0 -0.12119923995E+02 -0.16225404915E+02  0.43663706811E+02  0.48131856548E+02  0.00000000000E+00 0. -1.
</event>
<event>
 7    1  0.6684706E-006  0.1302215E+03  0.7561462E-02  0.1227127E+00
          1   -1    0    0  501    0  0.00000000000E+00  0.00000000000E+00  0.35720254272E+03  0.35720254272E+03  0.00000000000E+00 0. -1.
         -1   -1    0    0    0  501 -0.00000000000E+00 -0.00000000000E+00 -0.65382223819E+02  0.65382223819E+02  0.00000000000E+00 0.  1.
         23    2    1    2    0    0 -0.48314690655E+02 -0.45705614233E+02  0.29114744751E+02  0.12233774291E+03  0.98465945747E+02 0.  0.
          5    1    1    2  502    0  0.39206335830E+01  0.84703397079E+02  0.13507565430E+03  0.15953978071E+03  0.41800000000E+01 0. -1.
         -5    1    1    2    0  502  0.44394057072E+02 -0.38997782846E+02  0.12762991985E+03  0.14070724292E+03  0.41800000000E+01 0.  1.
        -11    1    3    3    0    0 -0.47132186491E+02 -0.74137716558E+02  0.10837909973E+02  0.88517254320E+02  0.00000000000E+00 0.  1.
         11    1    3    3    0    0 -0.11825041639E+01  0.28432102324E+02  0.18276834778E+02  0.33820488586E+02  0.00000000000E+00 0. -1.
</event>
<event>
 7    1  0.6684706E-006  0.1305494E+03  0.7561462E-02  0.1226643E+00
          1   -1    0    0  501    0  0.00000000000E+00  0.00000000000E+00  0.41305933598E+03  0.41305933598E+03  0.00000000000E+00 0. -1.
         -1   -1    0    0    0  501 -0.00000000000E+00 -0.00000000000E+00 -0.67395051785E+02  0.67395051785E+02  0.00000000000E+00 0.  1.
         23    2    1    2    0    0 -0.78476634954E+02  0.57303132868E+02  0.45126905610E+02  0.14073056923E+03  0.91249242389E+02 0.  0.
          5    1    1    2  502    0  0.91248451637E+02 -0.84543752784E+02  0.26632251185E+03  0.29397122100E+03  0.41800000000E+01 0.  1.
         -5    1    1    2    0  502 -0.12771816683E+02  0.27240619916E+02  0.34214866738E+02  0.45752597529E+02  0.41800000000E+01 0.  1.
        -11    1    3    3    0    0 -0.44743590042E+02  0.64081808152E+01 -0.21760030071E+02  0.50165252316E+02  0.00000000000E+00 0.  1.
         11    1    3    3    0    0 -0.33733044912E+02  0.50894952053E+02  0.66886935681E+02  0.90565316917E+02  0.00000000000E+00 0. -1.
</event>
<event>
 7    1  0.6684706E-006  0.2691259E+03  0.7561462E-02  0.1101781E+00
          2   -1    0    0  501    0  0.00000000000E+00  0.00000000000E+00  0.43497708077E+03  0.43497708077E+03  0.00000000000E+00 0. -1.
         -2   -1    0    0    0  501 -0.00000000000E+00 -0.00000000000E+00 -0.17710835462E+03  0.17710835462E+03  0.00000000000E+00 0.  1.
         23    2    1    2    0    0 -0.18600834724E+03  0.16855732177E+03  0.76090528337E+02  0.27786839964E+03  0.91708249642E+02 0.  0.
          5    1    1    2  502    0  0.48796531264E+02  0.56014082387E+01  0.70721765430E+02  0.86206251184E+02  0.41800000000E+01 0. -1.
         -5    1    1    2    0  502  0.13721181598E+03 -0.17415873001E+03  0.11105643238E+03  0.24801078455E+03  0.41800000000E+01 0. -1.
        -11    1    3    3    0    0 -0.87880274841E+01  0.57260301447E+02  0.14376254732E+02  0.59687923812E+02  0.00000000000E+00 0.  1.
         11    1    3    3    0    0 -0.17722031976E+03  0.11129702032E+03  0.61714273605E+02  0.21818047583E+03  0.00000000000E+00 0. -1.
</event>
<event>
 7    1  0.6684706E-006  0.1047008E+03  0.7561462E-02  0.1270710E+00
         -2   -1    0    0    0  501 -0.00000000000E+00  0.00000000000E+00  0.12991176088E+03  0.12991176088E+03  0.00000000000E+00 0. -1.
          2   -1    0    0  501    0  0.00000000000E+00 -0.00000000000E+00 -0.98382410554E+02  0.98382410554E+02  0.00000000000E+00 0.  1.
         23    2    1    2    0    0  0.14473412635E+02 -0.24178526271E+02  0.56101674767E+01  0.97475235671E+02  0.93144333075E+02 0.  0.
          5    1    1    2  502    0  0.46308246672E+02  0.29517255982E+02 -0.15186613764E+02  0.57129919903E+02  0.41800000000E+01 0.  1.
         -5    1    1    2    0  502 -0.60781659307E+02 -0.53387297107E+01  0.41105796613E+02  0.73689015859E+02  0.41800000000E+01 0.  1.
        -11    1    3    3    0    0 -0.37745868365E+02 -0.94181827134E+01 -0.11515613332E+02  0.40571690804E+02  0.00000000000E+00 0.  1.
         11    1    3    3    0    0  0.52219281001E+02 -0.14760343558E+02  0.17125780808E+02  0.56903544867E+02  0.00000000000E+00 0. -1.
</event>
<event>
 7    1  0.6684706E-006  0.1088071E+03  0.7561462E-02  0.1262795E+00
         -2   -1    0    0    0  501 -0.00000000000E+00  0.00000000000E+00  0.19684633656E+02  0.19684633656E+02  0.00000000000E+00 0.  1.
          2   -1    0    0  501    0  0.00000000000E+00 -0.00000000000E+00 -0.84755392709E+03  0.84755392709E+03  0.00000000000E+00 0. -1.
         23    2    1    2    0    0 -0.34232908823E+02 -0.22046289984E+02 -0.16882582778E+03  0.19518657550E+03  0.89093816733E+02 0.  0.
          5    1    1    2  502    0  0.27954710031E+02 -0.50630919420E+02 -0.26184731195E+03  0.26819105688E+03  0.41800000000E+01 0. -1.
         -5    1    1    2    0  502  0.62781987924E+01  0.72677209404E+02 -0.39719615370E+03  0.40386092837E+03  0.41800000000E+01 0. -1.
        -11    1    3    3    0    0 -0.58673687152E+02 -0.20184960567E+02 -0.70796093303E+02  0.94138839084E+02  0.00000000000E+00 0.  1.
         11    1    3    3    0    0  0.24440778329E+02 -0.18613294176E+01 -0.98029734479E+02  0.10104773641E+03  0.00000000000E+00 0. -1.
</event>
<event>
 7    1  0.6684706E-006  0.9649577E+02  0.7561462E-02  0.1287842E+00
          1   -1    0    0  501    0  0.00000000000E+00  0.00000000000E+00  0.37732015838E+04  0.37732015838E+04  0.00000000000E+00 0. -1.
         -1   -1    0    0    0  501 -0.00000000000E+00 -0.00000000000E+00 -0.13851611578E+02  0.13851611578E+02  0.00000000000E+00 0.  1.
         23    2    1    2    0    0 -0.14114123574E+02 -0.64995108019E+02  0.24481582499E+03  0.26966478399E+03  0.91437054906E+02 0.  0.
          5    1    1    2  502    0  0.25609449484E+02  0.78867251171E+01  0.28904968049E+04  0.28906240322E+04  0.41800000000E+01 0. -1.
         -5    1    1    2    0  502 -0.11495325911E+02  0.57108382902E+02  0.62403734237E+03  0.62676437917E+03  0.41800000000E+01 0. -1.
        -11    1    3    3    0    0  0.28538607862E+02 -0.57456470573E+02  0.18504179784E+03  0.19584730046E+03  0.00000000000E+00 0. -1.
         11    1    3    3    0    0 -0.42652731435E+02 -0.75386374467E+01  0.59774027144E+02  0.73817483529E+02  0.00000000000E+00 0.  1.
</event>
<event>
 7    1  0.6684706E-006  0.9084895E+02  0.7561462E-02  0.1300809E+00
          1   -1    0    0  501    0  0.00000000000E+00  0.00000000000E+00  0.51342409928E+03  0.51342409928E+03  0.00000000000E+00 0. -1.
         -1   -1    0    0    0  501 -0.00000000000E+00 -0.00000000000E+00 -0.38309784281E+02  0.38309784281E+02  0.00000000000E+00 0.  1.
         23    2    1    2    0    0 -0.28605258027E+01 -0.42199201451E+02  0.59150357360E+02  0.11531311433E+03  0.89495219703E+02 0.  0.
          5    1    1    2  502    0  0.41725313878E+02 -0.24059958775E+02  0.23262453040E+03  0.23759530294E+03  0.41800000000E+01 0.  1.
         -5    1    1    2    0  502 -0.38864788075E+02  0.66259160227E+02  0.18333942724E+03  0.19882546629E+03  0.41800000000E+01 0.  1.
        -11    1    3    3    0    0  0.99266112943E+01 -0.42487135052E+02 -0.10187942161E+02  0.44805004432E+02  0.00000000000E+00 0.  1.
         11    1    3    3    0    0 -0.12787137097E+02  0.28793360036E+00  0.69338299521E+02  0.70508109898E+02  0.00000000000E+00 0. -1.
</event>
<event>
 7    1  0.6684706E-006  0.1254798E+03  0.7561462E-02  0.1234321E+00
          2   -1    0    0  501    0  0.00000000000E+00  0.00000000000E+00  0.49202217689E+03  0.49202217689E+03  0.00000000000E+00 0. -1.
         -2   -1    0    0    0  501 -0.00000000000E+00 -0.00000000000E+00 -0.63358986086E+02  0.63358986086E+02  0.00000000000E+00 0.  1.
         23    2    1    2    0    0 -0.17530607030E+02  0.86555326608E+02  0.32863730779E+02  0.13102592757E+03  0.91041870298E+02 0.  0.
          5    1    1    2  502    0 -0.34099412214E+02 -0.14831210903E+02  0.29861202573E+02  0.47873777261E+02  0.41800000000E+01 0.  1.
         -5    1    1    2    0  502  0.51630019244E+02 -0.71724115705E+02  0.36593825745E+03  0.37648145815E+03  0.41800000000E+01 0.  1.
        -11    1    3    3    0    0 -0.30400181330E+02 -0.65323330087E+01  0.17872581357E+02  0.35864628310E+02  0.00000000000E+00 0. -1.
         11    1    3    3    0    0  0.12869574300E+02  0.93087659617E+02  0.14991149423E+02  0.95161299258E+02  0.00000000000E+00 0.  1.
</event>
<event>
 7    1  0.6684706E-006  0.1010649E+03  0.7561462E-02  0.1278072E+00
         -2   -1    0    0    0  501 -0.00000000000E+00  0.00000000000E+00  0.16296199270E+02  0.16296199270E+02  0.00000000000E+00 0.  1.
          2   -1    0    0  501    0  0.00000000000E+00 -0.00000000000E+00 -0.70988594430E+03  0.70988594430E+03  0.00000000000E+00 0. -1.
         23    2    1    2    0    0  0.28684023513E+02  0.21703758270E+01 -0.30834528256E+03  0.32267398035E+03  0.90632227078E+02 0.  0.
          5    1    1    2  502    0  0.35944868588E+02  0.20050675670E+02 -0.23204461579E+03  0.23570371081E+03  0.41800000000E+01 0. -1.
         -5    1    1    2    0  502 -0.64628892101E+02 -0.22221051497E+02 -0.15319984668E+03  0.16780445240E+03  0.41800000000E+01 0.  1.
        -11    1    3    3    0    0  0.29212082342E+02  0.42710824512E+02 -0.13321491622E+03  0.14291177065E+03  0.00000000000E+00 0. -1.
         11    1    3    3    0    0 -0.52805882971E+00 -0.40540448685E+02 -0.17513036634E+03  0.17976220971E+03  0.00000000000E+00 0.  1.
</event>
<event>
 7    1  0.6684706E-006  0.1646598E+03  0.7561462E-02  0.1183534E+00
          2   -1    0    0  501    0  0.00000000000E+00  0.00000000000E+00  0.70012745654E+02  0.70012745654E+02  0.00000000000E+00 0. -1.
         -2   -1    0    0    0  501 -0.00000000000E+00 -0.00000000000E+00 -0.49609872801E+03  0.49609872801E+03  0.00000000000E+00 0.  1.
         23    2    1    2    0    0 -0.12590616601E+03  0.53357855080E+02 -0.29437494096E+03  0.33874775363E+03  0.96922708308E+02 0.  0.
          5    1    1    2  502    0  0.50731196416E+01 -0.55407304205E+02 -0.75850580753E+02  0.94162035358E+02  0.41800000000E+01 0.  1.
         -5    1    1    2    0  502  0.12083304637E+03  0.20494491251E+01 -0.55860460645E+02  0.13320168468E+03  0.41800000000E+01 0.  1.
        -11    1    3    3    0    0 -0.22696781474E+02 -0.16423248762E+02 -0.12718419829E+02  0.30767274694E+02  0.00000000000E+00 0.  1.
         11    1    3    3    0    0 -0.10320938454E+03  0.69781103841E+02 -0.28165652113E+03  0.30798047893E+03  0.00000000000E+00 0. -1.
</event>
<event>
 7    1  0.6684706E-006  0.1005489E+03  0.7561462E-02  0.1279146E+00
         -2   -1    0    0    0  501 -0.00000000000E+00  0.00000000000E+00  0.61252168437E+02  0.61252168437E+02  0.00000000000E+00 0. -1.
          2   -1    0    0  501    0  0.00000000000E+00 -0.00000000000E+00 -0.21414227105E+03  0.21414227105E+03  0.00000000000E+00 0.  1.
         23    2    1    2    0    0 -0.13539087898E+02  0.28297447351E+02 -0.39132218758E+02  0.10343045166E+03  0.90457035975E+02 0.  0.
          5    1    1    2  502    0 -0.13532770072E+02  0.41081587503E+02 -0.77902907596E+02  0.89202960206E+02  0.41800000000E+01 0. -1.
         -5    1    1    2    0  502  0.27071857970E+02 -0.69379034854E+02 -0.35854976263E+02  0.82761027628E+02  0.41800000000E+01 0. -1.
        -11    1    3    3    0    0  0.18926416194E+02 -0.18256102433E+02  0.10225631199E+02  0.28214500517E+02  0.00000000000E+00 0. -1.
         11    1    3    3    0    0 -0.32465504092E+02  0.46553549784E+02 -0.49357849958E+02  0.75215951140E+02  0.00000000000E+00 0.  1.
</event>
<event>
 7    1  0.6684706E-006  0.9114213E+02  0.7561462E-02  0.1300109E+00
         -1   -1    0    0    0  501 -0.00000000000E+00  0.00000000000E+00  0.28997154983E+02  0.28997154983E+02  0.00000000000E+00 0.  1.
          1   -1    0    0  501    0  0.00000000000E+00 -0.00000000000E+00 -0.15034313578E+04  0.15034313578E+04  0.00000000000E+00 0. -1.
         23    2    1    2    0    0  0.19149725362E+02  0.14884433296E+02 -0.46104530980E+02  0.99372115153E+02  0.84622285227E+02 0.  0.
          5    1    1    2  502    0 -0.60390223897E+02 -0.94411452665E+01 -0.11472253907E+04  0.11488601672E+04  0.41800000000E+01 0. -1.
         -5    1    1    2    0  502  0.41240498535E+02 -0.54432880297E+01 -0.28110428118E+03  0.28419623045E+03  0.41800000000E+01 0.  1.
        -11    1    3    3    0    0  0.20211232979E+01  0.44742322607E+02 -0.47020818126E+02  0.64937798768E+02  0.00000000000E+00 0.  1.
         11    1    3    3    0    0  0.17128602064E+02 -0.29857889311E+02  0.91628714609E+00  0.34434316385E+02  0.00000000000E+00 0. -1.
</event>
<event>
 7    1  0.6684706E-006  0.1022578E+03  0.7561462E-02  0.1275618E+00
         -2   -1    0    0    0  501 -0.00000000000E+00  0.00000000000E+00  0.65790968285E+03  0.65790968285E+03  0.00000000000E+00 0.  1.
          2   -1    0    0  501    0  0.00000000000E+00 -0.00000000000E+00 -0.19095834894E+02  0.19095834894E+02  0.00000000000E+00 0. -1.
         23    2    1    2    0    0  0.12356153411E+02  0.29336964677E+02  0.26809937280E+03  0.28446161005E+03  0.89598001493E+02 0.  0.
          5    1    1    2  502    0 -0.60232293002E+02 -0.27476151771E+02  0.29848598244E+03  0.30576824909E+03  0.41800000000E+01 0. -1.
         -5    1    1    2    0  502  0.47876139592E+02 -0.18608129060E+01  0.72228492714E+02  0.86775658606E+02  0.41800000000E+01 0. -1.
        -11    1    3    3    0    0 -0.35807368904E+02  0.51016663233E+01  0.65634872403E+02  0.74940850959E+02  0.00000000000E+00 0. -1.
         11    1    3    3    0    0  0.48163522315E+02  0.24235298354E+02  0.20246450040E+03  0.20952075909E+03  0.00000000000E+00 0.  1.
</event>
<event>
 7    1  0.6684706E-006  0.1776196E+03  0.7561462E-02  0.1170127E+00
          2   -1    0    0  501    0  0.00000000000E+00  0.00000000000E+00  0.97178472272E+03  0.97178472272E+03  0.00000000000E+00 0. -1.
         -2   -1    0    0    0  501 -0.00000000000E+00 -0.00000000000E+00 -0.48398820877E+02  0.48398820877E+02  0.00000000000E+00 0.  1.
         23    2    1    2    0    0  0.54374801756E+02  0.16567576080E+03  0.28125728143E+03  0.34314537341E+03  0.90763495706E+02 0.  0.
          5    1    1    2  502    0 -0.34337749579E+02 -0.62320760588E+02  0.46887963774E+03  0.47426632321E+03  0.41800000000E+01 0.  1.
         -5    1    1    2    0  502 -0.20037052177E+02 -0.10335500021E+03  0.17324898267E+03  0.20277184697E+03  0.41800000000E+01 0.  1.
        -11    1    3    3    0    0  0.24353799407E+02  0.12863876023E+03  0.12979895194E+03  0.18436053293E+03  0.00000000000E+00 0.  1.
         11    1    3    3    0    0  0.30021002349E+02  0.37037000572E+02  0.15145832949E+03  0.15878484048E+03  0.00000000000E+00 0. -1.
</event>
<event>
 7    1  0.6684706E-006  0.1007372E+03  0.7561462E-02  0.1278753E+00
          3   -1    0    0  501    0  0.00000000000E+00  0.00000000000E+00  0.61264731086E+02  0.61264731086E+02  0.00000000000E+00 0. -1.
         -3   -1    0    0    0  501 -0.00000000000E+00 -0.00000000000E+00 -0.31397304588E+03  0.31397304588E+03  0.00000000000E+00 0.  1.
         23    2    1    2    0    0  0.40391427125E+02 -0.30187981924E+02 -0.21018683412E+03  0.23381768941E+03  0.89159548052E+02 0.  0.
          5    1    1    2  502    0 -0.81640539100E+02  0.41138471612E+02 -0.23347013008E+02  0.94446317490E+02  0.41800000000E+01 0.  1.
         -5    1    1    2    0  502  0.41249111975E+02 -0.10950489688E+02 -0.19174467664E+02  0.46973770056E+02  0.41800000000E+01 0.  1.
        -11    1    3    3    0    0  0.94604414682E+01 -0.34566635346E+02 -0.19644882418E+03  0.19969099317E+03  0.00000000000E+00 0.  1.
         11    1    3    3    0    0  0.30930985657E+02  0.43786534215E+01 -0.13738009939E+02  0.34126696245E+02  0.00000000000E+00 0. -1.
</event>
<event>
 7    1  0.6684706E-006  0.1246564E+03  0.7561462E-02  0.1235607E+00
          2   -1    0    0  501    0  0.00000000000E+00  0.00000000000E+00  0.72383005879E+03  0.72383005879E+03  0.00000000000E+00 0.  1.
         -2   -1    0    0    0  501 -0.00000000000E+00 -0.00000000000E+00 -0.21995667089E+02  0.21995667089E+02  0.00000000000E+00 0. -1.
         23    2    1    2    0    0  0.20557220138E+01  0.61308667160E+02  0.36220063141E+03  0.37872581575E+03  0.92092168275E+02 0.  0.
          5    1    1    2  502    0 -0.49949055969E+02 -0.73706028358E+02  0.23326417856E+03  0.24971410895E+03  0.41800000000E+01 0. -1.
         -5    1    1    2    0  502  0.47893333955E+02  0.12397361198E+02  0.10636958173E+03  0.11738580119E+03  0.41800000000E+01 0. -1.
        -11    1    3    3    0    0 -0.30731109129E+02  0.70138105406E+02  0.25899226032E+03  0.27007544465E+03  0.00000000000E+00 0. -1.
         11    1    3    3    0    0  0.32786831142E+02 -0.88294382461E+01  0.10320837109E+03  0.10865037109E+03  0.00000000000E+00 0.  1.
</event>
<event>
 7    1  0.6684706E-006  0.2646740E+03  0.7561462E-02  0.1104367E+00
         -2   -1    0    0    0  501 -0.00000000000E+00  0.00000000000E+00  0.13927739521E+03  0.13927739521E+03  0.00000000000E+00 0.  1.
          2   -1    0    0  501    0  0.00000000000E+00 -0.00000000000E+00 -0.56925784578E+03  0.56925784578E+03  0.00000000000E+00 0. -1.
         23    2    1    2    0    0  0.15453471359E+03  0.20689949607E+03 -0.24036758258E+03  0.36460430809E+03  0.92039923647E+02 0.  0.
          5    1    1    2  502    0 -0.10221902471E+03 -0.18294274281E+03 -0.19461454244E+03  0.28602284644E+03  0.41800000000E+01 0. -1.
         -5    1    1    2    0  502 -0.52315688878E+02 -0.23956753261E+02  0.50016744434E+01  0.57908086455E+02  0.41800000000E+01 0. -1.
        -11    1    3    3    0    0  0.11780615564E+03  0.12223611940E+03 -0.20403093243E+03  0.26542151492E+03  0.00000000000E+00 0. -1.
         11    1    3    3    0    0  0.36728557947E+02  0.84663376665E+02 -0.36336650153E+02  0.99182793173E+02  0.00000000000E+00 0.  1.
</event>
<event>
 7    1  0.6684706E-006  0.8982483E+02  0.7561462E-02  0.1303276E+00
         -4   -1    0    0    0  501 -0.00000000000E+00  0.00000000000E+00  0.98221194105E+02  0.98221194105E+02  0.00000000000E+00 0.  1.
          4   -1    0    0  501    0  0.00000000000E+00 -0.00000000000E+00 -0.21751463654E+03  0.21751463654E+03  0.00000000000E+00 0. -1.
         23    2    1    2    0    0 -0.26037437125E+01 -0.49168498387E+02  0.36886841809E+02  0.10966718132E+03  0.90785080520E+02 0.  0.
          5    1    1    2  502    0 -0.33056462226E+02  0.14293454874E+02 -0.15152105798E+03  0.15579838240E+03  0.41800000000E+01 0.  1.
         -5    1    1    2    0  502  0.35660205938E+02  0.34875043514E+02 -0.46592262688E+01  0.50270266928E+02  0.41800000000E+01 0.  1.
        -11    1    3    3    0    0  0.21419847388E+02  0.14113208889E+02  0.33095899074E+02  0.41872796214E+02  0.00000000000E+00 0.  1.
         11    1    3    3    0    0 -0.24023591100E+02 -0.63281707276E+02  0.37909427357E+01  0.67794385106E+02  0.00000000000E+00 0. -1.
</event>
<event>
 7    1  0.6684706E-006  0.1231759E+03  0.7561462E-02  0.1237948E+00
         -1   -1    0    0    0  501 -0.00000000000E+00  0.00000000000E+00  0.20737716921E+03  0.20737716921E+03  0.00000000000E+00 0.  1.
          1   -1    0    0  501    0  0.00000000000E+00 -0.00000000000E+00 -0.93225570647E+02  0.93225570647E+02  0.00000000000E+00 0. -1.
         23    2    1    2    0    0  0.71509821229E+02  0.15258059359E+02  0.67385974239E+02  0.13438365257E+03  0.90397088707E+02 0.  0.
          5    1    1    2  502    0 -0.28098864048E+02 -0.77621050202E+02  0.32377904705E+02  0.88771474632E+02  0.41800000000E+01 0. -1.
         -5    1    1    2    0  502 -0.43410957181E+02  0.62362990843E+02  0.14387719621E+02  0.77447612656E+02  0.41800000000E+01 0.  1.
        -11    1    3    3    0    0  0.10896844273E+02 -0.16030881844E+02  0.63129757777E+02  0.66038600112E+02  0.00000000000E+00 0. -1.
         11    1    3    3    0    0  0.60612976957E+02  0.31288941202E+02  0.42562164615E+01  0.68345052459E+02  0.00000000000E+00 0.  1.
</event>
<event>
 7    1  0.6684706E-006  0.1066001E+03  0.7561462E-02  0.1266999E+00
          1   -1    0    0  501    0  0.00000000000E+00  0.00000000000E+00  0.95406255118E+03  0.95406255118E+03  0.00000000000E+00 0. -1.
         -1   -1    0    0    0  501 -0.00000000000E+00 -0.00000000000E+00 -0.21558098044E+02  0.21558098044E+02  0.00000000000E+00 0.  1.
         23    2    1    2    0    0  0.55459567539E+02  0.56759794195E+02  0.25951697754E+03  0.28652200354E+03  0.91914955312E+02 0.  0.
          5    1    1    2  502    0 -0.64793785386E+02 -0.52605362194E+02  0.67289024598E+03  0.67805922624E+03  0.41800000000E+01 0. -1.
         -5    1    1    2    0  502  0.93342178464E+01 -0.41544320015E+01  0.97229613628E-01  0.11039419444E+02  0.41800000000E+01 0. -1.
        -11    1    3    3    0    0  0.60846241327E+02 -0.73450115183E+00  0.10223045738E+03  0.11897004241E+03  0.00000000000E+00 0.  1.
         11    1    3    3    0    0 -0.53866737884E+01  0.57494295347E+02  0.15728652016E+03  0.16755196113E+03  0.00000000000E+00 0. -1.
</event>
<event>
 7    1  0.6684706E-006  0.8433590E+02  0.7561462E-02  0.1317178E+00
          2   -1    0    0  501    0  0.00000000000E+00  0.00000000000E+00  0.53074756350E+03  0.53074756350E+03  0.00000000000E+00 0. -1.
         -2   -1    0    0    0  501 -0.00000000000E+00 -0.00000000000E+00 -0.36300322085E+02  0.36300322085E+02  0.00000000000E+00 0.  1.
         23    2    1    2    0    0 -0.35199342471E+02  0.35995789173E+02  0.80902867849E+02  0.13207527494E+03  0.91454434966E+02 0.  0.
          5    1    1    2  502    0  0.25749142047E+00 -0.28132269687E+02  0.39187039877E+03  0.39290122516E+03  0.41800000000E+01 0.  1.
         -5    1    1    2    0  502  0.34941851050E+02 -0.78635194858E+01  0.21673974797E+02  0.42071385489E+02  0.41800000000E+01 0.  1.
        -11    1    3    3    0    0 -0.22984807752E+02  0.67007597179E+02  0.59004491025E+02  0.92194627980E+02  0.00000000000E+00 0.  1.
         11    1    3    3    0    0 -0.12214534719E+02 -0.31011808007E+02  0.21898376824E+02  0.39880646958E+02  0.00000000000E+00 0. -1.
</event>
<event>
 7    1  0.6684706E-006  0.8700644E+02  0.7561462E-02  0.1310267E+00
         -1   -1    0    0    0  501 -0.00000000000E+00  0.00000000000E+00  0.67393878884E+02  0.67393878884E+02  0.00000000000E+00 0.  1.
          1   -1    0    0  501    0  0.00000000000E+00 -0.00000000000E+00 -0.24544785070E+03  0.24544785070E+03  0.00000000000E+00 0. -1.
         23    2    1    2    0    0  0.72646655748E+01  0.71152164228E+01  0.46861629469E+01  0.91157918711E+02  0.90467697826E+02 0.  0.
          5    1    1    2  502    0 -0.30595258728E+02 -0.47351224406E+02 -0.34417185574E+02  0.66183255981E+02  0.41800000000E+01 0.  1.
         -5    1    1    2    0  502  0.23330593153E+02  0.40236007984E+02 -0.14832294919E+03  0.15550055489E+03  0.41800000000E+01 0.  1.
        -11    1    3    3    0    0  0.31625459158E+02  0.25205492401E+02  0.31030435168E+02  0.50974252529E+02  0.00000000000E+00 0.  1.
         11    1    3    3    0    0 -0.24360793583E+02 -0.18090275979E+02 -0.26344272221E+02  0.40183666182E+02  0.00000000000E+00 0. -1.
</event>
<event>
 7    1  0.6684706E-006  0.9392353E+02  0.7561462E-02  0.1293619E+00
          3   -1    0    0  501    0  0.00000000000E+00  0.00000000000E+00  0.37602010745E+03  0.37602010745E+03  0.00000000000E+00 0. -1.
         -3   -1    0    0    0  501 -0.00000000000E+00 -0.00000000000E+00 -0.42704152580E+02  0.42704152580E+02  0.00000000000E+00 0.  1.
         23    2    1    2    0    0  0.22464796519E+02 -0.13011416772E+02  0.49327844108E+02  0.10732026261E+03  0.91708442973E+02 0.  0.
          5    1    1    2  502    0 -0.41519769309E+02 -0.39632878024E+02  0.72362302973E+02  0.92457728479E+02  0.41800000000E+01 0.  1.
         -5    1    1    2    0  502  0.19054972790E+02  0.52644294796E+02  0.21162580779E+03  0.21894626894E+03  0.41800000000E+01 0.  1.
        -11    1    3    3    0    0 -0.19972840366E+02  0.13507330766E+02  0.51884213342E+02  0.57213057345E+02  0.00000000000E+00 0. -1.
         11    1    3    3    0    0  0.42437636886E+02 -0.26518747537E+02 -0.25563692340E+01  0.50107205261E+02  0.00000000000E+00 0.  1.
</event>
<event>
 7    1  0.6684706E-006  0.1192221E+03  0.7561462E-02  0.1244386E+00
         -2   -1    0    0    0  501 -0.00000000000E+00  0.00000000000E+00  0.10008883522E+03  0.10008883522E+03  0.00000000000E+00 0.  1.
          2   -1    0    0  501    0  0.00000000000E+00 -0.00000000000E+00 -0.15661682428E+03  0.15661682428E+03  0.00000000000E+00 0. -1.
         23    2    1    2    0    0  0.28935625499E+01 -0.61889331242E+02 -0.21532138733E+02  0.11279221754E+03  0.91759409948E+02 0.  0.
          5    1    1    2  502    0 -0.61404532595E+02  0.13705620537E+02 -0.91095222407E+01  0.63708841246E+02  0.41800000000E+01 0. -1.
         -5    1    1    2    0  502  0.58510970045E+02  0.48183710705E+02 -0.25886328081E+02  0.80204600706E+02  0.41800000000E+01 0. -1.
        -11    1    3    3    0    0 -0.78444996227E+01 -0.78939322105E+02 -0.36861657964E+02  0.87474193775E+02  0.00000000000E+00 0. -1.
         11    1    3    3    0    0  0.10738062173E+02  0.17049990863E+02  0.15329519231E+02  0.25318023768E+02  0.00000000000E+00 0.  1.
</event>
<event>
 7    1  0.6684706E-006  0.1262743E+03  0.7561462E-02  0.1233091E+00
          2   -1    0    0  501    0  0.00000000000E+00  0.00000000000E+00  0.19930879448E+04  0.19930879448E+04  0.00000000000E+00 0. -1.
         -2   -1    0    0    0  501 -0.00000000000E+00 -0.00000000000E+00 -0.15528723667E+02  0.15528723667E+02  0.00000000000E+00 0.  1.
         23    2    1    2    0    0 -0.55267077950E+02  0.10374506794E+03  0.50920368649E+03  0.53026176811E+03  0.89842413991E+02 0.  0.
          5    1    1    2  502    0  0.21984380778E+02 -0.79376374041E+02  0.36418010727E+03  0.37340131854E+03  0.41800000000E+01 0. -1.
         -5    1    1    2    0  502  0.33282697172E+02 -0.24368693901E+02  0.11041754274E+04  0.11049535818E+04  0.41800000000E+01 0. -1.
        -11    1    3    3    0    0 -0.22699146030E+01  0.59597302828E+02  0.10985917302E+03  0.12500411559E+03  0.00000000000E+00 0.  1.
         11    1    3    3    0    0 -0.52997163347E+02  0.44147765115E+02  0.39934451347E+03  0.40525765252E+03  0.00000000000E+00 0. -1.
</event>
<event>
 7    1  0.6684706E-006  0.1147607E+03  0.7561462E-02  0.1251999E+00
         -2   -1    0    0    0  501 -0.00000000000E+00  0.00000000000E+00  0.20519182889E+02  0.20519182889E+02  0.00000000000E+00 0.  1.
          2   -1    0    0  501    0  0.00000000000E+00 -0.00000000000E+00 -0.70201186705E+03  0.70201186705E+03  0.00000000000E+00 0. -1.
         23    2    1    2    0    0 -0.15781278674E+02  0.38784225117E+02 -0.28592359385E+03  0.30554667333E+03  0.99263302331E+02 0.  0.
          5    1    1    2  502    0 -0.14047693911E+02  0.37355453820E+02 -0.21506887753E+03  0.21878039701E+03  0.41800000000E+01 0.  1.
         -5    1    1    2    0  502  0.29828972585E+02 -0.76139678937E+02 -0.18050021279E+03  0.19820397961E+03  0.41800000000E+01 0.  1.
        -11    1    3    3    0    0 -0.56331210251E+02  0.36032219995E+02 -0.16821417388E+03  0.18101804998E+03  0.00000000000E+00 0. -1.
         11    1    3    3    0    0  0.40549931577E+02  0.27520051226E+01 -0.11770941997E+03  0.12452862335E+03  0.00000000000E+00 0.  1.
</event>
<event>
 7    1  0.6684706E-006  0.1452595E+03  0.7561462E-02  0.1206422E+00
          1   -1    0    0  501    0  0.00000000000E+00  0.00000000000E+00  0.33546629862E+03  0.33546629862E+03  0.00000000000E+00 0. -1.
         -1   -1    0    0    0  501 -0.00000000000E+00 -0.00000000000E+00 -0.66984217586E+02  0.66984217586E+02  0.00000000000E+00 0.  1.
         23    2    1    2    0    0  0.18511858709E+01  0.98526515271E+02  0.84225905745E+02  0.15891706091E+03  0.91922401784E+02 0.  0.
          5    1    1    2  502    0  0.11390524154E+02  0.27251044511E+02  0.55471143912E+02  0.62983201525E+02  0.41800000000E+01 0.  1.
         -5    1    1    2    0  502 -0.13241710025E+02 -0.12577755978E+03  0.12878503138E+03  0.18055025377E+03  0.41800000000E+01 0.  1.
        -11    1    3    3    0    0 -0.38421746101E+02  0.82113748858E+02  0.49687311481E+02  0.10338146472E+03  0.00000000000E+00 0. -1.
         11    1    3    3    0    0  0.40272931972E+02  0.16412766413E+02  0.34538594263E+02  0.55535596194E+02  0.00000000000E+00 0.  1.
</event>
<event>
 7    1  0.6684706E-006  0.1746400E+03  0.7561462E-02  0.1173094E+00
         -1   -1    0    0    0  501 -0.00000000000E+00  0.00000000000E+00  0.54443584729E+02  0.54443584729E+02  0.00000000000E+00 0.  1.
          1   -1    0    0  501    0  0.00000000000E+00 -0.00000000000E+00 -0.86347321257E+03  0.86347321257E+03  0.00000000000E+00 0. -1.
         23    2    1    2    0    0 -0.42812693813E+02 -0.63635791921E+02 -0.16424367204E+03  0.20269535835E+03  0.90702721731E+02 0.  0.
          5    1    1    2  502    0 -0.75317677548E+02 -0.47889583654E+02 -0.58426400576E+02  0.10675805102E+03  0.41800000000E+01 0. -1.
         -5    1    1    2    0  502  0.11813037136E+03  0.11152537557E+03 -0.58635955523E+03  0.60846338792E+03  0.41800000000E+01 0.  1.
        -11    1    3    3    0    0  0.15367778883E+02 -0.16405171394E+02 -0.34945194871E+00  0.22481556728E+02  0.00000000000E+00 0.  1.
         11    1    3    3    0    0 -0.58180472695E+02 -0.47230620527E+02 -0.16389422009E+03  0.18021380163E+03  0.00000000000E+00 0. -1.
</event>
<event>
 7    1  0.6684706E-006  0.1719319E+03  0.7561462E-02  0.1175848E+00
          1   -1    0    0  501    0  0.00000000000E+00  0.00000000000E+00  0.20648387346E+04  0.20648387346E+04  0.00000000000E+00 0. -1.
         -1   -1    0    0    0  501 -0.00000000000E+00 -0.00000000000E+00 -0.29657615917E+02  0.29657615917E+02  0.00000000000E+00 0.  1.
         23    2    1    2    0    0  0.59208572114E+02 -0.13812424073E+03  0.28986503879E+03  0.33826184810E+03  0.88404616813E+02 0.  0.
          5    1    1    2  502    0 -0.62513351537E+02  0.77974699960E+01  0.45895848812E+03  0.46328078513E+03  0.41800000000E+01 0.  1.
         -5    1    1    2    0  502  0.33047794226E+01  0.13032677074E+03  0.12863575918E+04  0.12929537173E+04  0.41800000000E+01 0.  1.
        -11    1    3    3    0    0  0.11236847418E+02 -0.28173707767E+02  0.71703615370E+01  0.31167910321E+02  0.00000000000E+00 0.  1.
         11    1    3    3    0    0  0.47971724696E+02 -0.10995053296E+03  0.28269467726E+03  0.30709393777E+03  0.00000000000E+00 0. -1.
</event>
<event>
 7    1  0.6684706E-006  0.1225835E+03  0.7561462E-02  0.1238895E+00
         -1   -1    0    0    0  501 -0.00000000000E+00  0.00000000000E+00  0.16504196014E+03  0.16504196014E+03  0.00000000000E+00 0.  1.
          1   -1    0    0  501    0  0.00000000000E+00 -0.00000000000E+00 -0.11389834999E+03  0.11389834999E+03  0.00000000000E+00 0. -1.
         23    2    1    2    0    0 -0.45054178444E+02  0.65176466113E+02  0.49439825747E+02  0.13085686725E+03  0.91659001773E+02 0.  0.
          5    1    1    2  502    0  0.69641221862E+01  0.29647552361E+02  0.28967438922E+02  0.42238149540E+02  0.41800000000E+01 0. -1.
         -5    1    1    2    0  502  0.38090056257E+02 -0.94824018475E+02 -0.27263654517E+02  0.10584529334E+03  0.41800000000E+01 0. -1.
        -11    1    3    3    0    0 -0.49165461111E+02  0.23807537494E+01 -0.24622750976E+01  0.49284615787E+02  0.00000000000E+00 0.  1.
         11    1    3    3    0    0  0.41112826670E+01  0.62795712364E+02  0.51902100845E+02  0.81572251462E+02  0.00000000000E+00 0. -1.
</event>
<event>
 7    1  0.6684706E-006  0.1157517E+03  0.7561462E-02  0.1250275E+00
          1   -1    0    0  501    0  0.00000000000E+00  0.00000000000E+00  0.68704936470E+02  0.68704936470E+02  0.00000000000E+00 0. -1.
         -1   -1    0    0    0  501 -0.00000000000E+00 -0.00000000000E+00 -0.32132660638E+03  0.32132660638E+03  0.00000000000E+00 0.  1.
         23    2    1    2    0    0 -0.85532591705E+02 -0.39610595672E+02 -0.16152508959E+03  0.20883876698E+03  0.92943275685E+02 0.  0.
          5    1    1    2  502    0 -0.15511109407E+02 -0.14822828213E+02  0.13634004457E+02  0.25761778448E+02  0.41800000000E+01 0. -1.
         -5    1    1    2    0  502  0.10104370111E+03  0.54433423885E+02 -0.10473058477E+03  0.15543099741E+03  0.41800000000E+01 0. -1.
        -11    1    3    3    0    0 -0.49668411507E+02 -0.17485459017E+02 -0.12704798394E+02  0.54167372845E+02  0.00000000000E+00 0.  1.
         11    1    3    3    0    0 -0.35864180198E+02 -0.22125136656E+02 -0.14882029120E+03  0.15467139414E+03  0.00000000000E+00 0. -1.
</event>
<event>
 7    1  0.6684706E-006  0.8285571E+02  0.7561462E-02  0.1321137E+00
          2   -1    0    0  501    0  0.00000000000E+00  0.00000000000E+00  0.57336226231E+03  0.57336226231E+03  0.00000000000E+00 0.  1.
         -2   -1    0    0    0  501 -0.00000000000E+00 -0.00000000000E+00 -0.26117788643E+02  0.26117788643E+02  0.00000000000E+00 0. -1.
         23    2    1    2    0    0 -0.22723948328E+02  0.31822986307E+02  0.12062189322E+03  0.15318011664E+03  0.85938505496E+02 0.  0.
          5    1    1    2  502    0 -0.34707771534E+02  0.93057929364E+01  0.42945051852E+02  0.56151376346E+02  0.41800000000E+01 0.  1.
         -5    1    1    2    0  502  0.57431719861E+02 -0.41128779243E+02  0.38367752861E+03  0.39014855797E+03  0.41800000000E+01 0.  1.
        -11    1    3    3    0    0  0.12710327092E+02  0.14651602593E+02  0.11095170880E+03  0.11263438000E+03  0.00000000000E+00 0.  1.
         11    1    3    3    0    0 -0.35434275420E+02  0.17171383713E+02  0.96701844185E+01  0.40545736642E+02  0.00000000000E+00 0. -1.
</event>
<event>
 7    1  0.6684706E-006  0.8038181E+02  0.7561462E-02  0.1327971E+00
          2   -1    0    0  501    0  0.00000000000E+00  0.00000000000E+00  0.31068938680E+03  0.31068938680E+03  0.00000000000E+00 0.  1.
         -2   -1    0    0    0  501 -0.00000000000E+00 -0.00000000000E+00 -0.68353152859E+02  0.68353152859E+02  0.00000000000E+00 0. -1.
         23    2    1    2    0    0  0.22371994904E+02 -0.40386211948E+02  0.52481834204E+00  0.10290637061E+03  0.91966806003E+02 0.  0.
          5    1    1    2  502    0 -0.54832564249E+00  0.34668370487E+02  0.17360386985E+01  0.34966881525E+02  0.41800000000E+01 0. -1.
         -5    1    1    2    0  502 -0.21823669262E+02  0.57178414604E+01  0.24007537690E+03  0.24116928752E+03  0.41800000000E+01 0. -1.
        -11    1    3    3    0    0  0.50412424808E+02 -0.52108848298E+02 -0.26542392071E+00  0.72503897108E+02  0.00000000000E+00 0.  1.
         11    1    3    3    0    0 -0.28040429904E+02  0.11722636351E+02  0.79024226276E+00  0.30402473502E+02  0.00000000000E+00 0. -1.
</event>
<event>
 7    1  0.6684706E-006  0.1084566E+03  0.7561462E-02  0.1263455E+00
          1   -1    0    0  501    0  0.00000000000E+00  0.00000000000E+00  0.85753310519E+03  0.85753310519E+03  0.00000000000E+00 0. -1.
         -1   -1    0    0    0  501 -0.00000000000E+00 -0.00000000000E+00 -0.14003283828E+02  0.14003283828E+02  0.00000000000E+00 0.  1.
         23    2    1    2    0    0 -0.14056704518E+02  0.23025824117E+02  0.32929429235E+03  0.34161820229E+03  0.86835969764E+02 0.  0.
          5    1    1    2  502    0 -0.51012890450E+02  0.13834607020E+02  0.20637913048E+03  0.21308103914E+03  0.41800000000E+01 0.  1.
         -5    1    1    2    0  502  0.65069594967E+02 -0.36860431137E+02  0.30785639854E+03  0.31683714759E+03  0.41800000000E+01 0.  1.
        -11    1    3    3    0    0 -0.49680689090E+02  0.18794473786E+02  0.22964942709E+03  0.23571224507E+03  0.00000000000E+00 0. -1.
         11    1    3    3    0    0  0.35623984572E+02  0.42313503313E+01  0.99644865260E+02  0.10590595722E+03  0.00000000000E+00 0.  1.
</event>
<event>
 7    1  0.6684706E-006  0.1284820E+03  0.7561462E-02  0.1229726E+00
          1   -1    0    0  501    0  0.00000000000E+00  0.00000000000E+00  0.18982540720E+03  0.18982540720E+03  0.00000000000E+00 0. -1.
         -1   -1    0    0    0  501 -0.00000000000E+00 -0.00000000000E+00 -0.10783701253E+03  0.10783701253E+03  0.00000000000E+00 0.  1.
         23    2    1    2    0    0  0.37251560421E+02  0.75017899870E+02 -0.11841189443E+02  0.12414769688E+03  0.90868436870E+02 0.  0.
          5    1    1    2  502    0  0.41251289187E+01 -0.97479002259E+02  0.53314011684E+02  0.11126108400E+03  0.41800000000E+01 0. -1.
         -5    1    1    2    0  502 -0.41376689339E+02  0.22461102389E+02  0.40515572430E+02  0.62253638854E+02  0.41800000000E+01 0.  1.
        -11    1    3    3    0    0  0.50666247271E+02  0.18473254564E+02  0.20436587010E+02  0.57671343276E+02  0.00000000000E+00 0. -1.
         11    1    3    3    0    0 -0.13414686850E+02  0.56544645306E+02 -0.32277776454E+02  0.66476353607E+02  0.00000000000E+00 0.  1.
</event>
<event>
 7    1  0.6684706E-006  0.1249008E+03  0.7561462E-02  0.1235224E+00
         -1   -1    0    0    0  501 -0.00000000000E+00  0.00000000000E+00  0.15532027833E+03  0.15532027833E+03  0.00000000000E+00 0.  1.
          1   -1    0    0  501    0  0.00000000000E+00 -0.00000000000E+00 -0.20884126371E+03  0.20884126371E+03  0.00000000000E+00 0. -1.
         23    2    1    2    0    0  0.63195915632E+02  0.72315941870E+02  0.82312065229E+02  0.16204824435E+03  0.10129678284E+03 0.  0.
          5    1    1    2  502    0 -0.93875296899E+02 -0.69627651770E+02 -0.11864666668E+03  0.16659857494E+03  0.41800000000E+01 0. -1.
         -5    1    1    2    0  502  0.30679381268E+02 -0.26882901000E+01 -0.17186383934E+02  0.35514722741E+02  0.41800000000E+01 0.  1.
        -11    1    3    3    0    0  0.64099209530E+02  0.55091277905E+02  0.10420745943E+03  0.13417508027E+03  0.00000000000E+00 0.  1.
         11    1    3    3    0    0 -0.90329389868E+00  0.17224663965E+02 -0.21895394206E+02  0.27873164083E+02  0.00000000000E+00 0. -1.
</event>
<event>
 7    1  0.6684706E-006  0.1142915E+03  0.7561462E-02  0.1252823E+00
         -2   -1    0    0    0  501 -0.00000000000E+00  0.00000000000E+00  0.13990502443E+02  0.13990502443E+02  0.00000000000E+00 0.  1.
          2   -1    0    0  501    0  0.00000000000E+00 -0.00000000000E+00 -0.11033424153E+04  0.11033424153E+04  0.00000000000E+00 0. -1.
         23    2    1    2    0    0  0.42706352858E+02 -0.90608150902E+01 -0.38466438255E+03  0.40029885374E+03  0.10181627650E+03 0.  0.
          5    1    1    2  502    0  0.20004289113E+02 -0.37010358179E+02 -0.12112355337E+03  0.12829000653E+03  0.41800000000E+01 0.  1.
         -5    1    1    2    0  502 -0.62710641971E+02  0.46071173270E+02 -0.58356397690E+03  0.58874405742E+03  0.41800000000E+01 0.  1.
        -11    1    3    3    0    0  0.53848063280E+02 -0.45360242767E+02 -0.20777810228E+03  0.21938301057E+03  0.00000000000E+00 0.  1.
         11    1    3    3    0    0 -0.11141710422E+02  0.36299427676E+02 -0.17688628027E+03  0.18091584317E+03  0.00000000000E+00 0. -1.
</event>
<event>
 7    1  0.6684706E-006  0.1559984E+03  0.7561462E-02  0.1193290E+00
         -2   -1    0    0    0  501 -0.00000000000E+00  0.00000000000E+00  0.19224018233E+02  0.19224018233E+02  0.00000000000E+00 0.  1.
          2   -1    0    0  501    0  0.00000000000E+00 -0.00000000000E+00 -0.18329105048E+04  0.18329105048E+04  0.00000000000E+00 0. -1.
         23    2    1    2    0    0  0.12867725021E+03 -0.63905653913E+02 -0.59356244594E+03  0.61722838961E+03  0.89513911732E+02 0.  0.
          5    1    1    2  502    0 -0.94914464722E+02  0.23469907911E+02 -0.10911008031E+04  0.10954807288E+04  0.41800000000E+01 0.  1.
         -5    1    1    2    0  502 -0.33762785487E+02  0.40435746002E+02 -0.12902323756E+03  0.13942540468E+03  0.41800000000E+01 0.  1.
        -11    1    3    3    0    0  0.37071499943E+02 -0.58840481908E+02 -0.35255701791E+03  0.35935073299E+03  0.00000000000E+00 0.  1.
         11    1    3    3    0    0  0.91605750266E+02 -0.50651720052E+01 -0.24100542803E+03  0.25787765663E+03  0.00000000000E+00 0. -1.
</event>
<event>
 7    1  0.1142050E-005  0.2873065E+03  0.7561462E-02  0.1091764E+00
          2   -1    0    0  501    0  0.00000000000E+00  0.00000000000E+00  0.39092810784E+04  0.39092810784E+04  0.00000000000E+00 0.  1.
         -2   -1    0    0    0  501 -0.00000000000E+00 -0.00000000000E+00 -0.31174813000E+02  0.31174813000E+02  0.00000000000E+00 0. -1.
         23    2    1    2    0    0 -0.18467469285E+03 -0.19396299965E+03  0.81452261451E+03  0.86264515352E+03  0.94779659944E+02 0.  0.
          5    1    1    2  502    0  0.15971936669E+03  0.21085632368E+03  0.26820187047E+04  0.26950347808E+04  0.41800000000E+01 0. -1.
         -5    1    1    2    0  502  0.24955326168E+02 -0.16893324033E+02  0.38156494621E+03  0.38277595703E+03  0.41800000000E+01 0. -1.
        -11    1    3    3    0    0 -0.11648795996E+03 -0.17250563638E+03  0.66683471203E+03  0.69856722838E+03  0.00000000000E+00 0.  1.
         11    1    3    3    0    0 -0.68186732891E+02 -0.21457363267E+02  0.14768790248E+03  0.16407792514E+03  0.00000000000E+00 0. -1.
</event>
<event>
 7    1  0.6684706E-006  0.1366611E+03  0.7561462E-02  0.1217894E+00
          2   -1    0    0  501    0  0.00000000000E+00  0.00000000000E+00  0.10288707258E+04  0.10288707258E+04  0.00000000000E+00 0. -1.
         -2   -1    0    0    0  501 -0.00000000000E+00 -0.00000000000E+00 -0.37755869571E+02  0.37755869571E+02  0.00000000000E+00 0.  1.
         23    2    1    2    0    0 -0.11039655526E+03 -0.62167404067E+02  0.18685976701E+03  0.24291668613E+03  0.89664699487E+02 0.  0.
          5    1    1    2  502    0  0.58050760681E+00  0.32528955238E+02  0.45912410655E+03  0.46029434880E+03  0.41800000000E+01 0.  1.
         -5    1    1    2    0  502  0.10981604765E+03  0.29638448829E+02  0.34513098265E+03  0.36341556043E+03  0.41800000000E+01 0.  1.
        -11    1    3    3    0    0 -0.43967891696E+02 -0.25082499162E+02  0.11708239029E+02  0.51955655376E+02  0.00000000000E+00 0.  1.
         11    1    3    3    0    0 -0.66428663563E+02 -0.37084904905E+02  0.17515152798E+03  0.19096103076E+03  0.00000000000E+00 0. -1.
</event>
<event>
 7    1  0.6684706E-006  0.1128889E+03  0.7561462E-02  0.1255312E+00
          2   -1    0    0  501    0  0.00000000000E+00  0.00000000000E+00  0.14608267011E+04  0.14608267011E+04  0.00000000000E+00 0. -1.
         -2   -1    0    0    0  501 -0.00000000000E+00 -0.00000000000E+00 -0.12718157539E+02  0.12718157539E+02  0.00000000000E+00 0.  1.
         23    2    1    2    0    0 -0.37718973965E+02 -0.18958501403E+01  0.26921402305E+03  0.28743091264E+03  0.93348937278E+02 0.  0.
          5    1    1    2  502    0  0.34881973939E+02 -0.58497401396E+02  0.52473040536E+03  0.52914853187E+03  0.41800000000E+01 0. -1.
         -5    1    1    2    0  502  0.28370000261E+01  0.60393251536E+02  0.65416411512E+03  0.65696541410E+03  0.41800000000E+01 0. -1.
        -11    1    3    3    0    0  0.13349674092E+02  0.32655491253E+02  0.63106928453E+02  0.72298543043E+02  0.00000000000E+00 0.  1.
         11    1    3    3    0    0 -0.51068648057E+02 -0.34551341393E+02  0.20610709460E+03  0.21513236960E+03  0.00000000000E+00 0. -1.
</event>
<event>
 7    1  0.6684706E-006  0.1017742E+03  0.7561462E-02  0.1276609E+00
         -3   -1    0    0    0  501 -0.00000000000E+00  0.00000000000E+00  0.19749191462E+02  0.19749191462E+02  0.00000000000E+00 0.  1.
          3   -1    0    0  501    0  0.00000000000E+00 -0.00000000000E+00 -0.83365775622E+03  0.83365775622E+03  0.00000000000E+00 0. -1.
         23    2    1    2    0    0 -0.31883814639E+02  0.20781595784E+02 -0.17088895574E+03  0.19722876549E+03  0.90816839759E+02 0.  0.
          5    1    1    2  502    0  0.21214209051E+02  0.48123975927E+02 -0.16911786883E+03  0.17715610541E+03  0.41800000000E+01 0.  1.
         -5    1    1    2    0  502  0.10669605588E+02 -0.68905571712E+02 -0.47390174018E+03  0.47902207678E+03  0.41800000000E+01 0.  1.
        -11    1    3    3    0    0 -0.59402255914E+01  0.45034017575E+02 -0.36633377337E+02  0.58355405527E+02  0.00000000000E+00 0.  1.
         11    1    3    3    0    0 -0.25943589048E+02 -0.24252421791E+02 -0.13425557840E+03  0.13887335996E+03  0.00000000000E+00 0. -1.
</event>
<event>
 7    1  0.6684706E-006  0.2147016E+03  0.7561462E-02  0.1137896E+00
         -2   -1    0    0    0  501 -0.00000000000E+00  0.00000000000E+00  0.82199947055E+02  0.82199947055E+02  0.00000000000E+00 0.  1.
          2   -1    0    0  501    0  0.00000000000E+00 -0.00000000000E+00 -0.83597635433E+03  0.83597635433E+03  0.00000000000E+00 0. -1.
         23    2    1    2    0    0 -0.68284177333E+02 -0.18755636176E+03 -0.13778156667E+03  0.25867822464E+03  0.89947462891E+02 0.  0.
          5    1    1    2  502    0 -0.11983707067E+02  0.13052787326E+03 -0.42195740268E+03  0.44186723912E+03  0.41800000000E+01 0. -1.
         -5    1    1    2    0  502  0.80267884400E+02  0.57028488501E+02 -0.19403743792E+03  0.21763083761E+03  0.41800000000E+01 0. -1.
        -11    1    3    3    0    0 -0.51953930724E+02 -0.15039180167E+03 -0.58349609734E+02  0.16947442840E+03  0.00000000000E+00 0.  1.
         11    1    3    3    0    0 -0.16330246610E+02 -0.37164560093E+02 -0.79431956938E+02  0.89203796243E+02  0.00000000000E+00 0. -1.
</event>
<event>
 7    1  0.6684706E-006  0.1053742E+03  0.7561462E-02  0.1269384E+00
         -2   -1    0    0    0  501 -0.00000000000E+00  0.00000000000E+00  0.19561304820E+02  0.19561304820E+02  0.00000000000E+00 0.  1.
          2   -1    0    0  501    0  0.00000000000E+00 -0.00000000000E+00 -0.64952063933E+03  0.64952063933E+03  0.00000000000E+00 0. -1.
         23    2    1    2    0    0 -0.83683791120E+01 -0.27174889663E+02 -0.23195781543E+03  0.25091857088E+03  0.91362994035E+02 0.  0.
          5    1    1    2  502    0  0.61284302070E+02 -0.82679697987E+01 -0.15534942647E+03  0.16725741152E+03  0.41800000000E+01 0. -1.
         -5    1    1    2    0  502 -0.52915922958E+02  0.35442859462E+02 -0.24265209261E+03  0.25090596174E+03  0.41800000000E+01 0. -1.
        -11    1    3    3    0    0 -0.24491482130E+02  0.22166376966E+02 -0.15229355644E+03  0.15583487510E+03  0.00000000000E+00 0.  1.
         11    1    3    3    0    0  0.16123103018E+02 -0.49341266629E+02 -0.79664258983E+02  0.95083695778E+02  0.00000000000E+00 0. -1.
</event>
<event>
 7    1  0.6684706E-006  0.8674444E+02  0.7561462E-02  0.1310933E+00
          2   -1    0    0  501    0  0.00000000000E+00  0.00000000000E+00  0.23105152856E+03  0.23105152856E+03  0.00000000000E+00 0. -1.
         -2   -1    0    0    0  501 -0.00000000000E+00 -0.00000000000E+00 -0.59551212724E+02  0.59551212724E+02  0.00000000000E+00 0.  1.
         23    2    1    2    0    0  0.28210381751E+02 -0.31291807548E+02  0.54461939356E+02  0.11419390449E+03  0.91099627476E+02 0.  0.
          5    1    1    2  502    0 -0.55424093298E+02  0.52594852935E+02  0.29164693487E+02  0.81890783482E+02  0.41800000000E+01 0.  1.
         -5    1    1    2    0  502  0.27213711547E+02 -0.21303045386E+02  0.87873682989E+02  0.94518053307E+02  0.41800000000E+01 0.  1.
        -11    1    3    3    0    0 -0.17602340516E+01 -0.32125077176E+02  0.72419994582E+02  0.79245029010E+02  0.00000000000E+00 0. -1.
         11    1    3    3    0    0  0.29970615803E+02  0.83326962787E+00 -0.17958055226E+02  0.34948875481E+02  0.00000000000E+00 0.  1.
</event>
<event>
 7    1  0.6684706E-006  0.6960059E+02  0.7561462E-02  0.1361457E+00
          2   -1    0    0  501    0  0.00000000000E+00  0.00000000000E+00  0.58856951252E+02  0.58856951252E+02  0.00000000000E+00 0. -1.
         -2   -1    0    0    0  501 -0.00000000000E+00 -0.00000000000E+00 -0.44226217032E+03  0.44226217032E+03  0.00000000000E+00 0.  1.
         23    2    1    2    0    0 -0.17687852674E+02 -0.22306210917E+02 -0.24403511732E+03  0.25910523718E+03  0.82291908900E+02 0.  0.
          5    1    1    2  502    0  0.15122151650E+02  0.47621319333E+02  0.37916550468E+02  0.62861806567E+02  0.41800000000E+01 0. -1.
         -5    1    1    2    0  502  0.25657010238E+01 -0.25315108416E+02 -0.17728665221E+03  0.17915207783E+03  0.41800000000E+01 0.  1.
        -11    1    3    3    0    0  0.10423500830E+00  0.18635353430E+02 -0.10598564505E+02  0.21438676077E+02  0.00000000000E+00 0. -1.
         11    1    3    3    0    0 -0.17792087682E+02 -0.40941564347E+02 -0.23343655282E+03  0.23766656110E+03  0.00000000000E+00 0.  1.
</event>
<event>
 7    1  0.6684706E-006  0.1047288E+03  0.7561462E-02  0.1270655E+00
         -2   -1    0    0    0  501 -0.00000000000E+00  0.00000000000E+00  0.19739449043E+03  0.19739449043E+03  0.00000000000E+00 0.  1.
          2   -1    0    0  501    0  0.00000000000E+00 -0.00000000000E+00 -0.10199965877E+04  0.10199965877E+04  0.00000000000E+00 0. -1.
         23    2    1    2    0    0 -0.20685867237E+02 -0.87707660578E+02  0.17073624949E+03  0.21336449382E+03  0.90846031877E+02 0.  0.
          5    1    1    2  502    0 -0.14920454874E+01  0.80515991355E+02 -0.95857421572E+03  0.96196000463E+03  0.41800000000E+01 0. -1.
         -5    1    1    2    0  502  0.22177912725E+02  0.71916692227E+01 -0.34764131018E+02  0.42066579662E+02  0.41800000000E+01 0. -1.
        -11    1    3    3    0    0  0.13325807097E+02 -0.27316700747E+01 -0.55825666344E+01  0.14703884059E+02  0.00000000000E+00 0. -1.
         11    1    3    3    0    0 -0.34011674334E+02 -0.84975990503E+02  0.17631881612E+03  0.19866060977E+03  0.00000000000E+00 0.  1.
</event>
<event>
 7    1  0.6684706E-006  0.2656053E+03  0.7561462E-02  0.1103821E+00
          1   -1    0    0  501    0  0.00000000000E+00  0.00000000000E+00  0.37257105734E+03  0.37257105734E+03  0.00000000000E+00 0. -1.
         -1   -1    0    0    0  501 -0.00000000000E+00 -0.00000000000E+00 -0.20319592163E+03  0.20319592163E+03  0.00000000000E+00 0.  1.
         23    2    1    2    0    0 -0.13347996581E+03  0.21067387537E+03  0.30809158071E+02  0.26662940132E+03  0.89115937916E+02 0.  0.
          5    1    1    2  502    0  0.11102473439E+03 -0.88247901879E+02  0.11443497617E+03  0.18228280227E+03  0.41800000000E+01 0. -1.
         -5    1    1    2    0  502  0.22455231418E+02 -0.12242597349E+03  0.24131001469E+02  0.12685477538E+03  0.41800000000E+01 0.  1.
        -11    1    3    3    0    0 -0.13907514754E+03  0.15269296096E+03  0.21729007651E+02  0.20767567687E+03  0.00000000000E+00 0.  1.
         11    1    3    3    0    0  0.55951817323E+01  0.57980914417E+02  0.90801504202E+01  0.58953724453E+02  0.00000000000E+00 0. -1.
</event>
<event>
 7    1  0.6684706E-006  0.8069353E+02  0.7561462E-02  0.1327095E+00
         -1   -1    0    0    0  501 -0.00000000000E+00  0.00000000000E+00  0.28458301406E+02  0.28458301406E+02  0.00000000000E+00 0.  1.
          1   -1    0    0  501    0  0.00000000000E+00 -0.00000000000E+00 -0.55186500235E+03  0.55186500235E+03  0.00000000000E+00 0. -1.
         23    2    1    2    0    0 -0.35358510965E+02  0.81098105598E+01 -0.12596260199E+03  0.16208203465E+03  0.95331083754E+02 0.  0.
          5    1    1    2  502    0 -0.17687877678E+02 -0.15018863158E+02 -0.33534005668E+03  0.33616789449E+03  0.41800000000E+01 0. -1.
         -5    1    1    2    0  502  0.53046388644E+02  0.69090525979E+01 -0.62104042268E+02  0.82073374622E+02  0.41800000000E+01 0. -1.
        -11    1    3    3    0    0 -0.69652359497E+00  0.38227186257E+02 -0.13399987197E+02  0.40513733118E+02  0.00000000000E+00 0.  1.
         11    1    3    3    0    0 -0.34661987370E+02 -0.30117375697E+02 -0.11256261480E+03  0.12156830153E+03  0.00000000000E+00 0. -1.
</event>
<event>
 7    1  0.6684706E-006  0.2177428E+03  0.7561462E-02  0.1135577E+00
          1   -1    0    0  501    0  0.00000000000E+00  0.00000000000E+00  0.18438608236E+03  0.18438608236E+03  0.00000000000E+00 0. -1.
         -1   -1    0    0    0  501 -0.00000000000E+00 -0.00000000000E+00 -0.28925972202E+03  0.28925972202E+03  0.00000000000E+00 0.  1.
         23    2    1    2    0    0  0.27397755215E+02  0.95983129877E+02 -0.80010652753E+02  0.15568902591E+03  0.88735393293E+02 0.  0.
          5    1    1    2  502    0  0.13605338246E+03 -0.30907303001E+02 -0.25951413535E+02  0.14197440798E+03  0.41800000000E+01 0. -1.
         -5    1    1    2    0  502 -0.16345113767E+03 -0.65075826876E+02  0.10884266343E+01  0.17598237049E+03  0.41800000000E+01 0.  1.
        -11    1    3    3    0    0 -0.27807943303E+01 -0.96614056994E+01 -0.35922585581E+02  0.37302918546E+02  0.00000000000E+00 0.  1.
         11    1    3    3    0    0  0.30178549545E+02  0.10564453558E+03 -0.44088067172E+02  0.11838610736E+03  0.00000000000E+00 0. -1.
</event>
<event>
 7    1  0.6684706E-006  0.2481653E+03  0.7561462E-02  0.1114470E+00
          2   -1    0    0  501    0  0.00000000000E+00  0.00000000000E+00  0.78767034254E+03  0.78767034254E+03  0.00000000000E+00 0. -1.
         -2   -1    0    0    0  501 -0.00000000000E+00 -0.00000000000E+00 -0.94097784468E+02  0.94097784468E+02  0.00000000000E+00 0.  1.
         23    2    1    2    0    0 -0.14851831683E+03  0.16645793341E+03  0.15736646531E+03  0.28769053947E+03  0.90750802021E+02 0.  0.
          5    1    1    2  502    0  0.12451859576E+03 -0.18628444945E+03  0.46147233177E+03  0.51301165892E+03  0.41800000000E+01 0.  1.
         -5    1    1    2    0  502  0.23999721074E+02  0.19826516046E+02  0.74733760990E+02  0.81065928612E+02  0.41800000000E+01 0.  1.
        -11    1    3    3    0    0 -0.51369546482E+02  0.12508390680E+03  0.90284918485E+02  0.16259206793E+03  0.00000000000E+00 0. -1.
         11    1    3    3    0    0 -0.97148770353E+02  0.41374026607E+02  0.67081546823E+02  0.12509847155E+03  0.00000000000E+00 0.  1.
</event>
<event>
 7    1  0.6684706E-006  0.1554876E+03  0.7561462E-02  0.1193887E+00
          1   -1    0    0  501    0  0.00000000000E+00  0.00000000000E+00  0.59641775732E+02  0.59641775732E+02  0.00000000000E+00 0. -1.
         -1   -1    0    0    0  501 -0.00000000000E+00 -0.00000000000E+00 -0.48389181496E+03  0.48389181496E+03  0.00000000000E+00 0.  1.
         23    2    1    2    0    0 -0.78180685624E+02 -0.10075266479E+03 -0.24220538874E+03  0.28848350540E+03  0.91082179866E+02 0.  0.
          5    1    1    2  502    0 -0.20678597203E+02 -0.53209115419E+01 -0.65355194950E+02  0.68881713022E+02  0.41800000000E+01 0.  1.
         -5    1    1    2    0  502  0.98859282826E+02  0.10607357634E+03 -0.11668945554E+03  0.18616837227E+03  0.41800000000E+01 0.  1.
        -11    1    3    3    0    0 -0.81177585139E+02 -0.54424799902E+02 -0.10412246211E+03  0.14280527403E+03  0.00000000000E+00 0. -1.
         11    1    3    3    0    0  0.29968995150E+01 -0.46327864891E+02 -0.13808292662E+03  0.14567823138E+03  0.00000000000E+00 0.  1.
</event>
<event>
 7    1  0.6684706E-006  0.1080034E+03  0.7561462E-02  0.1264313E+00
         -1   -1    0    0    0  501 -0.00000000000E+00  0.00000000000E+00  0.30772579814E+03  0.30772579814E+03  0.00000000000E+00 0.  1.
          1   -1    0    0  501    0  0.00000000000E+00 -0.00000000000E+00 -0.99841668386E+02  0.99841668386E+02  0.00000000000E+00 0. -1.
         23    2    1    2    0    0 -0.18303351462E+01  0.27509419777E+02  0.25251517604E+03  0.26979720235E+03  0.90920283563E+02 0.  0.
          5    1    1    2  502    0  0.32301781480E+02 -0.65214248777E+02 -0.50615661244E+02  0.88745258428E+02  0.41800000000E+01 0. -1.
         -5    1    1    2    0  502 -0.30471446334E+02  0.37704829000E+02  0.59846149508E+01  0.49025005739E+02  0.41800000000E+01 0.  1.
        -11    1    3    3    0    0  0.12859101038E+02 -0.31298937795E+02  0.76901801970E+02  0.84017064533E+02  0.00000000000E+00 0. -1.
         11    1    3    3    0    0 -0.14689436184E+02  0.58808357571E+02  0.17561337407E+03  0.18578013782E+03  0.00000000000E+00 0.  1.
</event>
<event>
 7    1  0.6684706E-006  0.1014156E+03  0.7561462E-02  0.1277347E+00
          4   -1    0    0  501    0  0.00000000000E+00  0.00000000000E+00  0.14807352397E+03  0.14807352397E+03  0.00000000000E+00 0. -1.
         -4   -1    0    0    0  501 -0.00000000000E+00 -0.00000000000E+00 -0.13898723985E+03  0.13898723985E+03  0.00000000000E+00 0.  1.
         23    2    1    2    0    0 -0.42582898405E+02 -0.70409097911E+02 -0.41272668333E+02  0.12910842815E+03  0.90525183038E+02 0.  0.
          5    1    1    2  502    0  0.37622652566E+02  0.89905078871E+02  0.77021988944E+02  0.12429097463E+03  0.41800000000E+01 0. -1.
         -5    1    1    2    0  502  0.49602458390E+01 -0.19495980960E+02 -0.26663036491E+02  0.33661361043E+02  0.41800000000E+01 0. -1.
        -11    1    3    3    0    0 -0.16781078832E+02 -0.11274813240E+02 -0.58860686474E+02  0.62235893442E+02  0.00000000000E+00 0.  1.
         11    1    3    3    0    0 -0.25801819572E+02 -0.59134284671E+02  0.17588018141E+02  0.66872534713E+02  0.00000000000E+00 0. -1.
</event>
<event>
 7    1  0.6684706E-006  0.8095729E+02  0.7561462E-02  0.1326357E+00
         -2   -1    0    0    0  501 -0.00000000000E+00  0.00000000000E+00  0.12121600123E+03  0.12121600123E+03  0.00000000000E+00 0.  1.
          2   -1    0    0  501    0  0.00000000000E+00 -0.00000000000E+00 -0.12707588279E+03  0.12707588279E+03  0.00000000000E+00 0. -1.
         23    2    1    2    0    0  0.22860489113E+02  0.40248252023E+02  0.32529562350E+02  0.10949996775E+03  0.93752582667E+02 0.  0.
          5    1    1    2  502    0 -0.11952892933E+01  0.54186750039E+01 -0.75580543699E+02  0.75899155075E+02  0.41800000000E+01 0.  1.
         -5    1    1    2    0  502 -0.21665199819E+02 -0.45666927027E+02  0.37191099787E+02  0.62892761194E+02  0.41800000000E+01 0.  1.
        -11    1    3    3    0    0 -0.26021111284E+02  0.48151795747E+02  0.21262393940E+02  0.58717825762E+02  0.00000000000E+00 0.  1.
         11    1    3    3    0    0  0.48881600396E+02 -0.79035437243E+01  0.11267168410E+02  0.50782141986E+02  0.00000000000E+00 0. -1.
</event>
<event>
 7    1  0.6684706E-006  0.9687956E+02  0.7561462E-02  0.1286998E+00
          2   -1    0    0  501    0  0.00000000000E+00  0.00000000000E+00  0.28944753755E+03  0.28944753755E+03  0.00000000000E+00 0. -1.
         -2   -1    0    0    0  501 -0.00000000000E+00 -0.00000000000E+00 -0.52675291995E+02  0.52675291995E+02  0.00000000000E+00 0.  1.
         23    2    1    2    0    0  0.19022779817E+02 -0.25285484773E+02  0.31041432320E+02  0.99282028810E+02  0.88837654358E+02 0.  0.
          5    1    1    2  502    0  0.26251866783E+01 -0.37817623112E+02  0.15305710117E+03  0.15773716379E+03  0.41800000000E+01 0. -1.
         -5    1    1    2    0  502 -0.21647966496E+02  0.63103107885E+02  0.52673712069E+02  0.85103636945E+02  0.41800000000E+01 0. -1.
        -11    1    3    3    0    0 -0.16317926724E+02 -0.45308932234E+02 -0.34122945893E-02  0.48157803982E+02  0.00000000000E+00 0. -1.
         11    1    3    3    0    0  0.35340706542E+02  0.20023447460E+02  0.31044844614E+02  0.51124224827E+02  0.00000000000E+00 0.  1.
</event>
<event>
 7    1  0.6774894E-006  0.1065793E+03  0.7561462E-02  0.1267039E+00
          2   -1    0    0  501    0  0.00000000000E+00  0.00000000000E+00  0.54772705210E+03  0.54772705210E+03  0.00000000000E+00 0. -1.
         -2   -1    0    0    0  501 -0.00000000000E+00 -0.00000000000E+00 -0.33894673769E+02  0.33894673769E+02  0.00000000000E+00 0.  1.
         23    2    1    2    0    0  0.10673873914E+02 -0.73645123000E+02  0.18499091535E+03  0.22200818301E+03  0.97613825019E+02 0.  0.
          5    1    1    2  502    0 -0.49796576469E+02  0.74693260618E+02  0.29267308905E+03  0.30615974860E+03  0.41800000000E+01 0. -1.
         -5    1    1    2    0  502  0.39122702555E+02 -0.10481376176E+01  0.36168373922E+02  0.53453794251E+02  0.41800000000E+01 0. -1.
        -11    1    3    3    0    0  0.21045253691E+02 -0.19136765094E+02 -0.44539789924E+00  0.28448494872E+02  0.00000000000E+00 0.  1.
         11    1    3    3    0    0 -0.10371379777E+02 -0.54508357906E+02  0.18543631325E+03  0.19355968814E+03  0.00000000000E+00 0. -1.
</event>
<event>
 7    1  0.6684706E-006  0.9468384E+02  0.7561462E-02  0.1291890E+00
          2   -1    0    0  501    0  0.00000000000E+00  0.00000000000E+00  0.51393029013E+03  0.51393029013E+03  0.00000000000E+00 0. -1.
         -2   -1    0    0    0  501 -0.00000000000E+00 -0.00000000000E+00 -0.30200871376E+02  0.30200871376E+02  0.00000000000E+00 0.  1.
         23    2    1    2    0    0 -0.42109435862E+02  0.29559581538E+01  0.12770236288E+03  0.16441310041E+03  0.94561259638E+02 0.  0.
          5    1    1    2  502    0  0.28094139516E+02  0.44084710384E+02  0.30234197929E+03  0.30685646026E+03  0.41800000000E+01 0.  1.
         -5    1    1    2    0  502  0.14015296346E+02 -0.47040668537E+02  0.53685076596E+02  0.72861600842E+02  0.41800000000E+01 0.  1.
        -11    1    3    3    0    0  0.17701711020E+02 -0.17067385570E+02  0.84391094194E+02  0.87900529022E+02  0.00000000000E+00 0. -1.
         11    1    3    3    0    0 -0.59811146882E+02  0.20023343724E+02  0.43311268683E+02  0.76512571386E+02  0.00000000000E+00 0.  1.
</event>
<event>
 7    1  0.6684706E-006  0.7423141E+02  0.7561462E-02  0.1346268E+00
          1   -1    0    0  501    0  0.00000000000E+00  0.00000000000E+00  0.14881261241E+03  0.14881261241E+03  0.00000000000E+00 0. -1.
         -1   -1    0    0    0  501 -0.00000000000E+00 -0.00000000000E+00 -0.83661478774E+02  0.83661478774E+02  0.00000000000E+00 0.  1.
         23    2    1    2    0    0  0.18392215749E+02 -0.11227031359E+02  0.44122197301E+02  0.10379993339E+03  0.91451287815E+02 0.  0.
          5    1    1    2  502    0 -0.24762886141E+02  0.28029067362E+02 -0.45838531406E+02  0.59308283643E+02  0.41800000000E+01 0.  1.
         -5    1    1    2    0  502  0.63706703917E+01 -0.16802036003E+02  0.66867467737E+02  0.69365874150E+02  0.41800000000E+01 0.  1.
        -11    1    3    3    0    0  0.36882150518E+02  0.29775562768E+02  0.32082108342E+02  0.57237564943E+02  0.00000000000E+00 0. -1.
         11    1    3    3    0    0 -0.18489934769E+02 -0.41002594126E+02  0.12040088959E+02  0.46562368443E+02  0.00000000000E+00 0.  1.
</event>
<event>
 7    1  0.6684706E-006  0.8799222E+02  0.7561462E-02  0.1307788E+00
          1   -1    0    0  501    0  0.00000000000E+00  0.00000000000E+00  0.50363845655E+03  0.50363845655E+03  0.00000000000E+00 0. -1.
         -1   -1    0    0    0  501 -0.00000000000E+00 -0.00000000000E+00 -0.32110209925E+02  0.32110209925E+02  0.00000000000E+00 0.  1.
         23    2    1    2    0    0  0.24653656260E+02 -0.23923011768E+02  0.86187155355E+02  0.12915853391E+03  0.89853146156E+02 0.  0.
          5    1    1    2  502    0 -0.70138146054E+01 -0.32870165306E+02  0.26973418698E+02  0.43297564352E+02  0.41800000000E+01 0. -1.
         -5    1    1    2    0  502 -0.17639841654E+02  0.56793177074E+02  0.35836767257E+03  0.36329256821E+03  0.41800000000E+01 0. -1.
        -11    1    3    3    0    0  0.48575062570E+02  0.13096395400E+00  0.15897165741E+02  0.51110407295E+02  0.00000000000E+00 0.  1.
         11    1    3    3    0    0 -0.23921406311E+02 -0.24053975722E+02  0.70289989614E+02  0.78048126614E+02  0.00000000000E+00 0. -1.
</event>
<event>
 7    1  0.6684706E-006  0.1623328E+03  0.7561462E-02  0.1186088E+00
         -1   -1    0    0    0  501 -0.00000000000E+00  0.00000000000E+00  0.39383683569E+03  0.39383683569E+03  0.00000000000E+00 0.  1.
          1   -1    0    0  501    0  0.00000000000E+00 -0.00000000000E+00 -0.71155144710E+02  0.71155144710E+02  0.00000000000E+00 0. -1.
         23    2    1    2    0    0 -0.72538542177E+02  0.10362693583E+03  0.14215372440E+03  0.21152807693E+03  0.92390822266E+02 0.  0.
          5    1    1    2  502    0  0.87947960289E+02 -0.21486741797E+02  0.11908682884E+03  0.14965182590E+03  0.41800000000E+01 0.  1.
         -5    1    1    2    0  502 -0.15409418112E+02 -0.82140194031E+02  0.61441137728E+02  0.10381207756E+03  0.41800000000E+01 0.  1.
        -11    1    3    3    0    0 -0.97085423757E+01  0.83961962717E+02  0.49770475036E+02  0.98086528962E+02  0.00000000000E+00 0. -1.
         11    1    3    3    0    0 -0.62829999802E+02  0.19664973110E+02  0.92383249368E+02  0.11344154797E+03  0.00000000000E+00 0.  1.
</event>
<event>
 7    1  0.6684706E-006  0.1461037E+03  0.7561462E-02  0.1205344E+00
          3   -1    0    0  501    0  0.00000000000E+00  0.00000000000E+00  0.46975998317E+02  0.46975998317E+02  0.00000000000E+00 0. -1.
         -3   -1    0    0    0  501 -0.00000000000E+00 -0.00000000000E+00 -0.72775926376E+03  0.72775926376E+03  0.00000000000E+00 0.  1.
         23    2    1    2    0    0  0.12494147117E+03 -0.38610244486E+02 -0.47552442510E+03  0.50109321330E+03  0.88711934646E+02 0.  0.
          5    1    1    2  502    0 -0.47603555463E+02 -0.19459165999E+02 -0.57846286806E+01  0.51920053573E+02  0.41800000000E+01 0.  1.
         -5    1    1    2    0  502 -0.77337915707E+02  0.58069410485E+02 -0.19947421166E+03  0.22172199521E+03  0.41800000000E+01 0.  1.
        -11    1    3    3    0    0  0.33644727568E+02  0.16179590053E+02 -0.49705967133E+02  0.62164539699E+02  0.00000000000E+00 0. -1.
         11    1    3    3    0    0  0.91296743602E+02 -0.54789834539E+02 -0.42581845797E+03  0.43892867360E+03  0.00000000000E+00 0.  1.
</event>
<event>
 7    1  0.6684706E-006  0.6741180E+02  0.7561462E-02  0.1369122E+00
         -2   -1    0    0    0  501 -0.00000000000E+00  0.00000000000E+00  0.11800440001E+03  0.11800440001E+03  0.00000000000E+00 0.  1.
          2   -1    0    0  501    0  0.00000000000E+00 -0.00000000000E+00 -0.27694885494E+03  0.27694885494E+03  0.00000000000E+00 0. -1.
         23    2    1    2    0    0 -0.18079303727E+02 -0.50918632719E+01  0.80894318064E+02  0.12380295169E+03  0.91817709939E+02 0.  0.
          5    1    1    2  502    0 -0.15499954078E+02 -0.16489022212E+02 -0.22820678519E+03  0.22936422048E+03  0.41800000000E+01 0. -1.
         -5    1    1    2    0  502  0.33579257805E+02  0.21580885484E+02 -0.11631987804E+02  0.41786082770E+02  0.41800000000E+01 0. -1.
        -11    1    3    3    0    0 -0.33695735128E+02 -0.28095667621E+02  0.64599077982E+01  0.44345231014E+02  0.00000000000E+00 0. -1.
         11    1    3    3    0    0  0.15616431401E+02  0.23003804350E+02  0.74434410266E+02  0.79457720681E+02  0.00000000000E+00 0.  1.
</event>
<event>
 7    1  0.6684706E-006  0.7652324E+02  0.7561462E-02  0.1339218E+00
          1   -1    0    0  501    0  0.00000000000E+00  0.00000000000E+00  0.26512730463E+03  0.26512730463E+03  0.00000000000E+00 0. -1.
         -1   -1    0    0    0  501 -0.00000000000E+00 -0.00000000000E+00 -0.65940963913E+02  0.65940963913E+02  0.00000000000E+00 0.  1.
         23    2    1    2    0    0  0.23084507575E+02  0.27598653963E+02  0.65451907852E+01  0.98575786194E+02  0.91541061337E+02 0.  0.
          5    1    1    2  502    0 -0.43121499119E+02  0.30881229581E+02  0.36534136676E+02  0.64539364495E+02  0.41800000000E+01 0. -1.
         -5    1    1    2    0  502  0.20036991544E+02 -0.58479883544E+02  0.15610701326E+03  0.16795311786E+03  0.41800000000E+01 0. -1.
        -11    1    3    3    0    0  0.10832243773E+02  0.44840231957E+01 -0.41904847828E+02  0.43513908589E+02  0.00000000000E+00 0.  1.
         11    1    3    3    0    0  0.12252263803E+02  0.23114630767E+02  0.48450038613E+02  0.55061877605E+02  0.00000000000E+00 0. -1.
</event>
<event>
 7    1  0.6684706E-006  0.9298555E+02  0.7561462E-02  0.1295779E+00
          2   -1    0    0  501    0  0.00000000000E+00  0.00000000000E+00  0.34641131661E+02  0.34641131661E+02  0.00000000000E+00 0. -1.
         -2   -1    0    0    0  501 -0.00000000000E+00 -0.00000000000E+00 -0.53596555463E+03  0.53596555463E+03  0.00000000000E+00 0.  1.
         23    2    1    2    0    0  0.52927395683E+02  0.45721577405E+02 -0.31792950156E+03  0.33785476216E+03  0.90415156353E+02 0.  0.
          5    1    1    2  502    0 -0.21890869956E+02 -0.86808442784E+01  0.15187160132E+02  0.28331775053E+02  0.41800000000E+01 0.  1.
         -5    1    1    2    0  502 -0.31036525727E+02 -0.37040733127E+02 -0.19858208154E+03  0.20442014908E+03  0.41800000000E+01 0.  1.
        -11    1    3    3    0    0  0.12419813405E+02  0.66758586359E+02 -0.17062656858E+03  0.18364200642E+03  0.00000000000E+00 0. -1.
         11    1    3    3    0    0  0.40507582278E+02 -0.21037008954E+02 -0.14730293298E+03  0.15421275574E+03  0.00000000000E+00 0.  1.
</event>
<event>
 7    1  0.6684706E-006  0.2131956E+03  0.7561462E-02  0.1139060E+00
         -1   -1    0    0    0  501 -0.00000000000E+00  0.00000000000E+00  0.61703977774E+02  0.61703977774E+02  0.00000000000E+00 0.  1.
          1   -1    0    0  501    0  0.00000000000E+00 -0.00000000000E+00 -0.87538927764E+03  0.87538927764E+03  0.00000000000E+00 0. -1.
         23    2    1    2    0    0  0.11743339894E+03  0.16690037324E+03 -0.34501667274E+03  0.41083830863E+03  0.90029292971E+02 0.  0.
          5    1    1    2  502    0 -0.10522647096E+03 -0.17155495893E+03 -0.47111779834E+03  0.51232135075E+03  0.41800000000E+01 0.  1.
         -5    1    1    2    0  502 -0.12206927977E+02  0.46545856861E+01  0.24491712239E+01  0.13933596027E+02  0.41800000000E+01 0.  1.
        -11    1    3    3    0    0  0.39898428831E+02  0.10447347502E+03 -0.24700400042E+03  0.27114123226E+03  0.00000000000E+00 0. -1.
         11    1    3    3    0    0  0.77534970110E+02  0.62426898221E+02 -0.98012672321E+02  0.13969707637E+03  0.00000000000E+00 0.  1.
</event>
<event>
 7    1  0.6684706E-006  0.1359549E+03  0.7561462E-02  0.1218878E+00
         -1   -1    0    0    0  501 -0.00000000000E+00  0.00000000000E+00  0.29631481262E+03  0.29631481262E+03  0.00000000000E+00 0.  1.
          1   -1    0    0  501    0  0.00000000000E+00 -0.00000000000E+00 -0.77173928044E+02  0.77173928044E+02  0.00000000000E+00 0. -1.
         23    2    1    2    0    0  0.38659327846E+02 -0.93897905137E+02  0.13053221672E+03  0.18960064357E+03  0.92727472855E+02 0.  0.
          5    1    1    2  502    0 -0.81395011006E+02  0.67112097447E+02  0.37708113068E+02  0.11210956976E+03  0.41800000000E+01 0. -1.
         -5    1    1    2    0  502  0.42735683160E+02  0.26785807690E+02  0.50900554788E+02  0.71778527336E+02  0.41800000000E+01 0. -1.
        -11    1    3    3    0    0  0.13037938401E+02  0.46932170007E+01  0.69462638045E+02  0.70831293986E+02  0.00000000000E+00 0.  1.
         11    1    3    3    0    0  0.25621389445E+02 -0.98591122138E+02  0.61069578679E+02  0.11876934959E+03  0.00000000000E+00 0. -1.
</event>
<event>
 7    1  0.6684706E-006  0.1427109E+03  0.7561462E-02  0.1209727E+00
         -2   -1    0    0    0  501 -0.00000000000E+00  0.00000000000E+00  0.52856794856E+02  0.52856794856E+02  0.00000000000E+00 0.  1.
          2   -1    0    0  501    0  0.00000000000E+00 -0.00000000000E+00 -0.58788817092E+03  0.58788817092E+03  0.00000000000E+00 0. -1.
         23    2    1    2    0    0  0.54468150023E+02 -0.12700752502E+03 -0.22195778316E+03  0.27638179486E+03  0.89576493832E+02 0.  0.
          5    1    1    2  502    0 -0.55299734320E+02  0.10874613121E+03 -0.12273962304E+03  0.17310768075E+03  0.41800000000E+01 0.  1.
         -5    1    1    2    0  502  0.83158429631E+00  0.18261393810E+02 -0.19033396986E+03  0.19125549017E+03  0.41800000000E+01 0.  1.
        -11    1    3    3    0    0  0.61342017008E+02 -0.10570184763E+03 -0.11743892613E+03  0.16949225650E+03  0.00000000000E+00 0.  1.
         11    1    3    3    0    0 -0.68738669845E+01 -0.21305677388E+02 -0.10451885703E+03  0.10688953836E+03  0.00000000000E+00 0. -1.
</event>
<event>
 7    1  0.6684706E-006  0.1022423E+03  0.7561462E-02  0.1275650E+00
          1   -1    0    0  501    0  0.00000000000E+00  0.00000000000E+00  0.69730903175E+03  0.69730903175E+03  0.00000000000E+00 0. -1.
         -1   -1    0    0    0  501 -0.00000000000E+00 -0.00000000000E+00 -0.20369049169E+02  0.20369049169E+02  0.00000000000E+00 0.  1.
         23    2    1    2    0    0 -0.75324365478E+01 -0.33709039950E+02  0.19579480151E+03  0.21934238752E+03  0.92641468539E+02 0.  0.
          5    1    1    2  502    0  0.47326560693E+02  0.51707481647E+02  0.16731107368E+03  0.18144953784E+03  0.41800000000E+01 0.  1.
         -5    1    1    2    0  502 -0.39794124145E+02 -0.17998441697E+02  0.31383410739E+03  0.31688615556E+03  0.41800000000E+01 0.  1.
        -11    1    3    3    0    0  0.17061896769E+02  0.22964574259E+02  0.26004028669E+02  0.38661214405E+02  0.00000000000E+00 0.  1.
         11    1    3    3    0    0 -0.24594333317E+02 -0.56673614209E+02  0.16979077284E+03  0.18068117312E+03  0.00000000000E+00 0. -1.
</event>
<event>
 7    1  0.6684706E-006  0.1173571E+03  0.7561462E-02  0.1247522E+00
          1   -1    0    0  501    0  0.00000000000E+00  0.00000000000E+00  0.16215972404E+03  0.16215972404E+03  0.00000000000E+00 0. -1.
         -1   -1    0    0    0  501 -0.00000000000E+00 -0.00000000000E+00 -0.99974890467E+02  0.99974890467E+02  0.00000000000E+00 0.  1.
         23    2    1    2    0    0  0.18467441430E+02 -0.58470252513E+02  0.74428231058E+01  0.11245473320E+03  0.93972626761E+02 0.  0.
          5    1    1    2  502    0 -0.14441631556E+02 -0.38519615644E+02  0.91416721468E+01  0.42348129604E+02  0.41800000000E+01 0. -1.
         -5    1    1    2    0  502 -0.40258098745E+01  0.96989868156E+02  0.45600338324E+02  0.10733175171E+03  0.41800000000E+01 0. -1.
        -11    1    3    3    0    0  0.24788092378E+02  0.10515611455E+02 -0.24284878931E+02  0.36259935917E+02  0.00000000000E+00 0.  1.
         11    1    3    3    0    0 -0.63206509482E+01 -0.68985863967E+02  0.31727702037E+02  0.76194797278E+02  0.00000000000E+00 0. -1.
</event>
<event>
 7    1  0.6684706E-006  0.9546678E+02  0.7561462E-02  0.1290128E+00
         -3   -1    0    0    0  501 -0.00000000000E+00  0.00000000000E+00  0.25413160807E+03  0.25413160807E+03  0.00000000000E+00 0.  1.
          3   -1    0    0  501    0  0.00000000000E+00 -0.00000000000E+00 -0.67066395022E+02  0.67066395022E+02  0.00000000000E+00 0. -1.
         23    2    1    2    0    0  0.23044732339E+02  0.63240235647E+02  0.13263874927E+03  0.17468372273E+03  0.91602282113E+02 0.  0.
          5    1    1    2  502    0  0.18378431003E+00 -0.72903503240E+02  0.81426254443E+02  0.10937395428E+03  0.41800000000E+01 0. -1.
         -5    1    1    2    0  502 -0.23228516650E+02  0.96632675927E+01 -0.26999790656E+02  0.37140326086E+02  0.41800000000E+01 0.  1.
        -11    1    3    3    0    0  0.42733130221E+02  0.57982704715E+02  0.45504957657E+02  0.85198683299E+02  0.00000000000E+00 0. -1.
         11    1    3    3    0    0 -0.19688397881E+02  0.52575309322E+01  0.87133791609E+02  0.89485039435E+02  0.00000000000E+00 0.  1.
</event>
<event>
 7    1  0.6684706E-006  0.1237390E+03  0.7561462E-02  0.1237053E+00
          2   -1    0    0  501    0  0.00000000000E+00  0.00000000000E+00  0.31273523295E+03  0.31273523295E+03  0.00000000000E+00 0. -1.
         -2   -1    0    0    0  501 -0.00000000000E+00 -0.00000000000E+00 -0.94021427234E+02  0.94021427234E+02  0.00000000000E+00 0.  1.
         23    2    1    2    0    0 -0.26027294115E+02 -0.88736945517E+02 -0.11653234525E+02  0.12878498955E+03  0.88871312125E+02 0.  0.
          5    1    1    2  502    0  0.53695754176E+02  0.30309369227E+02  0.32615946934E+02  0.69879641340E+02  0.41800000000E+01 0. -1.
         -5    1    1    2    0  502 -0.27668460060E+02  0.58427576290E+02  0.19775109330E+03  0.20809202929E+03  0.41800000000E+01 0. -1.
        -11    1    3    3    0    0  0.25047938453E+02 -0.52809522389E+02 -0.27147844989E+02  0.64445716408E+02  0.00000000000E+00 0.  1.
         11    1    3    3    0    0 -0.51075232568E+02 -0.35927423127E+02  0.15494610464E+02  0.64339273138E+02  0.00000000000E+00 0. -1.
</event>
<event>
 7    1  0.6684706E-006  0.9908311E+02  0.7561462E-02  0.1282236E+00
         -1   -1    0    0    0  501 -0.00000000000E+00  0.00000000000E+00  0.12624459639E+03  0.12624459639E+03  0.00000000000E+00 0.  1.
          1   -1    0    0  501    0  0.00000000000E+00 -0.00000000000E+00 -0.11248632520E+03  0.11248632520E+03  0.00000000000E+00 0. -1.
         23    2    1    2    0    0 -0.12347888269E+02  0.37948707603E+02  0.36859578447E+02  0.10540888229E+03  0.90331772862E+02 0.  0.
          5    1    1    2  502    0 -0.15587808289E+02  0.25893148832E+02 -0.49945303822E+02  0.58527264566E+02  0.41800000000E+01 0. -1.
         -5    1    1    2    0  502  0.27935696559E+02 -0.63841856435E+02  0.26843996564E+02  0.74794774730E+02  0.41800000000E+01 0. -1.
        -11    1    3    3    0    0 -0.26283226267E+02 -0.23242500054E+02  0.64591824659E+01  0.35675521438E+02  0.00000000000E+00 0.  1.
         11    1    3    3    0    0  0.13935337997E+02  0.61191207657E+02  0.30400395981E+02  0.69733360850E+02  0.00000000000E+00 0. -1.
</event>
<event>
 7    1  0.6684706E-006  0.1123644E+03  0.7561462E-02  0.1256253E+00
          2   -1    0    0  501    0  0.00000000000E+00  0.00000000000E+00  0.34006356273E+03  0.34006356273E+03  0.00000000000E+00 0. -1.
         -2   -1    0    0    0  501 -0.00000000000E+00 -0.00000000000E+00 -0.39146901791E+02  0.39146901791E+02  0.00000000000E+00 0.  1.
         23    2    1    2    0    0  0.15019676948E+02  0.37613016293E+02  0.13600200646E+03  0.16829563459E+03  0.90479529004E+02 0.  0.
          5    1    1    2  502    0 -0.41128612584E+02  0.34721476022E+02  0.59188784573E+02  0.80111973447E+02  0.41800000000E+01 0. -1.
         -5    1    1    2    0  502  0.26108935636E+02 -0.72334492315E+02  0.10572586990E+03  0.13080285649E+03  0.41800000000E+01 0. -1.
        -11    1    3    3    0    0  0.49561819883E+02  0.12777989614E+02  0.10090538713E+03  0.11314392675E+03  0.00000000000E+00 0. -1.
         11    1    3    3    0    0 -0.34542142935E+02  0.24835026678E+02  0.35096619334E+02  0.55151707837E+02  0.00000000000E+00 0.  1.
</event>
<event>
 7    1  0.6684706E-006  0.1261378E+03  0.7561462E-02  0.1233302E+00
          1   -1    0    0  501    0  0.00000000000E+00  0.00000000000E+00  0.86180107792E+02  0.86180107792E+02  0.00000000000E+00 0. -1.
         -1   -1    0    0    0  501 -0.00000000000E+00 -0.00000000000E+00 -0.30136030155E+03  0.30136030155E+03  0.00000000000E+00 0.  1.
         23    2    1    2    0    0 -0.50871165688E+02  0.82760590023E+02 -0.18172011624E+03  0.22566417726E+03  0.92005051450E+02 0.  0.
          5    1    1    2  502    0  0.14631138919E+02 -0.80968648493E+02 -0.71539703904E+02  0.10911184124E+03  0.41800000000E+01 0.  1.
         -5    1    1    2    0  502  0.36240026769E+02 -0.17919415297E+01  0.38079626388E+02  0.52764390838E+02  0.41800000000E+01 0.  1.
        -11    1    3    3    0    0 -0.42971063952E+02 -0.67575505904E+01 -0.50961440552E+02  0.67001830201E+02  0.00000000000E+00 0.  1.
         11    1    3    3    0    0 -0.79001017354E+01  0.89518140613E+02 -0.13075867568E+03  0.15866234706E+03  0.00000000000E+00 0. -1.
</event>
<event>
 7    1  0.6684706E-006  0.3133006E+03  0.7561462E-02  0.1078775E+00
          2   -1    0    0  501    0  0.00000000000E+00  0.00000000000E+00  0.70611465543E+03  0.70611465543E+03  0.00000000000E+00 0. -1.
         -2   -1    0    0    0  501 -0.00000000000E+00 -0.00000000000E+00 -0.16247534553E+03  0.16247534553E+03  0.00000000000E+00 0.  1.
         23    2    1    2    0    0  0.94258875588E+02  0.28958550151E+03  0.14027809039E+03  0.34792564423E+03  0.92896786568E+02 0.  0.
          5    1    1    2  502    0 -0.11697622855E+02 -0.11464698765E+03  0.24444759145E+03  0.27028293236E+03  0.41800000000E+01 0.  1.
         -5    1    1    2    0  502 -0.82561252732E+02 -0.17493851386E+03  0.15891362805E+03  0.25038142437E+03  0.41800000000E+01 0.  1.
        -11    1    3    3    0    0  0.99376751782E+02  0.16161997409E+03  0.94146691622E+02  0.21180263068E+03  0.00000000000E+00 0.  1.
         11    1    3    3    0    0 -0.51178761941E+01  0.12796552742E+03  0.46131398767E+02  0.13612301355E+03  0.00000000000E+00 0. -1.
</event>
<event>
 7    1  0.6684706E-006  0.8301459E+02  0.7561462E-02  0.1320708E+00
         -2   -1    0    0    0  501 -0.00000000000E+00  0.00000000000E+00  0.13039972011E+03  0.13039972011E+03  0.00000000000E+00 0.  1.
          2   -1    0    0  501    0  0.00000000000E+00 -0.00000000000E+00 -0.94662037435E+02  0.94662037435E+02  0.00000000000E+00 0. -1.
         23    2    1    2    0    0  0.25934753361E+02  0.11676606041E+02  0.35154542360E+02  0.96776894528E+02  0.85562672383E+02 0.  0.
          5    1    1    2  502    0 -0.41433984435E+02  0.16591767548E+02 -0.50631146967E+02  0.67624309680E+02  0.41800000000E+01 0.  1.
         -5    1    1    2    0  502  0.15499231074E+02 -0.28268373589E+02  0.51214287278E+02  0.60660553333E+02  0.41800000000E+01 0.  1.
        -11    1    3    3    0    0 -0.94070023702E+01 -0.31512519593E+02  0.21607418179E+02  0.39349855210E+02  0.00000000000E+00 0.  1.
         11    1    3    3    0    0  0.35341755731E+02  0.43189125634E+02  0.13547124181E+02  0.57427039318E+02  0.00000000000E+00 0. -1.
</event>
<event>
 7    1  0.6684706E-006  0.1628367E+03  0.7561462E-02  0.1185531E+00
          1   -1    0    0  501    0  0.00000000000E+00  0.00000000000E+00  0.38517312224E+03  0.38517312224E+03  0.00000000000E+00 0. -1.
         -1   -1    0    0    0  501 -0.00000000000E+00 -0.00000000000E+00 -0.11084893580E+03  0.11084893580E+03  0.00000000000E+00 0.  1.
         23    2    1    2    0    0 -0.27354120521E+02  0.14465737008E+03  0.15963837785E+02  0.17341606726E+03  0.90245695966E+02 0.  0.
          5    1    1    2  502    0  0.10202404851E+01 -0.10788598187E+03  0.69606074575E+02  0.12846362906E+03  0.41800000000E+01 0.  1.
         -5    1    1    2    0  502  0.26333880036E+02 -0.36771388209E+02  0.18875427408E+03  0.19414236172E+03  0.41800000000E+01 0.  1.
        -11    1    3    3    0    0  0.21769810942E+02  0.11006930028E+03  0.47683125387E+01  0.11230277083E+03  0.00000000000E+00 0.  1.
         11    1    3    3    0    0 -0.49123931464E+02  0.34588069800E+02  0.11195525246E+02  0.61113296429E+02  0.00000000000E+00 0. -1.
</event>
<event>
 7    1  0.6684706E-006  0.1028121E+03  0.7561462E-02  0.1274491E+00
         -2   -1    0    0    0  501 -0.00000000000E+00  0.00000000000E+00  0.57737667742E+02  0.57737667742E+02  0.00000000000E+00 0.  1.
          2   -1    0    0  501    0  0.00000000000E+00 -0.00000000000E+00 -0.34346925312E+03  0.34346925312E+03  0.00000000000E+00 0. -1.
         23    2    1    2    0    0 -0.34612939155E+02  0.31289913565E+02 -0.31273908767E+02  0.11385132978E+03  0.99030064503E+02 0.  0.
          5    1    1    2  502    0 -0.42061735739E+02 -0.74699175871E+01 -0.14707367498E+03  0.15320942384E+03  0.41800000000E+01 0. -1.
         -5    1    1    2    0  502  0.76674674894E+02 -0.23819995978E+02 -0.10738400163E+03  0.13414616724E+03  0.41800000000E+01 0. -1.
        -11    1    3    3    0    0 -0.32854449122E+02  0.52004347107E+02 -0.54851918511E+02  0.82417230659E+02  0.00000000000E+00 0. -1.
         11    1    3    3    0    0 -0.17584900328E+01 -0.20714433542E+02  0.23578009743E+02  0.31434099122E+02  0.00000000000E+00 0.  1.
</event>
<event>
 7    1  0.6684706E-006  0.1174267E+03  0.7561462E-02  0.1247404E+00
          3   -1    0    0  501    0  0.00000000000E+00  0.00000000000E+00  0.35332905749E+03  0.35332905749E+03  0.00000000000E+00 0. -1.
         -3   -1    0    0    0  501 -0.00000000000E+00 -0.00000000000E+00 -0.58730788239E+02  0.58730788239E+02  0.00000000000E+00 0.  1.
         23    2    1    2    0    0 -0.74807463900E+02  0.58274509643E+02  0.14080455721E+03  0.19230599231E+03  0.90352621521E+02 0.  0.
          5    1    1    2  502    0  0.88716925448E+02 -0.16389044371E+02  0.15021828435E+03  0.17527777665E+03  0.41800000000E+01 0. -1.
         -5    1    1    2    0  502 -0.13909461548E+02 -0.41885465272E+02  0.35754276906E+01  0.44476076769E+02  0.41800000000E+01 0. -1.
        -11    1    3    3    0    0 -0.55336436042E+02  0.23022462984E+02  0.13970556530E+03  0.15201907752E+03  0.00000000000E+00 0. -1.
         11    1    3    3    0    0 -0.19471027858E+02  0.35252046658E+02  0.10989919131E+01  0.40286914782E+02  0.00000000000E+00 0.  1.
</event>
<event>
 7    1  0.6684706E-006  0.1030029E+03  0.7561462E-02  0.1274105E+00
          4   -1    0    0  501    0  0.00000000000E+00  0.00000000000E+00  0.26315014708E+03  0.26315014708E+03  0.00000000000E+00 0. -1.
         -4   -1    0    0    0  501 -0.00000000000E+00 -0.00000000000E+00 -0.58369483813E+02  0.58369483813E+02  0.00000000000E+00 0.  1.
         23    2    1    2    0    0  0.27304070634E+02 -0.33022376449E+02  0.27336528459E+02  0.10142184959E+03  0.87767398089E+02 0.  0.
          5    1    1    2  502    0  0.38396555122E+02  0.17711828731E+02  0.16580656898E+02  0.45611346235E+02  0.41800000000E+01 0. -1.
         -5    1    1    2    0  502 -0.65700625756E+02  0.15310547718E+02  0.16086347791E+03  0.17448643507E+03  0.41800000000E+01 0.  1.
        -11    1    3    3    0    0  0.42852412525E+02 -0.54550258115E+02  0.28127068557E+02  0.74854471511E+02  0.00000000000E+00 0. -1.
         11    1    3    3    0    0 -0.15548341891E+02  0.21527881666E+02 -0.79054009763E+00  0.26567378083E+02  0.00000000000E+00 0.  1.
</event>
<event>
 7    1  0.6684706E-006  0.3263812E+03  0.7561462E-02  0.1072749E+00
          1   -1    0    0  501    0  0.00000000000E+00  0.00000000000E+00  0.13271972777E+04  0.13271972777E+04  0.00000000000E+00 0. -1.
         -1   -1    0    0    0  501 -0.00000000000E+00 -0.00000000000E+00 -0.15443117525E+03  0.15443117525E+03  0.00000000000E+00 0.  1.
         23    2    1    2    0    0  0.16967343056E+03  0.27129391305E+03  0.88153731283E+02  0.34390239867E+03  0.90046205788E+02 0.  0.
          5    1    1    2  502    0 -0.15359586718E+03 -0.24021427812E+03  0.10511075893E+04  0.10891001912E+04  0.41800000000E+01 0. -1.
         -5    1    1    2    0  502 -0.16077563380E+02 -0.31079634926E+02  0.33504781911E+02  0.48625863100E+02  0.41800000000E+01 0. -1.
        -11    1    3    3    0    0  0.13431098346E+03  0.13074517658E+03  0.52455109724E+02  0.19464141392E+03  0.00000000000E+00 0.  1.
         11    1    3    3    0    0  0.35362447106E+02  0.14054873647E+03  0.35698621559E+02  0.14926098475E+03  0.00000000000E+00 0. -1.
</event>
<event>
 6    1  0.6684706E-006  0.1232617E+03  0.7561462E-02  0.1237811E+00
          2   -1    0    0  501    0  0.00000000000E+00  0.00000000000E+00  0.17972072765E+03  0.17972072765E+03  0.00000000000E+00 0. -1.
         -2   -1    0    0    0  501 -0.00000000000E+00 -0.00000000000E+00 -0.10877811249E+03  0.10877811249E+03  0.00000000000E+00 0.  1.
          5    1    1    2  502    0  0.37780820418E+02 -0.96864826904E+01  0.61374928871E+02  0.72839361833E+02  0.41800000000E+01 0. -1.
         -5    1    1    2    0  502 -0.42155767558E+02  0.47570813332E+02 -0.12931305102E+02  0.64998323602E+02  0.41800000000E+01 0.  1.
        -11    1    1    2    0    0 -0.62607296223E+02 -0.43720783058E+02  0.31926031962E+02  0.82767456940E+02  0.00000000000E+00 0.  1.
         11    1    1    2    0    0  0.66982243363E+02  0.58364524166E+01 -0.94270405642E+01  0.67893697767E+02  0.00000000000E+00 0. -1.
</event>
<event>
 7    1  0.6684706E-006  0.1439447E+03  0.7561462E-02  0.1208118E+00
          2   -1    0    0  501    0  0.00000000000E+00  0.00000000000E+00  0.42845836751E+02  0.42845836751E+02  0.00000000000E+00 0. -1.
         -2   -1    0    0    0  501 -0.00000000000E+00 -0.00000000000E+00 -0.57325177694E+03  0.57325177694E+03  0.00000000000E+00 0.  1.
         23    2    1    2    0    0 -0.91280771434E+02  0.59588466686E+02 -0.29802519377E+03  0.33055722716E+03  0.92553226333E+02 0.  0.
          5    1    1    2  502    0  0.76090966895E+02 -0.95174726553E+02 -0.20290924675E+03  0.23672283082E+03  0.41800000000E+01 0. -1.
         -5    1    1    2    0  502  0.15189804539E+02  0.35586259866E+02 -0.29471499670E+02  0.48817555715E+02  0.41800000000E+01 0. -1.
        -11    1    3    3    0    0 -0.99686842209E+02  0.43232685781E+02 -0.29141924173E+03  0.31101721187E+03  0.00000000000E+00 0. -1.
         11    1    3    3    0    0  0.84060707745E+01  0.16355780905E+02 -0.66059520435E+01  0.19540015284E+02  0.00000000000E+00 0.  1.
</event>
<event>
 7    1  0.6684706E-006  0.1441304E+03  0.7561462E-02  0.1207877E+00
         -2   -1    0    0    0  501 -0.00000000000E+00  0.00000000000E+00  0.36699210362E+02  0.36699210362E+02  0.00000000000E+00 0. -1.
          2   -1    0    0  501    0  0.00000000000E+00 -0.00000000000E+00 -0.68846406857E+03  0.68846406857E+03  0.00000000000E+00 0.  1.
         23    2    1    2    0    0  0.55895841045E+02 -0.97154952489E+02 -0.22099996184E+03  0.26281110228E+03  0.87551484911E+02 0.  0.
          5    1    1    2  502    0 -0.31665655888E+02  0.11645154570E+03 -0.40245976519E+03  0.42018449669E+03  0.41800000000E+01 0. -1.
         -5    1    1    2    0  502 -0.24230185157E+02 -0.19296593213E+02 -0.28305131171E+02  0.42167679958E+02  0.41800000000E+01 0. -1.
        -11    1    3    3    0    0  0.39005164663E+02 -0.14117321042E+01 -0.32800129823E+02  0.50982785078E+02  0.00000000000E+00 0. -1.
         11    1    3    3    0    0  0.16890676382E+02 -0.95743220385E+02 -0.18819983202E+03  0.21182831721E+03  0.00000000000E+00 0.  1.
</event>
<event>
 7    1  0.6684706E-006  0.9914488E+02  0.7561462E-02  0.1282104E+00
         -1   -1    0    0    0  501 -0.00000000000E+00  0.00000000000E+00  0.64447312546E+02  0.64447312546E+02  0.00000000000E+00 0.  1.
          1   -1    0    0  501    0  0.00000000000E+00 -0.00000000000E+00 -0.28824927227E+03  0.28824927227E+03  0.00000000000E+00 0. -1.
         23    2    1    2    0    0 -0.24850842775E+02 -0.76762925724E+02 -0.79576933613E+02  0.14543370045E+03  0.91150215087E+02 0.  0.
          5    1    1    2  502    0  0.15387690718E+01  0.29803903134E+02 -0.15123157393E+03  0.15420473989E+03  0.41800000000E+01 0.  1.
         -5    1    1    2    0  502  0.23312073704E+02  0.46959022590E+02  0.70065478171E+01  0.53058144476E+02  0.41800000000E+01 0.  1.
        -11    1    3    3    0    0  0.27398037550E+02 -0.49623077890E+02 -0.16255212632E+02  0.58968926212E+02  0.00000000000E+00 0. -1.
         11    1    3    3    0    0 -0.52248880325E+02 -0.27139847835E+02 -0.63321720981E+02  0.86464774236E+02  0.00000000000E+00 0.  1.
</event>
<event>
 7    1  0.6684706E-006  0.1813413E+03  0.7561462E-02  0.1166511E+00
          2   -1    0    0  501    0  0.00000000000E+00  0.00000000000E+00  0.20915969758E+04  0.20915969758E+04  0.00000000000E+00 0. -1.
         -2   -1    0    0    0  501 -0.00000000000E+00 -0.00000000000E+00 -0.21396293633E+02  0.21396293633E+02  0.00000000000E+00 0.  1.
         23    2    1    2    0    0 -0.14558385657E+03 -0.88265407238E+01  0.56815729084E+03  0.59361339523E+03  0.91113054775E+02 0.  0.
          5    1    1    2  502    0  0.99337686292E+02  0.68851212436E+02  0.12582341969E+04  0.12640329236E+04  0.41800000000E+01 0. -1.
         -5    1    1    2    0  502  0.46246170276E+02 -0.60024671712E+02  0.24380919446E+03  0.25534695061E+03  0.41800000000E+01 0.  1.
        -11    1    3    3    0    0 -0.73535468562E+01  0.22882679883E+02  0.39269491113E+02  0.46041118821E+02  0.00000000000E+00 0.  1.
         11    1    3    3    0    0 -0.13823030971E+03 -0.31709220607E+02  0.52888779972E+03  0.54757227641E+03  0.00000000000E+00 0. -1.
</event>
<event>
 7    1  0.6684706E-006  0.1196746E+03  0.7561462E-02  0.1243635E+00
          1   -1    0    0  501    0  0.00000000000E+00  0.00000000000E+00  0.47858269513E+03  0.47858269513E+03  0.00000000000E+00 0. -1.
         -1   -1    0    0    0  501 -0.00000000000E+00 -0.00000000000E+00 -0.40459135682E+02  0.40459135682E+02  0.00000000000E+00 0.  1.
         23    2    1    2    0    0 -0.82539300192E+02 -0.13912664983E+01  0.20917178368E+03  0.24543528466E+03  0.98341101126E+02 0.  0.
          5    1    1    2  502    0 -0.33341693590E+02  0.21539090335E+01  0.46147835628E+02  0.57126202296E+02  0.41800000000E+01 0. -1.
         -5    1    1    2    0  502  0.11588099378E+03 -0.76264253519E+00  0.18280394014E+03  0.21648034385E+03  0.41800000000E+01 0. -1.
        -11    1    3    3    0    0 -0.16632144517E+02  0.14339496421E+02 -0.34935904864E+01  0.22236334305E+02  0.00000000000E+00 0.  1.
         11    1    3    3    0    0 -0.65907155676E+02 -0.15730762919E+02  0.21266537417E+03  0.22319895036E+03  0.00000000000E+00 0. -1.
</event>
<event>
 7    1  0.6684706E-006  0.1200190E+03  0.7561462E-02  0.1243066E+00
         -2   -1    0    0    0  501 -0.00000000000E+00  0.00000000000E+00  0.12620804610E+03  0.12620804610E+03  0.00000000000E+00 0. -1.
          2   -1    0    0  501    0  0.00000000000E+00 -0.00000000000E+00 -0.15831937911E+03  0.15831937911E+03  0.00000000000E+00 0.  1.
         23    2    1    2    0    0  0.80232933225E+02 -0.32290762391E+02 -0.40434249113E+02  0.13222487613E+03  0.91479355354E+02 0.  0.
          5    1    1    2  502    0 -0.27381871043E+02 -0.48133524841E+02 -0.84483593401E+00  0.55540878848E+02  0.41800000000E+01 0. -1.
         -5    1    1    2    0  502 -0.52851062181E+02  0.80424287232E+02  0.91677520332E+01  0.96761670241E+02  0.41800000000E+01 0. -1.
        -11    1    3    3    0    0  0.39319235160E+02 -0.25069028668E+02 -0.67936646901E+02  0.82400524538E+02  0.00000000000E+00 0.  1.
         11    1    3    3    0    0  0.40913698064E+02 -0.72217337232E+01  0.27502397788E+02  0.49824351590E+02  0.00000000000E+00 0. -1.
</event>
<event>
 7    1  0.6684706E-006  0.9505053E+02  0.7561462E-02  0.1291062E+00
          2   -1    0    0  501    0  0.00000000000E+00  0.00000000000E+00  0.55947774609E+03  0.55947774609E+03  0.00000000000E+00 0.  1.
         -2   -1    0    0    0  501 -0.00000000000E+00 -0.00000000000E+00 -0.31173168342E+02  0.31173168342E+02  0.00000000000E+00 0. -1.
         23    2    1    2    0    0  0.55391448307E+02  0.40767473270E+01  0.12003278833E+03  0.16004933453E+03  0.90128168716E+02 0.  0.
          5    1    1    2  502    0 -0.40371711943E+02 -0.57962267769E+02  0.30476337936E+03  0.31287008391E+03  0.41800000000E+01 0. -1.
         -5    1    1    2    0  502 -0.15019736364E+02  0.53885520442E+02  0.10350841006E+03  0.11773149598E+03  0.41800000000E+01 0. -1.
        -11    1    3    3    0    0  0.33153583955E+02 -0.12581155210E+02 -0.13903799643E+01  0.35487726779E+02  0.00000000000E+00 0. -1.
         11    1    3    3    0    0  0.22237864352E+02  0.16657902537E+02  0.12142316829E+03  0.12456160775E+03  0.00000000000E+00 0.  1.
</event>
<event>
 7    1  0.6684706E-006  0.9137155E+02  0.7561462E-02  0.1299564E+00
          1   -1    0    0  501    0  0.00000000000E+00  0.00000000000E+00  0.43425400637E+03  0.43425400637E+03  0.00000000000E+00 0. -1.
         -1   -1    0    0    0  501 -0.00000000000E+00 -0.00000000000E+00 -0.37046534769E+02  0.37046534769E+02  0.00000000000E+00 0.  1.
         23    2    1    2    0    0 -0.44420786145E+02 -0.40263108565E+02  0.12321704043E+03  0.16419647106E+03  0.90463903857E+02 0.  0.
          5    1    1    2  502    0  0.80900758213E+01  0.57173081611E+02  0.41707294369E+02  0.71352514961E+02  0.41800000000E+01 0.  1.
         -5    1    1    2    0  502  0.36330710324E+02 -0.16909973046E+02  0.23228313679E+03  0.23575155512E+03  0.41800000000E+01 0.  1.
        -11    1    3    3    0    0 -0.76113184007E+01  0.15773372593E+02 -0.60893841067E+01  0.18542169494E+02  0.00000000000E+00 0.  1.
         11    1    3    3    0    0 -0.36809467745E+02 -0.56036481158E+02  0.12930642454E+03  0.14565430156E+03  0.00000000000E+00 0. -1.
</event>
<event>
 7    1  0.6684706E-006  0.1682256E+03  0.7561462E-02  0.1179711E+00
          1   -1    0    0  501    0  0.00000000000E+00  0.00000000000E+00  0.41002494899E+03  0.41002494899E+03  0.00000000000E+00 0. -1.
         -1   -1    0    0    0  501 -0.00000000000E+00 -0.00000000000E+00 -0.12137928464E+03  0.12137928464E+03  0.00000000000E+00 0.  1.
         23    2    1    2    0    0  0.82356672149E+02  0.11756454207E+03 -0.14562906069E+02  0.17336846462E+03  0.96127536597E+02 0.  0.
          5    1    1    2  502    0  0.26005710967E+02 -0.59270528118E+01  0.16039867378E+02  0.31403450502E+02  0.41800000000E+01 0. -1.
         -5    1    1    2    0  502 -0.10836238312E+03 -0.11163748926E+03  0.28716870304E+03  0.32663231850E+03  0.41800000000E+01 0. -1.
        -11    1    3    3    0    0  0.73011369318E+02  0.57245886535E+02  0.30317848640E+02  0.97605960479E+02  0.00000000000E+00 0. -1.
         11    1    3    3    0    0  0.93453028302E+01  0.60318655539E+02 -0.44880754708E+02  0.75762504145E+02  0.00000000000E+00 0.  1.
</event>
<event>
 7    1  0.6684706E-006  0.9532751E+02  0.7561462E-02  0.1290440E+00
          1   -1    0    0  501    0  0.00000000000E+00  0.00000000000E+00  0.16617089294E+03  0.16617089294E+03  0.00000000000E+00 0. -1.
         -1   -1    0    0    0  501 -0.00000000000E+00 -0.00000000000E+00 -0.90296328240E+02  0.90296328240E+02  0.00000000000E+00 0.  1.
         23    2    1    2    0    0  0.37613721855E+01 -0.97638288149E+01 -0.24049891328E+02  0.96022929618E+02  0.92371670255E+02 0.  0.
          5    1    1    2  502    0 -0.62159617971E+02 -0.10791122547E+02  0.45368885679E+02  0.77820785269E+02  0.41800000000E+01 0.  1.
         -5    1    1    2    0  502  0.58398245785E+02  0.20554951362E+02  0.54555570353E+02  0.82623506297E+02  0.41800000000E+01 0.  1.
        -11    1    3    3    0    0  0.15818678254E+02 -0.34447074184E+02 -0.46891613194E+02  0.60296392010E+02  0.00000000000E+00 0.  1.
         11    1    3    3    0    0 -0.12057306069E+02  0.24683245369E+02  0.22841721866E+02  0.35726537607E+02  0.00000000000E+00 0. -1.
</event>
<event>
 7    1  0.6684706E-006  0.9120525E+02  0.7561462E-02  0.1299959E+00
          2   -1    0    0  501    0  0.00000000000E+00  0.00000000000E+00  0.86214056359E+03  0.86214056359E+03  0.00000000000E+00 0. -1.
         -2   -1    0    0    0  501 -0.00000000000E+00 -0.00000000000E+00 -0.24526267449E+02  0.24526267449E+02  0.00000000000E+00 0.  1.
         23    2    1    2    0    0 -0.34421308916E+02 -0.60730304204E+01  0.14858030718E+03  0.17641405218E+03  0.88453953671E+02 0.  0.
          5    1    1    2  502    0 -0.23509170190E+02 -0.32170682733E+02  0.57700987312E+03  0.57839908366E+03  0.41800000000E+01 0. -1.
         -5    1    1    2    0  502  0.57930479106E+02  0.38243713153E+02  0.11202411585E+03  0.13185369520E+03  0.41800000000E+01 0.  1.
        -11    1    3    3    0    0 -0.51885714276E+02 -0.13827833347E+02  0.42100812720E+02  0.68233531000E+02  0.00000000000E+00 0.  1.
         11    1    3    3    0    0  0.17464405360E+02  0.77548029270E+01  0.10647949446E+03  0.10818052118E+03  0.00000000000E+00 0. -1.
</event>
<event>
 7    1  0.6684706E-006  0.1118516E+03  0.7561462E-02  0.1257179E+00
          1   -1    0    0  501    0  0.00000000000E+00  0.00000000000E+00  0.10427053730E+03  0.10427053730E+03  0.00000000000E+00 0. -1.
         -1   -1    0    0    0  501 -0.00000000000E+00 -0.00000000000E+00 -0.21535090615E+03  0.21535090615E+03  0.00000000000E+00 0.  1.
         23    2    1    2    0    0  0.72088942152E+02  0.48178304615E+02 -0.11336788440E+03  0.16739744553E+03  0.87473784305E+02 0.  0.
          5    1    1    2  502    0 -0.88796458899E+02 -0.25214781907E+02  0.43396856907E+02  0.10208504263E+03  0.41800000000E+01 0. -1.
         -5    1    1    2    0  502  0.16707516747E+02 -0.22963522708E+02 -0.41109341355E+02  0.50138955291E+02  0.41800000000E+01 0. -1.
        -11    1    3    3    0    0  0.75115492239E+02  0.24917758236E+02 -0.11933620385E+03  0.14319344049E+03  0.00000000000E+00 0.  1.
         11    1    3    3    0    0 -0.30265500868E+01  0.23260546379E+02  0.59683194434E+01  0.24204005046E+02  0.00000000000E+00 0. -1.
</event>
<event>
 7    1  0.6684706E-006  0.2315918E+03  0.7561462E-02  0.1125524E+00
         -1   -1    0    0    0  501 -0.00000000000E+00  0.00000000000E+00  0.10698869536E+03  0.10698869536E+03  0.00000000000E+00 0.  1.
          1   -1    0    0  501    0  0.00000000000E+00 -0.00000000000E+00 -0.53304930643E+03  0.53304930643E+03  0.00000000000E+00 0. -1.
         23    2    1    2    0    0  0.20916397056E+03  0.78347241951E+01 -0.15624769224E+03  0.27636438520E+03  0.90293867986E+02 0.  0.
          5    1    1    2  502    0 -0.19879937460E+03 -0.43101783506E+02 -0.24779264079E+03  0.32062067980E+03  0.41800000000E+01 0. -1.
         -5    1    1    2    0  502 -0.10364595954E+02  0.35267059311E+02 -0.22020278032E+02  0.43052936791E+02  0.41800000000E+01 0. -1.
        -11    1    3    3    0    0  0.14567685483E+03 -0.30122338754E+02 -0.75369758072E+02  0.16676241111E+03  0.00000000000E+00 0.  1.
         11    1    3    3    0    0  0.63487115725E+02  0.37957062949E+02 -0.80877934170E+02  0.10960197410E+03  0.00000000000E+00 0. -1.
</event>
<event>
 7    1  0.6684706E-006  0.1911425E+03  0.7561462E-02  0.1157435E+00
         -1   -1    0    0    0  501 -0.00000000000E+00  0.00000000000E+00  0.11976318608E+03  0.11976318608E+03  0.00000000000E+00 0.  1.
          1   -1    0    0  501    0  0.00000000000E+00 -0.00000000000E+00 -0.33888727469E+03  0.33888727469E+03  0.00000000000E+00 0. -1.
         23    2    1    2    0    0 -0.16952076969E+03 -0.17425515472E+01 -0.10888407035E+03  0.22086806697E+03  0.90480022045E+02 0.  0.
          5    1    1    2  502    0  0.10320884897E+03  0.51117930832E+02 -0.10320059946E+03  0.15470276496E+03  0.41800000000E+01 0.  1.
         -5    1    1    2    0  502  0.66311920725E+02 -0.49375379285E+02 -0.70394187996E+01  0.83079628832E+02  0.41800000000E+01 0.  1.
        -11    1    3    3    0    0 -0.10475622099E+03  0.34183537350E+02 -0.95055632230E+02  0.14552646934E+03  0.00000000000E+00 0.  1.
         11    1    3    3    0    0 -0.64764548704E+02 -0.35926088897E+02 -0.13828438123E+02  0.75341597629E+02  0.00000000000E+00 0. -1.
</event>
<event>
 7    1  0.6684706E-006  0.1113308E+03  0.7561462E-02  0.1258125E+00
          1   -1    0    0  501    0  0.00000000000E+00  0.00000000000E+00  0.34876306238E+03  0.34876306238E+03  0.00000000000E+00 0. -1.
         -1   -1    0    0    0  501 -0.00000000000E+00 -0.00000000000E+00 -0.11201460679E+03  0.11201460679E+03  0.00000000000E+00 0.  1.
         23    2    1    2    0    0 -0.38916189322E+02 -0.77196210558E+02 -0.50805406054E+02  0.13549599004E+03  0.91127653961E+02 0.  0.
          5    1    1    2  502    0  0.29813292751E+02  0.14026974175E+02  0.24771239974E+03  0.24992897754E+03  0.41800000000E+01 0. -1.
         -5    1    1    2    0  502  0.91028965708E+01  0.63169236384E+02  0.39841461903E+02  0.75352701596E+02  0.41800000000E+01 0. -1.
        -11    1    3    3    0    0 -0.68169163501E+02 -0.43488671661E+02 -0.29892787763E+02  0.86208341682E+02  0.00000000000E+00 0.  1.
         11    1    3    3    0    0  0.29252974179E+02 -0.33707538897E+02 -0.20912618291E+02  0.49287648357E+02  0.00000000000E+00 0. -1.
</event>
<event>
 7    1  0.6684706E-006  0.1573492E+03  0.7561462E-02  0.1191722E+00
          1   -1    0    0  501    0  0.00000000000E+00  0.00000000000E+00  0.14199654332E+03  0.14199654332E+03  0.00000000000E+00 0. -1.
         -1   -1    0    0    0  501 -0.00000000000E+00 -0.00000000000E+00 -0.19818652287E+03  0.19818652287E+03  0.00000000000E+00 0.  1.
         23    2    1    2    0    0  0.10925683527E+03  0.41357504754E+02 -0.78294273495E+02  0.16760935136E+03  0.91188826882E+02 0.  0.
          5    1    1    2  502    0 -0.11209076378E+03 -0.75823937596E+02  0.10259252455E+02  0.13578046067E+03  0.41800000000E+01 0. -1.
         -5    1    1    2    0  502  0.28339285132E+01  0.34466432842E+02  0.11845041494E+02  0.36793254160E+02  0.41800000000E+01 0. -1.
        -11    1    3    3    0    0  0.54392946344E+01  0.40282925394E+02 -0.59840385436E+01  0.41086600269E+02  0.00000000000E+00 0. -1.
         11    1    3    3    0    0  0.10381754064E+03  0.10745793598E+01 -0.72310234951E+02  0.12652275109E+03  0.00000000000E+00 0.  1.
</event>
<event>
 7    1  0.6684706E-006  0.2609360E+03  0.7561462E-02  0.1106582E+00
          1   -1    0    0  501    0  0.00000000000E+00  0.00000000000E+00  0.66210094740E+03  0.66210094740E+03  0.00000000000E+00 0. -1.
         -1   -1    0    0    0  501 -0.00000000000E+00 -0.00000000000E+00 -0.10748648855E+03  0.10748648855E+03  0.00000000000E+00 0.  1.
         23    2    1    2    0    0  0.19950217810E+02  0.19763992784E+02  0.91991783361E+02  0.13025262145E+03  0.87832969824E+02 0.  0.
          5    1    1    2  502    0 -0.61303233786E+02 -0.22408889014E+03  0.25758239859E+03  0.34690067976E+03  0.41800000000E+01 0. -1.
         -5    1    1    2    0  502  0.41353015976E+02  0.20432489735E+03  0.20504027690E+03  0.29243413474E+03  0.41800000000E+01 0.  1.
        -11    1    3    3    0    0 -0.24211001445E+02  0.26985120456E+02  0.73265151147E+02  0.81744429104E+02  0.00000000000E+00 0.  1.
         11    1    3    3    0    0  0.44161219255E+02 -0.72211276720E+01  0.18726632214E+02  0.48508192349E+02  0.00000000000E+00 0. -1.
</event>
<event>
 7    1  0.6684706E-006  0.8904916E+02  0.7561462E-02  0.1305171E+00
          1   -1    0    0  501    0  0.00000000000E+00  0.00000000000E+00  0.41120588127E+02  0.41120588127E+02  0.00000000000E+00 0. -1.
         -1   -1    0    0    0  501 -0.00000000000E+00 -0.00000000000E+00 -0.28632690988E+03  0.28632690988E+03  0.00000000000E+00 0.  1.
         23    2    1    2    0    0  0.12439626365E+01 -0.97462971807E+01 -0.12491030140E+03  0.15362101643E+03  0.88883606717E+02 0.  0.
          5    1    1    2  502    0 -0.13635810170E+01  0.67464457716E+02 -0.64934198446E+02  0.93740252485E+02  0.41800000000E+01 0.  1.
         -5    1    1    2    0  502  0.11961838052E+00 -0.57718160536E+02 -0.55361821907E+02  0.80086229085E+02  0.41800000000E+01 0.  1.
        -11    1    3    3    0    0 -0.14509464999E+02 -0.26132751590E+02 -0.34925954941E+01  0.30093911403E+02  0.00000000000E+00 0. -1.
         11    1    3    3    0    0  0.15753427636E+02  0.16386454410E+02 -0.12141770590E+03  0.12352710503E+03  0.00000000000E+00 0.  1.
</event>
<event>
 7    1  0.6684706E-006  0.1009636E+03  0.7561462E-02  0.1278283E+00
         -2   -1    0    0    0  501 -0.00000000000E+00  0.00000000000E+00  0.36613265966E+03  0.36613265966E+03  0.00000000000E+00 0.  1.
          2   -1    0    0  501    0  0.00000000000E+00 -0.00000000000E+00 -0.40433610036E+02  0.40433610036E+02  0.00000000000E+00 0. -1.
         23    2    1    2    0    0  0.57529850917E+02 -0.36823813660E+01  0.15133976952E+03  0.18436828171E+03  0.88117499877E+02 0.  0.
          5    1    1    2  502    0 -0.67318530841E+02  0.53736720514E+02  0.10196138953E+03  0.13354032006E+03  0.41800000000E+01 0.  1.
         -5    1    1    2    0  502  0.97886799234E+01 -0.50054339148E+02  0.72397890581E+02  0.88657667930E+02  0.41800000000E+01 0.  1.
        -11    1    3    3    0    0  0.39435848583E+02 -0.16073799004E+02  0.15620392890E+03  0.16190497389E+03  0.00000000000E+00 0.  1.
         11    1    3    3    0    0  0.18094002334E+02  0.12391417638E+02 -0.48641593839E+01  0.22463307816E+02  0.00000000000E+00 0. -1.
</event>
<event>
 7    1  0.6684706E-006  0.1537004E+03  0.7561462E-02  0.1195998E+00
          2   -1    0    0  501    0  0.00000000000E+00  0.00000000000E+00  0.34042434986E+03  0.34042434986E+03  0.00000000000E+00 0. -1.
         -2   -1    0    0    0  501 -0.00000000000E+00 -0.00000000000E+00 -0.78801772465E+02  0.78801772465E+02  0.00000000000E+00 0.  1.
         23    2    1    2    0    0 -0.10133950164E+03 -0.44382439944E+02  0.53366068117E+02  0.15228102194E+03  0.90011537309E+02 0.  0.
          5    1    1    2  502    0  0.12909778975E+03  0.46644858607E+02  0.18512424922E+03  0.23050041692E+03  0.41800000000E+01 0. -1.
         -5    1    1    2    0  502 -0.27758288109E+02 -0.22624186629E+01  0.23132260060E+02  0.36444683459E+02  0.41800000000E+01 0. -1.
        -11    1    3    3    0    0 -0.10261633634E+03 -0.52447312727E+01  0.31704457527E+02  0.10753042507E+03  0.00000000000E+00 0. -1.
         11    1    3    3    0    0  0.12768346922E+01 -0.39137708671E+02  0.21661610591E+02  0.44750596870E+02  0.00000000000E+00 0.  1.
</event>
<event>
 7    1  0.6684706E-006  0.1339694E+03  0.7561462E-02  0.1221682E+00
          3   -1    0    0  501    0  0.00000000000E+00  0.00000000000E+00  0.34623477479E+03  0.34623477479E+03  0.00000000000E+00 0. -1.
         -3   -1    0    0    0  501 -0.00000000000E+00 -0.00000000000E+00 -0.66571413583E+02  0.66571413583E+02  0.00000000000E+00 0.  1.
         23    2    1    2    0    0  0.85304963760E+02  0.55878545989E+02  0.97821769742E+02  0.16967486292E+03  0.93920773681E+02 0.  0.
          5    1    1    2  502    0  0.27511465702E+02 -0.26395597712E+02  0.19000906764E+02  0.42803214616E+02  0.41800000000E+01 0.  1.
         -5    1    1    2    0  502 -0.11281642946E+03 -0.29482948276E+02  0.16284068470E+03  0.20032811083E+03  0.41800000000E+01 0.  1.
        -11    1    3    3    0    0  0.49851856820E+02  0.59085071833E+02  0.10784706312E+03  0.13269228450E+03  0.00000000000E+00 0. -1.
         11    1    3    3    0    0  0.35453106940E+02 -0.32065258448E+01 -0.10025293377E+02  0.36982578426E+02  0.00000000000E+00 0.  1.
</event>
<event>
 7    1  0.6684706E-006  0.1541473E+03  0.7561462E-02  0.1195467E+00
          3   -1    0    0  501    0  0.00000000000E+00  0.00000000000E+00  0.60038440085E+03  0.60038440085E+03  0.00000000000E+00 0. -1.
         -3   -1    0    0    0  501 -0.00000000000E+00 -0.00000000000E+00 -0.71253593540E+02  0.71253593540E+02  0.00000000000E+00 0.  1.
         23    2    1    2    0    0 -0.60379768753E+02  0.10708898818E+03  0.49182706439E+02  0.16064816541E+03  0.90967722705E+02 0.  0.
          5    1    1    2  502    0 -0.10826301298E+02 -0.98605266886E+02  0.33196310498E+03  0.34649268813E+03  0.41800000000E+01 0.  1.
         -5    1    1    2    0  502  0.71206070051E+02 -0.84837212898E+01  0.14798499589E+03  0.16449714085E+03  0.41800000000E+01 0.  1.
        -11    1    3    3    0    0 -0.22209771303E+02  0.94363553068E+02 -0.20919126606E+00  0.96942239761E+02  0.00000000000E+00 0. -1.
         11    1    3    3    0    0 -0.38169997450E+02  0.12725435108E+02  0.49391897705E+02  0.63705925650E+02  0.00000000000E+00 0.  1.
</event>
<event>
 7    1  0.6684706E-006  0.1238318E+03  0.7561462E-02  0.1236906E+00
         -2   -1    0    0    0  501 -0.00000000000E+00  0.00000000000E+00  0.60040887925E+02  0.60040887925E+02  0.00000000000E+00 0.  1.
          2   -1    0    0  501    0  0.00000000000E+00 -0.00000000000E+00 -0.48568594024E+03  0.48568594024E+03  0.00000000000E+00 0. -1.
         23    2    1    2    0    0 -0.95814639955E+02  0.22410707478E+02 -0.62671519575E+02  0.14939225024E+03  0.93314736384E+02 0.  0.
          5    1    1    2  502    0 -0.13985971585E+02 -0.96895164466E+00 -0.18827475974E+03  0.18884227234E+03  0.41800000000E+01 0.  1.
         -5    1    1    2    0  502  0.10980061154E+03 -0.21441755833E+02 -0.17469877300E+03  0.20749230558E+03  0.41800000000E+01 0.  1.
        -11    1    3    3    0    0  0.20365729644E+01 -0.15876486496E+02 -0.38325187967E+02  0.41533486317E+02  0.00000000000E+00 0. -1.
         11    1    3    3    0    0 -0.97851212919E+02  0.38287193974E+02 -0.24346331607E+02  0.10785876392E+03  0.00000000000E+00 0.  1.
</event>
<event>
 7    1  0.6684706E-006  0.8612427E+02  0.7561462E-02  0.1312518E+00
         -2   -1    0    0    0  501 -0.00000000000E+00  0.00000000000E+00  0.13706602474E+02  0.13706602474E+02  0.00000000000E+00 0.  1.
          2   -1    0    0  501    0  0.00000000000E+00 -0.00000000000E+00 -0.12042825867E+04  0.12042825867E+04  0.00000000000E+00 0. -1.
         23    2    1    2    0    0  0.38278686109E+02 -0.12740094485E+02 -0.27493991624E+03  0.29296806802E+03  0.92794199799E+02 0.  0.
          5    1    1    2  502    0 -0.65600861851E+02  0.34938843122E+02 -0.81366852474E+03  0.81706678820E+03  0.41800000000E+01 0. -1.
         -5    1    1    2    0  502  0.27322175742E+02 -0.22198748637E+02 -0.10196754326E+03  0.10795433297E+03  0.41800000000E+01 0. -1.
        -11    1    3    3    0    0 -0.11309134576E+02 -0.72300583564E+00  0.18782998344E+01  0.11486830397E+02  0.00000000000E+00 0.  1.
         11    1    3    3    0    0  0.49587820686E+02 -0.12017088649E+02 -0.27681821608E+03  0.28148123762E+03  0.00000000000E+00 0. -1.
</event>
<event>
 7    1  0.6684706E-006  0.9949819E+02  0.7561462E-02  0.1281355E+00
         -1   -1    0    0    0  501 -0.00000000000E+00  0.00000000000E+00  0.12865462578E+03  0.12865462578E+03  0.00000000000E+00 0.  1.
          1   -1    0    0  501    0  0.00000000000E+00 -0.00000000000E+00 -0.16480139020E+03  0.16480139020E+03  0.00000000000E+00 0. -1.
         23    2    1    2    0    0  0.15383662823E+02  0.34527639483E+02  0.73533285033E+02  0.12285124631E+03  0.90865118406E+02 0.  0.
          5    1    1    2  502    0  0.19544608924E+02  0.28473165002E+02  0.49672177282E+01  0.35140553712E+02  0.41800000000E+01 0.  1.
         -5    1    1    2    0  502 -0.34928271747E+02 -0.63000804485E+02 -0.11464726718E+03  0.13546421595E+03  0.41800000000E+01 0.  1.
        -11    1    3    3    0    0 -0.32027098827E+02  0.30899229870E+02  0.57417991844E+02  0.72645187406E+02  0.00000000000E+00 0.  1.
         11    1    3    3    0    0  0.47410761649E+02  0.36284096126E+01  0.16115293189E+02  0.50206058908E+02  0.00000000000E+00 0. -1.
</event>
<event>
 7    1  0.6684706E-006  0.1383603E+03  0.7561462E-02  0.1215552E+00
         -2   -1    0    0    0  501 -0.00000000000E+00  0.00000000000E+00  0.27799162349E+02  0.27799162349E+02  0.00000000000E+00 0.  1.
          2   -1    0    0  501    0  0.00000000000E+00 -0.00000000000E+00 -0.11277478813E+04  0.11277478813E+04  0.00000000000E+00 0. -1.
         23    2    1    2    0    0  0.49109820070E+01  0.93780983318E+02 -0.20021531643E+03  0.23899229660E+03  0.90620937553E+02 0.  0.
          5    1    1    2  502    0 -0.30029640111E+02  0.20832779897E+02 -0.45831630357E+03  0.45979026797E+03  0.41800000000E+01 0. -1.
         -5    1    1    2    0  502  0.25118658104E+02 -0.11461376321E+03 -0.44141709892E+03  0.45676447905E+03  0.41800000000E+01 0.  1.
        -11    1    3    3    0    0 -0.49626709113E+01  0.10639284143E+03 -0.19492221961E+03  0.22212324621E+03  0.00000000000E+00 0.  1.
         11    1    3    3    0    0  0.98736529183E+01 -0.12611858112E+02 -0.52930968224E+01  0.16869050387E+02  0.00000000000E+00 0. -1.
</event>
<event>
 6    1  0.6684706E-006  0.7798598E+02  0.7561462E-02  0.1334866E+00
         -2   -1    0    0    0  501 -0.00000000000E+00  0.00000000000E+00  0.32776000965E+02  0.32776000965E+02  0.00000000000E+00 0.  1.
          2   -1    0    0  501    0  0.00000000000E+00 -0.00000000000E+00 -0.31395135155E+03  0.31395135155E+03  0.00000000000E+00 0. -1.
          5    1    1    2  502    0 -0.48724015350E+02  0.82363070662E+00 -0.20058442474E+03  0.20646135688E+03  0.41800000000E+01 0.  1.
         -5    1    1    2    0  502  0.40702440090E+02  0.32687470854E+02 -0.36595387973E+02  0.63889390364E+02  0.41800000000E+01 0.  1.
        -11    1    1    2    0    0 -0.17369492893E+02 -0.17598470531E+02 -0.20285362330E+01  0.24809683747E+02  0.00000000000E+00 0.  1.
         11    1    1    2    0    0  0.25391068153E+02 -0.15912631030E+02 -0.41967001641E+02  0.51566921519E+02  0.00000000000E+00 0. -1.
</event>
<event>
 7    1  0.6684706E-006  0.8231861E+02  0.7561462E-02  0.1322597E+00
         -4   -1    0    0    0  501 -0.00000000000E+00  0.00000000000E+00  0.16574857277E+02  0.16574857277E+02  0.00000000000E+00 0.  1.
          4   -1    0    0  501    0  0.00000000000E+00 -0.00000000000E+00 -0.76028205034E+03  0.76028205034E+03  0.00000000000E+00 0. -1.
         23    2    1    2    0    0 -0.17642120266E+02  0.27631528081E+01 -0.25180191922E+03  0.26898362306E+03  0.92892968145E+02 0.  0.
          5    1    1    2  502    0  0.44923580074E+02 -0.91977887032E+01 -0.46948366712E+03  0.47173627532E+03  0.41800000000E+01 0.  1.
         -5    1    1    2    0  502 -0.27281459808E+02  0.64346358951E+01 -0.22421606725E+02  0.36137009235E+02  0.41800000000E+01 0.  1.
        -11    1    3    3    0    0 -0.53000410217E+02  0.10564136073E+02 -0.18810604932E+03  0.19571543180E+03  0.00000000000E+00 0. -1.
         11    1    3    3    0    0  0.35358289951E+02 -0.78009832652E+01 -0.63695869900E+02  0.73268191260E+02  0.00000000000E+00 0.  1.
</event>
<event>
 7    1  0.6684706E-006  0.1509477E+03  0.7561462E-02  0.1199313E+00
         -1   -1    0    0    0  501 -0.00000000000E+00  0.00000000000E+00  0.34618273513E+02  0.34618273513E+02  0.00000000000E+00 0.  1.
          1   -1    0    0  501    0  0.00000000000E+00 -0.00000000000E+00 -0.80380886009E+03  0.80380886009E+03  0.00000000000E+00 0. -1.
         23    2    1    2    0    0  0.51752059921E+02 -0.11164590825E+03 -0.29272727423E+03  0.33067966855E+03  0.92285977130E+02 0.  0.
          5    1    1    2  502    0  0.30036951475E+02  0.73698906140E+02 -0.28738157467E+03  0.29822707637E+03  0.41800000000E+01 0. -1.
         -5    1    1    2    0  502 -0.81789011396E+02  0.37947002108E+02 -0.18908173768E+03  0.20952038869E+03  0.41800000000E+01 0. -1.
        -11    1    3    3    0    0  0.13775585075E+02 -0.83608351275E+02 -0.94576099172E+02  0.12698331261E+03  0.00000000000E+00 0.  1.
         11    1    3    3    0    0  0.37976474847E+02 -0.28037556972E+02 -0.19815117506E+03  0.20369635594E+03  0.00000000000E+00 0. -1.
</event>
<event>
 7    1  0.6684706E-006  0.1021908E+03  0.7561462E-02  0.1275755E+00
          2   -1    0    0  501    0  0.00000000000E+00  0.00000000000E+00  0.25431677288E+03  0.25431677288E+03  0.00000000000E+00 0. -1.
         -2   -1    0    0    0  501 -0.00000000000E+00 -0.00000000000E+00 -0.71916354363E+02  0.71916354363E+02  0.00000000000E+00 0.  1.
         23    2    1    2    0    0 -0.52765555441E+02  0.17010987491E+02  0.12967309026E+02  0.10844739345E+03  0.92299016817E+02 0.  0.
          5    1    1    2  502    0 -0.15779600775E+02 -0.52147086138E+02  0.10021554961E+03  0.11414439617E+03  0.41800000000E+01 0.  1.
         -5    1    1    2    0  502  0.68545156217E+02  0.35136098647E+02  0.69217559880E+02  0.10364133763E+03  0.41800000000E+01 0.  1.
        -11    1    3    3    0    0 -0.59465604508E+02  0.60753356675E+01  0.44425019634E+02  0.74475836299E+02  0.00000000000E+00 0. -1.
         11    1    3    3    0    0  0.67000490663E+01  0.10935651823E+02 -0.31457710608E+02  0.33971557147E+02  0.00000000000E+00 0.  1.
</event>
<event>
 7    1  0.6684706E-006  0.2752264E+03  0.7561462E-02  0.1098325E+00
          3   -1    0    0  501    0  0.00000000000E+00  0.00000000000E+00  0.60629176935E+02  0.60629176935E+02  0.00000000000E+00 0. -1.
         -3   -1    0    0    0  501 -0.00000000000E+00 -0.00000000000E+00 -0.13650247860E+04  0.13650247860E+04  0.00000000000E+00 0.  1.
         23    2    1    2    0    0 -0.26264130867E+03 -0.18151460788E+02 -0.72765648954E+03  0.77944523289E+03  0.93493164266E+02 0.  0.
          5    1    1    2  502    0  0.19392289268E+02 -0.32439571389E+02 -0.12475743718E+03  0.13042345343E+03  0.41800000000E+01 0. -1.
         -5    1    1    2    0  502  0.24324901940E+03  0.50591032177E+02 -0.45198168232E+03  0.51578527657E+03  0.41800000000E+01 0. -1.
        -11    1    3    3    0    0 -0.94103925673E+02 -0.15559666852E+02 -0.39709159507E+03  0.40838632070E+03  0.00000000000E+00 0.  1.
         11    1    3    3    0    0 -0.16853738300E+03 -0.25917939365E+01 -0.33056489447E+03  0.37105891220E+03  0.00000000000E+00 0. -1.
</event>
<event>
 7    1  0.6684706E-006  0.1360612E+03  0.7561462E-02  0.1218729E+00
         -2   -1    0    0    0  501 -0.00000000000E+00  0.00000000000E+00  0.16401578822E+02  0.16401578822E+02  0.00000000000E+00 0.  1.
          2   -1    0    0  501    0  0.00000000000E+00 -0.00000000000E+00 -0.16703511170E+04  0.16703511170E+04  0.00000000000E+00 0. -1.
         23    2    1    2    0    0 -0.67969970976E+02 -0.84397070185E+02 -0.45432698967E+03  0.47576628550E+03  0.90541495810E+02 0.  0.
          5    1    1    2  502    0  0.56738247205E+02  0.11465290342E+03 -0.10557000309E+04  0.10634305547E+04  0.41800000000E+01 0. -1.
         -5    1    1    2    0  502  0.11231723771E+02 -0.30255833239E+02 -0.14392251760E+03  0.14755585565E+03  0.41800000000E+01 0. -1.
        -11    1    3    3    0    0 -0.55802937523E+02 -0.49370475722E+02 -0.41530956449E+03  0.42194009772E+03  0.00000000000E+00 0. -1.
         11    1    3    3    0    0 -0.12167033453E+02 -0.35026594463E+02 -0.39017425179E+02  0.53826187774E+02  0.00000000000E+00 0.  1.
</event>
<event>
 7    1  0.6684706E-006  0.1210099E+03  0.7561462E-02  0.1241440E+00
          1   -1    0    0  501    0  0.00000000000E+00  0.00000000000E+00  0.59646324912E+03  0.59646324912E+03  0.00000000000E+00 0. -1.
         -1   -1    0    0    0  501 -0.00000000000E+00 -0.00000000000E+00 -0.16384187523E+03  0.16384187523E+03  0.00000000000E+00 0.  1.
         23    2    1    2    0    0 -0.71654819467E+02 -0.78488524239E+02 -0.12088193592E+03  0.18453619930E+03  0.90256882458E+02 0.  0.
          5    1    1    2  502    0  0.75068468619E+02  0.89130411525E+02  0.55147206153E+03  0.56366515972E+03  0.41800000000E+01 0. -1.
         -5    1    1    2    0  502 -0.34136491521E+01 -0.10641887286E+02  0.20312482819E+01  0.12103765329E+02  0.41800000000E+01 0.  1.
        -11    1    3    3    0    0 -0.60625270645E+02 -0.38075087171E+02 -0.12329847689E+03  0.14257506832E+03  0.00000000000E+00 0.  1.
         11    1    3    3    0    0 -0.11029548823E+02 -0.40413437068E+02  0.24165409699E+01  0.41961130980E+02  0.00000000000E+00 0. -1.
</event>
<event>
 7    1  0.6684706E-006  0.1550820E+03  0.7561462E-02  0.1194364E+00
         -2   -1    0    0    0  501 -0.00000000000E+00  0.00000000000E+00  0.15615790864E+03  0.15615790864E+03  0.00000000000E+00 0. -1.
          2   -1    0    0  501    0  0.00000000000E+00 -0.00000000000E+00 -0.20468753998E+03  0.20468753998E+03  0.00000000000E+00 0.  1.
         23    2    1    2    0    0  0.47568922139E+01  0.11882414976E+03  0.55143217765E+02  0.15950172447E+03  0.90874743766E+02 0.  0.
          5    1    1    2  502    0  0.21144634490E+02  0.17429899460E+02 -0.40022320709E+02  0.48684243013E+02  0.41800000000E+01 0.  1.
         -5    1    1    2    0  502 -0.25901526704E+02 -0.13625404922E+03 -0.63650528398E+02  0.15265948113E+03  0.41800000000E+01 0.  1.
        -11    1    3    3    0    0 -0.76586233644E+01 -0.10926937288E+02 -0.70376997340E+01  0.15085810813E+02  0.00000000000E+00 0.  1.
         11    1    3    3    0    0  0.12415515578E+02  0.12975108705E+03  0.62180917499E+02  0.14441591366E+03  0.00000000000E+00 0. -1.
</event>
<event>
 7    1  0.6684706E-006  0.7833313E+02  0.7561462E-02  0.1333849E+00
         -1   -1    0    0    0  501 -0.00000000000E+00  0.00000000000E+00  0.12225532704E+03  0.12225532704E+03  0.00000000000E+00 0.  1.
          1   -1    0    0  501    0  0.00000000000E+00 -0.00000000000E+00 -0.10241144904E+03  0.10241144904E+03  0.00000000000E+00 0. -1.
         23    2    1    2    0    0 -0.19613306778E+02 -0.17298405295E+02  0.21878606909E+02  0.96856663459E+02  0.90656622415E+02 0.  0.
          5    1    1    2  502    0  0.58339458323E+02  0.23790349377E+02 -0.38588534871E+02  0.74000138813E+02  0.41800000000E+01 0. -1.
         -5    1    1    2    0  502 -0.38726151545E+02 -0.64919440817E+01  0.36553805964E+02  0.53809973815E+02  0.41800000000E+01 0. -1.
        -11    1    3    3    0    0 -0.17721097555E+02  0.14059331672E+02 -0.29171826825E+02  0.36914733995E+02  0.00000000000E+00 0. -1.
         11    1    3    3    0    0 -0.18922092228E+01 -0.31357736967E+02  0.51050433734E+02  0.59941929464E+02  0.00000000000E+00 0.  1.
</event>
<event>
 7    1  0.6684706E-006  0.1745473E+03  0.7561462E-02  0.1173187E+00
         -2   -1    0    0    0  501 -0.00000000000E+00  0.00000000000E+00  0.15003953392E+04  0.15003953392E+04  0.00000000000E+00 0.  1.
          2   -1    0    0  501    0  0.00000000000E+00 -0.00000000000E+00 -0.23378824293E+02  0.23378824293E+02  0.00000000000E+00 0. -1.
         23    2    1    2    0    0  0.14533069232E+03 -0.17275716028E+02  0.86678602768E+03  0.88389592240E+03  0.92382484105E+02 0.  0.
          5    1    1    2  502    0 -0.95179866002E+01 -0.31879284119E+02  0.24200385896E+03  0.24431582220E+03  0.41800000000E+01 0.  1.
         -5    1    1    2    0  502 -0.13581270572E+03  0.49155000147E+02  0.36822662828E+03  0.39556241890E+03  0.41800000000E+01 0.  1.
        -11    1    3    3    0    0  0.27918613232E+02  0.33103225856E+02  0.16581558769E+03  0.17137701610E+03  0.00000000000E+00 0.  1.
         11    1    3    3    0    0  0.11741207908E+03 -0.50378941883E+02  0.70097043999E+03  0.71251890630E+03  0.00000000000E+00 0. -1.
</event>
<event>
 7    1  0.6684706E-006  0.1024576E+03  0.7561462E-02  0.1275211E+00
         -2   -1    0    0    0  501 -0.00000000000E+00  0.00000000000E+00  0.11612754440E+02  0.11612754440E+02  0.00000000000E+00 0.  1.
          2   -1    0    0  501    0  0.00000000000E+00 -0.00000000000E+00 -0.10312739091E+04  0.10312739091E+04  0.00000000000E+00 0. -1.
         23    2    1    2    0    0  0.48258080628E+01 -0.50672675004E+01 -0.34047586280E+03  0.35224280258E+03  0.90012294680E+02 0.  0.
          5    1    1    2  502    0  0.10361474868E+02 -0.55653039037E+02 -0.42782417643E+03  0.43157342279E+03  0.41800000000E+01 0.  1.
         -5    1    1    2    0  502 -0.15187282930E+02  0.60720306537E+02 -0.25136111546E+03  0.25907043821E+03  0.41800000000E+01 0.  1.
        -11    1    3    3    0    0 -0.16618500439E+02 -0.40627893808E+02 -0.11746505386E+03  0.12539872085E+03  0.00000000000E+00 0.  1.
         11    1    3    3    0    0  0.21444308502E+02  0.35560626308E+02 -0.22301080894E+03  0.22684408173E+03  0.00000000000E+00 0. -1.
</event>
<event>
 7    1  0.6684706E-006  0.1412623E+03  0.7561462E-02  0.1211640E+00
          2   -1    0    0  501    0  0.00000000000E+00  0.00000000000E+00  0.35604329904E+03  0.35604329904E+03  0.00000000000E+00 0. -1.
         -2   -1    0    0    0  501 -0.00000000000E+00 -0.00000000000E+00 -0.71542276866E+02  0.71542276866E+02  0.00000000000E+00 0.  1.
         23    2    1    2    0    0 -0.45376086682E+02  0.10629176443E+03  0.10418726933E+03  0.17955219200E+03  0.89593940268E+02 0.  0.
          5    1    1    2  502    0  0.11168885471E+02 -0.11421777367E+03  0.17897103071E+03  0.21264652844E+03  0.41800000000E+01 0.  1.
         -5    1    1    2    0  502  0.34207201211E+02  0.79260092477E+01  0.13427221371E+01  0.35386855469E+02  0.41800000000E+01 0.  1.
        -11    1    3    3    0    0 -0.13673587720E+01  0.82087552850E+02  0.25074215348E+02  0.85842601768E+02  0.00000000000E+00 0.  1.
         11    1    3    3    0    0 -0.44008727910E+02  0.24204211576E+02  0.79113053985E+02  0.93709590230E+02  0.00000000000E+00 0. -1.
</event>
<event>
 7    1  0.6684706E-006  0.8475457E+02  0.7561462E-02  0.1316076E+00
         -2   -1    0    0    0  501 -0.00000000000E+00  0.00000000000E+00  0.36598237793E+03  0.36598237793E+03  0.00000000000E+00 0.  1.
          2   -1    0    0  501    0  0.00000000000E+00 -0.00000000000E+00 -0.35474830690E+02  0.35474830690E+02  0.00000000000E+00 0. -1.
         23    2    1    2    0    0  0.98328320298E+01  0.23468317202E+02  0.18906470747E+03  0.21092908082E+03  0.89989816245E+02 0.  0.
          5    1    1    2  502    0  0.30632296117E+02 -0.25095521152E+02  0.14432099292E+03  0.14971354028E+03  0.41800000000E+01 0. -1.
         -5    1    1    2    0  502 -0.40465128147E+02  0.16272039501E+01 -0.28781531448E+01  0.40814587517E+02  0.41800000000E+01 0. -1.
        -11    1    3    3    0    0  0.19927658288E+02  0.53607611800E+02  0.15021246059E+03  0.16073167368E+03  0.00000000000E+00 0.  1.
         11    1    3    3    0    0 -0.10094826258E+02 -0.30139294598E+02  0.38852246877E+02  0.50197407139E+02  0.00000000000E+00 0. -1.
</event>
<event>
 7    1  0.6684706E-006  0.1529327E+03  0.7561462E-02  0.1196915E+00
         -1   -1    0    0    0  501 -0.00000000000E+00  0.00000000000E+00  0.13265437626E+03  0.13265437626E+03  0.00000000000E+00 0.  1.
          1   -1    0    0  501    0  0.00000000000E+00 -0.00000000000E+00 -0.19020367305E+03  0.19020367305E+03  0.00000000000E+00 0. -1.
         23    2    1    2    0    0  0.11624664656E+03 -0.10609592159E+02 -0.47729005419E+02  0.15148095028E+03  0.83920045625E+02 0.  0.
          5    1    1    2  502    0 -0.11180027144E+03 -0.35580306453E+02  0.15386992527E+02  0.11840393085E+03  0.41800000000E+01 0.  1.
         -5    1    1    2    0  502 -0.44463751129E+01  0.46189898612E+02 -0.25207283906E+02  0.52973168183E+02  0.41800000000E+01 0.  1.
        -11    1    3    3    0    0  0.45448962297E+02 -0.44301698764E+02 -0.92401047468E+01  0.64137572631E+02  0.00000000000E+00 0.  1.
         11    1    3    3    0    0  0.70797684259E+02  0.33692106605E+02 -0.38488900672E+02  0.87343377648E+02  0.00000000000E+00 0. -1.
</event>
<event>
 7    1  0.6684706E-006  0.9911059E+02  0.7561462E-02  0.1282177E+00
          1   -1    0    0  501    0  0.00000000000E+00  0.00000000000E+00  0.60146183609E+02  0.60146183609E+02  0.00000000000E+00 0. -1.
         -1   -1    0    0    0  501 -0.00000000000E+00 -0.00000000000E+00 -0.32240562040E+03  0.32240562040E+03  0.00000000000E+00 0.  1.
         23    2    1    2    0    0  0.52109913393E+02  0.15660586948E+02 -0.23093140659E+03  0.25420605169E+03  0.91272696395E+02 0.  0.
          5    1    1    2  502    0 -0.60243411472E+02 -0.37140597264E+02  0.18543495572E+02  0.73280462737E+02  0.41800000000E+01 0. -1.
         -5    1    1    2    0  502  0.81334980788E+01  0.21480010316E+02 -0.49871525769E+02  0.55065289582E+02  0.41800000000E+01 0.  1.
        -11    1    3    3    0    0  0.76159595320E+02  0.17134447525E+01 -0.14358418462E+03  0.16254118840E+03  0.00000000000E+00 0.  1.
         11    1    3    3    0    0 -0.24049681928E+02  0.13947142195E+02 -0.87347221966E+02  0.91664863287E+02  0.00000000000E+00 0. -1.
</event>
<event>
 7    1  0.6684706E-006  0.3241280E+03  0.7561462E-02  0.1073765E+00
         -2   -1    0    0    0  501 -0.00000000000E+00  0.00000000000E+00  0.15783981940E+03  0.15783981940E+03  0.00000000000E+00 0.  1.
          2   -1    0    0  501    0  0.00000000000E+00 -0.00000000000E+00 -0.73692043204E+03  0.73692043204E+03  0.00000000000E+00 0. -1.
         23    2    1    2    0    0 -0.27861558188E+03  0.13567192170E+03 -0.16762121092E+03  0.36468508753E+03  0.94153225731E+02 0.  0.
          5    1    1    2  502    0  0.24771885595E+03 -0.66020335165E+02 -0.29514578201E+03  0.39096268529E+03  0.41800000000E+01 0.  1.
         -5    1    1    2    0  502  0.30896725930E+02 -0.69651586534E+02 -0.11631361971E+03  0.13911247863E+03  0.41800000000E+01 0.  1.
        -11    1    3    3    0    0 -0.37948402349E+02 -0.25063152190E+01  0.42370443196E+01  0.38266374291E+02  0.00000000000E+00 0.  1.
         11    1    3    3    0    0 -0.24066717953E+03  0.13817823692E+03 -0.17185825524E+03  0.32641871324E+03  0.00000000000E+00 0. -1.
</event>
<event>
 7    1  0.6684706E-006  0.1170729E+03  0.7561462E-02  0.1248005E+00
          1   -1    0    0  501    0  0.00000000000E+00  0.00000000000E+00  0.94386335229E+03  0.94386335229E+03  0.00000000000E+00 0. -1.
         -1   -1    0    0    0  501 -0.00000000000E+00 -0.00000000000E+00 -0.16916667735E+02  0.16916667735E+02  0.00000000000E+00 0.  1.
         23    2    1    2    0    0  0.11592628910E+02  0.53038600948E+02  0.38547144528E+03  0.40239859214E+03  0.10192600058E+03 0.  0.
          5    1    1    2  502    0 -0.66408033406E+02 -0.27941106932E+02  0.22851902645E+03  0.23964379859E+03  0.41800000000E+01 0. -1.
         -5    1    1    2    0  502  0.54815404496E+02 -0.25097494016E+02  0.31295621284E+03  0.31873762930E+03  0.41800000000E+01 0. -1.
        -11    1    3    3    0    0  0.41569214423E+02  0.57797251254E+02  0.34230070998E+03  0.34962593996E+03  0.00000000000E+00 0.  1.
         11    1    3    3    0    0 -0.29976585513E+02 -0.47586503055E+01  0.43170735295E+02  0.52772652175E+02  0.00000000000E+00 0. -1.
</event>
<event>
 7    1  0.6684706E-006  0.1021246E+03  0.7561462E-02  0.1275891E+00
          4   -1    0    0  501    0  0.00000000000E+00  0.00000000000E+00  0.17338741447E+03  0.17338741447E+03  0.00000000000E+00 0. -1.
         -4   -1    0    0    0  501 -0.00000000000E+00 -0.00000000000E+00 -0.79577533160E+02  0.79577533160E+02  0.00000000000E+00 0.  1.
         23    2    1    2    0    0  0.79322654260E+01 -0.21106787679E+02  0.12777716357E+01  0.95746781443E+02  0.93045129563E+02 0.  0.
          5    1    1    2  502    0 -0.64569885198E+02 -0.41177856267E+01  0.50747989503E+02  0.82335029432E+02  0.41800000000E+01 0.  1.
         -5    1    1    2    0  502  0.56637619772E+02  0.25224573306E+02  0.41784120174E+02  0.74883136757E+02  0.41800000000E+01 0.  1.
        -11    1    3    3    0    0  0.14058627313E+02  0.26112619624E+02  0.28304632423E+02  0.40995928116E+02  0.00000000000E+00 0. -1.
         11    1    3    3    0    0 -0.61263618866E+01 -0.47219407303E+02 -0.27026860787E+02  0.54750853327E+02  0.00000000000E+00 0.  1.
</event>
<event>
 7    1  0.6684706E-006  0.1001454E+03  0.7561462E-02  0.1279991E+00
         -2   -1    0    0    0  501 -0.00000000000E+00  0.00000000000E+00  0.71053864700E+02  0.71053864700E+02  0.00000000000E+00 0.  1.
          2   -1    0    0  501    0  0.00000000000E+00 -0.00000000000E+00 -0.27657254617E+03  0.27657254617E+03  0.00000000000E+00 0. -1.
         23    2    1    2    0    0  0.55808231831E+00  0.79705829666E+02 -0.41494462622E+02  0.12647844291E+03  0.89003794047E+02 0.  0.
          5    1    1    2  502    0  0.33100642511E+02 -0.32616254056E+02  0.52966067736E+00  0.46660749070E+02  0.41800000000E+01 0. -1.
         -5    1    1    2    0  502 -0.33658724830E+02 -0.47089575610E+02 -0.16455387953E+03  0.17448721889E+03  0.41800000000E+01 0. -1.
        -11    1    3    3    0    0  0.26513966647E+02  0.45495819975E+02  0.15708225891E+02  0.54950963805E+02  0.00000000000E+00 0.  1.
         11    1    3    3    0    0 -0.25955884328E+02  0.34210009692E+02 -0.57202688513E+02  0.71527479108E+02  0.00000000000E+00 0. -1.
</event>
<event>
 7    1  0.6684706E-006  0.1351883E+03  0.7561462E-02  0.1219954E+00
          2   -1    0    0  501    0  0.00000000000E+00  0.00000000000E+00  0.29694207300E+04  0.29694207300E+04  0.00000000000E+00 0. -1.
         -2   -1    0    0    0  501 -0.00000000000E+00 -0.00000000000E+00 -0.16563647183E+02  0.16563647183E+02  0.00000000000E+00 0.  1.
         23    2    1    2    0    0  0.54212127170E+02  0.17047993004E+02  0.28350275791E+03  0.30279199563E+03  0.89886540024E+02 0.  0.
          5    1    1    2  502    0 -0.29979891080E+02  0.69185242887E+02  0.23573141295E+04  0.23585234298E+04  0.41800000000E+01 0. -1.
         -5    1    1    2    0  502 -0.24232236090E+02 -0.86233235892E+02  0.31204019546E+03  0.32466895174E+03  0.41800000000E+01 0.  1.
        -11    1    3    3    0    0  0.62573201527E+02  0.44309970704E+02  0.22509491607E+03  0.23779508047E+03  0.00000000000E+00 0.  1.
         11    1    3    3    0    0 -0.83610743565E+01 -0.27261977700E+02  0.58407841833E+02  0.64996915159E+02  0.00000000000E+00 0. -1.
</event>
<event>
 7    1  0.6684706E-006  0.1056668E+03  0.7561462E-02  0.1268811E+00
          1   -1    0    0  501    0  0.00000000000E+00  0.00000000000E+00  0.54733584619E+02  0.54733584619E+02  0.00000000000E+00 0. -1.
         -1   -1    0    0    0  501 -0.00000000000E+00 -0.00000000000E+00 -0.38533719329E+03  0.38533719329E+03  0.00000000000E+00 0.  1.
         23    2    1    2    0    0  0.72055550613E+02  0.57560201924E+02 -0.17143675151E+03  0.21760639026E+03  0.97246090378E+02 0.  0.
          5    1    1    2  502    0 -0.32184443724E+02 -0.63900905262E+01 -0.15371292790E+03  0.15723170252E+03  0.41800000000E+01 0.  1.
         -5    1    1    2    0  502 -0.39871106889E+02 -0.51170111398E+02 -0.54539292656E+01  0.65232685131E+02  0.41800000000E+01 0.  1.
        -11    1    3    3    0    0  0.46437133731E+02  0.70601726769E+02 -0.16876000196E+03  0.18873513047E+03  0.00000000000E+00 0.  1.
         11    1    3    3    0    0  0.25618416882E+02 -0.13041524845E+02 -0.26767495522E+01  0.28871259792E+02  0.00000000000E+00 0. -1.
</event>
<event>
 7    1  0.6684706E-006  0.9311346E+02  0.7561462E-02  0.1295482E+00
          3   -1    0    0  501    0  0.00000000000E+00  0.00000000000E+00  0.10941927366E+03  0.10941927366E+03  0.00000000000E+00 0.  1.
         -3   -1    0    0    0  501 -0.00000000000E+00 -0.00000000000E+00 -0.15359870164E+03  0.15359870164E+03  0.00000000000E+00 0. -1.
         23    2    1    2    0    0 -0.41137308886E+02 -0.48205870199E+02 -0.57481025302E+02  0.12216455437E+03  0.87201066341E+02 0.  0.
          5    1    1    2  502    0  0.99968513776E+01  0.69306367385E+02  0.51543855035E+02  0.87049129746E+02  0.41800000000E+01 0.  1.
         -5    1    1    2    0  502  0.31140457508E+02 -0.21100497186E+02 -0.38242257710E+02  0.53804291186E+02  0.41800000000E+01 0.  1.
        -11    1    3    3    0    0 -0.74044183925E+01  0.91013382016E+01 -0.54339879674E+02  0.55592106380E+02  0.00000000000E+00 0. -1.
         11    1    3    3    0    0 -0.33732890493E+02 -0.57307208401E+02 -0.31411456286E+01  0.66572447992E+02  0.00000000000E+00 0.  1.
</event>
<event>
 7    1  0.6684706E-006  0.1241832E+03  0.7561462E-02  0.1236351E+00
         -1   -1    0    0    0  501 -0.00000000000E+00  0.00000000000E+00  0.10675830986E+03  0.10675830986E+03  0.00000000000E+00 0.  1.
          1   -1    0    0  501    0  0.00000000000E+00 -0.00000000000E+00 -0.21772763430E+03  0.21772763430E+03  0.00000000000E+00 0. -1.
         23    2    1    2    0    0  0.32192598151E+02  0.86740009421E+02  0.72345922590E+01  0.12908779513E+03  0.89728072066E+02 0.  0.
          5    1    1    2  502    0  0.31029917604E+02  0.15758441088E+02 -0.24873917618E+02  0.42981024065E+02  0.41800000000E+01 0. -1.
         -5    1    1    2    0  502 -0.63222515755E+02 -0.10249845051E+03 -0.93329999073E+02  0.15241712496E+03  0.41800000000E+01 0. -1.
        -11    1    3    3    0    0  0.61209326830E+01  0.26062247011E+02 -0.39830405848E+02  0.47991330115E+02  0.00000000000E+00 0. -1.
         11    1    3    3    0    0  0.26071665468E+02  0.60677762410E+02  0.47064998107E+02  0.81096465017E+02  0.00000000000E+00 0.  1.
</event>
<event>
 7    1  0.6684706E-006  0.1290953E+03  0.7561462E-02  0.1228804E+00
          2   -1    0    0  501    0  0.00000000000E+00  0.00000000000E+00  0.49576516607E+02  0.49576516607E+02  0.00000000000E+00 0. -1.
         -2   -1    0    0    0  501 -0.00000000000E+00 -0.00000000000E+00 -0.40133429218E+03  0.40133429218E+03  0.00000000000E+00 0.  1.
         23    2    1    2    0    0 -0.82179980141E+02 -0.23180536727E+02 -0.20928308619E+03  0.24297540016E+03  0.89144537100E+02 0.  0.
          5    1    1    2  502    0 -0.16171916197E+01 -0.33557695825E+02 -0.90901270809E+00  0.33867875073E+02  0.41800000000E+01 0. -1.
         -5    1    1    2    0  502  0.83797171760E+02  0.56738232552E+02 -0.14156567667E+03  0.17406753356E+03  0.41800000000E+01 0. -1.
        -11    1    3    3    0    0 -0.10146653170E+03 -0.17690969929E+02 -0.18188719648E+03  0.20902483038E+03  0.00000000000E+00 0.  1.
         11    1    3    3    0    0  0.19286551561E+02 -0.54895667979E+01 -0.27395889714E+02  0.33950569774E+02  0.00000000000E+00 0. -1.
</event>
<event>
 7    1  0.7828708E-006  0.1117807E+03  0.7561462E-02  0.1257307E+00
         -1   -1    0    0    0  501 -0.00000000000E+00  0.00000000000E+00  0.23999501967E+03  0.23999501967E+03  0.00000000000E+00 0.  1.
          1   -1    0    0  501    0  0.00000000000E+00 -0.00000000000E+00 -0.54784019403E+02  0.54784019403E+02  0.00000000000E+00 0. -1.
         23    2    1    2    0    0  0.28290401203E+02  0.33632422759E+02  0.99518274306E+02  0.13691080031E+03  0.83121559542E+02 0.  0.
          5    1    1    2  502    0 -0.19373800480E+02 -0.80905300624E+02  0.63412487272E+02  0.10468824077E+03  0.41800000000E+01 0.  1.
         -5    1    1    2    0  502 -0.89166007232E+01  0.47272877865E+02  0.22280238691E+02  0.53179997990E+02  0.41800000000E+01 0.  1.
        -11    1    3    3    0    0  0.56040663253E+02  0.13363782997E+02  0.75565098615E+02  0.95022264562E+02  0.00000000000E+00 0.  1.
         11    1    3    3    0    0 -0.27750262050E+02  0.20268639762E+02  0.23953175691E+02  0.41888535751E+02  0.00000000000E+00 0. -1.
</event>
<event>
 7    1  0.6684706E-006  0.1169675E+03  0.7561462E-02  0.1248185E+00
          3   -1    0    0  501    0  0.00000000000E+00  0.00000000000E+00  0.59693526800E+03  0.59693526800E+03  0.00000000000E+00 0. -1.
         -3   -1    0    0    0  501 -0.00000000000E+00 -0.00000000000E+00 -0.26871804566E+02  0.26871804566E+02  0.00000000000E+00 0.  1.
         23    2    1    2    0    0  0.40506947419E+02  0.49087510593E+02  0.27148956645E+03  0.29389246730E+03  0.92821340004E+02 0.  0.
          5    1    1    2  502    0 -0.74321661181E+02 -0.13314126526E+02  0.10049817938E+03  0.12577094953E+03  0.41800000000E+01 0.  1.
         -5    1    1    2    0  502  0.33814713761E+02 -0.35773384067E+02  0.19807571760E+03  0.20414365574E+03  0.41800000000E+01 0.  1.
        -11    1    3    3    0    0  0.63716001411E+02  0.11513868803E+02  0.19617858316E+03  0.20658735320E+03  0.00000000000E+00 0. -1.
         11    1    3    3    0    0 -0.23209053992E+02  0.37573641790E+02  0.75310983288E+02  0.87305114101E+02  0.00000000000E+00 0.  1.
</event>
<event>
 7    1  0.6684706E-006  0.1895208E+03  0.7561462E-02  0.1158894E+00
          1   -1    0    0  501    0  0.00000000000E+00  0.00000000000E+00  0.61581249719E+03  0.61581249719E+03  0.00000000000E+00 0. -1.
         -1   -1    0    0    0  501 -0.00000000000E+00 -0.00000000000E+00 -0.80000569461E+02  0.80000569461E+02  0.00000000000E+00 0.  1.
         23    2    1    2    0    0 -0.16474682105E+03 -0.23417009898E+02  0.10490842851E+03  0.21725724881E+03  0.92222895134E+02 0.  0.
          5    1    1    2  502    0 -0.10777576438E+02  0.25801105196E+02  0.31903743172E+02  0.42628328745E+02  0.41800000000E+01 0.  1.
         -5    1    1    2    0  502  0.17552439749E+03 -0.23840952979E+01  0.39899975604E+03  0.43592748909E+03  0.41800000000E+01 0.  1.
        -11    1    3    3    0    0 -0.13866610827E+03  0.21134395414E+01  0.42654155415E+02  0.14509353253E+03  0.00000000000E+00 0.  1.
         11    1    3    3    0    0 -0.26080712789E+02 -0.25530449439E+02  0.62254273097E+02  0.72163716278E+02  0.00000000000E+00 0. -1.
</event>
<event>
 7    1  0.6684706E-006  0.7141117E+02  0.7561462E-02  0.1355359E+00
         -1   -1    0    0    0  501 -0.00000000000E+00  0.00000000000E+00  0.25684925764E+02  0.25684925764E+02  0.00000000000E+00 0.  1.
          1   -1    0    0  501    0  0.00000000000E+00 -0.00000000000E+00 -0.50707638896E+03  0.50707638896E+03  0.00000000000E+00 0. -1.
         23    2    1    2    0    0  0.28816550935E+02  0.38219458080E+01 -0.16191285929E+03  0.18843728602E+03  0.91912109544E+02 0.  0.
          5    1    1    2  502    0  0.18487011707E+02 -0.14773056556E+02 -0.31186898933E+01  0.24232445781E+02  0.41800000000E+01 0.  1.
         -5    1    1    2    0  502 -0.47303562642E+02  0.10951110748E+02 -0.31635991401E+03  0.32009158293E+03  0.41800000000E+01 0.  1.
        -11    1    3    3    0    0  0.43688205506E+02 -0.14889345910E+02 -0.31566743610E+02  0.55917897171E+02  0.00000000000E+00 0.  1.
         11    1    3    3    0    0 -0.14871654570E+02  0.18711291718E+02 -0.13034611568E+03  0.13251938885E+03  0.00000000000E+00 0. -1.
</event>
