<event>
 8    1  0.7130890E-009  0.1080190E+03  0.7561462E-02  0.1264283E+00
         -2   -1    0    0    0  501 -0.00000000000E+00  0.00000000000E+00  0.38426838993E+02  0.38426838993E+02  0.00000000000E+00 0.  1.
          2   -1    0    0  501    0  0.00000000000E+00 -0.00000000000E+00 -0.43640990577E+03  0.43640990577E+03  0.00000000000E+00 0. -1.
         25    2    1    2    0    0  0.51366156379E+02  0.30762892294E+02 -0.28864979556E+03  0.32023575338E+03  0.12508955074E+03 0.  0.
         23    2    1    2    0    0 -0.51366156379E+02 -0.30762892294E+02 -0.10933327121E+03  0.15460099138E+03  0.91448700253E+02 0.  0.
          5    1    3    3  502    0  0.74795227802E+01 -0.40666418800E+02 -0.16928961408E+03  0.17431622619E+03  0.41800000000E+01 0. -1.
         -5    1    3    3    0  502  0.43886633599E+02  0.71429311093E+02 -0.11936018149E+03  0.14591952719E+03  0.41800000000E+01 0. -1.
        -11    1    4    4    0    0 -0.29116212531E+02  0.19859304195E+02 -0.37869978113E+01  0.35446962461E+02  0.00000000000E+00 0.  1.
         11    1    4    4    0    0 -0.22249943848E+02 -0.50622196488E+02 -0.10554627340E+03  0.11915402892E+03  0.00000000000E+00 0. -1.
</event>
<event>
 8    1  0.7130890E-009  0.3522144E+03  0.7561462E-02  0.1061710E+00
         -2   -1    0    0    0  501 -0.00000000000E+00  0.00000000000E+00  0.30591587719E+03  0.30591587719E+03  0.00000000000E+00 0. -1.
          2   -1    0    0  501    0  0.00000000000E+00 -0.00000000000E+00 -0.43995806795E+03  0.43995806795E+03  0.00000000000E+00 0.  1.
         25    2    1    2    0    0  0.25471751933E+03  0.23420928836E+03 -0.11998342662E+02  0.36813936565E+03  0.12509047488E+03 0.  0.
         23    2    1    2    0    0 -0.25471751933E+03 -0.23420928836E+03 -0.12204384809E+03  0.37773457949E+03  0.89742444123E+02 0.  0.
          5    1    3    3  502    0  0.23741821128E+02  0.20223912872E+01 -0.31860938649E+02  0.40004449110E+02  0.41800000000E+01 0.  1.
         -5    1    3    3    0  502  0.23097569820E+03  0.23218689707E+03  0.19862595987E+02  0.32813491654E+03  0.41800000000E+01 0.  1.
        -11    1    4    4    0    0 -0.17073347864E+03 -0.19744405651E+03 -0.62458086195E+02  0.26839353328E+03  0.00000000000E+00 0. -1.
         11    1    4    4    0    0 -0.83984040693E+02 -0.36765231853E+02 -0.59585761899E+02  0.10934104621E+03  0.00000000000E+00 0.  1.
</event>
<event>
 8    1  0.7130890E-009  0.1091125E+03  0.7561462E-02  0.1262222E+00
         -2   -1    0    0    0  501 -0.00000000000E+00  0.00000000000E+00  0.20832181867E+02  0.20832181867E+02  0.00000000000E+00 0.  1.
          2   -1    0    0  501    0  0.00000000000E+00 -0.00000000000E+00 -0.97241772071E+03  0.97241772071E+03  0.00000000000E+00 0. -1.
         25    2    1    2    0    0 -0.37201755248E+02 -0.80339697900E+02 -0.42395966269E+03  0.45081146860E+03  0.12510294553E+03 0.  0.
         23    2    1    2    0    0  0.37201755248E+02  0.80339697900E+02 -0.52762587615E+03  0.54243843397E+03  0.89509506858E+02 0.  0.
          5    1    3    3  502    0  0.82825201310E+01 -0.42072785842E+01 -0.28953346553E+03  0.28971261863E+03  0.41800000000E+01 0. -1.
         -5    1    3    3    0  502 -0.45484275379E+02 -0.76132419316E+02 -0.13442619716E+03  0.16109884997E+03  0.41800000000E+01 0. -1.
        -11    1    4    4    0    0  0.38285454146E+02 -0.61756588082E+00 -0.97318101560E+02  0.10457997073E+03  0.00000000000E+00 0.  1.
         11    1    4    4    0    0 -0.10836988976E+01  0.80957263781E+02 -0.43030777459E+03  0.43785846324E+03  0.00000000000E+00 0. -1.
</event>
<event>
 8    1  0.7130890E-009  0.1059073E+03  0.7561462E-02  0.1268342E+00
          1   -1    0    0  501    0  0.00000000000E+00  0.00000000000E+00  0.94830811926E+02  0.94830811926E+02  0.00000000000E+00 0. -1.
         -1   -1    0    0    0  501 -0.00000000000E+00 -0.00000000000E+00 -0.15936496350E+03  0.15936496350E+03  0.00000000000E+00 0.  1.
         25    2    1    2    0    0  0.48103556964E+00 -0.41787547559E+02 -0.77052606835E+02  0.15273822648E+03  0.12508169763E+03 0.  0.
         23    2    1    2    0    0 -0.48103556964E+00  0.41787547559E+02  0.12518455265E+02  0.10145754894E+03  0.91599628763E+02 0.  0.
          5    1    3    3  502    0 -0.61574165733E+02 -0.28887845864E+02 -0.44246558069E+02  0.81247251186E+02  0.41800000000E+01 0. -1.
         -5    1    3    3    0  502  0.62055201303E+02 -0.12899701695E+02 -0.32806048767E+02  0.71490975292E+02  0.41800000000E+01 0. -1.
        -11    1    4    4    0    0 -0.33394159972E+02  0.11203124373E+02 -0.24777549139E+02  0.43065146665E+02  0.00000000000E+00 0.  1.
         11    1    4    4    0    0  0.32913124402E+02  0.30584423186E+02  0.37296004404E+02  0.58392402280E+02  0.00000000000E+00 0. -1.
</event>
<event>
 8    1  0.7130890E-009  0.1041781E+03  0.7561462E-02  0.1271748E+00
         -1   -1    0    0    0  501 -0.00000000000E+00  0.00000000000E+00  0.40466972140E+02  0.40466972140E+02  0.00000000000E+00 0.  1.
          1   -1    0    0  501    0  0.00000000000E+00 -0.00000000000E+00 -0.51166377206E+03  0.51166377206E+03  0.00000000000E+00 0. -1.
         25    2    1    2    0    0 -0.79246462806E+02  0.26080781951E+02 -0.17135492724E+03  0.22796885598E+03  0.12508828544E+03 0.  0.
         23    2    1    2    0    0  0.79246462806E+02 -0.26080781951E+02 -0.29984187268E+03  0.32416188822E+03  0.90639793165E+02 0.  0.
          5    1    3    3  502    0 -0.78148773687E+02  0.22465857296E+02 -0.30415331968E+02  0.86916686497E+02  0.41800000000E+01 0.  1.
         -5    1    3    3    0  502 -0.10976891189E+01  0.36149246551E+01 -0.14093959527E+03  0.14105216949E+03  0.41800000000E+01 0.  1.
        -11    1    4    4    0    0  0.93178319815E+02 -0.16691605329E+01 -0.25192390994E+03  0.26860871501E+03  0.00000000000E+00 0.  1.
         11    1    4    4    0    0 -0.13931857009E+02 -0.24411621418E+02 -0.47917962741E+02  0.55553173205E+02  0.00000000000E+00 0. -1.
</event>
<event>
 8    1  0.7130890E-009  0.9921194E+02  0.7561462E-02  0.1281962E+00
         -3   -1    0    0    0  501 -0.00000000000E+00  0.00000000000E+00  0.13714901604E+03  0.13714901604E+03  0.00000000000E+00 0.  1.
          3   -1    0    0  501    0  0.00000000000E+00 -0.00000000000E+00 -0.12707333785E+03  0.12707333785E+03  0.00000000000E+00 0. -1.
         25    2    1    2    0    0 -0.54312731528E+02 -0.46652337630E+02  0.21757400571E+02  0.14576207779E+03  0.12508751109E+03 0.  0.
         23    2    1    2    0    0  0.54312731528E+02  0.46652337630E+02 -0.11681722381E+02  0.11846027610E+03  0.93648603634E+02 0.  0.
          5    1    3    3  502    0 -0.12367460607E+02  0.33056763051E+02  0.40271738597E+02  0.53712093563E+02  0.41800000000E+01 0.  1.
         -5    1    3    3    0  502 -0.41945270921E+02 -0.79709100681E+02 -0.18514338026E+02  0.92049984229E+02  0.41800000000E+01 0.  1.
        -11    1    4    4    0    0  0.13911128226E+02  0.52594289219E+01 -0.47939886332E+02  0.50193762388E+02  0.00000000000E+00 0. -1.
         11    1    4    4    0    0  0.40401603301E+02  0.41392908708E+02  0.36258163952E+02  0.68266513708E+02  0.00000000000E+00 0.  1.
</event>
<event>
 8    1  0.7130890E-009  0.1300535E+03  0.7561462E-02  0.1227376E+00
          1   -1    0    0  501    0  0.00000000000E+00  0.00000000000E+00  0.59792895158E+03  0.59792895158E+03  0.00000000000E+00 0. -1.
         -1   -1    0    0    0  501 -0.00000000000E+00 -0.00000000000E+00 -0.44147885985E+02  0.44147885985E+02  0.00000000000E+00 0.  1.
         25    2    1    2    0    0  0.71234992243E+02 -0.64697411713E+02  0.44199692315E+03  0.46932727123E+03  0.12508648307E+03 0.  0.
         23    2    1    2    0    0 -0.71234992243E+02  0.64697411713E+02  0.11178414244E+03  0.17274956633E+03  0.89925185368E+02 0.  0.
          5    1    3    3  502    0  0.73226057331E+02 -0.10601780992E+02  0.10821195759E+03  0.13115545508E+03  0.41800000000E+01 0. -1.
         -5    1    3    3    0  502 -0.19910650886E+01 -0.54095630720E+02  0.33378496556E+03  0.33817181615E+03  0.41800000000E+01 0. -1.
        -11    1    4    4    0    0 -0.85664649364E+02  0.24653501353E+02  0.75357772482E+02  0.11672626591E+03  0.00000000000E+00 0. -1.
         11    1    4    4    0    0  0.14429657121E+02  0.40043910360E+02  0.36426369962E+02  0.56023300422E+02  0.00000000000E+00 0.  1.
</event>
<event>
 8    1  0.7130890E-009  0.1466500E+03  0.7561462E-02  0.1204651E+00
          2   -1    0    0  501    0  0.00000000000E+00  0.00000000000E+00  0.18941591261E+03  0.18941591261E+03  0.00000000000E+00 0. -1.
         -2   -1    0    0    0  501 -0.00000000000E+00 -0.00000000000E+00 -0.12658049242E+03  0.12658049242E+03  0.00000000000E+00 0.  1.
         25    2    1    2    0    0  0.10442544830E+03 -0.13592131458E+01 -0.67135678083E+00  0.16295577045E+03  0.12509041007E+03 0.  0.
         23    2    1    2    0    0 -0.10442544830E+03  0.13592131458E+01  0.63506776969E+02  0.15304063458E+03  0.92096706765E+02 0.  0.
          5    1    3    3  502    0  0.10824997827E+03  0.38911071233E+02 -0.21760719888E+02  0.11714576642E+03  0.41800000000E+01 0.  1.
         -5    1    3    3    0  502 -0.38245299672E+01 -0.40270284379E+02  0.21089363107E+02  0.45810004035E+02  0.41800000000E+01 0.  1.
        -11    1    4    4    0    0  0.15990439472E+02  0.58491593542E+01  0.16461217702E+02  0.23682873726E+02  0.00000000000E+00 0. -1.
         11    1    4    4    0    0 -0.12041588777E+03 -0.44899462084E+01  0.47045559267E+02  0.12935776085E+03  0.00000000000E+00 0.  1.
</event>
<event>
 8    1  0.7130890E-009  0.1144926E+03  0.7561462E-02  0.1252469E+00
          2   -1    0    0  501    0  0.00000000000E+00  0.00000000000E+00  0.85899256321E+03  0.85899256321E+03  0.00000000000E+00 0.  1.
         -2   -1    0    0    0  501 -0.00000000000E+00 -0.00000000000E+00 -0.19836314018E+02  0.19836314018E+02  0.00000000000E+00 0. -1.
         25    2    1    2    0    0  0.12547047704E+02  0.70543959268E+02  0.46585110141E+03  0.48764631106E+03  0.12509115642E+03 0.  0.
         23    2    1    2    0    0 -0.12547047704E+02 -0.70543959268E+02  0.37330514779E+03  0.39118256617E+03  0.92375257043E+02 0.  0.
          5    1    3    3  502    0  0.60473173649E+02  0.10394094358E+02  0.14172127160E+03  0.15449088372E+03  0.41800000000E+01 0.  1.
         -5    1    3    3    0  502 -0.47926125946E+02  0.60149864910E+02  0.32412982981E+03  0.33315542734E+03  0.41800000000E+01 0.  1.
        -11    1    4    4    0    0 -0.24546467022E+02 -0.66240805076E+01  0.21148022480E+02  0.33070324169E+02  0.00000000000E+00 0. -1.
         11    1    4    4    0    0  0.11999419318E+02 -0.63919878761E+02  0.35215712531E+03  0.35811224200E+03  0.00000000000E+00 0.  1.
</event>
<event>
 8    1  0.7130890E-009  0.1442446E+03  0.7561462E-02  0.1207729E+00
          2   -1    0    0  501    0  0.00000000000E+00  0.00000000000E+00  0.63876964775E+02  0.63876964775E+02  0.00000000000E+00 0. -1.
         -2   -1    0    0    0  501 -0.00000000000E+00 -0.00000000000E+00 -0.40320826877E+03  0.40320826877E+03  0.00000000000E+00 0.  1.
         25    2    1    2    0    0 -0.11566026982E+03 -0.10084592822E+02 -0.15153922125E+03  0.22823238664E+03  0.12508752819E+03 0.  0.
         23    2    1    2    0    0  0.11566026982E+03  0.10084592822E+02 -0.18779208274E+03  0.23885284690E+03  0.91136266697E+02 0.  0.
          5    1    3    3  502    0 -0.10801445859E+03 -0.38884456418E+02 -0.16000711507E+03  0.19697429652E+03  0.41800000000E+01 0. -1.
         -5    1    3    3    0  502 -0.76458112267E+01  0.28799863596E+02  0.84678938180E+01  0.31258090124E+02  0.41800000000E+01 0. -1.
        -11    1    4    4    0    0  0.62332393422E+02  0.47509262182E+02 -0.12982823493E+03  0.15165034734E+03  0.00000000000E+00 0.  1.
         11    1    4    4    0    0  0.53327876393E+02 -0.37424669361E+02 -0.57963847811E+02  0.87202499566E+02  0.00000000000E+00 0. -1.
</event>
<event>
 8    1  0.7130890E-009  0.9080153E+02  0.7561462E-02  0.1300922E+00
          1   -1    0    0  501    0  0.00000000000E+00  0.00000000000E+00  0.26392487011E+03  0.26392487011E+03  0.00000000000E+00 0. -1.
         -1   -1    0    0    0  501 -0.00000000000E+00 -0.00000000000E+00 -0.56841167666E+02  0.56841167666E+02  0.00000000000E+00 0.  1.
         25    2    1    2    0    0  0.13414068402E+02 -0.19981001188E+02  0.47354724343E+02  0.13589850752E+03  0.12508699688E+03 0.  0.
         23    2    1    2    0    0 -0.13414068402E+02  0.19981001188E+02  0.15972897810E+03  0.18486753026E+03  0.89908173478E+02 0.  0.
          5    1    3    3  502    0  0.17624058090E+02 -0.66985215402E+02  0.68332020471E+00  0.69394278096E+02  0.41800000000E+01 0.  1.
         -5    1    3    3    0  502 -0.42099896880E+01  0.47004214213E+02  0.46671404139E+02  0.66504229424E+02  0.41800000000E+01 0.  1.
        -11    1    4    4    0    0  0.97626101485E+01  0.35581810360E+02  0.19209887893E+02  0.41597999691E+02  0.00000000000E+00 0.  1.
         11    1    4    4    0    0 -0.23176678551E+02 -0.15600809172E+02  0.14051909021E+03  0.14326953056E+03  0.00000000000E+00 0. -1.
</event>
<event>
 8    1  0.7130890E-009  0.1025916E+03  0.7561462E-02  0.1274939E+00
          1   -1    0    0  501    0  0.00000000000E+00  0.00000000000E+00  0.78189986281E+02  0.78189986281E+02  0.00000000000E+00 0. -1.
         -1   -1    0    0    0  501 -0.00000000000E+00 -0.00000000000E+00 -0.16220187612E+03  0.16220187612E+03  0.00000000000E+00 0.  1.
         25    2    1    2    0    0  0.23322780347E+01  0.29621978930E+02 -0.38116561754E+02  0.13408469714E+03  0.12507170971E+03 0.  0.
         23    2    1    2    0    0 -0.23322780347E+01 -0.29621978930E+02 -0.45895328086E+02  0.10630716527E+03  0.91169792643E+02 0.  0.
          5    1    3    3  502    0 -0.43724066909E+02 -0.15876391389E+02 -0.49680582647E+02  0.68187143383E+02  0.41800000000E+01 0.  1.
         -5    1    3    3    0  502  0.46056344944E+02  0.45498370319E+02  0.11564020893E+02  0.65897553752E+02  0.41800000000E+01 0.  1.
        -11    1    4    4    0    0 -0.14625227162E+01 -0.61598225414E+02 -0.40841524007E+02  0.73922327006E+02  0.00000000000E+00 0.  1.
         11    1    4    4    0    0 -0.86975531848E+00  0.31976246484E+02 -0.50538040785E+01  0.32384838261E+02  0.00000000000E+00 0. -1.
</event>
<event>
 8    1  0.7130890E-009  0.9637620E+02  0.7561462E-02  0.1288106E+00
          2   -1    0    0  501    0  0.00000000000E+00  0.00000000000E+00  0.49166900233E+03  0.49166900233E+03  0.00000000000E+00 0. -1.
         -2   -1    0    0    0  501 -0.00000000000E+00 -0.00000000000E+00 -0.29983328909E+02  0.29983328909E+02  0.00000000000E+00 0.  1.
         25    2    1    2    0    0 -0.24080721229E+02 -0.19026162769E+02  0.35871455326E+03  0.38113911337E+03  0.12509603116E+03 0.  0.
         23    2    1    2    0    0  0.24080721229E+02  0.19026162769E+02  0.10297112016E+03  0.14051321787E+03  0.90548532873E+02 0.  0.
          5    1    3    3  502    0  0.12482376057E+02 -0.59869783780E+02  0.26918796772E+03  0.27607939997E+03  0.41800000000E+01 0.  1.
         -5    1    3    3    0  502 -0.36563097287E+02  0.40843621011E+02  0.89526585543E+02  0.10505971340E+03  0.41800000000E+01 0.  1.
        -11    1    4    4    0    0 -0.18865019885E+02  0.26857573063E+02  0.49256426327E+01  0.33188554675E+02  0.00000000000E+00 0.  1.
         11    1    4    4    0    0  0.42945741114E+02 -0.78314102934E+01  0.98045477527E+02  0.10732466320E+03  0.00000000000E+00 0. -1.
</event>
<event>
 8    1  0.7130890E-009  0.1179042E+03  0.7561462E-02  0.1246595E+00
         -2   -1    0    0    0  501 -0.00000000000E+00  0.00000000000E+00  0.18608360352E+03  0.18608360352E+03  0.00000000000E+00 0. -1.
          2   -1    0    0  501    0  0.00000000000E+00 -0.00000000000E+00 -0.11217916100E+03  0.11217916100E+03  0.00000000000E+00 0.  1.
         25    2    1    2    0    0 -0.25167764201E+02  0.65692691843E+02 -0.25376232396E+02  0.14573602482E+03  0.12508433013E+03 0.  0.
         23    2    1    2    0    0  0.25167764201E+02 -0.65692691843E+02  0.99280674916E+02  0.15252673971E+03  0.91971777176E+02 0.  0.
          5    1    3    3  502    0 -0.60369433611E+02  0.23500199306E+02 -0.53265955599E+02  0.83972985583E+02  0.41800000000E+01 0. -1.
         -5    1    3    3    0  502  0.35201669410E+02  0.42192492537E+02  0.27889723203E+02  0.61763039240E+02  0.41800000000E+01 0. -1.
        -11    1    4    4    0    0 -0.57429353798E+01  0.22034448735E+02  0.20229876067E+02  0.30458925187E+02  0.00000000000E+00 0.  1.
         11    1    4    4    0    0  0.30910699581E+02 -0.87727140578E+02  0.79050798850E+02  0.12206781452E+03  0.00000000000E+00 0. -1.
</event>
<event>
 8    1  0.7130890E-009  0.7911397E+02  0.7561462E-02  0.1331585E+00
         -3   -1    0    0    0  501 -0.00000000000E+00  0.00000000000E+00  0.59342706729E+02  0.59342706729E+02  0.00000000000E+00 0.  1.
          3   -1    0    0  501    0  0.00000000000E+00 -0.00000000000E+00 -0.22033783913E+03  0.22033783913E+03  0.00000000000E+00 0. -1.
         25    2    1    2    0    0  0.22156097068E+02 -0.19475326643E+01 -0.13123238073E+03  0.18264946842E+03  0.12507679658E+03 0.  0.
         23    2    1    2    0    0 -0.22156097068E+02  0.19475326643E+01 -0.29762751669E+02  0.97031077437E+02  0.89635501231E+02 0.  0.
          5    1    3    3  502    0  0.57763998194E+02  0.41087407693E+02 -0.71874039003E+02  0.10103565925E+03  0.41800000000E+01 0.  1.
         -5    1    3    3    0  502 -0.35607901126E+02 -0.43034940357E+02 -0.59358341731E+02  0.81613809170E+02  0.41800000000E+01 0.  1.
        -11    1    4    4    0    0 -0.87244221401E+01 -0.99709058336E+01  0.30977592006E+02  0.33691923533E+02  0.00000000000E+00 0.  1.
         11    1    4    4    0    0 -0.13431674928E+02  0.11918438498E+02 -0.60740343675E+02  0.63339153905E+02  0.00000000000E+00 0. -1.
</event>
<event>
 8    1  0.7130890E-009  0.1024843E+03  0.7561462E-02  0.1275157E+00
         -3   -1    0    0    0  501 -0.00000000000E+00  0.00000000000E+00  0.40566179434E+03  0.40566179434E+03  0.00000000000E+00 0.  1.
          3   -1    0    0  501    0  0.00000000000E+00 -0.00000000000E+00 -0.42944926820E+02  0.42944926820E+02  0.00000000000E+00 0. -1.
         25    2    1    2    0    0  0.54818427622E+02  0.46482043436E+02  0.24606043038E+03  0.28523497459E+03  0.12509042713E+03 0.  0.
         23    2    1    2    0    0 -0.54818427622E+02 -0.46482043436E+02  0.11665643713E+03  0.16337174657E+03  0.88971697090E+02 0.  0.
          5    1    3    3  502    0 -0.11759421497E+02  0.30211632241E+01  0.18358012398E+03  0.18402865467E+03  0.41800000000E+01 0.  1.
         -5    1    3    3    0  502  0.66577849119E+02  0.43460880212E+02  0.62480306407E+02  0.10120631992E+03  0.41800000000E+01 0.  1.
        -11    1    4    4    0    0 -0.71725978133E+02 -0.10154670258E+02  0.60479872315E+02  0.94369212259E+02  0.00000000000E+00 0. -1.
         11    1    4    4    0    0  0.16907550511E+02 -0.36327373178E+02  0.56176564816E+02  0.69002534307E+02  0.00000000000E+00 0.  1.
</event>
<event>
 8    1  0.7130890E-009  0.1449963E+03  0.7561462E-02  0.1206760E+00
         -1   -1    0    0    0  501 -0.00000000000E+00  0.00000000000E+00  0.25449021437E+02  0.25449021437E+02  0.00000000000E+00 0.  1.
          1   -1    0    0  501    0  0.00000000000E+00 -0.00000000000E+00 -0.11481658604E+04  0.11481658604E+04  0.00000000000E+00 0. -1.
         25    2    1    2    0    0  0.84138903222E+02 -0.93451417792E+02 -0.46364350499E+03  0.49641261720E+03  0.12509062424E+03 0.  0.
         23    2    1    2    0    0 -0.84138903222E+02  0.93451417792E+02 -0.65907333399E+03  0.67720226466E+03  0.91720909037E+02 0.  0.
          5    1    3    3  502    0 -0.65034278262E+01 -0.63425936681E+02 -0.87686195727E+02  0.10849647616E+03  0.41800000000E+01 0. -1.
         -5    1    3    3    0  502  0.90642331048E+02 -0.30025481111E+02 -0.37595730926E+03  0.38791614104E+03  0.41800000000E+01 0. -1.
        -11    1    4    4    0    0 -0.27221051759E+01  0.22085635805E+02 -0.23083823610E+02  0.32063188830E+02  0.00000000000E+00 0.  1.
         11    1    4    4    0    0 -0.81416798046E+02  0.71365781986E+02 -0.63598951038E+03  0.64513907583E+03  0.00000000000E+00 0. -1.
</event>
<event>
 8    1  0.7130890E-009  0.1097034E+03  0.7561462E-02  0.1261120E+00
          2   -1    0    0  501    0  0.00000000000E+00  0.00000000000E+00  0.83918579881E+03  0.83918579881E+03  0.00000000000E+00 0. -1.
         -2   -1    0    0    0  501 -0.00000000000E+00 -0.00000000000E+00 -0.16292699076E+02  0.16292699076E+02  0.00000000000E+00 0.  1.
         25    2    1    2    0    0  0.35346377681E+02 -0.17198826073E+02  0.38631745243E+03  0.40796367349E+03  0.12509204133E+03 0.  0.
         23    2    1    2    0    0 -0.35346377681E+02  0.17198826073E+02  0.43657564730E+03  0.44751482440E+03  0.90144640448E+02 0.  0.
          5    1    3    3  502    0 -0.19134560446E+02 -0.53090498511E+02  0.25585305288E+03  0.26203623701E+03  0.41800000000E+01 0. -1.
         -5    1    3    3    0  502  0.54480938127E+02  0.35891672438E+02  0.13046439955E+03  0.14592743649E+03  0.41800000000E+01 0. -1.
        -11    1    4    4    0    0 -0.64026923703E+02  0.48594588113E-01  0.25693533699E+03  0.26479278071E+03  0.00000000000E+00 0.  1.
         11    1    4    4    0    0  0.28680546022E+02  0.17150231485E+02  0.17964031031E+03  0.18272204369E+03  0.00000000000E+00 0. -1.
</event>
<event>
 8    1  0.7130890E-009  0.6046960E+02  0.7561462E-02  0.1395872E+00
         -2   -1    0    0    0  501 -0.00000000000E+00  0.00000000000E+00  0.24478306463E+03  0.24478306463E+03  0.00000000000E+00 0.  1.
          2   -1    0    0  501    0  0.00000000000E+00 -0.00000000000E+00 -0.60779248816E+02  0.60779248816E+02  0.00000000000E+00 0. -1.
         25    2    1    2    0    0 -0.46758245586E+02  0.49773391117E+01  0.13687981635E+03  0.19130451984E+03  0.12510087032E+03 0.  0.
         23    2    1    2    0    0  0.46758245586E+02 -0.49773391117E+01  0.47123999465E+02  0.11425779360E+03  0.92860457883E+02 0.  0.
          5    1    3    3  502    0 -0.32204046172E+02 -0.24493637151E+02  0.15018762621E+03  0.15559831078E+03  0.41800000000E+01 0. -1.
         -5    1    3    3    0  502 -0.14554199414E+02  0.29470976263E+02 -0.13307809862E+02  0.35706209065E+02  0.41800000000E+01 0. -1.
        -11    1    4    4    0    0  0.16395048374E+02 -0.22162972733E+00 -0.28359033993E+02  0.32757923315E+02  0.00000000000E+00 0. -1.
         11    1    4    4    0    0  0.30363197213E+02 -0.47557093844E+01  0.75483033458E+02  0.81499870286E+02  0.00000000000E+00 0.  1.
</event>
<event>
 8    1  0.7130890E-009  0.7724398E+02  0.7561462E-02  0.1337060E+00
         -2   -1    0    0    0  501 -0.00000000000E+00  0.00000000000E+00  0.15068821227E+02  0.15068821227E+02  0.00000000000E+00 0.  1.
          2   -1    0    0  501    0  0.00000000000E+00 -0.00000000000E+00 -0.94497731279E+03  0.94497731279E+03  0.00000000000E+00 0. -1.
         25    2    1    2    0    0 -0.39345624730E+00  0.51051833492E+02 -0.57471435298E+03  0.59037947494E+03  0.12507954427E+03 0.  0.
         23    2    1    2    0    0  0.39345624730E+00 -0.51051833492E+02 -0.35519413858E+03  0.36966665908E+03  0.88792557347E+02 0.  0.
          5    1    3    3  502    0  0.27567709134E+01  0.24524388637E+02 -0.13356871180E+02  0.28371179595E+02  0.41800000000E+01 0. -1.
         -5    1    3    3    0  502 -0.31502271607E+01  0.26527444855E+02 -0.56135748180E+03  0.56200829534E+03  0.41800000000E+01 0. -1.
        -11    1    4    4    0    0 -0.30416562507E+02  0.11637945011E+02 -0.11460202652E+03  0.11913955481E+03  0.00000000000E+00 0.  1.
         11    1    4    4    0    0  0.30810018754E+02 -0.62689778503E+02 -0.24059211207E+03  0.25052710427E+03  0.00000000000E+00 0. -1.
</event>
<event>
 8    1  0.7130890E-009  0.2051550E+03  0.7561462E-02  0.1145461E+00
         -1   -1    0    0    0  501 -0.00000000000E+00  0.00000000000E+00  0.54453839046E+02  0.54453839046E+02  0.00000000000E+00 0.  1.
          1   -1    0    0  501    0  0.00000000000E+00 -0.00000000000E+00 -0.90679004542E+03  0.90679004542E+03  0.00000000000E+00 0. -1.
         25    2    1    2    0    0 -0.19277107595E+03 -0.91286765638E+01 -0.48848536486E+03  0.53991695584E+03  0.12509335338E+03 0.  0.
         23    2    1    2    0    0  0.19277107595E+03  0.91286765638E+01 -0.36385084151E+03  0.42132692862E+03  0.88797102740E+02 0.  0.
          5    1    3    3  502    0 -0.18591029268E+03  0.12052067688E+02 -0.32309344435E+03  0.37298087812E+03  0.41800000000E+01 0.  1.
         -5    1    3    3    0  502 -0.68607832715E+01 -0.21180744252E+02 -0.16539192051E+03  0.16693607772E+03  0.41800000000E+01 0.  1.
        -11    1    4    4    0    0  0.62527209590E+02 -0.23905897963E+02 -0.63402934256E+02  0.92201279648E+02  0.00000000000E+00 0.  1.
         11    1    4    4    0    0  0.13024386636E+03  0.33034574526E+02 -0.30044790726E+03  0.32912564898E+03  0.00000000000E+00 0. -1.
</event>
<event>
 8    1  0.7130890E-009  0.1415602E+03  0.7561462E-02  0.1211245E+00
          1   -1    0    0  501    0  0.00000000000E+00  0.00000000000E+00  0.91828622553E+03  0.91828622553E+03  0.00000000000E+00 0. -1.
         -1   -1    0    0    0  501 -0.00000000000E+00 -0.00000000000E+00 -0.26974813752E+02  0.26974813752E+02  0.00000000000E+00 0.  1.
         25    2    1    2    0    0  0.85184905352E+02  0.70926115525E+02  0.55158611324E+03  0.57635237071E+03  0.12509129841E+03 0.  0.
         23    2    1    2    0    0 -0.85184905352E+02 -0.70926115525E+02  0.33972529854E+03  0.36890866857E+03  0.91615202448E+02 0.  0.
          5    1    3    3  502    0 -0.26775324174E+02  0.34245337307E+02  0.91269544499E+02  0.10117936185E+03  0.41800000000E+01 0. -1.
         -5    1    3    3    0  502  0.11196022953E+03  0.36680778218E+02  0.46031656874E+03  0.47517300886E+03  0.41800000000E+01 0. -1.
        -11    1    4    4    0    0 -0.45794111154E+02 -0.67925820686E+01  0.23747014589E+03  0.24194071583E+03  0.00000000000E+00 0.  1.
         11    1    4    4    0    0 -0.39390794198E+02 -0.64133533456E+02  0.10225515265E+03  0.12696795275E+03  0.00000000000E+00 0. -1.
</event>
<event>
 8    1  0.7130890E-009  0.8891483E+02  0.7561462E-02  0.1305501E+00
          4   -1    0    0  501    0  0.00000000000E+00  0.00000000000E+00  0.39289354612E+02  0.39289354612E+02  0.00000000000E+00 0. -1.
         -4   -1    0    0    0  501 -0.00000000000E+00 -0.00000000000E+00 -0.34762953168E+03  0.34762953168E+03  0.00000000000E+00 0.  1.
         25    2    1    2    0    0  0.92308258710E+01  0.17144062841E+02 -0.23961314543E+03  0.27099912061E+03  0.12508771671E+03 0.  0.
         23    2    1    2    0    0 -0.92308258710E+01 -0.17144062841E+02 -0.68727031643E+02  0.11591976569E+03  0.91295455318E+02 0.  0.
          5    1    3    3  502    0  0.27605985453E+02  0.66228008637E+02 -0.11321610785E+03  0.13410294194E+03  0.41800000000E+01 0.  1.
         -5    1    3    3    0  502 -0.18375159582E+02 -0.49083945795E+02 -0.12639703758E+03  0.13689617866E+03  0.41800000000E+01 0.  1.
        -11    1    4    4    0    0 -0.13664479501E+02  0.15369324880E+02  0.15352443083E+02  0.25663819979E+02  0.00000000000E+00 0. -1.
         11    1    4    4    0    0  0.44336536296E+01 -0.32513387721E+02 -0.84079474726E+02  0.90255945709E+02  0.00000000000E+00 0.  1.
</event>
<event>
 8    1  0.7130890E-009  0.2294301E+03  0.7561462E-02  0.1127042E+00
          1   -1    0    0  501    0  0.00000000000E+00  0.00000000000E+00  0.64442560932E+03  0.64442560932E+03  0.00000000000E+00 0. -1.
         -1   -1    0    0    0  501 -0.00000000000E+00 -0.00000000000E+00 -0.88184320933E+02  0.88184320933E+02  0.00000000000E+00 0.  1.
         25    2    1    2    0    0  0.30022108137E+02 -0.20862591864E+03  0.24960057582E+03  0.34981892174E+03  0.12508688841E+03 0.  0.
         23    2    1    2    0    0 -0.30022108137E+02  0.20862591864E+03  0.30664071256E+03  0.38279100851E+03  0.89857268443E+02 0.  0.
          5    1    3    3  502    0 -0.42391591050E+02 -0.63686024179E+02  0.45198593625E+02  0.88956966749E+02  0.41800000000E+01 0.  1.
         -5    1    3    3    0  502  0.72413699188E+02 -0.14493989446E+03  0.20440198220E+03  0.26086195499E+03  0.41800000000E+01 0.  1.
        -11    1    4    4    0    0 -0.38098576757E+02  0.58439891796E+02  0.15109287075E+03  0.16642048581E+03  0.00000000000E+00 0. -1.
         11    1    4    4    0    0  0.80764686200E+01  0.15018602684E+03  0.15554784181E+03  0.21637052271E+03  0.00000000000E+00 0.  1.
</event>
<event>
 8    1  0.7130890E-009  0.1549405E+03  0.7561462E-02  0.1194530E+00
         -3   -1    0    0    0  501 -0.00000000000E+00  0.00000000000E+00  0.28952934936E+03  0.28952934936E+03  0.00000000000E+00 0.  1.
          3   -1    0    0  501    0  0.00000000000E+00 -0.00000000000E+00 -0.96515959709E+02  0.96515959709E+02  0.00000000000E+00 0. -1.
         25    2    1    2    0    0 -0.12507355497E+03 -0.62746126740E+01  0.76725383639E+02  0.19291880733E+03  0.12509243307E+03 0.  0.
         23    2    1    2    0    0  0.12507355497E+03  0.62746126740E+01  0.11628800601E+03  0.19312650174E+03  0.89956547367E+02 0.  0.
          5    1    3    3  502    0 -0.28321522175E+02  0.45323989231E+02 -0.81098209652E+01  0.54218209249E+02  0.41800000000E+01 0.  1.
         -5    1    3    3    0  502 -0.96752032794E+02 -0.51598601905E+02  0.84835204604E+02  0.13870059808E+03  0.41800000000E+01 0.  1.
        -11    1    4    4    0    0  0.65810294218E+02 -0.34791570917E+02  0.89015859370E+02  0.11603995627E+03  0.00000000000E+00 0.  1.
         11    1    4    4    0    0  0.59263260751E+02  0.41066183591E+02  0.27272146643E+02  0.77086545467E+02  0.00000000000E+00 0. -1.
</event>
<event>
 8    1  0.7130890E-009  0.1010016E+03  0.7561462E-02  0.1278204E+00
         -1   -1    0    0    0  501 -0.00000000000E+00  0.00000000000E+00  0.32721211020E+03  0.32721211020E+03  0.00000000000E+00 0.  1.
          1   -1    0    0  501    0  0.00000000000E+00 -0.00000000000E+00 -0.50943650829E+02  0.50943650829E+02  0.00000000000E+00 0. -1.
         25    2    1    2    0    0 -0.74869719567E+01  0.45650257677E+02  0.74964794185E+02  0.15299386186E+03  0.12508957041E+03 0.  0.
         23    2    1    2    0    0  0.74869719567E+01 -0.45650257677E+02  0.20130366519E+03  0.22516189916E+03  0.89636568672E+02 0.  0.
          5    1    3    3  502    0  0.46486603208E+02  0.12303651346E+01 -0.47005302323E+01  0.46926383417E+02  0.41800000000E+01 0.  1.
         -5    1    3    3    0  502 -0.53973575164E+02  0.44419892542E+02  0.79665324417E+02  0.10606747845E+03  0.41800000000E+01 0.  1.
        -11    1    4    4    0    0  0.29369560221E+02 -0.54317813439E+02  0.77257611250E+02  0.98902651231E+02  0.00000000000E+00 0.  1.
         11    1    4    4    0    0 -0.21882588264E+02  0.86675557620E+01  0.12404605394E+03  0.12625924793E+03  0.00000000000E+00 0. -1.
</event>
<event>
 8    1  0.7130890E-009  0.2307773E+03  0.7561462E-02  0.1126094E+00
         -2   -1    0    0    0  501 -0.00000000000E+00  0.00000000000E+00  0.46716044572E+02  0.46716044572E+02  0.00000000000E+00 0.  1.
          2   -1    0    0  501    0  0.00000000000E+00 -0.00000000000E+00 -0.13747029877E+04  0.13747029877E+04  0.00000000000E+00 0. -1.
         25    2    1    2    0    0 -0.14717461514E+03  0.15164118970E+03 -0.43851174566E+03  0.50258891953E+03  0.12509057997E+03 0.  0.
         23    2    1    2    0    0  0.14717461514E+03 -0.15164118970E+03 -0.88947519746E+03  0.91883011273E+03  0.91799953263E+02 0.  0.
          5    1    3    3  502    0 -0.14985717789E+03  0.73153050018E+02 -0.29090848324E+03  0.33534125978E+03  0.41800000000E+01 0. -1.
         -5    1    3    3    0  502  0.26825627540E+01  0.78488139679E+02 -0.14760326242E+03  0.16724765975E+03  0.41800000000E+01 0. -1.
        -11    1    4    4    0    0  0.12051757428E+03 -0.94862771453E+02 -0.75533341664E+03  0.77074768986E+03  0.00000000000E+00 0.  1.
         11    1    4    4    0    0  0.26657040860E+02 -0.56778418243E+02 -0.13414178081E+03  0.14808242288E+03  0.00000000000E+00 0. -1.
</event>
<event>
 8    1  0.7130890E-009  0.1429431E+03  0.7561462E-02  0.1209423E+00
          2   -1    0    0  501    0  0.00000000000E+00  0.00000000000E+00  0.75110626653E+02  0.75110626653E+02  0.00000000000E+00 0. -1.
         -2   -1    0    0    0  501 -0.00000000000E+00 -0.00000000000E+00 -0.46695712370E+03  0.46695712370E+03  0.00000000000E+00 0.  1.
         25    2    1    2    0    0  0.10215962756E+02  0.12998357611E+03 -0.91331278119E+02  0.20245964925E+03  0.12509360999E+03 0.  0.
         23    2    1    2    0    0 -0.10215962756E+02 -0.12998357611E+03 -0.30051521892E+03  0.33960810110E+03  0.89577729240E+02 0.  0.
          5    1    3    3  502    0  0.72042707369E+01  0.10662817924E+03  0.11261278938E+01  0.10695892057E+03  0.41800000000E+01 0. -1.
         -5    1    3    3    0  502  0.30116920193E+01  0.23355396861E+02 -0.92457406013E+02  0.95500728678E+02  0.41800000000E+01 0. -1.
        -11    1    4    4    0    0  0.27836501507E+02 -0.10720168433E+02 -0.34494106512E+02  0.45603028534E+02  0.00000000000E+00 0. -1.
         11    1    4    4    0    0 -0.38052464263E+02 -0.11926340767E+03 -0.26602111241E+03  0.29400507257E+03  0.00000000000E+00 0.  1.
</event>
<event>
 8    1  0.7130890E-009  0.1054301E+03  0.7561462E-02  0.1269275E+00
         -1   -1    0    0    0  501 -0.00000000000E+00  0.00000000000E+00  0.62624127225E+02  0.62624127225E+02  0.00000000000E+00 0.  1.
          1   -1    0    0  501    0  0.00000000000E+00 -0.00000000000E+00 -0.20594075705E+03  0.20594075705E+03  0.00000000000E+00 0. -1.
         25    2    1    2    0    0  0.34428269111E+02 -0.78797740526E+01 -0.72390129845E+02  0.14878398545E+03  0.12509575082E+03 0.  0.
         23    2    1    2    0    0 -0.34428269111E+02  0.78797740526E+01 -0.70926499982E+02  0.11978089883E+03  0.89830388910E+02 0.  0.
          5    1    3    3  502    0 -0.39574719653E+02 -0.27061953532E+02 -0.80853496760E+01  0.48799109049E+02  0.41800000000E+01 0. -1.
         -5    1    3    3    0  502  0.74002988764E+02  0.19182179480E+02 -0.64304780169E+02  0.99984876397E+02  0.41800000000E+01 0. -1.
        -11    1    4    4    0    0 -0.80667979922E+01  0.42162069302E+02 -0.83759865639E+01  0.43736374662E+02  0.00000000000E+00 0.  1.
         11    1    4    4    0    0 -0.26361471119E+02 -0.34282295249E+02 -0.62550513418E+02  0.76044524168E+02  0.00000000000E+00 0. -1.
</event>
<event>
 8    1  0.7130890E-009  0.1155560E+03  0.7561462E-02  0.1250614E+00
          2   -1    0    0  501    0  0.00000000000E+00  0.00000000000E+00  0.68130476295E+03  0.68130476295E+03  0.00000000000E+00 0. -1.
         -2   -1    0    0    0  501 -0.00000000000E+00 -0.00000000000E+00 -0.31434514243E+02  0.31434514243E+02  0.00000000000E+00 0.  1.
         25    2    1    2    0    0  0.90814199725E+01  0.96352297833E+02  0.39070867361E+03  0.42150593041E+03  0.12509094393E+03 0.  0.
         23    2    1    2    0    0 -0.90814199725E+01 -0.96352297833E+02  0.25916157510E+03  0.29123334678E+03  0.91026934389E+02 0.  0.
          5    1    3    3  502    0  0.12849008831E+02  0.72571262568E+02  0.76354959797E+02  0.10620375447E+03  0.41800000000E+01 0.  1.
         -5    1    3    3    0  502 -0.37675888590E+01  0.23781035264E+02  0.31435371381E+03  0.31530217594E+03  0.41800000000E+01 0.  1.
        -11    1    4    4    0    0  0.40016568143E+02 -0.28610501007E+02  0.94668643840E+02  0.10668663750E+03  0.00000000000E+00 0.  1.
         11    1    4    4    0    0 -0.49097988116E+02 -0.67741796826E+02  0.16449293126E+03  0.18454670928E+03  0.00000000000E+00 0. -1.
</event>
<event>
 8    1  0.7130890E-009  0.1206695E+03  0.7561462E-02  0.1241997E+00
         -2   -1    0    0    0  501 -0.00000000000E+00  0.00000000000E+00  0.12421122260E+03  0.12421122260E+03  0.00000000000E+00 0. -1.
          2   -1    0    0  501    0  0.00000000000E+00 -0.00000000000E+00 -0.18183242459E+03  0.18183242459E+03  0.00000000000E+00 0.  1.
         25    2    1    2    0    0  0.83392973401E+02  0.52630201606E+02  0.91746545846E+00  0.15928955111E+03  0.12509193905E+03 0.  0.
         23    2    1    2    0    0 -0.83392973401E+02 -0.52630201606E+02 -0.58538667446E+02  0.14675409607E+03  0.91573265719E+02 0.  0.
          5    1    3    3  502    0  0.61231830862E+02  0.75247786000E+02 -0.41995194336E+02  0.10579525110E+03  0.41800000000E+01 0.  1.
         -5    1    3    3    0  502  0.22161142539E+02 -0.22617584395E+02  0.42912659794E+02  0.53494300006E+02  0.41800000000E+01 0.  1.
        -11    1    4    4    0    0 -0.15387041618E+01 -0.26251226552E+02 -0.54672084703E+02  0.60667382932E+02  0.00000000000E+00 0.  1.
         11    1    4    4    0    0 -0.81854269239E+02 -0.26378975054E+02 -0.38665827432E+01  0.86086713143E+02  0.00000000000E+00 0. -1.
</event>
<event>
 8    1  0.7130890E-009  0.7912052E+02  0.7561462E-02  0.1331566E+00
         -2   -1    0    0    0  501 -0.00000000000E+00  0.00000000000E+00  0.10551361673E+03  0.10551361673E+03  0.00000000000E+00 0.  1.
          2   -1    0    0  501    0  0.00000000000E+00 -0.00000000000E+00 -0.15100304151E+03  0.15100304151E+03  0.00000000000E+00 0. -1.
         25    2    1    2    0    0  0.18065854253E+02 -0.19291379012E+02  0.33358220611E+02  0.13212914474E+03  0.12508720004E+03 0.  0.
         23    2    1    2    0    0 -0.18065854253E+02  0.19291379012E+02 -0.78847645392E+02  0.12438751349E+03  0.92502810419E+02 0.  0.
          5    1    3    3  502    0  0.35649834603E+02  0.74865423892E+00 -0.40128125928E+02  0.53844313357E+02  0.41800000000E+01 0. -1.
         -5    1    3    3    0  502 -0.17583980350E+02 -0.20040033251E+02  0.73486346539E+02  0.78284831387E+02  0.41800000000E+01 0. -1.
        -11    1    4    4    0    0 -0.97659678851E+01 -0.37094846673E+02 -0.39956550584E+02  0.55388877159E+02  0.00000000000E+00 0.  1.
         11    1    4    4    0    0 -0.82998863681E+01  0.56386225685E+02 -0.38891094809E+02  0.68998636335E+02  0.00000000000E+00 0. -1.
</event>
<event>
 8    1  0.7130890E-009  0.1209771E+03  0.7561462E-02  0.1241494E+00
          1   -1    0    0  501    0  0.00000000000E+00  0.00000000000E+00  0.27462174715E+03  0.27462174715E+03  0.00000000000E+00 0. -1.
         -1   -1    0    0    0  501 -0.00000000000E+00 -0.00000000000E+00 -0.76537085756E+02  0.76537085756E+02  0.00000000000E+00 0.  1.
         25    2    1    2    0    0  0.11794346666E+02  0.92573697424E+02  0.78564187923E+02  0.17472356965E+03  0.12508796144E+03 0.  0.
         23    2    1    2    0    0 -0.11794346666E+02 -0.92573697424E+02  0.11952047347E+03  0.17643526326E+03  0.90195689888E+02 0.  0.
          5    1    3    3  502    0 -0.48445283048E+02  0.31130952035E+02 -0.57932478139E+00  0.57739844487E+02  0.41800000000E+01 0. -1.
         -5    1    3    3    0  502  0.60239629714E+02  0.61442745388E+02  0.79143512704E+02  0.11698372516E+03  0.41800000000E+01 0. -1.
        -11    1    4    4    0    0 -0.20162702425E+02 -0.39589835777E+02 -0.10821532887E+01  0.44441655254E+02  0.00000000000E+00 0.  1.
         11    1    4    4    0    0  0.83683557589E+01 -0.52983861646E+02  0.12060262675E+03  0.13199360800E+03  0.00000000000E+00 0. -1.
</event>
<event>
 8    1  0.7130890E-009  0.1525840E+03  0.7561462E-02  0.1197333E+00
         -2   -1    0    0    0  501 -0.00000000000E+00  0.00000000000E+00  0.50453056072E+02  0.50453056072E+02  0.00000000000E+00 0.  1.
          2   -1    0    0  501    0  0.00000000000E+00 -0.00000000000E+00 -0.60257808864E+03  0.60257808864E+03  0.00000000000E+00 0. -1.
         25    2    1    2    0    0 -0.75422436978E+01  0.12171897471E+03 -0.18131202652E+03  0.25178213949E+03  0.12509116901E+03 0.  0.
         23    2    1    2    0    0  0.75422436978E+01 -0.12171897471E+03 -0.37081300605E+03  0.40124900522E+03  0.92876716624E+02 0.  0.
          5    1    3    3  502    0  0.35809835236E+02 -0.76770242601E+01 -0.51961514013E+02  0.63708338070E+02  0.41800000000E+01 0. -1.
         -5    1    3    3    0  502 -0.43352078934E+02  0.12939599897E+03 -0.12935051250E+03  0.18807380142E+03  0.41800000000E+01 0. -1.
        -11    1    4    4    0    0 -0.18881043224E+02 -0.23930891298E+02 -0.20875127620E+02  0.36945260923E+02  0.00000000000E+00 0.  1.
         11    1    4    4    0    0  0.26423286922E+02 -0.97788083407E+02 -0.34993787843E+03  0.36430374430E+03  0.00000000000E+00 0. -1.
</event>
<event>
 8    1  0.7130890E-009  0.9660478E+02  0.7561462E-02  0.1287602E+00
         -1   -1    0    0    0  501 -0.00000000000E+00  0.00000000000E+00  0.26804174474E+02  0.26804174474E+02  0.00000000000E+00 0.  1.
          1   -1    0    0  501    0  0.00000000000E+00 -0.00000000000E+00 -0.54335229269E+03  0.54335229269E+03  0.00000000000E+00 0. -1.
         25    2    1    2    0    0 -0.30490563446E+02  0.33223167418E+02 -0.35907320539E+03  0.38290084861E+03  0.12508413059E+03 0.  0.
         23    2    1    2    0    0  0.30490563446E+02 -0.33223167418E+02 -0.15747491282E+03  0.18725561855E+03  0.90735137616E+02 0.  0.
          5    1    3    3  502    0 -0.31264186754E+01 -0.26709790868E+02 -0.12240373699E+02  0.29841021602E+02  0.41800000000E+01 0.  1.
         -5    1    3    3    0  502 -0.27364144770E+02  0.59932958286E+02 -0.34683283169E+03  0.35305982700E+03  0.41800000000E+01 0.  1.
        -11    1    4    4    0    0 -0.12048370279E+02  0.25069206048E+02 -0.31059315671E+02  0.41693037886E+02  0.00000000000E+00 0. -1.
         11    1    4    4    0    0  0.42538933725E+02 -0.58292373466E+02 -0.12641559715E+03  0.14556258067E+03  0.00000000000E+00 0.  1.
</event>
<event>
 8    1  0.7130890E-009  0.9217331E+02  0.7561462E-02  0.1297672E+00
          2   -1    0    0  501    0  0.00000000000E+00  0.00000000000E+00  0.21589955977E+03  0.21589955977E+03  0.00000000000E+00 0. -1.
         -2   -1    0    0    0  501 -0.00000000000E+00 -0.00000000000E+00 -0.12551969013E+03  0.12551969013E+03  0.00000000000E+00 0.  1.
         25    2    1    2    0    0 -0.44031866481E+02  0.39168146469E+02 -0.64251249577E+02  0.15247568371E+03  0.12509061550E+03 0.  0.
         23    2    1    2    0    0  0.44031866481E+02 -0.39168146469E+02  0.15463111922E+03  0.18894356619E+03  0.91191771607E+02 0.  0.
          5    1    3    3  502    0 -0.75428365751E+01 -0.25847412435E+02  0.24393103269E+02  0.36571559993E+02  0.41800000000E+01 0.  1.
         -5    1    3    3    0  502 -0.36489029906E+02  0.65015558904E+02 -0.88644352846E+02  0.11590412372E+03  0.41800000000E+01 0.  1.
        -11    1    4    4    0    0 -0.58036091024E+01 -0.31468945744E+02  0.12795497965E+03  0.13189561495E+03  0.00000000000E+00 0.  1.
         11    1    4    4    0    0  0.49835475584E+02 -0.76992007248E+01  0.26676139569E+02  0.57047951241E+02  0.00000000000E+00 0. -1.
</event>
<event>
 8    1  0.7130890E-009  0.8328521E+02  0.7561462E-02  0.1319979E+00
          3   -1    0    0  501    0  0.00000000000E+00  0.00000000000E+00  0.33883196625E+03  0.33883196625E+03  0.00000000000E+00 0. -1.
         -3   -1    0    0    0  501 -0.00000000000E+00 -0.00000000000E+00 -0.40375541710E+02  0.40375541710E+02  0.00000000000E+00 0.  1.
         25    2    1    2    0    0 -0.42631619454E+02 -0.40723507362E+01  0.17624771954E+03  0.22032717696E+03  0.12508703867E+03 0.  0.
         23    2    1    2    0    0  0.42631619454E+02  0.40723507362E+01  0.12220870500E+03  0.15888033101E+03  0.92054076418E+02 0.  0.
          5    1    3    3  502    0 -0.35537956918E+02 -0.44020869117E+02  0.22113281539E+02  0.60887214751E+02  0.41800000000E+01 0. -1.
         -5    1    3    3    0  502 -0.70936625356E+01  0.39948518381E+02  0.15413443800E+03  0.15943996220E+03  0.41800000000E+01 0. -1.
        -11    1    4    4    0    0  0.54816733067E+00 -0.20375662551E+02  0.10545667731E+03  0.10740846755E+03  0.00000000000E+00 0. -1.
         11    1    4    4    0    0  0.42083452123E+02  0.24448013287E+02  0.16752027693E+02  0.51471863461E+02  0.00000000000E+00 0.  1.
</event>
<event>
 8    1  0.7130890E-009  0.1134836E+03  0.7561462E-02  0.1254252E+00
          1   -1    0    0  501    0  0.00000000000E+00  0.00000000000E+00  0.49966203600E+02  0.49966203600E+02  0.00000000000E+00 0. -1.
         -1   -1    0    0    0  501 -0.00000000000E+00 -0.00000000000E+00 -0.30872826042E+03  0.30872826042E+03  0.00000000000E+00 0.  1.
         25    2    1    2    0    0  0.26033684202E+02 -0.32207244338E+02 -0.20995212307E+03  0.24787572511E+03  0.12508965510E+03 0.  0.
         23    2    1    2    0    0 -0.26033684202E+02  0.32207244338E+02 -0.48809933750E+02  0.11081873892E+03  0.90461726501E+02 0.  0.
          5    1    3    3  502    0 -0.47229253671E+02 -0.33638586164E+02 -0.85472543721E+02  0.10336916857E+03  0.41800000000E+01 0. -1.
         -5    1    3    3    0  502  0.73262937873E+02  0.14313418253E+01 -0.12447957935E+03  0.14450655653E+03  0.41800000000E+01 0. -1.
        -11    1    4    4    0    0  0.30926881364E+02  0.20737368589E+01 -0.31280642526E+02  0.44036927371E+02  0.00000000000E+00 0. -1.
         11    1    4    4    0    0 -0.56960565566E+02  0.30133507479E+02 -0.17529291224E+02  0.66781811546E+02  0.00000000000E+00 0.  1.
</event>
<event>
 8    1  0.7130890E-009  0.1239171E+03  0.7561462E-02  0.1236771E+00
          1   -1    0    0  501    0  0.00000000000E+00  0.00000000000E+00  0.11799419322E+03  0.11799419322E+03  0.00000000000E+00 0. -1.
         -1   -1    0    0    0  501 -0.00000000000E+00 -0.00000000000E+00 -0.15661455619E+03  0.15661455619E+03  0.00000000000E+00 0.  1.
         25    2    1    2    0    0 -0.36420563292E+02 -0.43806547038E+02  0.31506847454E+02  0.14101690597E+03  0.12509042865E+03 0.  0.
         23    2    1    2    0    0  0.36420563292E+02  0.43806547038E+02 -0.70127210421E+02  0.13359184344E+03  0.98404694998E+02 0.  0.
          5    1    3    3  502    0 -0.82747405809E+02 -0.35769119241E+02  0.20209510493E+02  0.92479510021E+02  0.41800000000E+01 0.  1.
         -5    1    3    3    0  502  0.46326842517E+02 -0.80374277970E+01  0.11297336961E+02  0.48537395950E+02  0.41800000000E+01 0.  1.
        -11    1    4    4    0    0  0.22011720141E+02  0.73852664706E+02 -0.33368056268E+02  0.83977134309E+02  0.00000000000E+00 0. -1.
         11    1    4    4    0    0  0.14408843151E+02 -0.30046117668E+02 -0.36759154153E+02  0.49614709128E+02  0.00000000000E+00 0.  1.
</event>
<event>
 8    1  0.7130890E-009  0.3002086E+03  0.7561462E-02  0.1085136E+00
          1   -1    0    0  501    0  0.00000000000E+00  0.00000000000E+00  0.64564039799E+02  0.64564039799E+02  0.00000000000E+00 0. -1.
         -1   -1    0    0    0  501 -0.00000000000E+00 -0.00000000000E+00 -0.15364970762E+04  0.15364970762E+04  0.00000000000E+00 0.  1.
         25    2    1    2    0    0  0.21867381693E+03 -0.19426465986E+03 -0.84324165675E+03  0.90125587821E+03  0.12509464437E+03 0.  0.
         23    2    1    2    0    0 -0.21867381693E+03  0.19426465986E+03 -0.62869137961E+03  0.69980523775E+03  0.94432641078E+02 0.  0.
          5    1    3    3  502    0  0.19579650519E+03 -0.15933667908E+03 -0.80778219145E+03  0.84631790124E+03  0.41800000000E+01 0. -1.
         -5    1    3    3    0  502  0.22877311739E+02 -0.34927980781E+02 -0.35459465306E+02  0.54937976971E+02  0.41800000000E+01 0. -1.
        -11    1    4    4    0    0 -0.21473446450E+03  0.15093075661E+03 -0.51399387826E+03  0.57713143254E+03  0.00000000000E+00 0.  1.
         11    1    4    4    0    0 -0.39393524303E+01  0.43333903250E+02 -0.11469750135E+03  0.12267380521E+03  0.00000000000E+00 0. -1.
</event>
<event>
 8    1  0.7130890E-009  0.1291731E+03  0.7561462E-02  0.1228688E+00
         -3   -1    0    0    0  501 -0.00000000000E+00  0.00000000000E+00  0.23526408228E+02  0.23526408228E+02  0.00000000000E+00 0.  1.
          3   -1    0    0  501    0  0.00000000000E+00 -0.00000000000E+00 -0.76550425826E+03  0.76550425826E+03  0.00000000000E+00 0. -1.
         25    2    1    2    0    0 -0.53790153212E+02 -0.54550535118E+02 -0.35657815579E+03  0.38556984380E+03  0.12508789630E+03 0.  0.
         23    2    1    2    0    0  0.53790153212E+02  0.54550535118E+02 -0.38539969425E+03  0.40346082269E+03  0.91534527116E+02 0.  0.
          5    1    3    3  502    0 -0.49104703929E+02 -0.90229655998E+02 -0.30973478241E+03  0.32635221863E+03  0.41800000000E+01 0.  1.
         -5    1    3    3    0  502 -0.46854492828E+01  0.35679120880E+02 -0.46843373373E+02  0.59217625170E+02  0.41800000000E+01 0.  1.
        -11    1    4    4    0    0 -0.12261506643E+02  0.51764941218E+02 -0.16571530282E+03  0.17404457841E+03  0.00000000000E+00 0.  1.
         11    1    4    4    0    0  0.66051659855E+02  0.27855938993E+01 -0.21968439142E+03  0.22941624428E+03  0.00000000000E+00 0. -1.
</event>
<event>
 8    1  0.7130890E-009  0.1299130E+03  0.7561462E-02  0.1227585E+00
          2   -1    0    0  501    0  0.00000000000E+00  0.00000000000E+00  0.20981903500E+03  0.20981903500E+03  0.00000000000E+00 0. -1.
         -2   -1    0    0    0  501 -0.00000000000E+00 -0.00000000000E+00 -0.11564512231E+03  0.11564512231E+03  0.00000000000E+00 0.  1.
         25    2    1    2    0    0 -0.99980592133E+01 -0.10946259966E+03  0.34627713938E+02  0.17008336371E+03  0.12508896885E+03 0.  0.
         23    2    1    2    0    0  0.99980592133E+01  0.10946259966E+03  0.59546198753E+02  0.15538079361E+03  0.92279029708E+02 0.  0.
          5    1    3    3  502    0  0.82721701228E+01 -0.11373725075E+03  0.67076201956E+02  0.13236797300E+03  0.41800000000E+01 0. -1.
         -5    1    3    3    0  502 -0.18270229336E+02  0.42746510955E+01 -0.32448488017E+02  0.37715390713E+02  0.41800000000E+01 0. -1.
        -11    1    4    4    0    0  0.33129145253E+02  0.91155425810E+02  0.97170716850E+01  0.97474475643E+02  0.00000000000E+00 0.  1.
         11    1    4    4    0    0 -0.23131086040E+02  0.18307173847E+02  0.49829127068E+02  0.57906317963E+02  0.00000000000E+00 0. -1.
</event>
<event>
 8    1  0.7130890E-009  0.1486864E+03  0.7561462E-02  0.1202096E+00
         -2   -1    0    0    0  501 -0.00000000000E+00  0.00000000000E+00  0.19338407362E+03  0.19338407362E+03  0.00000000000E+00 0.  1.
          2   -1    0    0  501    0  0.00000000000E+00 -0.00000000000E+00 -0.14336224968E+03  0.14336224968E+03  0.00000000000E+00 0. -1.
         25    2    1    2    0    0 -0.59595658090E+02  0.10644764209E+03 -0.57356994512E+01  0.17481876793E+03  0.12508381351E+03 0.  0.
         23    2    1    2    0    0  0.59595658090E+02 -0.10644764209E+03  0.55757523397E+02  0.16192755537E+03  0.90713222864E+02 0.  0.
          5    1    3    3  502    0  0.22478785021E+02  0.86928264968E+02  0.27465354081E+01  0.89926830719E+02  0.41800000000E+01 0.  1.
         -5    1    3    3    0  502 -0.82074443111E+02  0.19519377123E+02 -0.84822348593E+01  0.84891937211E+02  0.41800000000E+01 0.  1.
        -11    1    4    4    0    0  0.26790584567E+02 -0.63946182280E+02  0.77514902229E+02  0.10399716206E+03  0.00000000000E+00 0.  1.
         11    1    4    4    0    0  0.32805073522E+02 -0.42501459812E+02 -0.21757378831E+02  0.57930393306E+02  0.00000000000E+00 0. -1.
</event>
<event>
 8    1  0.7130890E-009  0.7625278E+02  0.7561462E-02  0.1340035E+00
         -1   -1    0    0    0  501 -0.00000000000E+00  0.00000000000E+00  0.86022788468E+02  0.86022788468E+02  0.00000000000E+00 0.  1.
          1   -1    0    0  501    0  0.00000000000E+00 -0.00000000000E+00 -0.19187899831E+03  0.19187899831E+03  0.00000000000E+00 0. -1.
         25    2    1    2    0    0 -0.13802261232E+02 -0.38844492048E+02  0.13516726481E+01  0.13171478307E+03  0.12509020778E+03 0.  0.
         23    2    1    2    0    0  0.13802261232E+02  0.38844492048E+02 -0.10720788249E+03  0.14618700371E+03  0.90430708323E+02 0.  0.
          5    1    3    3  502    0 -0.25195051600E+02  0.25358942379E+02  0.41572656115E+02  0.54987496035E+02  0.41800000000E+01 0.  1.
         -5    1    3    3    0  502  0.11392790368E+02 -0.64203434428E+02 -0.40220983467E+02  0.76727287035E+02  0.41800000000E+01 0.  1.
        -11    1    4    4    0    0 -0.31530805746E+01  0.33133480019E+02 -0.11978128767E+03  0.12431945259E+03  0.00000000000E+00 0. -1.
         11    1    4    4    0    0  0.16955341807E+02  0.57110120296E+01  0.12573405182E+02  0.21867551121E+02  0.00000000000E+00 0.  1.
</event>
<event>
 8    1  0.7130890E-009  0.1281365E+03  0.7561462E-02  0.1230247E+00
         -2   -1    0    0    0  501 -0.00000000000E+00  0.00000000000E+00  0.32109480798E+02  0.32109480798E+02  0.00000000000E+00 0. -1.
          2   -1    0    0  501    0  0.00000000000E+00 -0.00000000000E+00 -0.71479299165E+03  0.71479299165E+03  0.00000000000E+00 0.  1.
         25    2    1    2    0    0 -0.71261202157E+02 -0.52704132230E+02 -0.52868688553E+03  0.55046643343E+03  0.12509031504E+03 0.  0.
         23    2    1    2    0    0  0.71261202157E+02  0.52704132230E+02 -0.15399662532E+03  0.19643603901E+03  0.83763191956E+02 0.  0.
          5    1    3    3  502    0 -0.32291755555E+02 -0.80157008450E+02 -0.45101005487E+03  0.45923354133E+03  0.41800000000E+01 0. -1.
         -5    1    3    3    0  502 -0.38969446601E+02  0.27452876220E+02 -0.77676830653E+02  0.91232892103E+02  0.41800000000E+01 0. -1.
        -11    1    4    4    0    0  0.25046924811E+02  0.68601981209E+02 -0.89550964416E+02  0.11555498906E+03  0.00000000000E+00 0.  1.
         11    1    4    4    0    0  0.46214277346E+02 -0.15897848979E+02 -0.64445660904E+02  0.80881049956E+02  0.00000000000E+00 0. -1.
</event>
<event>
 8    1  0.7130890E-009  0.1112809E+03  0.7561462E-02  0.1258216E+00
          2   -1    0    0  501    0  0.00000000000E+00  0.00000000000E+00  0.24091059609E+03  0.24091059609E+03  0.00000000000E+00 0. -1.
         -2   -1    0    0    0  501 -0.00000000000E+00 -0.00000000000E+00 -0.70505812395E+02  0.70505812395E+02  0.00000000000E+00 0.  1.
         25    2    1    2    0    0 -0.59281250008E+02 -0.41032037435E+02  0.79438787871E+02  0.16479078422E+03  0.12509031476E+03 0.  0.
         23    2    1    2    0    0  0.59281250008E+02  0.41032037435E+02  0.90965995828E+02  0.14662562427E+03  0.89589991618E+02 0.  0.
          5    1    3    3  502    0 -0.77997664758E+02  0.19779172091E+02  0.46298300185E+02  0.92929308382E+02  0.41800000000E+01 0.  1.
         -5    1    3    3    0  502  0.18716414750E+02 -0.60811209526E+02  0.33140487686E+02  0.71861475834E+02  0.41800000000E+01 0.  1.
        -11    1    4    4    0    0  0.21012340178E+02  0.32998022431E+02 -0.82511839840E+01  0.39980869942E+02  0.00000000000E+00 0.  1.
         11    1    4    4    0    0  0.38268909829E+02  0.80340150033E+01  0.99217179812E+02  0.10664475433E+03  0.00000000000E+00 0. -1.
</event>
<event>
 8    1  0.7130890E-009  0.1561117E+03  0.7561462E-02  0.1193158E+00
         -2   -1    0    0    0  501 -0.00000000000E+00  0.00000000000E+00  0.19694046311E+03  0.19694046311E+03  0.00000000000E+00 0.  1.
          2   -1    0    0  501    0  0.00000000000E+00 -0.00000000000E+00 -0.18572485980E+03  0.18572485980E+03  0.00000000000E+00 0. -1.
         25    2    1    2    0    0  0.10733245336E+02 -0.13876781040E+03 -0.65761501561E+02  0.19835139668E+03  0.12508794394E+03 0.  0.
         23    2    1    2    0    0 -0.10733245336E+02  0.13876781040E+03  0.76977104874E+02  0.18431392623E+03  0.93136678963E+02 0.  0.
          5    1    3    3  502    0  0.46345178087E+02 -0.74737034863E+02 -0.85114247954E+02  0.12245573697E+03  0.41800000000E+01 0.  1.
         -5    1    3    3    0  502 -0.35611932751E+02 -0.64030775539E+02  0.19352746393E+02  0.75895659713E+02  0.41800000000E+01 0.  1.
        -11    1    4    4    0    0 -0.29852600800E+02  0.38474814263E+02  0.65430833003E+02  0.81563981110E+02  0.00000000000E+00 0.  1.
         11    1    4    4    0    0  0.19119355465E+02  0.10029299614E+03  0.11546271871E+02  0.10274994512E+03  0.00000000000E+00 0. -1.
</event>
<event>
 8    1  0.7130890E-009  0.1035957E+03  0.7561462E-02  0.1272911E+00
         -2   -1    0    0    0  501 -0.00000000000E+00  0.00000000000E+00  0.34353652454E+02  0.34353652454E+02  0.00000000000E+00 0.  1.
          2   -1    0    0  501    0  0.00000000000E+00 -0.00000000000E+00 -0.43991999995E+03  0.43991999995E+03  0.00000000000E+00 0. -1.
         25    2    1    2    0    0  0.29911833440E+02  0.14647670421E+02 -0.13474098229E+03  0.18684428717E+03  0.12508550401E+03 0.  0.
         23    2    1    2    0    0 -0.29911833440E+02 -0.14647670421E+02 -0.27082536521E+03  0.28742936523E+03  0.90332660366E+02 0.  0.
          5    1    3    3  502    0  0.72846959605E+02 -0.16236253595E+02 -0.93127417695E+02  0.11941726752E+03  0.41800000000E+01 0. -1.
         -5    1    3    3    0  502 -0.42935126165E+02  0.30883924016E+02 -0.41613564593E+02  0.67427019655E+02  0.41800000000E+01 0. -1.
        -11    1    4    4    0    0  0.22134632444E+02  0.67078641701E+01 -0.20647255669E+02  0.31003976548E+02  0.00000000000E+00 0.  1.
         11    1    4    4    0    0 -0.52046465884E+02 -0.21355534591E+02 -0.25017810954E+03  0.25642538868E+03  0.00000000000E+00 0. -1.
</event>
<event>
 8    1  0.7130890E-009  0.1141455E+03  0.7561462E-02  0.1253080E+00
         -1   -1    0    0    0  501 -0.00000000000E+00  0.00000000000E+00  0.48009392722E+02  0.48009392722E+02  0.00000000000E+00 0.  1.
          1   -1    0    0  501    0  0.00000000000E+00 -0.00000000000E+00 -0.38646568565E+03  0.38646568565E+03  0.00000000000E+00 0. -1.
         25    2    1    2    0    0  0.69705701595E+02 -0.14239126095E+02 -0.25316720937E+03  0.29121302919E+03  0.12509898051E+03 0.  0.
         23    2    1    2    0    0 -0.69705701595E+02  0.14239126095E+02 -0.85289083559E+02  0.14326204918E+03  0.90488393804E+02 0.  0.
          5    1    3    3  502    0  0.18679981291E+02 -0.67063597859E+02 -0.13661914735E+03  0.15339078095E+03  0.41800000000E+01 0. -1.
         -5    1    3    3    0  502  0.51025720304E+02  0.52824471764E+02 -0.11654806202E+03  0.13782224824E+03  0.41800000000E+01 0. -1.
        -11    1    4    4    0    0 -0.50366881725E+00  0.15759186639E+02 -0.70811261585E+02  0.72545436887E+02  0.00000000000E+00 0. -1.
         11    1    4    4    0    0 -0.69202032778E+02 -0.15200605441E+01 -0.14477821973E+02  0.70716612290E+02  0.00000000000E+00 0.  1.
</event>
<event>
 8    1  0.7130890E-009  0.2093373E+03  0.7561462E-02  0.1142092E+00
         -2   -1    0    0    0  501 -0.00000000000E+00  0.00000000000E+00  0.37480173154E+03  0.37480173154E+03  0.00000000000E+00 0.  1.
          2   -1    0    0  501    0  0.00000000000E+00 -0.00000000000E+00 -0.19611087827E+03  0.19611087827E+03  0.00000000000E+00 0. -1.
         25    2    1    2    0    0 -0.16396982317E+03 -0.97154342889E+02  0.25820741003E+03  0.34444889039E+03  0.12509557244E+03 0.  0.
         23    2    1    2    0    0  0.16396982317E+03  0.97154342889E+02 -0.79516556751E+02  0.22646371942E+03  0.92940110621E+02 0.  0.
          5    1    3    3  502    0  0.11298523666E+02 -0.38811829090E+02  0.68375103436E+02  0.79540190371E+02  0.41800000000E+01 0. -1.
         -5    1    3    3    0  502 -0.17526834684E+03 -0.58342513799E+02  0.18983230660E+03  0.26490870002E+03  0.41800000000E+01 0. -1.
        -11    1    4    4    0    0  0.14285707920E+03  0.70628628208E+02 -0.23640247106E+02  0.16110682631E+03  0.00000000000E+00 0.  1.
         11    1    4    4    0    0  0.21112743970E+02  0.26525714681E+02 -0.55876309645E+02  0.65356893108E+02  0.00000000000E+00 0. -1.
</event>
<event>
 8    1  0.7130890E-009  0.1352311E+03  0.7561462E-02  0.1219894E+00
          1   -1    0    0  501    0  0.00000000000E+00  0.00000000000E+00  0.26938308054E+03  0.26938308054E+03  0.00000000000E+00 0. -1.
         -1   -1    0    0    0  501 -0.00000000000E+00 -0.00000000000E+00 -0.10471920951E+03  0.10471920951E+03  0.00000000000E+00 0.  1.
         25    2    1    2    0    0 -0.11434293093E+03 -0.57791095821E+02  0.88864600036E+02  0.19989538037E+03  0.12508848605E+03 0.  0.
         23    2    1    2    0    0  0.11434293093E+03  0.57791095821E+02  0.75799271001E+02  0.17420690968E+03  0.90489785534E+02 0.  0.
          5    1    3    3  502    0 -0.52713850413E+02  0.63446400177E+01  0.96813988097E+02  0.11049626769E+03  0.41800000000E+01 0. -1.
         -5    1    3    3    0  502 -0.61629080517E+02 -0.64135735839E+02 -0.79493880611E+01  0.89399112678E+02  0.41800000000E+01 0. -1.
        -11    1    4    4    0    0  0.30703895633E+02  0.17141323908E+02 -0.20198326563E+02  0.40552763017E+02  0.00000000000E+00 0.  1.
         11    1    4    4    0    0  0.83639035298E+02  0.40649771914E+02  0.95997597565E+02  0.13365414666E+03  0.00000000000E+00 0. -1.
</event>
<event>
 8    1  0.7130890E-009  0.8682428E+02  0.7561462E-02  0.1310730E+00
          1   -1    0    0  501    0  0.00000000000E+00  0.00000000000E+00  0.31460211047E+03  0.31460211047E+03  0.00000000000E+00 0. -1.
         -1   -1    0    0    0  501 -0.00000000000E+00 -0.00000000000E+00 -0.48118621332E+02  0.48118621332E+02  0.00000000000E+00 0.  1.
         25    2    1    2    0    0 -0.57153548202E+02 -0.12699896483E+02  0.13193084585E+03  0.19099980908E+03  0.12508942217E+03 0.  0.
         23    2    1    2    0    0  0.57153548202E+02  0.12699896483E+02  0.13455264329E+03  0.17172092273E+03  0.89195549455E+02 0.  0.
          5    1    3    3  502    0 -0.17089760127E+02  0.16571589929E+02  0.13866264115E+03  0.14075325198E+03  0.41800000000E+01 0.  1.
         -5    1    3    3    0  502 -0.40063788075E+02 -0.29271486412E+02 -0.67317953012E+01  0.50246557092E+02  0.41800000000E+01 0.  1.
        -11    1    4    4    0    0  0.30066191633E+02  0.47114046098E+02  0.10480964499E+03  0.11878034729E+03  0.00000000000E+00 0.  1.
         11    1    4    4    0    0  0.27087356568E+02 -0.34414149615E+02  0.29742998298E+02  0.52940575435E+02  0.00000000000E+00 0. -1.
</event>
<event>
 8    1  0.7130890E-009  0.2907621E+03  0.7561462E-02  0.1089952E+00
          2   -1    0    0  501    0  0.00000000000E+00  0.00000000000E+00  0.33729774848E+03  0.33729774848E+03  0.00000000000E+00 0. -1.
         -2   -1    0    0    0  501 -0.00000000000E+00 -0.00000000000E+00 -0.30370484259E+03  0.30370484259E+03  0.00000000000E+00 0.  1.
         25    2    1    2    0    0  0.13967486809E+03  0.24109155447E+03  0.13124756718E+03  0.33242733702E+03  0.12509118312E+03 0.  0.
         23    2    1    2    0    0 -0.13967486809E+03 -0.24109155447E+03 -0.97654661287E+02  0.30857525406E+03  0.89710914264E+02 0.  0.
          5    1    3    3  502    0  0.78983860962E+02  0.21349324756E+03  0.13643532734E+03  0.26542397781E+03  0.41800000000E+01 0. -1.
         -5    1    3    3    0  502  0.60691007126E+02  0.27598306904E+02 -0.51877601633E+01  0.67003359210E+02  0.41800000000E+01 0. -1.
        -11    1    4    4    0    0 -0.86683752137E+00 -0.54407145313E+02 -0.43641234045E+02  0.69752750321E+02  0.00000000000E+00 0.  1.
         11    1    4    4    0    0 -0.13880803057E+03 -0.18668440915E+03 -0.54013427242E+02  0.23882250374E+03  0.00000000000E+00 0. -1.
</event>
<event>
 8    1  0.7130890E-009  0.1576891E+03  0.7561462E-02  0.1191331E+00
          1   -1    0    0  501    0  0.00000000000E+00  0.00000000000E+00  0.92893812611E+03  0.92893812611E+03  0.00000000000E+00 0. -1.
         -1   -1    0    0    0  501 -0.00000000000E+00 -0.00000000000E+00 -0.56198679989E+02  0.56198679989E+02  0.00000000000E+00 0.  1.
         25    2    1    2    0    0 -0.13148507579E+03 -0.69291912477E+02  0.74098134686E+03  0.76602116629E+03  0.12508147951E+03 0.  0.
         23    2    1    2    0    0  0.13148507579E+03  0.69291912477E+02  0.13175809926E+03  0.21911563981E+03  0.92529847070E+02 0.  0.
          5    1    3    3  502    0 -0.39586017194E+02  0.12158402661E+02  0.42433529799E+03  0.42637166537E+03  0.41800000000E+01 0. -1.
         -5    1    3    3    0  502 -0.91899058593E+02 -0.81450315138E+02  0.31664604887E+03  0.33964950092E+03  0.41800000000E+01 0. -1.
        -11    1    4    4    0    0  0.34319131134E+02  0.31646025817E+02  0.99706560346E+02  0.11009392303E+03  0.00000000000E+00 0. -1.
         11    1    4    4    0    0  0.97165944654E+02  0.37645886660E+02  0.32051538911E+02  0.10902171678E+03  0.00000000000E+00 0.  1.
</event>
<event>
 8    1  0.7130890E-009  0.8412755E+02  0.7561462E-02  0.1317730E+00
         -1   -1    0    0    0  501 -0.00000000000E+00  0.00000000000E+00  0.12457267276E+03  0.12457267276E+03  0.00000000000E+00 0.  1.
          1   -1    0    0  501    0  0.00000000000E+00 -0.00000000000E+00 -0.11917034138E+03  0.11917034138E+03  0.00000000000E+00 0. -1.
         25    2    1    2    0    0 -0.22834121854E+01  0.52832134841E+02  0.18545378576E+02  0.13706957420E+03  0.12509072173E+03 0.  0.
         23    2    1    2    0    0  0.22834121854E+01 -0.52832134841E+02 -0.13143047196E+02  0.10667343994E+03  0.91706241092E+02 0.  0.
          5    1    3    3  502    0 -0.17563474046E+02  0.25190788430E+02 -0.51507299820E+02  0.60112609135E+02  0.41800000000E+01 0. -1.
         -5    1    3    3    0  502  0.15280061861E+02  0.27641346411E+02  0.70052678396E+02  0.76956965067E+02  0.41800000000E+01 0. -1.
        -11    1    4    4    0    0  0.39113992036E+02 -0.56142963812E+02 -0.13241867493E+02  0.69694216498E+02  0.00000000000E+00 0. -1.
         11    1    4    4    0    0 -0.36830579851E+02  0.33108289711E+01  0.98820296511E-01  0.36979223438E+02  0.00000000000E+00 0.  1.
</event>
<event>
 8    1  0.7130890E-009  0.1215201E+03  0.7561462E-02  0.1240610E+00
         -2   -1    0    0    0  501 -0.00000000000E+00  0.00000000000E+00  0.95224561321E+02  0.95224561321E+02  0.00000000000E+00 0.  1.
          2   -1    0    0  501    0  0.00000000000E+00 -0.00000000000E+00 -0.20373787802E+03  0.20373787802E+03  0.00000000000E+00 0. -1.
         25    2    1    2    0    0 -0.12552846424E+02 -0.79362779389E+02 -0.90337600627E+02  0.17395635308E+03  0.12507560107E+03 0.  0.
         23    2    1    2    0    0  0.12552846424E+02  0.79362779389E+02 -0.18175716076E+02  0.12500608627E+03  0.94022019990E+02 0.  0.
          5    1    3    3  502    0 -0.93335227668E+01 -0.10398442526E+03 -0.30204974329E+02  0.10876437017E+03  0.41800000000E+01 0.  1.
         -5    1    3    3    0  502 -0.32193236571E+01  0.24621645872E+02 -0.60132626297E+02  0.65191982910E+02  0.41800000000E+01 0.  1.
        -11    1    4    4    0    0 -0.33531381934E+02  0.43807424546E+02  0.16086193657E+02  0.57464855748E+02  0.00000000000E+00 0.  1.
         11    1    4    4    0    0  0.46084228358E+02  0.35555354843E+02 -0.34261909733E+02  0.67541230518E+02  0.00000000000E+00 0. -1.
</event>
<event>
 8    1  0.7130890E-009  0.1322366E+03  0.7561462E-02  0.1224174E+00
         -1   -1    0    0    0  501 -0.00000000000E+00  0.00000000000E+00  0.49091262894E+02  0.49091262894E+02  0.00000000000E+00 0.  1.
          1   -1    0    0  501    0  0.00000000000E+00 -0.00000000000E+00 -0.49107735302E+03  0.49107735302E+03  0.00000000000E+00 0. -1.
         25    2    1    2    0    0 -0.49747421029E+02  0.84225080773E+02 -0.14377511724E+03  0.21421318175E+03  0.12508929916E+03 0.  0.
         23    2    1    2    0    0  0.49747421029E+02 -0.84225080773E+02 -0.29821097289E+03  0.32595543417E+03  0.88025510998E+02 0.  0.
          5    1    3    3  502    0 -0.76215441885E+02  0.59860971647E+02 -0.14882416843E+03  0.17764637631E+03  0.41800000000E+01 0. -1.
         -5    1    3    3    0  502  0.26468020855E+02  0.24364109127E+02  0.50490511890E+01  0.36566805431E+02  0.41800000000E+01 0. -1.
        -11    1    4    4    0    0 -0.24380027141E+02 -0.99959065189E+01 -0.50921408952E+02  0.57334926181E+02  0.00000000000E+00 0.  1.
         11    1    4    4    0    0  0.74127448170E+02 -0.74229174255E+02 -0.24728956393E+03  0.26862050799E+03  0.00000000000E+00 0. -1.
</event>
<event>
 8    1  0.7130890E-009  0.8744114E+02  0.7561462E-02  0.1309169E+00
          1   -1    0    0  501    0  0.00000000000E+00  0.00000000000E+00  0.24683029758E+03  0.24683029758E+03  0.00000000000E+00 0. -1.
         -1   -1    0    0    0  501 -0.00000000000E+00 -0.00000000000E+00 -0.67958399022E+02  0.67958399022E+02  0.00000000000E+00 0.  1.
         25    2    1    2    0    0  0.41113556363E+02 -0.60645331130E+02  0.78991128913E+02  0.16508909794E+03  0.12508649450E+03 0.  0.
         23    2    1    2    0    0 -0.41113556363E+02  0.60645331130E+02  0.99880769642E+02  0.14969959866E+03  0.84057248283E+02 0.  0.
          5    1    3    3  502    0  0.32456003851E+02 -0.26921584118E+01  0.97992595714E+02  0.10334728404E+03  0.41800000000E+01 0. -1.
         -5    1    3    3    0  502  0.86575525117E+01 -0.57953172718E+02 -0.19001466802E+02  0.61741813905E+02  0.41800000000E+01 0. -1.
        -11    1    4    4    0    0 -0.48916537621E+02  0.48632612305E+02  0.11159695518E+03  0.13119389863E+03  0.00000000000E+00 0. -1.
         11    1    4    4    0    0  0.78029812578E+01  0.12012718826E+02 -0.11716185535E+02  0.18505700029E+02  0.00000000000E+00 0.  1.
</event>
<event>
 8    1  0.7130890E-009  0.1287192E+03  0.7561462E-02  0.1229369E+00
          2   -1    0    0  501    0  0.00000000000E+00  0.00000000000E+00  0.41389090055E+03  0.41389090055E+03  0.00000000000E+00 0. -1.
         -2   -1    0    0    0  501 -0.00000000000E+00 -0.00000000000E+00 -0.48650282276E+02  0.48650282276E+02  0.00000000000E+00 0.  1.
         25    2    1    2    0    0  0.19668884644E+02 -0.86892596242E+02  0.16726720335E+03  0.22706661184E+03  0.12507493991E+03 0.  0.
         23    2    1    2    0    0 -0.19668884644E+02  0.86892596242E+02  0.19797341492E+03  0.23547457098E+03  0.91200944392E+02 0.  0.
          5    1    3    3  502    0  0.68105546743E+02 -0.63381806228E+02  0.72618592471E+02  0.11809551740E+03  0.41800000000E+01 0.  1.
         -5    1    3    3    0  502 -0.48436662100E+02 -0.23510790014E+02  0.94648610879E+02  0.10897109444E+03  0.41800000000E+01 0.  1.
        -11    1    4    4    0    0  0.15230731919E+02 -0.14694164409E+01  0.91529268669E+02  0.92799468762E+02  0.00000000000E+00 0. -1.
         11    1    4    4    0    0 -0.34899616563E+02  0.88362012683E+02  0.10644414625E+03  0.14267510222E+03  0.00000000000E+00 0.  1.
</event>
<event>
 8    1  0.7130890E-009  0.1160731E+03  0.7561462E-02  0.1249719E+00
          2   -1    0    0  501    0  0.00000000000E+00  0.00000000000E+00  0.32150968745E+03  0.32150968745E+03  0.00000000000E+00 0. -1.
         -2   -1    0    0    0  501 -0.00000000000E+00 -0.00000000000E+00 -0.62786964124E+02  0.62786964124E+02  0.00000000000E+00 0.  1.
         25    2    1    2    0    0  0.85569312869E+02 -0.26068970238E+02  0.12114732288E+03  0.19577152479E+03  0.12509243607E+03 0.  0.
         23    2    1    2    0    0 -0.85569312869E+02  0.26068970238E+02  0.13757540045E+03  0.18852512679E+03  0.92806433549E+02 0.  0.
          5    1    3    3  502    0  0.10773583730E+03 -0.31694777959E+02  0.12913750882E+03  0.17118860410E+03  0.41800000000E+01 0. -1.
         -5    1    3    3    0  502 -0.22166524435E+02  0.56258077208E+01 -0.79901859424E+01  0.24582920685E+02  0.41800000000E+01 0. -1.
        -11    1    4    4    0    0 -0.74725809605E+02  0.76119535586E+01  0.33453438661E+02  0.82225428040E+02  0.00000000000E+00 0.  1.
         11    1    4    4    0    0 -0.10843503263E+02  0.18457016679E+02  0.10412196179E+03  0.10629969875E+03  0.00000000000E+00 0. -1.
</event>
<event>
 8    1  0.7130890E-009  0.1165844E+03  0.7561462E-02  0.1248841E+00
         -2   -1    0    0    0  501 -0.00000000000E+00  0.00000000000E+00  0.16461007070E+03  0.16461007070E+03  0.00000000000E+00 0.  1.
          2   -1    0    0  501    0  0.00000000000E+00 -0.00000000000E+00 -0.32182677977E+03  0.32182677977E+03  0.00000000000E+00 0. -1.
         25    2    1    2    0    0  0.88784736621E+02  0.36305246422E+02  0.10752729694E+03  0.19081392304E+03  0.12508810201E+03 0.  0.
         23    2    1    2    0    0 -0.88784736621E+02 -0.36305246422E+02 -0.26474400601E+03  0.29562292743E+03  0.90015143912E+02 0.  0.
          5    1    3    3  502    0  0.10918220187E+03  0.30240961616E+02  0.12057693539E+03  0.16550389335E+03  0.41800000000E+01 0.  1.
         -5    1    3    3    0  502 -0.20397465252E+02  0.60642848052E+01 -0.13049638456E+02  0.25310029687E+02  0.41800000000E+01 0.  1.
        -11    1    4    4    0    0 -0.46640017985E+02 -0.30109511096E+02 -0.44084843159E+02  0.70889684246E+02  0.00000000000E+00 0.  1.
         11    1    4    4    0    0 -0.42144718636E+02 -0.61957353253E+01 -0.22065916285E+03  0.22473324319E+03  0.00000000000E+00 0. -1.
</event>
<event>
 8    1  0.7130890E-009  0.2050497E+03  0.7561462E-02  0.1145547E+00
          1   -1    0    0  501    0  0.00000000000E+00  0.00000000000E+00  0.11568620366E+04  0.11568620366E+04  0.00000000000E+00 0. -1.
         -1   -1    0    0    0  501 -0.00000000000E+00 -0.00000000000E+00 -0.37897272219E+02  0.37897272219E+02  0.00000000000E+00 0.  1.
         25    2    1    2    0    0  0.14525158138E+03  0.10395305964E+03  0.53323369743E+03  0.57609886980E+03  0.12508985258E+03 0.  0.
         23    2    1    2    0    0 -0.14525158138E+03 -0.10395305964E+03  0.58573106693E+03  0.61866043899E+03  0.88065858884E+02 0.  0.
          5    1    3    3  502    0  0.76335138359E+02 -0.11599037082E+02  0.26399268413E+03  0.27508398842E+03  0.41800000000E+01 0. -1.
         -5    1    3    3    0  502  0.68916443020E+02  0.11555209672E+03  0.26924101330E+03  0.30101488139E+03  0.41800000000E+01 0. -1.
        -11    1    4    4    0    0 -0.11387844583E+03 -0.11782618171E+03  0.45917459121E+03  0.48753729574E+03  0.00000000000E+00 0. -1.
         11    1    4    4    0    0 -0.31373135548E+02  0.13873122065E+02  0.12655647572E+03  0.13112314325E+03  0.00000000000E+00 0.  1.
</event>
<event>
 8    1  0.7130890E-009  0.1131265E+03  0.7561462E-02  0.1254887E+00
          1   -1    0    0  501    0  0.00000000000E+00  0.00000000000E+00  0.47863504141E+02  0.47863504141E+02  0.00000000000E+00 0.  1.
         -1   -1    0    0    0  501 -0.00000000000E+00 -0.00000000000E+00 -0.39328461824E+03  0.39328461824E+03  0.00000000000E+00 0. -1.
         25    2    1    2    0    0  0.66644994800E+02 -0.42979815125E+02 -0.14775219787E+03  0.20920618974E+03  0.12509075908E+03 0.  0.
         23    2    1    2    0    0 -0.66644994800E+02  0.42979815125E+02 -0.19766891623E+03  0.23194193264E+03  0.91843561757E+02 0.  0.
          5    1    3    3  502    0  0.86850089041E+02 -0.67509067905E+02 -0.13622531830E+03  0.17514343254E+03  0.41800000000E+01 0.  1.
         -5    1    3    3    0  502 -0.20205094241E+02  0.24529252780E+02 -0.11526879574E+02  0.34062757198E+02  0.41800000000E+01 0.  1.
        -11    1    4    4    0    0 -0.11628064561E+02 -0.34492609157E+01  0.76690968990E+01  0.14350063886E+02  0.00000000000E+00 0.  1.
         11    1    4    4    0    0 -0.55016930239E+02  0.46429076041E+02 -0.20533801312E+03  0.21759186876E+03  0.00000000000E+00 0. -1.
</event>
<event>
 8    1  0.7130890E-009  0.1053928E+03  0.7561462E-02  0.1269348E+00
         -1   -1    0    0    0  501 -0.00000000000E+00  0.00000000000E+00  0.62586047902E+02  0.62586047902E+02  0.00000000000E+00 0.  1.
          1   -1    0    0  501    0  0.00000000000E+00 -0.00000000000E+00 -0.26347048418E+03  0.26347048418E+03  0.00000000000E+00 0. -1.
         25    2    1    2    0    0 -0.35381302788E+02 -0.25045545047E+02 -0.19133491032E+03  0.23266961922E+03  0.12508792062E+03 0.  0.
         23    2    1    2    0    0  0.35381302788E+02  0.25045545047E+02 -0.95495259502E+01  0.93386912861E+02  0.82163289455E+02 0.  0.
          5    1    3    3  502    0 -0.78397612364E+02  0.60429002580E+01 -0.12297601420E+03  0.14602491136E+03  0.41800000000E+01 0.  1.
         -5    1    3    3    0  502  0.43016309576E+02 -0.31088445305E+02 -0.68358896120E+02  0.86644707858E+02  0.41800000000E+01 0.  1.
        -11    1    4    4    0    0 -0.16356658691E+02  0.21406053762E+02 -0.27505546583E+02  0.38500837835E+02  0.00000000000E+00 0. -1.
         11    1    4    4    0    0  0.51737961479E+02  0.36394912849E+01  0.17956020633E+02  0.54886075026E+02  0.00000000000E+00 0.  1.
</event>
<event>
 8    1  0.7130890E-009  0.8905238E+02  0.7561462E-02  0.1305163E+00
          1   -1    0    0  501    0  0.00000000000E+00  0.00000000000E+00  0.37306573821E+03  0.37306573821E+03  0.00000000000E+00 0. -1.
         -1   -1    0    0    0  501 -0.00000000000E+00 -0.00000000000E+00 -0.40143956711E+02  0.40143956711E+02  0.00000000000E+00 0.  1.
         25    2    1    2    0    0 -0.59656939628E+02 -0.27507922544E+01  0.16516766764E+03  0.21562393076E+03  0.12508718472E+03 0.  0.
         23    2    1    2    0    0  0.59656939628E+02  0.27507922544E+01  0.16775411386E+03  0.19758576416E+03  0.85628115578E+02 0.  0.
          5    1    3    3  502    0  0.10637720257E+02 -0.28377204989E+02 -0.37584990324E+01  0.30822484816E+02  0.41800000000E+01 0. -1.
         -5    1    3    3    0  502 -0.70294659885E+02  0.25626412735E+02  0.16892616667E+03  0.18480144594E+03  0.41800000000E+01 0. -1.
        -11    1    4    4    0    0  0.35790193674E+02  0.21915114459E+02  0.16081452650E+03  0.16620024710E+03  0.00000000000E+00 0.  1.
         11    1    4    4    0    0  0.23866745954E+02 -0.19164322205E+02  0.69395873630E+01  0.31385517054E+02  0.00000000000E+00 0. -1.
</event>
<event>
 8    1  0.7130890E-009  0.9743834E+02  0.7561462E-02  0.1285777E+00
          1   -1    0    0  501    0  0.00000000000E+00  0.00000000000E+00  0.39871411659E+03  0.39871411659E+03  0.00000000000E+00 0. -1.
         -1   -1    0    0    0  501 -0.00000000000E+00 -0.00000000000E+00 -0.30047678948E+02  0.30047678948E+02  0.00000000000E+00 0.  1.
         25    2    1    2    0    0 -0.11746909265E+02  0.12396145030E+02  0.21057295139E+03  0.24551863638E+03  0.12508708432E+03 0.  0.
         23    2    1    2    0    0  0.11746909265E+02 -0.12396145030E+02  0.15809348625E+03  0.18324315916E+03  0.91065090422E+02 0.  0.
          5    1    3    3  502    0  0.55668726297E+02  0.12129343370E+02  0.11596480098E+03  0.12927271764E+03  0.41800000000E+01 0.  1.
         -5    1    3    3    0  502 -0.67415635562E+02  0.26680165983E+00  0.94608150405E+02  0.11624591874E+03  0.41800000000E+01 0.  1.
        -11    1    4    4    0    0 -0.28604526813E+02 -0.29140487504E+01  0.13006636093E+03  0.13320648963E+03  0.00000000000E+00 0. -1.
         11    1    4    4    0    0  0.40351436078E+02 -0.94820962792E+01  0.28027125322E+02  0.50036669525E+02  0.00000000000E+00 0.  1.
</event>
<event>
 8    1  0.7130890E-009  0.1183974E+03  0.7561462E-02  0.1245765E+00
         -2   -1    0    0    0  501 -0.00000000000E+00  0.00000000000E+00  0.95878102793E+02  0.95878102793E+02  0.00000000000E+00 0. -1.
          2   -1    0    0  501    0  0.00000000000E+00 -0.00000000000E+00 -0.23590352134E+03  0.23590352134E+03  0.00000000000E+00 0.  1.
         25    2    1    2    0    0  0.99388606631E+00 -0.72456776292E+02 -0.14870179343E+03  0.20739168953E+03  0.12509243493E+03 0.  0.
         23    2    1    2    0    0 -0.99388606631E+00  0.72456776292E+02  0.86763748802E+01  0.12438993460E+03  0.10073035347E+03 0.  0.
          5    1    3    3  502    0  0.48451124797E+02  0.88113765054E+01 -0.40248051625E+02  0.63737978550E+02  0.41800000000E+01 0. -1.
         -5    1    3    3    0  502 -0.47457238731E+02 -0.81268152797E+02 -0.10845374180E+03  0.14365371098E+03  0.41800000000E+01 0. -1.
        -11    1    4    4    0    0 -0.14500281263E+02 -0.43853292260E+01 -0.32728076658E+02  0.36064057881E+02  0.00000000000E+00 0.  1.
         11    1    4    4    0    0  0.13506395197E+02  0.76842105518E+02  0.41404451538E+02  0.88325876723E+02  0.00000000000E+00 0. -1.
</event>
<event>
 8    1  0.7130890E-009  0.9966973E+02  0.7561462E-02  0.1280992E+00
          2   -1    0    0  501    0  0.00000000000E+00  0.00000000000E+00  0.84130638262E+03  0.84130638262E+03  0.00000000000E+00 0. -1.
         -2   -1    0    0    0  501 -0.00000000000E+00 -0.00000000000E+00 -0.19411554179E+02  0.19411554179E+02  0.00000000000E+00 0.  1.
         25    2    1    2    0    0 -0.38069528948E+02  0.10397138279E+02  0.63755969315E+03  0.65091291895E+03  0.12509147136E+03 0.  0.
         23    2    1    2    0    0  0.38069528948E+02 -0.10397138279E+02  0.18433513529E+03  0.20980501785E+03  0.92094049173E+02 0.  0.
          5    1    3    3  502    0  0.42382001289E+02 -0.14651251580E+02  0.17369803561E+03  0.17944183787E+03  0.41800000000E+01 0.  1.
         -5    1    3    3    0  502 -0.80451530237E+02  0.25048389859E+02  0.46386165755E+03  0.47147108108E+03  0.41800000000E+01 0.  1.
        -11    1    4    4    0    0 -0.13249476563E+02 -0.12987659182E+02  0.11597478296E+00  0.18553742759E+02  0.00000000000E+00 0.  1.
         11    1    4    4    0    0  0.51319005512E+02  0.25905209026E+01  0.18421916051E+03  0.19125127509E+03  0.00000000000E+00 0. -1.
</event>
<event>
 8    1  0.7130890E-009  0.1480415E+03  0.7561462E-02  0.1202900E+00
         -1   -1    0    0    0  501 -0.00000000000E+00  0.00000000000E+00  0.39987021002E+03  0.39987021002E+03  0.00000000000E+00 0.  1.
          1   -1    0    0  501    0  0.00000000000E+00 -0.00000000000E+00 -0.73923985697E+02  0.73923985697E+02  0.00000000000E+00 0. -1.
         25    2    1    2    0    0  0.43831619157E+02 -0.10880931648E+03  0.25955189694E+03  0.31108741547E+03  0.12509002625E+03 0.  0.
         23    2    1    2    0    0 -0.43831619157E+02  0.10880931648E+03  0.66394327382E+02  0.16270678025E+03  0.91129640843E+02 0.  0.
          5    1    3    3  502    0  0.73781626700E+02 -0.89771670476E+02  0.12024032580E+03  0.16726592482E+03  0.41800000000E+01 0.  1.
         -5    1    3    3    0  502 -0.29950007543E+02 -0.19037646002E+02  0.13931157114E+03  0.14382149065E+03  0.41800000000E+01 0.  1.
        -11    1    4    4    0    0 -0.58150726292E+02  0.32874809026E+02  0.50687191230E+02  0.83853750015E+02  0.00000000000E+00 0.  1.
         11    1    4    4    0    0  0.14319107134E+02  0.75934507452E+02  0.15707136152E+02  0.78853030235E+02  0.00000000000E+00 0. -1.
</event>
<event>
 8    1  0.7130890E-009  0.1324263E+03  0.7561462E-02  0.1223899E+00
          2   -1    0    0  501    0  0.00000000000E+00  0.00000000000E+00  0.53648951751E+03  0.53648951751E+03  0.00000000000E+00 0.  1.
         -2   -1    0    0    0  501 -0.00000000000E+00 -0.00000000000E+00 -0.40087684106E+02  0.40087684106E+02  0.00000000000E+00 0. -1.
         25    2    1    2    0    0 -0.41920500834E+02  0.84170906454E+02  0.32871443180E+03  0.36406411472E+03  0.12508969609E+03 0.  0.
         23    2    1    2    0    0  0.41920500834E+02 -0.84170906454E+02  0.16768740160E+03  0.21251308690E+03  0.90557592524E+02 0.  0.
          5    1    3    3  502    0 -0.27719657540E+02  0.11708162528E+03  0.25491565459E+03  0.28191479164E+03  0.41800000000E+01 0.  1.
         -5    1    3    3    0  502 -0.14200843293E+02 -0.32910718824E+02  0.73798777214E+02  0.82149323077E+02  0.41800000000E+01 0.  1.
        -11    1    4    4    0    0  0.49341189880E+01 -0.67712482287E+02  0.15637822030E+03  0.17048012662E+03  0.00000000000E+00 0.  1.
         11    1    4    4    0    0  0.36986381846E+02 -0.16458424167E+02  0.11309181299E+02  0.42032960278E+02  0.00000000000E+00 0. -1.
</event>
<event>
 8    1  0.7130890E-009  0.7848140E+02  0.7561462E-02  0.1333417E+00
         -3   -1    0    0    0  501 -0.00000000000E+00  0.00000000000E+00  0.41167521011E+02  0.41167521011E+02  0.00000000000E+00 0.  1.
          3   -1    0    0  501    0  0.00000000000E+00 -0.00000000000E+00 -0.32721339608E+03  0.32721339608E+03  0.00000000000E+00 0. -1.
         25    2    1    2    0    0  0.22416965342E+02 -0.26483907925E+02 -0.13699291727E+03  0.18872885453E+03  0.12509038108E+03 0.  0.
         23    2    1    2    0    0 -0.22416965342E+02  0.26483907925E+02 -0.14905295780E+03  0.17965206256E+03  0.94096554867E+02 0.  0.
          5    1    3    3  502    0  0.42105738733E+02  0.39868609552E+01 -0.14520641348E+03  0.15129825911E+03  0.41800000000E+01 0.  1.
         -5    1    3    3    0  502 -0.19688773390E+02 -0.30470768880E+02  0.82134962093E+01  0.37430595423E+02  0.41800000000E+01 0.  1.
        -11    1    4    4    0    0 -0.37361619401E+02 -0.98659001636E+01 -0.17622169588E+02  0.42470783502E+02  0.00000000000E+00 0.  1.
         11    1    4    4    0    0  0.14944654059E+02  0.36349808088E+02 -0.13143078821E+03  0.13718127906E+03  0.00000000000E+00 0. -1.
</event>
<event>
 8    1  0.7130890E-009  0.1251577E+03  0.7561462E-02  0.1234823E+00
         -2   -1    0    0    0  501 -0.00000000000E+00  0.00000000000E+00  0.82742287171E+01  0.82742287171E+01  0.00000000000E+00 0.  1.
          2   -1    0    0  501    0  0.00000000000E+00 -0.00000000000E+00 -0.26938757666E+04  0.26938757666E+04  0.00000000000E+00 0. -1.
         25    2    1    2    0    0  0.20059589766E+02 -0.68197202873E+02 -0.21135332708E+04  0.21184248033E+04  0.12509002850E+03 0.  0.
         23    2    1    2    0    0 -0.20059589766E+02  0.68197202873E+02 -0.57206826711E+03  0.58372519195E+03  0.91759205876E+02 0.  0.
          5    1    3    3  502    0 -0.34081295866E+02 -0.72051714008E+02 -0.16055964402E+04  0.16075790449E+04  0.41800000000E+01 0.  1.
         -5    1    3    3    0  502  0.54140885632E+02  0.38545111346E+01 -0.50793683052E+03  0.51084575847E+03  0.41800000000E+01 0.  1.
        -11    1    4    4    0    0 -0.52700494525E+02  0.17056174039E+02 -0.26891856337E+03  0.27456410713E+03  0.00000000000E+00 0.  1.
         11    1    4    4    0    0  0.32640904759E+02  0.51141028834E+02 -0.30314970374E+03  0.30916108483E+03  0.00000000000E+00 0. -1.
</event>
<event>
 8    1  0.7130890E-009  0.1539818E+03  0.7561462E-02  0.1195664E+00
         -1   -1    0    0    0  501 -0.00000000000E+00  0.00000000000E+00  0.94062106131E+02  0.94062106131E+02  0.00000000000E+00 0.  1.
          1   -1    0    0  501    0  0.00000000000E+00 -0.00000000000E+00 -0.29406794466E+03  0.29406794466E+03  0.00000000000E+00 0. -1.
         25    2    1    2    0    0  0.12325386570E+03 -0.15969677507E+02 -0.91737647701E+02  0.19876896716E+03  0.12508701089E+03 0.  0.
         23    2    1    2    0    0 -0.12325386570E+03  0.15969677507E+02 -0.10826819083E+03  0.18936108363E+03  0.93215196392E+02 0.  0.
          5    1    3    3  502    0  0.45987235994E+02  0.54373035475E+02 -0.44005701412E+02  0.83816627336E+02  0.41800000000E+01 0. -1.
         -5    1    3    3    0  502  0.77266629704E+02 -0.70342712982E+02 -0.47731946290E+02  0.11495233983E+03  0.41800000000E+01 0. -1.
        -11    1    4    4    0    0 -0.96029321327E+02 -0.72087466412E+01 -0.11799791132E+03  0.15230595412E+03  0.00000000000E+00 0. -1.
         11    1    4    4    0    0 -0.27224544371E+02  0.23178424148E+02  0.97297204951E+01  0.37055129511E+02  0.00000000000E+00 0.  1.
</event>
<event>
 8    1  0.7130890E-009  0.1505462E+03  0.7561462E-02  0.1199803E+00
         -1   -1    0    0    0  501 -0.00000000000E+00  0.00000000000E+00  0.39322768085E+02  0.39322768085E+02  0.00000000000E+00 0.  1.
          1   -1    0    0  501    0  0.00000000000E+00 -0.00000000000E+00 -0.59427726522E+03  0.59427726522E+03  0.00000000000E+00 0. -1.
         25    2    1    2    0    0  0.94444330207E+02 -0.44047742990E+02 -0.24963348441E+03  0.29803387410E+03  0.12508948159E+03 0.  0.
         23    2    1    2    0    0 -0.94444330207E+02  0.44047742990E+02 -0.30532101273E+03  0.33556615920E+03  0.92324380413E+02 0.  0.
          5    1    3    3  502    0 -0.24532478911E+02  0.15870954148E+02 -0.43673192189E+02  0.52711951425E+02  0.41800000000E+01 0. -1.
         -5    1    3    3    0  502  0.11897680912E+03 -0.59918697138E+02 -0.20596029222E+03  0.24532192268E+03  0.41800000000E+01 0. -1.
        -11    1    4    4    0    0  0.17431516474E+02 -0.15201161832E+01 -0.27180014379E+02  0.32325248668E+02  0.00000000000E+00 0. -1.
         11    1    4    4    0    0 -0.11187584668E+03  0.45567859173E+02 -0.27814099835E+03  0.30324091054E+03  0.00000000000E+00 0.  1.
</event>
<event>
 8    1  0.7130890E-009  0.7898563E+02  0.7561462E-02  0.1331955E+00
          1   -1    0    0  501    0  0.00000000000E+00  0.00000000000E+00  0.67834896326E+02  0.67834896326E+02  0.00000000000E+00 0. -1.
         -1   -1    0    0    0  501 -0.00000000000E+00 -0.00000000000E+00 -0.25828049202E+03  0.25828049202E+03  0.00000000000E+00 0.  1.
         25    2    1    2    0    0 -0.16310197412E+02 -0.70724890268E+02 -0.79982794512E+02  0.16527992126E+03  0.12510864204E+03 0.  0.
         23    2    1    2    0    0  0.16310197412E+02  0.70724890268E+02 -0.11046280118E+03  0.16083546708E+03  0.91640517151E+02 0.  0.
          5    1    3    3  502    0  0.12305754923E+01 -0.66731318145E+02 -0.11076234307E+03  0.12938451290E+03  0.41800000000E+01 0. -1.
         -5    1    3    3    0  502 -0.17540772904E+02 -0.39935721234E+01  0.30779548553E+02  0.35895408362E+02  0.41800000000E+01 0. -1.
        -11    1    4    4    0    0  0.10898364462E+02  0.41497513902E+02 -0.12171278911E+03  0.12905355881E+03  0.00000000000E+00 0.  1.
         11    1    4    4    0    0  0.54118329497E+01  0.29227376367E+02  0.11249987929E+02  0.31781908274E+02  0.00000000000E+00 0. -1.
</event>
<event>
 8    1  0.7130890E-009  0.1525329E+03  0.7561462E-02  0.1197395E+00
          2   -1    0    0  501    0  0.00000000000E+00  0.00000000000E+00  0.10697912097E+04  0.10697912097E+04  0.00000000000E+00 0. -1.
         -2   -1    0    0    0  501 -0.00000000000E+00 -0.00000000000E+00 -0.26367872429E+02  0.26367872429E+02  0.00000000000E+00 0.  1.
         25    2    1    2    0    0 -0.10315675782E+03 -0.64438274662E+02  0.68320263902E+03  0.70512966757E+03  0.12509354181E+03 0.  0.
         23    2    1    2    0    0  0.10315675782E+03  0.64438274662E+02  0.36022069828E+03  0.39102941459E+03  0.91386233515E+02 0.  0.
          5    1    3    3  502    0  0.26831921400E+02 -0.13407673886E+02  0.19471083322E+03  0.19705202028E+03  0.41800000000E+01 0.  1.
         -5    1    3    3    0  502 -0.12998867922E+03 -0.51030600776E+02  0.48849180580E+03  0.50807764729E+03  0.41800000000E+01 0.  1.
        -11    1    4    4    0    0  0.79124042125E+02  0.15609693419E+02  0.11905762239E+03  0.14380192635E+03  0.00000000000E+00 0.  1.
         11    1    4    4    0    0  0.24032715695E+02  0.48828581243E+02  0.24116307589E+03  0.24722748824E+03  0.00000000000E+00 0. -1.
</event>
<event>
 8    1  0.7130890E-009  0.1649459E+03  0.7561462E-02  0.1183223E+00
         -2   -1    0    0    0  501 -0.00000000000E+00  0.00000000000E+00  0.95139527886E+02  0.95139527886E+02  0.00000000000E+00 0.  1.
          2   -1    0    0  501    0  0.00000000000E+00 -0.00000000000E+00 -0.42330736777E+03  0.42330736777E+03  0.00000000000E+00 0. -1.
         25    2    1    2    0    0 -0.11930451839E+03 -0.44574630307E+02 -0.29124784770E+02  0.18087593246E+03  0.12508950427E+03 0.  0.
         23    2    1    2    0    0  0.11930451839E+03  0.44574630307E+02 -0.29904305511E+03  0.33757096320E+03  0.91142419379E+02 0.  0.
          5    1    3    3  502    0 -0.81700835473E+02 -0.88108739164E+02 -0.26622730183E+02  0.12314389387E+03  0.41800000000E+01 0.  1.
         -5    1    3    3    0  502 -0.37603682912E+02  0.43534108857E+02 -0.25020545864E+01  0.57732038589E+02  0.41800000000E+01 0.  1.
        -11    1    4    4    0    0  0.10614527379E+02 -0.22068088820E+02 -0.84772591592E+02  0.88238659446E+02  0.00000000000E+00 0. -1.
         11    1    4    4    0    0  0.10868999101E+03  0.66642719127E+02 -0.21427046352E+03  0.24933230375E+03  0.00000000000E+00 0.  1.
</event>
<event>
 8    1  0.7130890E-009  0.1584514E+03  0.7561462E-02  0.1190456E+00
          2   -1    0    0  501    0  0.00000000000E+00  0.00000000000E+00  0.75583518869E+03  0.75583518869E+03  0.00000000000E+00 0.  1.
         -2   -1    0    0    0  501 -0.00000000000E+00 -0.00000000000E+00 -0.37306560742E+02  0.37306560742E+02  0.00000000000E+00 0. -1.
         25    2    1    2    0    0  0.83945146629E+02 -0.93261367032E+02  0.32910511218E+03  0.37376752272E+03  0.12509003141E+03 0.  0.
         23    2    1    2    0    0 -0.83945146629E+02  0.93261367032E+02  0.38942351578E+03  0.41937422671E+03  0.92084728210E+02 0.  0.
          5    1    3    3  502    0 -0.31690804739E+02 -0.35369395298E+02  0.94781623155E+02  0.10609585155E+03  0.41800000000E+01 0. -1.
         -5    1    3    3    0  502  0.11563595137E+03 -0.57891971734E+02  0.23432348902E+03  0.26767167117E+03  0.41800000000E+01 0. -1.
        -11    1    4    4    0    0 -0.40806658010E+02  0.87207198183E+02  0.16736832020E+03  0.19308659549E+03  0.00000000000E+00 0. -1.
         11    1    4    4    0    0 -0.43138488619E+02  0.60541688495E+01  0.22205519558E+03  0.22628763122E+03  0.00000000000E+00 0.  1.
</event>
<event>
 8    1  0.7130890E-009  0.1359493E+03  0.7561462E-02  0.1218886E+00
          1   -1    0    0  501    0  0.00000000000E+00  0.00000000000E+00  0.74942634813E+02  0.74942634813E+02  0.00000000000E+00 0. -1.
         -1   -1    0    0    0  501 -0.00000000000E+00 -0.00000000000E+00 -0.26167424027E+03  0.26167424027E+03  0.00000000000E+00 0.  1.
         25    2    1    2    0    0  0.79941162364E+02  0.13693477085E+02 -0.71392812941E+02  0.16529529350E+03  0.12508996586E+03 0.  0.
         23    2    1    2    0    0 -0.79941162364E+02 -0.13693477085E+02 -0.11533879252E+03  0.17132158159E+03  0.97313650141E+02 0.  0.
          5    1    3    3  502    0 -0.27454817391E+02 -0.21304628173E+02 -0.88059460036E+01  0.36092537519E+02  0.41800000000E+01 0. -1.
         -5    1    3    3    0  502  0.10739597976E+03  0.34998105257E+02 -0.62586866937E+02  0.12920275598E+03  0.41800000000E+01 0. -1.
        -11    1    4    4    0    0 -0.98218075860E+01  0.36392393592E+02 -0.52686467883E+02  0.64782236096E+02  0.00000000000E+00 0.  1.
         11    1    4    4    0    0 -0.70119354778E+02 -0.50085870676E+02 -0.62652324637E+02  0.10653934549E+03  0.00000000000E+00 0. -1.
</event>
<event>
 8    1  0.7130890E-009  0.9440399E+02  0.7561462E-02  0.1292524E+00
          2   -1    0    0  501    0  0.00000000000E+00  0.00000000000E+00  0.84402717567E+02  0.84402717567E+02  0.00000000000E+00 0. -1.
         -2   -1    0    0    0  501 -0.00000000000E+00 -0.00000000000E+00 -0.17565284328E+03  0.17565284328E+03  0.00000000000E+00 0.  1.
         25    2    1    2    0    0  0.17873355531E+02 -0.50176670160E+02 -0.54361501461E+02  0.14642542812E+03  0.12509227831E+03 0.  0.
         23    2    1    2    0    0 -0.17873355531E+02  0.50176670160E+02 -0.36888624251E+02  0.11363013272E+03  0.93348172972E+02 0.  0.
          5    1    3    3  502    0 -0.37410472412E+02 -0.55477649757E+02  0.21554978808E+01  0.67077802884E+02  0.41800000000E+01 0. -1.
         -5    1    3    3    0  502  0.55283827943E+02  0.53009795970E+01 -0.56516999342E+02  0.79347625241E+02  0.41800000000E+01 0. -1.
        -11    1    4    4    0    0 -0.25755057671E+02  0.14547057939E+02 -0.62433837769E+02  0.69086351683E+02  0.00000000000E+00 0.  1.
         11    1    4    4    0    0  0.78817021402E+01  0.35629612221E+02  0.25545213518E+02  0.44543781040E+02  0.00000000000E+00 0. -1.
</event>
<event>
 8    1  0.7130890E-009  0.1101278E+03  0.7561462E-02  0.1260333E+00
         -1   -1    0    0    0  501 -0.00000000000E+00  0.00000000000E+00  0.11076121657E+03  0.11076121657E+03  0.00000000000E+00 0.  1.
          1   -1    0    0  501    0  0.00000000000E+00 -0.00000000000E+00 -0.17749107422E+03  0.17749107422E+03  0.00000000000E+00 0. -1.
         25    2    1    2    0    0 -0.50815890392E+02  0.72957854197E+02 -0.28476400400E+02  0.15608670638E+03  0.12508817419E+03 0.  0.
         23    2    1    2    0    0  0.50815890392E+02 -0.72957854197E+02 -0.38253457251E+02  0.13216558441E+03  0.89996174949E+02 0.  0.
          5    1    3    3  502    0  0.24205398610E+02  0.20680071700E+02  0.32826830328E+02  0.45919928971E+02  0.41800000000E+01 0. -1.
         -5    1    3    3    0  502 -0.75021289002E+02  0.52277782498E+02 -0.61303230728E+02  0.11016677741E+03  0.41800000000E+01 0. -1.
        -11    1    4    4    0    0  0.19723940623E+02 -0.59585691454E+02 -0.63999478022E+02  0.89640513424E+02  0.00000000000E+00 0. -1.
         11    1    4    4    0    0  0.31091949769E+02 -0.13372162743E+02  0.25746020771E+02  0.42525070987E+02  0.00000000000E+00 0.  1.
</event>
<event>
 8    1  0.7130890E-009  0.1079186E+03  0.7561462E-02  0.1264474E+00
         -3   -1    0    0    0  501 -0.00000000000E+00  0.00000000000E+00  0.75422464021E+03  0.75422464021E+03  0.00000000000E+00 0.  1.
          3   -1    0    0  501    0  0.00000000000E+00 -0.00000000000E+00 -0.29225744244E+02  0.29225744244E+02  0.00000000000E+00 0. -1.
         25    2    1    2    0    0  0.43828111505E+02  0.80857834765E+02  0.50453250384E+03  0.52788144881E+03  0.12508750443E+03 0.  0.
         23    2    1    2    0    0 -0.43828111505E+02 -0.80857834765E+02  0.22046639213E+03  0.25556893565E+03  0.90835885026E+02 0.  0.
          5    1    3    3  502    0  0.60938274928E+01  0.79034471921E+02  0.46958886735E+03  0.47625073146E+03  0.41800000000E+01 0. -1.
         -5    1    3    3    0  502  0.37734284013E+02  0.18233628441E+01  0.34943636489E+02  0.51630717340E+02  0.41800000000E+01 0. -1.
        -11    1    4    4    0    0 -0.57444104078E+01 -0.47427641325E+02  0.19113990682E+03  0.19701990608E+03  0.00000000000E+00 0.  1.
         11    1    4    4    0    0 -0.38083701098E+02 -0.33430193440E+02  0.29326485311E+02  0.58549029568E+02  0.00000000000E+00 0. -1.
</event>
<event>
 8    1  0.7130890E-009  0.1260617E+03  0.7561462E-02  0.1233419E+00
         -2   -1    0    0    0  501 -0.00000000000E+00  0.00000000000E+00  0.31079412005E+02  0.31079412005E+02  0.00000000000E+00 0.  1.
          2   -1    0    0  501    0  0.00000000000E+00 -0.00000000000E+00 -0.61276193208E+03  0.61276193208E+03  0.00000000000E+00 0. -1.
         25    2    1    2    0    0 -0.19152935632E+01 -0.84293789749E+02 -0.36112934121E+03  0.39136975561E+03  0.12508706244E+03 0.  0.
         23    2    1    2    0    0  0.19152935632E+01  0.84293789749E+02 -0.22055317887E+03  0.25247158848E+03  0.89381692402E+02 0.  0.
          5    1    3    3  502    0  0.58924637598E+01  0.27830580021E+02 -0.14395797696E+03  0.14680134142E+03  0.41800000000E+01 0.  1.
         -5    1    3    3    0  502 -0.78077573229E+01 -0.11212436977E+03 -0.21717136425E+03  0.24456841419E+03  0.41800000000E+01 0.  1.
        -11    1    4    4    0    0 -0.18024089402E+02  0.88669624353E+02 -0.21168947422E+03  0.23021642769E+03  0.00000000000E+00 0. -1.
         11    1    4    4    0    0  0.19939382965E+02 -0.43758346044E+01 -0.88637046537E+01  0.22255160788E+02  0.00000000000E+00 0.  1.
</event>
<event>
 8    1  0.7130890E-009  0.2091146E+03  0.7561462E-02  0.1142269E+00
          2   -1    0    0  501    0  0.00000000000E+00  0.00000000000E+00  0.76647084792E+03  0.76647084792E+03  0.00000000000E+00 0. -1.
         -2   -1    0    0    0  501 -0.00000000000E+00 -0.00000000000E+00 -0.62137071167E+02  0.62137071167E+02  0.00000000000E+00 0.  1.
         25    2    1    2    0    0 -0.36508740555E+02 -0.18348730188E+03  0.42136435794E+03  0.47770008632E+03  0.12509585222E+03 0.  0.
         23    2    1    2    0    0  0.36508740555E+02  0.18348730188E+03  0.28296941882E+03  0.35090783277E+03  0.89800540236E+02 0.  0.
          5    1    3    3  502    0  0.17738633218E+02 -0.14126791961E+03  0.19766165222E+03  0.24363678987E+03  0.41800000000E+01 0. -1.
         -5    1    3    3    0  502 -0.54247373773E+02 -0.42219382264E+02  0.22370270572E+03  0.23406329645E+03  0.41800000000E+01 0. -1.
        -11    1    4    4    0    0  0.31226613053E+02  0.91968730482E+01  0.35364904258E+02  0.48066207358E+02  0.00000000000E+00 0. -1.
         11    1    4    4    0    0  0.52821275024E+01  0.17429042883E+03  0.24760451456E+03  0.30284162541E+03  0.00000000000E+00 0.  1.
</event>
<event>
 8    1  0.7130890E-009  0.1302496E+03  0.7561462E-02  0.1227086E+00
         -1   -1    0    0    0  501 -0.00000000000E+00  0.00000000000E+00  0.21109656608E+02  0.21109656608E+02  0.00000000000E+00 0.  1.
          1   -1    0    0  501    0  0.00000000000E+00 -0.00000000000E+00 -0.12946880721E+04  0.12946880721E+04  0.00000000000E+00 0. -1.
         25    2    1    2    0    0 -0.30973425631E+02 -0.87964556364E+02 -0.10182316189E+04  0.10301166992E+04  0.12509063905E+03 0.  0.
         23    2    1    2    0    0  0.30973425631E+02  0.87964556364E+02 -0.25534679666E+03  0.28568102958E+03  0.87832498664E+02 0.  0.
          5    1    3    3  502    0 -0.46566556803E+02 -0.10616505950E+03 -0.96033865902E+03  0.96731963512E+03  0.41800000000E+01 0. -1.
         -5    1    3    3    0  502  0.15593131172E+02  0.18200503133E+02 -0.57892959838E+02  0.62797064046E+02  0.41800000000E+01 0. -1.
        -11    1    4    4    0    0  0.48427993469E+02  0.24358033158E+02 -0.67389035223E+02  0.86486220862E+02  0.00000000000E+00 0.  1.
         11    1    4    4    0    0 -0.17454567838E+02  0.63606523206E+02 -0.18795776144E+03  0.19919480871E+03  0.00000000000E+00 0. -1.
</event>
<event>
 8    1  0.7130890E-009  0.8068983E+02  0.7561462E-02  0.1327105E+00
          1   -1    0    0  501    0  0.00000000000E+00  0.00000000000E+00  0.13316531726E+02  0.13316531726E+02  0.00000000000E+00 0. -1.
         -1   -1    0    0    0  501 -0.00000000000E+00 -0.00000000000E+00 -0.10407831172E+04  0.10407831172E+04  0.00000000000E+00 0.  1.
         25    2    1    2    0    0 -0.25703645430E+02 -0.15990589759E+02 -0.67818967458E+03  0.69029399054E+03  0.12509269492E+03 0.  0.
         23    2    1    2    0    0  0.25703645430E+02  0.15990589759E+02 -0.34927691093E+03  0.36380565842E+03  0.97179320020E+02 0.  0.
          5    1    3    3  502    0  0.16018873366E+02 -0.10341416955E+02 -0.12322370135E+02  0.23083812820E+02  0.41800000000E+01 0. -1.
         -5    1    3    3    0  502 -0.41722518796E+02 -0.56491728035E+01 -0.66586730444E+03  0.66721017772E+03  0.41800000000E+01 0. -1.
        -11    1    4    4    0    0  0.23802359172E+02 -0.38371438867E+02 -0.19688825762E+03  0.20199976636E+03  0.00000000000E+00 0.  1.
         11    1    4    4    0    0  0.19012862573E+01  0.54362028626E+02 -0.15238865331E+03  0.16180589205E+03  0.00000000000E+00 0. -1.
</event>
<event>
 8    1  0.7130890E-009  0.2570569E+03  0.7561462E-02  0.1108925E+00
          1   -1    0    0  501    0  0.00000000000E+00  0.00000000000E+00  0.88845783706E+02  0.88845783706E+02  0.00000000000E+00 0. -1.
         -1   -1    0    0    0  501 -0.00000000000E+00 -0.00000000000E+00 -0.81506135990E+03  0.81506135990E+03  0.00000000000E+00 0.  1.
         25    2    1    2    0    0 -0.24356166157E+03 -0.33111607553E+02 -0.35158904184E+03  0.44685623719E+03  0.12508789242E+03 0.  0.
         23    2    1    2    0    0  0.24356166157E+03  0.33111607553E+02 -0.37462653435E+03  0.45705090641E+03  0.90176655933E+02 0.  0.
          5    1    3    3  502    0 -0.22003516331E+03 -0.62111522516E+02 -0.33541209090E+03  0.40594587994E+03  0.41800000000E+01 0.  1.
         -5    1    3    3    0  502 -0.23526498258E+02  0.28999914963E+02 -0.16176950945E+02  0.40910357246E+02  0.41800000000E+01 0.  1.
        -11    1    4    4    0    0  0.14261372160E+03  0.34695122318E+01 -0.13981867007E+03  0.19974977247E+03  0.00000000000E+00 0. -1.
         11    1    4    4    0    0  0.10094793997E+03  0.29642095321E+02 -0.23480786428E+03  0.25730113394E+03  0.00000000000E+00 0.  1.
</event>
<event>
 8    1  0.7130890E-009  0.1179842E+03  0.7561462E-02  0.1246460E+00
          4   -1    0    0  501    0  0.00000000000E+00  0.00000000000E+00  0.13939878575E+03  0.13939878575E+03  0.00000000000E+00 0.  1.
         -4   -1    0    0    0  501 -0.00000000000E+00 -0.00000000000E+00 -0.13789997271E+03  0.13789997271E+03  0.00000000000E+00 0. -1.
         25    2    1    2    0    0  0.75016497502E+02 -0.40087665521E+02 -0.19515840293E+02  0.15252273507E+03  0.12509125015E+03 0.  0.
         23    2    1    2    0    0 -0.75016497502E+02  0.40087665521E+02  0.21014653333E+02  0.12477602340E+03  0.88842245228E+02 0.  0.
          5    1    3    3  502    0 -0.20137404725E+02  0.15660741987E+02  0.22660766224E+02  0.34376687370E+02  0.41800000000E+01 0.  1.
         -5    1    3    3    0  502  0.95153902227E+02 -0.55748407508E+02 -0.42176606517E+02  0.11814604770E+03  0.41800000000E+01 0.  1.
        -11    1    4    4    0    0 -0.23849467353E+02 -0.12037222531E+02  0.41103442015E+02  0.49022288449E+02  0.00000000000E+00 0.  1.
         11    1    4    4    0    0 -0.51167030149E+02  0.52124888052E+02 -0.20088788682E+02  0.75753734953E+02  0.00000000000E+00 0. -1.
</event>
<event>
 8    1  0.7130890E-009  0.1364780E+03  0.7561462E-02  0.1218148E+00
         -4   -1    0    0    0  501 -0.00000000000E+00  0.00000000000E+00  0.99537606999E+02  0.99537606999E+02  0.00000000000E+00 0.  1.
          4   -1    0    0  501    0  0.00000000000E+00 -0.00000000000E+00 -0.24439028767E+03  0.24439028767E+03  0.00000000000E+00 0. -1.
         25    2    1    2    0    0  0.53347517642E+01  0.93442801066E+02 -0.10673817641E+02  0.15659411300E+03  0.12509104363E+03 0.  0.
         23    2    1    2    0    0 -0.53347517642E+01 -0.93442801066E+02 -0.13417886303E+03  0.18733378167E+03  0.91268624526E+02 0.  0.
          5    1    3    3  502    0 -0.48500689079E+02  0.76822227264E+02  0.18800635724E+02  0.92870381428E+02  0.41800000000E+01 0.  1.
         -5    1    3    3    0  502  0.53835440843E+02  0.16620573801E+02 -0.29474453365E+02  0.63723731572E+02  0.41800000000E+01 0.  1.
        -11    1    4    4    0    0  0.36720400053E+02 -0.22576514518E+02 -0.22739273751E+02  0.48735627200E+02  0.00000000000E+00 0.  1.
         11    1    4    4    0    0 -0.42055151817E+02 -0.70866286548E+02 -0.11143958928E+03  0.13859815447E+03  0.00000000000E+00 0. -1.
</event>
<event>
 8    1  0.7130890E-009  0.1594584E+03  0.7561462E-02  0.1189310E+00
          2   -1    0    0  501    0  0.00000000000E+00  0.00000000000E+00  0.38373194854E+03  0.38373194854E+03  0.00000000000E+00 0. -1.
         -2   -1    0    0    0  501 -0.00000000000E+00 -0.00000000000E+00 -0.82154112419E+02  0.82154112419E+02  0.00000000000E+00 0.  1.
         25    2    1    2    0    0  0.77374230037E+02 -0.93653774381E+02  0.67571874433E+02  0.18700662712E+03  0.12509084477E+03 0.  0.
         23    2    1    2    0    0 -0.77374230037E+02  0.93653774381E+02  0.23400596168E+03  0.27887943383E+03  0.90868848240E+02 0.  0.
          5    1    3    3  502    0  0.40939997736E+02  0.24732989738E+02  0.52997675014E+01  0.48304907945E+02  0.41800000000E+01 0. -1.
         -5    1    3    3    0  502  0.36434232300E+02 -0.11838676412E+03  0.62272106931E+02  0.13870171918E+03  0.41800000000E+01 0. -1.
        -11    1    4    4    0    0 -0.74478155427E+02  0.25457473790E+02  0.90309393674E+02  0.11979509670E+03  0.00000000000E+00 0. -1.
         11    1    4    4    0    0 -0.28960746095E+01  0.68196300591E+02  0.14369656801E+03  0.15908433713E+03  0.00000000000E+00 0.  1.
</event>
<event>
 8    1  0.7130890E-009  0.9341367E+02  0.7561462E-02  0.1294789E+00
          1   -1    0    0  501    0  0.00000000000E+00  0.00000000000E+00  0.78601028032E+02  0.78601028032E+02  0.00000000000E+00 0. -1.
         -1   -1    0    0    0  501 -0.00000000000E+00 -0.00000000000E+00 -0.18654161309E+03  0.18654161309E+03  0.00000000000E+00 0.  1.
         25    2    1    2    0    0  0.38785851470E+02 -0.39686963735E+02 -0.64543189777E+02  0.15130567673E+03  0.12509271401E+03 0.  0.
         23    2    1    2    0    0 -0.38785851470E+02  0.39686963735E+02 -0.43397395285E+02  0.11383696440E+03  0.89421044394E+02 0.  0.
          5    1    3    3  502    0  0.55648030663E+02 -0.29853980861E+00  0.17642331250E+02  0.58527913807E+02  0.41800000000E+01 0.  1.
         -5    1    3    3    0  502 -0.16862179192E+02 -0.39388423927E+02 -0.82185521028E+02  0.92777762924E+02  0.41800000000E+01 0.  1.
        -11    1    4    4    0    0  0.91373410298E+01 -0.13549790717E+02 -0.38751797936E+02  0.42056981261E+02  0.00000000000E+00 0.  1.
         11    1    4    4    0    0 -0.47923192500E+02  0.53236754452E+02 -0.46455973492E+01  0.71779983134E+02  0.00000000000E+00 0. -1.
</event>
<event>
 8    1  0.7130890E-009  0.7106069E+02  0.7561462E-02  0.1356523E+00
          1   -1    0    0  501    0  0.00000000000E+00  0.00000000000E+00  0.98914845496E+03  0.98914845496E+03  0.00000000000E+00 0. -1.
         -1   -1    0    0    0  501 -0.00000000000E+00 -0.00000000000E+00 -0.35974874012E+02  0.35974874012E+02  0.00000000000E+00 0.  1.
         25    2    1    2    0    0  0.85403352988E+00 -0.45382284527E+02  0.90185087702E+03  0.91161614865E+03  0.12509483187E+03 0.  0.
         23    2    1    2    0    0 -0.85403352988E+00  0.45382284527E+02  0.51322703927E+02  0.11350718033E+03  0.90496292329E+02 0.  0.
          5    1    3    3  502    0 -0.32959472255E+02 -0.25892016441E+01  0.65607135311E+02  0.73585320413E+02  0.41800000000E+01 0. -1.
         -5    1    3    3    0  502  0.33813505785E+02 -0.42793082883E+02  0.83624374171E+03  0.83803082823E+03  0.41800000000E+01 0. -1.
        -11    1    4    4    0    0  0.14141048145E+02  0.18138297210E+02  0.72382877094E+02  0.75948982644E+02  0.00000000000E+00 0. -1.
         11    1    4    4    0    0 -0.14995081675E+02  0.27243987317E+02 -0.21060173167E+02  0.37558197683E+02  0.00000000000E+00 0.  1.
</event>
<event>
 8    1  0.7130890E-009  0.1299733E+03  0.7561462E-02  0.1227495E+00
         -1   -1    0    0    0  501 -0.00000000000E+00  0.00000000000E+00  0.31186931521E+03  0.31186931521E+03  0.00000000000E+00 0.  1.
          1   -1    0    0  501    0  0.00000000000E+00 -0.00000000000E+00 -0.12544596580E+03  0.12544596580E+03  0.00000000000E+00 0. -1.
         25    2    1    2    0    0  0.71233784876E+02 -0.89727241200E+02  0.22873946373E+03  0.28477322628E+03  0.12509523659E+03 0.  0.
         23    2    1    2    0    0 -0.71233784876E+02  0.89727241200E+02 -0.42316114321E+02  0.15254205473E+03  0.91395815058E+02 0.  0.
          5    1    3    3  502    0  0.49722735927E+02 -0.69735688116E+02  0.41617415986E+02  0.95314733270E+02  0.41800000000E+01 0. -1.
         -5    1    3    3    0  502  0.21511048949E+02 -0.19991553084E+02  0.18712204775E+03  0.18945849301E+03  0.41800000000E+01 0. -1.
        -11    1    4    4    0    0 -0.53272169678E+01  0.77280129594E+02 -0.10049681402E+02  0.78112699140E+02  0.00000000000E+00 0.  1.
         11    1    4    4    0    0 -0.65906567908E+02  0.12447111606E+02 -0.32266432918E+02  0.74429355593E+02  0.00000000000E+00 0. -1.
</event>
<event>
 8    1  0.7130890E-009  0.9628771E+02  0.7561462E-02  0.1288302E+00
         -2   -1    0    0    0  501 -0.00000000000E+00  0.00000000000E+00  0.33000257791E+03  0.33000257791E+03  0.00000000000E+00 0.  1.
          2   -1    0    0  501    0  0.00000000000E+00 -0.00000000000E+00 -0.39998602804E+02  0.39998602804E+02  0.00000000000E+00 0. -1.
         25    2    1    2    0    0  0.61867281469E+01  0.60508873261E+01  0.10426135295E+03  0.16307058081E+03  0.12508675296E+03 0.  0.
         23    2    1    2    0    0 -0.61867281469E+01 -0.60508873261E+01  0.18574262216E+03  0.20693059990E+03  0.90802327320E+02 0.  0.
          5    1    3    3  502    0  0.12355133750E+02  0.64832994609E+02  0.55357381863E+02  0.86243136809E+02  0.41800000000E+01 0.  1.
         -5    1    3    3    0  502 -0.61684056029E+01 -0.58782107283E+02  0.48903971082E+02  0.76827444002E+02  0.41800000000E+01 0.  1.
        -11    1    4    4    0    0 -0.25890503010E+02 -0.27701291240E+02  0.29695196793E+02  0.48161025685E+02  0.00000000000E+00 0. -1.
         11    1    4    4    0    0  0.19703774863E+02  0.21650403914E+02  0.15604742537E+03  0.15876957422E+03  0.00000000000E+00 0.  1.
</event>
<event>
 8    1  0.7130890E-009  0.1455850E+03  0.7561462E-02  0.1206006E+00
         -1   -1    0    0    0  501 -0.00000000000E+00  0.00000000000E+00  0.68445330830E+02  0.68445330830E+02  0.00000000000E+00 0.  1.
          1   -1    0    0  501    0  0.00000000000E+00 -0.00000000000E+00 -0.36026939502E+03  0.36026939502E+03  0.00000000000E+00 0. -1.
         25    2    1    2    0    0 -0.82937173500E+02  0.69178843603E+02 -0.17970876118E+03  0.24414475599E+03  0.12508851219E+03 0.  0.
         23    2    1    2    0    0  0.82937173500E+02 -0.69178843603E+02 -0.11211530302E+03  0.18456996986E+03  0.99156167004E+02 0.  0.
          5    1    3    3  502    0 -0.11372720706E+03  0.63383945135E+02 -0.16212593194E+03  0.20797522048E+03  0.41800000000E+01 0. -1.
         -5    1    3    3    0  502  0.30790033561E+02  0.57948984688E+01 -0.17582829238E+02  0.36169535509E+02  0.41800000000E+01 0. -1.
        -11    1    4    4    0    0 -0.27056412806E+01 -0.38090188419E+02 -0.78789491142E+02  0.87555507325E+02  0.00000000000E+00 0. -1.
         11    1    4    4    0    0  0.85642814780E+02 -0.31088655184E+02 -0.33325811874E+02  0.97014462539E+02  0.00000000000E+00 0.  1.
</event>
<event>
 8    1  0.7130890E-009  0.2248305E+03  0.7561462E-02  0.1130332E+00
         -2   -1    0    0    0  501 -0.00000000000E+00  0.00000000000E+00  0.27371564646E+03  0.27371564646E+03  0.00000000000E+00 0. -1.
          2   -1    0    0  501    0  0.00000000000E+00 -0.00000000000E+00 -0.19986592092E+03  0.19986592092E+03  0.00000000000E+00 0.  1.
         25    2    1    2    0    0 -0.16979349190E+03  0.11520503000E+03  0.65641434171E+02  0.24911639692E+03  0.12509257574E+03 0.  0.
         23    2    1    2    0    0  0.16979349190E+03 -0.11520503000E+03  0.82082913635E+01  0.22446517046E+03  0.90637783935E+02 0.  0.
          5    1    3    3  502    0 -0.22685947530E+02 -0.26748585218E+02  0.15579431613E+02  0.38604793949E+02  0.41800000000E+01 0.  1.
         -5    1    3    3    0  502 -0.14710754437E+03  0.14195361522E+03  0.50062002558E+02  0.21051160297E+03  0.41800000000E+01 0.  1.
        -11    1    4    4    0    0  0.14344197686E+03 -0.75188295059E+02 -0.28068136189E+02  0.16436757803E+03  0.00000000000E+00 0.  1.
         11    1    4    4    0    0  0.26351515038E+02 -0.40016734943E+02  0.36276427553E+02  0.60097592433E+02  0.00000000000E+00 0. -1.
</event>
<event>
 8    1  0.7130890E-009  0.1148202E+03  0.7561462E-02  0.1251895E+00
         -1   -1    0    0    0  501 -0.00000000000E+00  0.00000000000E+00  0.26535355246E+03  0.26535355246E+03  0.00000000000E+00 0.  1.
          1   -1    0    0  501    0  0.00000000000E+00 -0.00000000000E+00 -0.61908617418E+02  0.61908617418E+02  0.00000000000E+00 0. -1.
         25    2    1    2    0    0  0.68088700189E+02 -0.73500180368E+01  0.10319269688E+03  0.17603214360E+03  0.12509392084E+03 0.  0.
         23    2    1    2    0    0 -0.68088700189E+02  0.73500180368E+01  0.10025223816E+03  0.15123002628E+03  0.90166045347E+02 0.  0.
          5    1    3    3  502    0  0.27893224520E+02 -0.53566839873E+02  0.56824943462E+01  0.60804617013E+02  0.41800000000E+01 0. -1.
         -5    1    3    3    0  502  0.40195475669E+02  0.46216821836E+02  0.97510202536E+02  0.11522752659E+03  0.41800000000E+01 0. -1.
        -11    1    4    4    0    0  0.19182023275E+02 -0.43158675774E+01  0.39908815408E+02  0.44489215290E+02  0.00000000000E+00 0.  1.
         11    1    4    4    0    0 -0.87270723463E+02  0.11665885614E+02  0.60343422751E+02  0.10674081099E+03  0.00000000000E+00 0. -1.
</event>
<event>
 8    1  0.7130890E-009  0.2632265E+03  0.7561462E-02  0.1105220E+00
          1   -1    0    0  501    0  0.00000000000E+00  0.00000000000E+00  0.12054132172E+04  0.12054132172E+04  0.00000000000E+00 0. -1.
         -1   -1    0    0    0  501 -0.00000000000E+00 -0.00000000000E+00 -0.72432474927E+02  0.72432474927E+02  0.00000000000E+00 0.  1.
         25    2    1    2    0    0 -0.24520545608E+03 -0.12429463969E+02  0.31259223972E+03  0.41670238099E+03  0.12508700463E+03 0.  0.
         23    2    1    2    0    0  0.24520545608E+03  0.12429463969E+02  0.82038850253E+03  0.86114331111E+03  0.90831161658E+02 0.  0.
          5    1    3    3  502    0 -0.32128298042E+02  0.39705272029E+02  0.31623362287E+02  0.60218316186E+02  0.41800000000E+01 0. -1.
         -5    1    3    3    0  502 -0.21307715803E+03 -0.52134735999E+02  0.28096887743E+03  0.35648406481E+03  0.41800000000E+01 0. -1.
        -11    1    4    4    0    0  0.16014354733E+03 -0.26389322717E+02  0.42725815024E+03  0.45704691122E+03  0.00000000000E+00 0.  1.
         11    1    4    4    0    0  0.85061908748E+02  0.38818786687E+02  0.39313035229E+03  0.40409639989E+03  0.00000000000E+00 0. -1.
</event>
<event>
 8    1  0.7130890E-009  0.1526721E+03  0.7561462E-02  0.1197228E+00
         -1   -1    0    0    0  501 -0.00000000000E+00  0.00000000000E+00  0.47440047349E+02  0.47440047349E+02  0.00000000000E+00 0.  1.
          1   -1    0    0  501    0  0.00000000000E+00 -0.00000000000E+00 -0.54577514907E+03  0.54577514907E+03  0.00000000000E+00 0. -1.
         25    2    1    2    0    0  0.67766378754E+02 -0.96705386548E+02 -0.29791232377E+03  0.34401578881E+03  0.12510354281E+03 0.  0.
         23    2    1    2    0    0 -0.67766378754E+02  0.96705386548E+02 -0.20042277795E+03  0.24919940760E+03  0.89369127509E+02 0.  0.
          5    1    3    3  502    0 -0.75718755718E+01 -0.82155440697E+02 -0.21811052729E+03  0.23323062459E+03  0.41800000000E+01 0. -1.
         -5    1    3    3    0  502  0.75338254326E+02 -0.14549945852E+02 -0.79801796484E+02  0.11078516422E+03  0.41800000000E+01 0. -1.
        -11    1    4    4    0    0 -0.42883538368E+01 -0.15985677930E+02 -0.38891900924E+02  0.42267148413E+02  0.00000000000E+00 0.  1.
         11    1    4    4    0    0 -0.63478024917E+02  0.11269106448E+03 -0.16153087702E+03  0.20693225919E+03  0.00000000000E+00 0. -1.
</event>
<event>
 8    1  0.7130890E-009  0.7965449E+02  0.7561462E-02  0.1330035E+00
         -2   -1    0    0    0  501 -0.00000000000E+00  0.00000000000E+00  0.51836957722E+02  0.51836957722E+02  0.00000000000E+00 0. -1.
          2   -1    0    0  501    0  0.00000000000E+00 -0.00000000000E+00 -0.23864484195E+03  0.23864484195E+03  0.00000000000E+00 0.  1.
         25    2    1    2    0    0 -0.94902812471E+01  0.29598294538E+01 -0.13500969219E+03  0.18431823535E+03  0.12508704517E+03 0.  0.
         23    2    1    2    0    0  0.94902812471E+01 -0.29598294538E+01 -0.51798192035E+02  0.10616356432E+03  0.92134812432E+02 0.  0.
          5    1    3    3  502    0 -0.30095477102E+02  0.24810285241E+02  0.63545194037E+01  0.39738398466E+02  0.41800000000E+01 0.  1.
         -5    1    3    3    0  502  0.20605195855E+02 -0.21850455787E+02 -0.14136421160E+03  0.14457983689E+03  0.41800000000E+01 0.  1.
        -11    1    4    4    0    0 -0.11744627748E+02  0.40080178771E+02 -0.11043678151E+02  0.43200924046E+02  0.00000000000E+00 0.  1.
         11    1    4    4    0    0  0.21234908995E+02 -0.43040008225E+02 -0.40754513884E+02  0.62962640272E+02  0.00000000000E+00 0. -1.
</event>
<event>
 8    1  0.7130890E-009  0.6509134E+02  0.7561462E-02  0.1377628E+00
         -2   -1    0    0    0  501 -0.00000000000E+00  0.00000000000E+00  0.43726302581E+02  0.43726302581E+02  0.00000000000E+00 0.  1.
          2   -1    0    0  501    0  0.00000000000E+00 -0.00000000000E+00 -0.31416389847E+03  0.31416389847E+03  0.00000000000E+00 0. -1.
         25    2    1    2    0    0 -0.30750492837E+02 -0.12031685114E+01 -0.20848652905E+03  0.24507441700E+03  0.12509115335E+03 0.  0.
         23    2    1    2    0    0  0.30750492837E+02  0.12031685114E+01 -0.61951066843E+02  0.11281578406E+03  0.89120289639E+02 0.  0.
          5    1    3    3  502    0 -0.42209820054E+01 -0.64507749324E+01 -0.21640852245E+03  0.21658612646E+03  0.41800000000E+01 0. -1.
         -5    1    3    3    0  502 -0.26529510831E+02  0.52476064210E+01  0.79219934023E+01  0.28488290534E+02  0.41800000000E+01 0. -1.
        -11    1    4    4    0    0  0.16086245589E+02  0.45038770667E+02 -0.27518339079E+02  0.55177143330E+02  0.00000000000E+00 0.  1.
         11    1    4    4    0    0  0.14664247248E+02 -0.43835602156E+02 -0.34432727764E+02  0.57638640728E+02  0.00000000000E+00 0. -1.
</event>
<event>
 8    1  0.7130890E-009  0.9487635E+02  0.7561462E-02  0.1291455E+00
          1   -1    0    0  501    0  0.00000000000E+00  0.00000000000E+00  0.12123728495E+03  0.12123728495E+03  0.00000000000E+00 0. -1.
         -1   -1    0    0    0  501 -0.00000000000E+00 -0.00000000000E+00 -0.12192124593E+03  0.12192124593E+03  0.00000000000E+00 0.  1.
         25    2    1    2    0    0  0.22509932487E+02 -0.49693479396E+02 -0.14697037274E+02  0.13725244007E+03  0.12508433333E+03 0.  0.
         23    2    1    2    0    0 -0.22509932487E+02  0.49693479396E+02  0.14013076286E+02  0.10590609081E+03  0.89686090391E+02 0.  0.
          5    1    3    3  502    0  0.15356768514E+02 -0.69187309611E+02 -0.56273171606E+02  0.90591701568E+02  0.41800000000E+01 0. -1.
         -5    1    3    3    0  502  0.71531639724E+01  0.19493830215E+02  0.41576134331E+02  0.46660738498E+02  0.41800000000E+01 0. -1.
        -11    1    4    4    0    0  0.14057042451E+02  0.58333440760E+02  0.27473732104E+02  0.65993914182E+02  0.00000000000E+00 0. -1.
         11    1    4    4    0    0 -0.36566974938E+02 -0.86399613643E+01 -0.13460655819E+02  0.39912176632E+02  0.00000000000E+00 0.  1.
</event>
<event>
 8    1  0.7130890E-009  0.8195415E+02  0.7561462E-02  0.1323596E+00
         -1   -1    0    0    0  501 -0.00000000000E+00  0.00000000000E+00  0.95574099060E+02  0.95574099060E+02  0.00000000000E+00 0.  1.
          1   -1    0    0  501    0  0.00000000000E+00 -0.00000000000E+00 -0.16239851364E+03  0.16239851364E+03  0.00000000000E+00 0. -1.
         25    2    1    2    0    0 -0.19098999125E+02  0.15145397017E+02  0.20524552817E+02  0.12908548212E+03  0.12509056562E+03 0.  0.
         23    2    1    2    0    0  0.19098999125E+02 -0.15145397017E+02 -0.87348967397E+02  0.12888713058E+03  0.91585454657E+02 0.  0.
          5    1    3    3  502    0 -0.55554018158E+02  0.12640763129E+01  0.53937282065E+02  0.77553527444E+02  0.41800000000E+01 0. -1.
         -5    1    3    3    0  502  0.36455019033E+02  0.13881320705E+02 -0.33412729249E+02  0.51531954679E+02  0.41800000000E+01 0. -1.
        -11    1    4    4    0    0  0.42844780497E+02 -0.14378041048E+02 -0.93928134530E+02  0.10423482017E+03  0.00000000000E+00 0. -1.
         11    1    4    4    0    0 -0.23745781372E+02 -0.76735596965E+00  0.65791671329E+01  0.24652310405E+02  0.00000000000E+00 0.  1.
</event>
<event>
 8    1  0.7130890E-009  0.1160416E+03  0.7561462E-02  0.1249774E+00
         -2   -1    0    0    0  501 -0.00000000000E+00  0.00000000000E+00  0.16023648252E+02  0.16023648252E+02  0.00000000000E+00 0.  1.
          2   -1    0    0  501    0  0.00000000000E+00 -0.00000000000E+00 -0.92858771844E+03  0.92858771844E+03  0.00000000000E+00 0. -1.
         25    2    1    2    0    0  0.29696533642E+02 -0.39620400517E+02 -0.62052299114E+03  0.63493970314E+03  0.12509190160E+03 0.  0.
         23    2    1    2    0    0 -0.29696533642E+02  0.39620400517E+02 -0.29204107905E+03  0.30967166355E+03  0.90315486528E+02 0.  0.
          5    1    3    3  502    0  0.46312335547E+02 -0.75936019118E+02 -0.50101881391E+03  0.50886976302E+03  0.41800000000E+01 0.  1.
         -5    1    3    3    0  502 -0.16615801905E+02  0.36315618601E+02 -0.11950417722E+03  0.12606994012E+03  0.41800000000E+01 0.  1.
        -11    1    4    4    0    0 -0.41943438751E+02  0.63469430009E+02 -0.20946135178E+03  0.22284900379E+03  0.00000000000E+00 0.  1.
         11    1    4    4    0    0  0.12246905110E+02 -0.23849029491E+02 -0.82579727267E+02  0.86822659761E+02  0.00000000000E+00 0. -1.
</event>
<event>
 8    1  0.7130890E-009  0.2663098E+03  0.7561462E-02  0.1103410E+00
         -1   -1    0    0    0  501 -0.00000000000E+00  0.00000000000E+00  0.26938790531E+03  0.26938790531E+03  0.00000000000E+00 0.  1.
          1   -1    0    0  501    0  0.00000000000E+00 -0.00000000000E+00 -0.39046384246E+03  0.39046384246E+03  0.00000000000E+00 0. -1.
         25    2    1    2    0    0  0.19687110868E+03  0.15137288123E+03 -0.24265948246E+03  0.36905642123E+03  0.12508810902E+03 0.  0.
         23    2    1    2    0    0 -0.19687110868E+03 -0.15137288123E+03  0.12158354531E+03  0.29079532655E+03  0.90040995368E+02 0.  0.
          5    1    3    3  502    0  0.17694962728E+03  0.17275130371E+03 -0.22666446933E+03  0.33548239534E+03  0.41800000000E+01 0. -1.
         -5    1    3    3    0  502  0.19921481401E+02 -0.21378422485E+02 -0.15995013131E+02  0.33574025887E+02  0.41800000000E+01 0. -1.
        -11    1    4    4    0    0 -0.18311482342E+03 -0.15670940691E+03  0.12996655638E+03  0.27382509481E+03  0.00000000000E+00 0.  1.
         11    1    4    4    0    0 -0.13756285267E+02  0.53365256799E+01 -0.83830110740E+01  0.16970231741E+02  0.00000000000E+00 0. -1.
</event>
<event>
 8    1  0.7130890E-009  0.7522861E+02  0.7561462E-02  0.1343165E+00
         -1   -1    0    0    0  501 -0.00000000000E+00  0.00000000000E+00  0.35896459993E+03  0.35896459993E+03  0.00000000000E+00 0.  1.
          1   -1    0    0  501    0  0.00000000000E+00 -0.00000000000E+00 -0.43311466711E+02  0.43311466711E+02  0.00000000000E+00 0. -1.
         25    2    1    2    0    0 -0.27641721068E+02  0.27217712214E+02  0.10040739115E+03  0.16502715940E+03  0.12508976993E+03 0.  0.
         23    2    1    2    0    0  0.27641721068E+02 -0.27217712214E+02  0.21524574207E+03  0.23724890724E+03  0.91931745911E+02 0.  0.
          5    1    3    3  502    0 -0.12315105425E+01  0.40200246409E+02  0.12184477210E+03  0.12837911558E+03  0.41800000000E+01 0.  1.
         -5    1    3    3    0  502 -0.26410210525E+02 -0.12982534195E+02 -0.21437380947E+02  0.36648043822E+02  0.41800000000E+01 0.  1.
        -11    1    4    4    0    0  0.50963757403E+02 -0.11714782584E+02  0.60402854057E+02  0.79893963964E+02  0.00000000000E+00 0. -1.
         11    1    4    4    0    0 -0.23322036335E+02 -0.15502929630E+02  0.15484288801E+03  0.15735494327E+03  0.00000000000E+00 0.  1.
</event>
<event>
 8    1  0.7130890E-009  0.1423346E+03  0.7561462E-02  0.1210222E+00
          2   -1    0    0  501    0  0.00000000000E+00  0.00000000000E+00  0.61329032824E+02  0.61329032824E+02  0.00000000000E+00 0. -1.
         -2   -1    0    0    0  501 -0.00000000000E+00 -0.00000000000E+00 -0.50163901065E+03  0.50163901065E+03  0.00000000000E+00 0.  1.
         25    2    1    2    0    0  0.11011229617E+03 -0.32460916671E+02 -0.35585480645E+03  0.39428267858E+03  0.12509100077E+03 0.  0.
         23    2    1    2    0    0 -0.11011229617E+03  0.32460916671E+02 -0.84455171375E+02  0.16868536490E+03  0.90242160211E+02 0.  0.
          5    1    3    3  502    0  0.52314183868E+02 -0.55416364271E+02 -0.30329242739E+03  0.31274832722E+03  0.41800000000E+01 0.  1.
         -5    1    3    3    0  502  0.57798112300E+02  0.22955447599E+02 -0.52562379060E+02  0.81534351364E+02  0.41800000000E+01 0.  1.
        -11    1    4    4    0    0 -0.56560615172E+01 -0.25798545482E+02 -0.14747002272E+02  0.30249463745E+02  0.00000000000E+00 0. -1.
         11    1    4    4    0    0 -0.10445623465E+03  0.58259462153E+02 -0.69708169103E+02  0.13843590115E+03  0.00000000000E+00 0.  1.
</event>
<event>
 8    1  0.7130890E-009  0.1111330E+03  0.7561462E-02  0.1258486E+00
         -2   -1    0    0    0  501 -0.00000000000E+00  0.00000000000E+00  0.14964972420E+02  0.14964972420E+02  0.00000000000E+00 0.  1.
          2   -1    0    0  501    0  0.00000000000E+00 -0.00000000000E+00 -0.13269897503E+04  0.13269897503E+04  0.00000000000E+00 0. -1.
         25    2    1    2    0    0 -0.81273614787E+02 -0.17828231799E+02 -0.86448656583E+03  0.87744652903E+03  0.12510852288E+03 0.  0.
         23    2    1    2    0    0  0.81273614787E+02  0.17828231799E+02 -0.44753821209E+03  0.46450819373E+03  0.92488726080E+02 0.  0.
          5    1    3    3  502    0 -0.47660915167E+02  0.35848329632E+02 -0.17271324745E+03  0.18276762245E+03  0.41800000000E+01 0. -1.
         -5    1    3    3    0  502 -0.33612699621E+02 -0.53676561431E+02 -0.69177331838E+03  0.69467890658E+03  0.41800000000E+01 0. -1.
        -11    1    4    4    0    0  0.11096648475E+02 -0.17285049246E+02 -0.16393009413E+02  0.26280016979E+02  0.00000000000E+00 0.  1.
         11    1    4    4    0    0  0.70176966313E+02  0.35113281045E+02 -0.43114520268E+03  0.43822817675E+03  0.00000000000E+00 0. -1.
</event>
<event>
 8    1  0.7130890E-009  0.1273365E+03  0.7561462E-02  0.1231462E+00
         -1   -1    0    0    0  501 -0.00000000000E+00  0.00000000000E+00  0.19474244993E+03  0.19474244993E+03  0.00000000000E+00 0.  1.
          1   -1    0    0  501    0  0.00000000000E+00 -0.00000000000E+00 -0.13723561858E+03  0.13723561858E+03  0.00000000000E+00 0. -1.
         25    2    1    2    0    0 -0.67705228530E+02  0.91318353313E+02  0.77392994718E+02  0.18590266719E+03  0.12508831446E+03 0.  0.
         23    2    1    2    0    0  0.67705228530E+02 -0.91318353313E+02 -0.19886163370E+02  0.14607540132E+03  0.89551793694E+02 0.  0.
          5    1    3    3  502    0 -0.54664017050E+02  0.50942157536E+02  0.10942920276E+03  0.13257254992E+03  0.41800000000E+01 0.  1.
         -5    1    3    3    0  502 -0.13041211480E+02  0.40376195778E+02 -0.32036208043E+02  0.53330117271E+02  0.41800000000E+01 0.  1.
        -11    1    4    4    0    0  0.77167450321E+02 -0.43765428652E+02  0.97525507622E+01  0.89248755624E+02  0.00000000000E+00 0.  1.
         11    1    4    4    0    0 -0.94622217912E+01 -0.47552924661E+02 -0.29638714132E+02  0.56826645691E+02  0.00000000000E+00 0. -1.
</event>
<event>
 8    1  0.7130890E-009  0.1160853E+03  0.7561462E-02  0.1249698E+00
          1   -1    0    0  501    0  0.00000000000E+00  0.00000000000E+00  0.86196284178E+03  0.86196284178E+03  0.00000000000E+00 0. -1.
         -1   -1    0    0    0  501 -0.00000000000E+00 -0.00000000000E+00 -0.16034580457E+02  0.16034580457E+02  0.00000000000E+00 0.  1.
         25    2    1    2    0    0  0.46466349848E+02  0.88028764424E+01  0.49149964669E+03  0.50936793115E+03  0.12508866568E+03 0.  0.
         23    2    1    2    0    0 -0.46466349848E+02 -0.88028764424E+01  0.35442861462E+03  0.36862949108E+03  0.89618338138E+02 0.  0.
          5    1    3    3  502    0  0.28413361483E+02 -0.57728767964E+02  0.25083694399E+03  0.25899145668E+03  0.41800000000E+01 0. -1.
         -5    1    3    3    0  502  0.18052988365E+02  0.66531644406E+02  0.24066270271E+03  0.25037647447E+03  0.41800000000E+01 0. -1.
        -11    1    4    4    0    0  0.10668105623E+02  0.28475475954E+02  0.15208151718E+03  0.15509174406E+03  0.00000000000E+00 0.  1.
         11    1    4    4    0    0 -0.57134455471E+02 -0.37278352396E+02  0.20234709745E+03  0.21353774702E+03  0.00000000000E+00 0. -1.
</event>
<event>
 8    1  0.7130890E-009  0.1194306E+03  0.7561462E-02  0.1244039E+00
         -2   -1    0    0    0  501 -0.00000000000E+00  0.00000000000E+00  0.10498487936E+03  0.10498487936E+03  0.00000000000E+00 0.  1.
          2   -1    0    0  501    0  0.00000000000E+00 -0.00000000000E+00 -0.21240345247E+03  0.21240345247E+03  0.00000000000E+00 0. -1.
         25    2    1    2    0    0  0.37373080666E+02 -0.81396299891E+02 -0.11097441392E+03  0.18970077100E+03  0.12509579201E+03 0.  0.
         23    2    1    2    0    0 -0.37373080666E+02  0.81396299891E+02  0.35558408085E+01  0.12768756084E+03  0.90936045632E+02 0.  0.
          5    1    3    3  502    0  0.43814050911E+02 -0.10045882051E+03 -0.41525891940E+02  0.11727539288E+03  0.41800000000E+01 0.  1.
         -5    1    3    3    0  502 -0.64409702451E+01  0.19062520616E+02 -0.69448521975E+02  0.72425378111E+02  0.41800000000E+01 0.  1.
        -11    1    4    4    0    0 -0.48460785296E+02  0.32153873351E+02  0.35326239148E+02  0.68046031885E+02  0.00000000000E+00 0.  1.
         11    1    4    4    0    0  0.11087704630E+02  0.49242426540E+02 -0.31770398339E+02  0.59641528956E+02  0.00000000000E+00 0. -1.
</event>
<event>
 8    1  0.7130890E-009  0.1126185E+03  0.7561462E-02  0.1255796E+00
          2   -1    0    0  501    0  0.00000000000E+00  0.00000000000E+00  0.11432025225E+04  0.11432025225E+04  0.00000000000E+00 0. -1.
         -2   -1    0    0    0  501 -0.00000000000E+00 -0.00000000000E+00 -0.25779680414E+02  0.25779680414E+02  0.00000000000E+00 0.  1.
         25    2    1    2    0    0 -0.18078438955E+02  0.67698010005E+02  0.96845622519E+03  0.97901225033E+03  0.12509066986E+03 0.  0.
         23    2    1    2    0    0  0.18078438955E+02 -0.67698010005E+02  0.14896661687E+03  0.18996995255E+03  0.94803372390E+02 0.  0.
          5    1    3    3  502    0 -0.31710493956E+02  0.92076893781E+02  0.89535205838E+03  0.90064226563E+03  0.41800000000E+01 0.  1.
         -5    1    3    3    0  502  0.13632055000E+02 -0.24378883776E+02  0.73104166804E+02  0.78369984699E+02  0.41800000000E+01 0.  1.
        -11    1    4    4    0    0  0.13599532972E+02 -0.82727485514E+02  0.69291999578E+02  0.10876656362E+03  0.00000000000E+00 0.  1.
         11    1    4    4    0    0  0.44789059832E+01  0.15029475509E+02  0.79674617289E+02  0.81203388926E+02  0.00000000000E+00 0. -1.
</event>
<event>
 8    1  0.7130890E-009  0.1103437E+03  0.7561462E-02  0.1259935E+00
         -3   -1    0    0    0  501 -0.00000000000E+00  0.00000000000E+00  0.20327512194E+03  0.20327512194E+03  0.00000000000E+00 0.  1.
          3   -1    0    0  501    0  0.00000000000E+00 -0.00000000000E+00 -0.95917755515E+02  0.95917755515E+02  0.00000000000E+00 0. -1.
         25    2    1    2    0    0  0.77530060200E+01  0.51372889770E+02 -0.16733326199E+02  0.13648300541E+03  0.12509325982E+03 0.  0.
         23    2    1    2    0    0 -0.77530060200E+01 -0.51372889770E+02  0.12409069262E+03  0.16270987205E+03  0.91524420570E+02 0.  0.
          5    1    3    3  502    0  0.43049728237E+02  0.78981189439E+02 -0.16073562577E+02  0.91472067869E+02  0.41800000000E+01 0. -1.
         -5    1    3    3    0  502 -0.35296722217E+02 -0.27608299668E+02 -0.65976362233E+00  0.45010937536E+02  0.41800000000E+01 0. -1.
        -11    1    4    4    0    0 -0.58606548970E+00 -0.67751694626E+02  0.12761642733E+03  0.14448732858E+03  0.00000000000E+00 0.  1.
         11    1    4    4    0    0 -0.71669405303E+01  0.16378804855E+02 -0.35257347059E+01  0.18222543463E+02  0.00000000000E+00 0. -1.
</event>
<event>
 8    1  0.7130890E-009  0.1135062E+03  0.7561462E-02  0.1254211E+00
         -2   -1    0    0    0  501 -0.00000000000E+00  0.00000000000E+00  0.42602649136E+03  0.42602649136E+03  0.00000000000E+00 0.  1.
          2   -1    0    0  501    0  0.00000000000E+00 -0.00000000000E+00 -0.42300326492E+02  0.42300326492E+02  0.00000000000E+00 0. -1.
         25    2    1    2    0    0 -0.35524707895E+02 -0.52781099226E+02  0.13091853979E+03  0.19192584144E+03  0.12509202710E+03 0.  0.
         23    2    1    2    0    0  0.35524707895E+02  0.52781099226E+02  0.25280762507E+03  0.27640097641E+03  0.91858342899E+02 0.  0.
          5    1    3    3  502    0  0.45189606954E+02 -0.30483615597E+02  0.36921121785E+02  0.65969637185E+02  0.41800000000E+01 0. -1.
         -5    1    3    3    0  502 -0.80714314849E+02 -0.22297483628E+02  0.93997418009E+02  0.12595620425E+03  0.41800000000E+01 0. -1.
        -11    1    4    4    0    0  0.39276735704E+02  0.38937839257E+01  0.20189786359E+03  0.20571964136E+03  0.00000000000E+00 0.  1.
         11    1    4    4    0    0 -0.37520278093E+01  0.48887315300E+02  0.50909761484E+02  0.70681335048E+02  0.00000000000E+00 0. -1.
</event>
<event>
 8    1  0.7130890E-009  0.1420302E+03  0.7561462E-02  0.1210623E+00
          2   -1    0    0  501    0  0.00000000000E+00  0.00000000000E+00  0.10591851703E+04  0.10591851703E+04  0.00000000000E+00 0. -1.
         -2   -1    0    0    0  501 -0.00000000000E+00 -0.00000000000E+00 -0.27400271862E+02  0.27400271862E+02  0.00000000000E+00 0.  1.
         25    2    1    2    0    0 -0.86387192110E+02 -0.62432928371E+02  0.77499805583E+03  0.79223077756E+03  0.12508797252E+03 0.  0.
         23    2    1    2    0    0  0.86387192110E+02  0.62432928371E+02  0.25678684264E+03  0.29435466464E+03  0.96667308503E+02 0.  0.
          5    1    3    3  502    0 -0.20280618103E+02  0.38099075403E+02  0.17701130642E+03  0.18224521398E+03  0.41800000000E+01 0.  1.
         -5    1    3    3    0  502 -0.66106574008E+02 -0.10053200377E+03  0.59798674941E+03  0.60998556358E+03  0.41800000000E+01 0.  1.
        -11    1    4    4    0    0  0.30439085052E+01 -0.96476219190E+01 -0.42813669476E+01  0.10985084916E+02  0.00000000000E+00 0.  1.
         11    1    4    4    0    0  0.83343283605E+02  0.72080550290E+02  0.26106820959E+03  0.28336957972E+03  0.00000000000E+00 0. -1.
</event>
<event>
 8    1  0.7130890E-009  0.1007634E+03  0.7561462E-02  0.1278699E+00
          1   -1    0    0  501    0  0.00000000000E+00  0.00000000000E+00  0.44281860918E+03  0.44281860918E+03  0.00000000000E+00 0. -1.
         -1   -1    0    0    0  501 -0.00000000000E+00 -0.00000000000E+00 -0.43608349877E+02  0.43608349877E+02  0.00000000000E+00 0.  1.
         25    2    1    2    0    0 -0.61780756275E+02  0.33994843704E+02  0.29340812588E+03  0.32666183262E+03  0.12508842198E+03 0.  0.
         23    2    1    2    0    0  0.61780756275E+02 -0.33994843704E+02  0.10580213342E+03  0.15976512644E+03  0.96738270319E+02 0.  0.
          5    1    3    3  502    0 -0.67175073465E+02  0.27822315816E+02  0.63660628103E+02  0.96730138648E+02  0.41800000000E+01 0.  1.
         -5    1    3    3    0  502  0.53943171900E+01  0.61725278883E+01  0.22974749778E+03  0.22993169398E+03  0.41800000000E+01 0.  1.
        -11    1    4    4    0    0  0.14172765788E+02  0.33802219519E+02  0.36942502970E+02  0.52040425250E+02  0.00000000000E+00 0.  1.
         11    1    4    4    0    0  0.47607990487E+02 -0.67797063223E+02  0.68859630453E+02  0.10772470119E+03  0.00000000000E+00 0. -1.
</event>
<event>
 8    1  0.7130890E-009  0.1748427E+03  0.7561462E-02  0.1172890E+00
          1   -1    0    0  501    0  0.00000000000E+00  0.00000000000E+00  0.96257585481E+03  0.96257585481E+03  0.00000000000E+00 0. -1.
         -1   -1    0    0    0  501 -0.00000000000E+00 -0.00000000000E+00 -0.43379622935E+02  0.43379622935E+02  0.00000000000E+00 0.  1.
         25    2    1    2    0    0  0.13836796911E+02 -0.17224310236E+03  0.47719940200E+03  0.52270829952E+03  0.12508218841E+03 0.  0.
         23    2    1    2    0    0 -0.13836796911E+02  0.17224310236E+03  0.44199682987E+03  0.48324717822E+03  0.91145457293E+02 0.  0.
          5    1    3    3  502    0  0.10145433924E+01 -0.69155925906E+02  0.56654428495E+02  0.89502894112E+02  0.41800000000E+01 0. -1.
         -5    1    3    3    0  502  0.12822253519E+02 -0.10308717645E+03  0.42054497351E+03  0.43320540541E+03  0.41800000000E+01 0. -1.
        -11    1    4    4    0    0 -0.19169292703E+02  0.43025672384E+02  0.42870771669E+02  0.63691234329E+02  0.00000000000E+00 0.  1.
         11    1    4    4    0    0  0.53324957914E+01  0.12921742997E+03  0.39912605820E+03  0.41955594389E+03  0.00000000000E+00 0. -1.
</event>
<event>
 8    1  0.7130890E-009  0.1147567E+03  0.7561462E-02  0.1252006E+00
         -1   -1    0    0    0  501 -0.00000000000E+00  0.00000000000E+00  0.20364001037E+03  0.20364001037E+03  0.00000000000E+00 0.  1.
          1   -1    0    0  501    0  0.00000000000E+00 -0.00000000000E+00 -0.15049083109E+03  0.15049083109E+03  0.00000000000E+00 0. -1.
         25    2    1    2    0    0 -0.79325149339E+02  0.50340191905E+02  0.12865751523E+03  0.20255525945E+03  0.12509701302E+03 0.  0.
         23    2    1    2    0    0  0.79325149339E+02 -0.50340191905E+02 -0.75508335952E+02  0.15157558201E+03  0.91907747364E+02 0.  0.
          5    1    3    3  502    0 -0.51959874543E+02 -0.66490794216E+01 -0.68240917077E+01  0.52991314830E+02  0.41800000000E+01 0. -1.
         -5    1    3    3    0  502 -0.27365274795E+02  0.56989271327E+02  0.13548160694E+03  0.14956394462E+03  0.41800000000E+01 0. -1.
        -11    1    4    4    0    0  0.36165616550E+02  0.11717061756E+02  0.80926244688E+01  0.38868135116E+02  0.00000000000E+00 0.  1.
         11    1    4    4    0    0  0.43159532789E+02 -0.62057253661E+02 -0.83600960421E+02  0.11270744690E+03  0.00000000000E+00 0. -1.
</event>
<event>
 8    1  0.7130890E-009  0.1159771E+03  0.7561462E-02  0.1249885E+00
          2   -1    0    0  501    0  0.00000000000E+00  0.00000000000E+00  0.32132108055E+03  0.32132108055E+03  0.00000000000E+00 0. -1.
         -2   -1    0    0    0  501 -0.00000000000E+00 -0.00000000000E+00 -0.47978780659E+02  0.47978780659E+02  0.00000000000E+00 0.  1.
         25    2    1    2    0    0  0.41911299558E+01  0.55770889661E+02  0.16656745793E+03  0.21568634620E+03  0.12509166315E+03 0.  0.
         23    2    1    2    0    0 -0.41911299558E+01 -0.55770889661E+02  0.10677484196E+03  0.15361351502E+03  0.95227555968E+02 0.  0.
          5    1    3    3  502    0 -0.50177968031E+02  0.50267751819E+02  0.13457533383E+03  0.15222571473E+03  0.41800000000E+01 0. -1.
         -5    1    3    3    0  502  0.54369097987E+02  0.55031378423E+01  0.31992124100E+02  0.63460631469E+02  0.41800000000E+01 0. -1.
        -11    1    4    4    0    0  0.17141667342E+02  0.20545354170E+02  0.10070493755E+02  0.28589564210E+02  0.00000000000E+00 0.  1.
         11    1    4    4    0    0 -0.21332797298E+02 -0.76316243831E+02  0.96704348209E+02  0.12502395081E+03  0.00000000000E+00 0. -1.
</event>
<event>
 8    1  0.7130890E-009  0.2033820E+03  0.7561462E-02  0.1146917E+00
          2   -1    0    0  501    0  0.00000000000E+00  0.00000000000E+00  0.99731791932E+03  0.99731791932E+03  0.00000000000E+00 0. -1.
         -2   -1    0    0    0  501 -0.00000000000E+00 -0.00000000000E+00 -0.46612032666E+02  0.46612032666E+02  0.00000000000E+00 0.  1.
         25    2    1    2    0    0  0.17127649356E+03 -0.67246299178E+02  0.56208812284E+03  0.60452377888E+03  0.12509292305E+03 0.  0.
         23    2    1    2    0    0 -0.17127649356E+03  0.67246299178E+02  0.38861776382E+03  0.43940617310E+03  0.90533510965E+02 0.  0.
          5    1    3    3  502    0  0.39688139686E+02 -0.72516621053E+02  0.14319055435E+03  0.16539291405E+03  0.41800000000E+01 0. -1.
         -5    1    3    3    0  502  0.13158835388E+03  0.52703218751E+01  0.41889756849E+03  0.43913086484E+03  0.41800000000E+01 0. -1.
        -11    1    4    4    0    0 -0.11727550546E+03  0.72659226853E+02  0.33849701058E+03  0.36553130317E+03  0.00000000000E+00 0. -1.
         11    1    4    4    0    0 -0.54000988109E+02 -0.54129276751E+01  0.50120753240E+02  0.73874869936E+02  0.00000000000E+00 0.  1.
</event>
<event>
 8    1  0.7130890E-009  0.1790848E+03  0.7561462E-02  0.1168692E+00
         -1   -1    0    0    0  501 -0.00000000000E+00  0.00000000000E+00  0.30403039770E+02  0.30403039770E+02  0.00000000000E+00 0.  1.
          1   -1    0    0  501    0  0.00000000000E+00 -0.00000000000E+00 -0.12052920632E+04  0.12052920632E+04  0.00000000000E+00 0. -1.
         25    2    1    2    0    0  0.11494398478E+03  0.10560670195E+03 -0.59258056557E+03  0.62543130482E+03  0.12509074794E+03 0.  0.
         23    2    1    2    0    0 -0.11494398478E+03 -0.10560670195E+03 -0.58230845786E+03  0.61026379815E+03  0.94730502503E+02 0.  0.
          5    1    3    3  502    0  0.80854315387E+02  0.11629374896E+03 -0.31343238597E+03  0.34397527432E+03  0.41800000000E+01 0. -1.
         -5    1    3    3    0  502  0.34089669394E+02 -0.10687047009E+02 -0.27914817959E+03  0.28145603050E+03  0.41800000000E+01 0. -1.
        -11    1    4    4    0    0 -0.24227065823E+02 -0.83754061227E+02 -0.32750494578E+03  0.33891176285E+03  0.00000000000E+00 0.  1.
         11    1    4    4    0    0 -0.90716918958E+02 -0.21852640727E+02 -0.25480351208E+03  0.27135203530E+03  0.00000000000E+00 0. -1.
</event>
<event>
 8    1  0.7130890E-009  0.1118298E+03  0.7561462E-02  0.1257218E+00
         -2   -1    0    0    0  501 -0.00000000000E+00  0.00000000000E+00  0.37956286986E+02  0.37956286986E+02  0.00000000000E+00 0.  1.
          2   -1    0    0  501    0  0.00000000000E+00 -0.00000000000E+00 -0.35904426098E+03  0.35904426098E+03  0.00000000000E+00 0. -1.
         25    2    1    2    0    0 -0.26506861006E+02  0.11136471298E+02 -0.13178464679E+03  0.18395993375E+03  0.12508968552E+03 0.  0.
         23    2    1    2    0    0  0.26506861006E+02 -0.11136471298E+02 -0.18930332721E+03  0.21304061421E+03  0.93401921501E+02 0.  0.
          5    1    3    3  502    0  0.41097888944E+02 -0.27198791223E+02 -0.39934366039E+02  0.63569149047E+02  0.41800000000E+01 0. -1.
         -5    1    3    3    0  502 -0.67604749950E+02  0.38335262521E+02 -0.91850280750E+02  0.12039078471E+03  0.41800000000E+01 0. -1.
        -11    1    4    4    0    0 -0.26674213013E+02 -0.29813507204E+02 -0.96465856790E+02  0.10443189349E+03  0.00000000000E+00 0. -1.
         11    1    4    4    0    0  0.53181074019E+02  0.18677035906E+02 -0.92837470415E+02  0.10860872072E+03  0.00000000000E+00 0.  1.
</event>
<event>
 8    1  0.7130890E-009  0.9940732E+02  0.7561462E-02  0.1281547E+00
         -2   -1    0    0    0  501 -0.00000000000E+00  0.00000000000E+00  0.27356599116E+02  0.27356599116E+02  0.00000000000E+00 0.  1.
          2   -1    0    0  501    0  0.00000000000E+00 -0.00000000000E+00 -0.51476080888E+03  0.51476080888E+03  0.00000000000E+00 0. -1.
         25    2    1    2    0    0 -0.72333586854E+00  0.16984752447E+02 -0.37750107543E+03  0.39804966484E+03  0.12508984252E+03 0.  0.
         23    2    1    2    0    0  0.72333586854E+00 -0.16984752447E+02 -0.10990313433E+03  0.14406774315E+03  0.91584991404E+02 0.  0.
          5    1    3    3  502    0  0.53918335365E+02  0.39523538639E+02 -0.20116127876E+03  0.21202035154E+03  0.41800000000E+01 0. -1.
         -5    1    3    3    0  502 -0.54641671233E+02 -0.22538786192E+02 -0.17633979667E+03  0.18602931330E+03  0.41800000000E+01 0. -1.
        -11    1    4    4    0    0  0.31368594722E+02  0.87416119995E+01 -0.65178380440E+01  0.33209738450E+02  0.00000000000E+00 0.  1.
         11    1    4    4    0    0 -0.30645258853E+02 -0.25726364447E+02 -0.10338529629E+03  0.11085800470E+03  0.00000000000E+00 0. -1.
</event>
<event>
 8    1  0.7130890E-009  0.9556172E+02  0.7561462E-02  0.1289916E+00
         -2   -1    0    0    0  501 -0.00000000000E+00  0.00000000000E+00  0.29978052546E+02  0.29978052546E+02  0.00000000000E+00 0.  1.
          2   -1    0    0  501    0  0.00000000000E+00 -0.00000000000E+00 -0.47108312795E+03  0.47108312795E+03  0.00000000000E+00 0. -1.
         25    2    1    2    0    0 -0.55845654128E+01  0.44006380443E+02 -0.29344315338E+03  0.32206330760E+03  0.12509252953E+03 0.  0.
         23    2    1    2    0    0  0.55845654128E+01 -0.44006380443E+02 -0.14766192202E+03  0.17899787290E+03  0.90930997987E+02 0.  0.
          5    1    3    3  502    0  0.46762642806E+02  0.15794592112E+02 -0.22891906715E+03  0.23421704807E+03  0.41800000000E+01 0.  1.
         -5    1    3    3    0  502 -0.52347208219E+02  0.28211788331E+02 -0.64524086228E+02  0.87846259526E+02  0.41800000000E+01 0.  1.
        -11    1    4    4    0    0 -0.18519363005E+02  0.11266087206E+02 -0.99475474136E+02  0.10180992821E+03  0.00000000000E+00 0. -1.
         11    1    4    4    0    0  0.24103928418E+02 -0.55272467649E+02 -0.48186447888E+02  0.77187944688E+02  0.00000000000E+00 0.  1.
</event>
<event>
 8    1  0.7130890E-009  0.1813398E+03  0.7561462E-02  0.1166513E+00
         -2   -1    0    0    0  501 -0.00000000000E+00  0.00000000000E+00  0.38561464847E+02  0.38561464847E+02  0.00000000000E+00 0.  1.
          2   -1    0    0  501    0  0.00000000000E+00 -0.00000000000E+00 -0.11252933917E+04  0.11252933917E+04  0.00000000000E+00 0. -1.
         25    2    1    2    0    0 -0.14434628463E+03 -0.69031434661E+02 -0.35028586491E+03  0.40490591986E+03  0.12508967953E+03 0.  0.
         23    2    1    2    0    0  0.14434628463E+03  0.69031434661E+02 -0.73644606196E+03  0.75894893671E+03  0.89718991808E+02 0.  0.
          5    1    3    3  502    0 -0.12376161637E+03 -0.10240755639E+02 -0.14820442000E+03  0.19340070648E+03  0.41800000000E+01 0. -1.
         -5    1    3    3    0  502 -0.20584668258E+02 -0.58790679022E+02 -0.20208144491E+03  0.21150521338E+03  0.41800000000E+01 0. -1.
        -11    1    4    4    0    0  0.14196096676E+03  0.40862877592E+02 -0.67949512512E+03  0.69536775587E+03  0.00000000000E+00 0. -1.
         11    1    4    4    0    0  0.23853178639E+01  0.28168557070E+02 -0.56950936847E+02  0.63581180836E+02  0.00000000000E+00 0.  1.
</event>
<event>
 8    1  0.7130890E-009  0.9292581E+02  0.7561462E-02  0.1295917E+00
         -1   -1    0    0    0  501 -0.00000000000E+00  0.00000000000E+00  0.11731665502E+03  0.11731665502E+03  0.00000000000E+00 0.  1.
          1   -1    0    0  501    0  0.00000000000E+00 -0.00000000000E+00 -0.10288767522E+03  0.10288767522E+03  0.00000000000E+00 0. -1.
         25    2    1    2    0    0  0.73711455626E+00  0.13211350455E+02 -0.54533549152E+00  0.12578760389E+03  0.12508853178E+03 0.  0.
         23    2    1    2    0    0 -0.73711455626E+00 -0.13211350455E+02  0.14974315294E+02  0.94416726340E+02  0.92277868287E+02 0.  0.
          5    1    3    3  502    0  0.50062033974E+02 -0.28853924634E+02  0.13131674929E+02  0.59402605152E+02  0.41800000000E+01 0.  1.
         -5    1    3    3    0  502 -0.49324919418E+02  0.42065275089E+02 -0.13677010421E+02  0.66384998742E+02  0.41800000000E+01 0.  1.
        -11    1    4    4    0    0 -0.16050840421E+02  0.20438231055E+02 -0.27681890406E+02  0.37968906007E+02  0.00000000000E+00 0. -1.
         11    1    4    4    0    0  0.15313725865E+02 -0.33649581510E+02  0.42656205700E+02  0.56447820333E+02  0.00000000000E+00 0.  1.
</event>
<event>
 8    1  0.7130890E-009  0.1880994E+03  0.7561462E-02  0.1160187E+00
          2   -1    0    0  501    0  0.00000000000E+00  0.00000000000E+00  0.15153336131E+04  0.15153336131E+04  0.00000000000E+00 0.  1.
         -2   -1    0    0    0  501 -0.00000000000E+00 -0.00000000000E+00 -0.24409657574E+02  0.24409657574E+02  0.00000000000E+00 0. -1.
         25    2    1    2    0    0  0.15711081666E+03 -0.10777569231E+02  0.85842005149E+03  0.88166341837E+03  0.12508170844E+03 0.  0.
         23    2    1    2    0    0 -0.15711081666E+03  0.10777569231E+02  0.63250390408E+03  0.65807985234E+03  0.90597674774E+02 0.  0.
          5    1    3    3  502    0  0.77408703015E+02  0.55558402874E+02  0.47271619031E+03  0.48224154986E+03  0.41800000000E+01 0.  1.
         -5    1    3    3    0  502  0.79702113648E+02 -0.66335972105E+02  0.38570386118E+03  0.39942186851E+03  0.41800000000E+01 0.  1.
        -11    1    4    4    0    0 -0.10979621686E+03 -0.30823979963E+02  0.47371705212E+03  0.48725062590E+03  0.00000000000E+00 0.  1.
         11    1    4    4    0    0 -0.47314599807E+02  0.41601549193E+02  0.15878685196E+03  0.17082922644E+03  0.00000000000E+00 0. -1.
</event>
<event>
 8    1  0.7130890E-009  0.2057347E+03  0.7561462E-02  0.1144989E+00
          2   -1    0    0  501    0  0.00000000000E+00  0.00000000000E+00  0.81057435976E+03  0.81057435976E+03  0.00000000000E+00 0. -1.
         -2   -1    0    0    0  501 -0.00000000000E+00 -0.00000000000E+00 -0.64168325238E+02  0.64168325238E+02  0.00000000000E+00 0.  1.
         25    2    1    2    0    0  0.12482999433E+03 -0.14306790632E+03  0.51563518162E+03  0.56354082381E+03  0.12509063222E+03 0.  0.
         23    2    1    2    0    0 -0.12482999433E+03  0.14306790632E+03  0.23077085290E+03  0.31120186119E+03  0.86835813784E+02 0.  0.
          5    1    3    3  502    0  0.14125044965E+03 -0.94626701913E+02  0.33415186505E+03  0.37494112012E+03  0.41800000000E+01 0.  1.
         -5    1    3    3    0  502 -0.16420455320E+02 -0.48441204408E+02  0.18148331658E+03  0.18859970369E+03  0.41800000000E+01 0.  1.
        -11    1    4    4    0    0 -0.35375409370E+02  0.46829131071E+02  0.13914776606E+03  0.15101817078E+03  0.00000000000E+00 0. -1.
         11    1    4    4    0    0 -0.89454584959E+02  0.96238775250E+02  0.91623086837E+02  0.16018369041E+03  0.00000000000E+00 0.  1.
</event>
<event>
 8    1  0.7130890E-009  0.2132604E+03  0.7561462E-02  0.1139010E+00
         -2   -1    0    0    0  501 -0.00000000000E+00  0.00000000000E+00  0.27777947304E+03  0.27777947304E+03  0.00000000000E+00 0.  1.
          2   -1    0    0  501    0  0.00000000000E+00 -0.00000000000E+00 -0.16812052201E+03  0.16812052201E+03  0.00000000000E+00 0. -1.
         25    2    1    2    0    0 -0.21964513515E+02  0.18276034205E+03  0.88361683107E+02  0.23945629125E+03  0.12509095050E+03 0.  0.
         23    2    1    2    0    0  0.21964513515E+02 -0.18276034205E+03  0.21297267926E+02  0.20644370380E+03  0.91003553414E+02 0.  0.
          5    1    3    3  502    0 -0.21972637220E+02  0.20164394334E+03  0.76844685431E+02  0.21694620243E+03  0.41800000000E+01 0.  1.
         -5    1    3    3    0  502  0.81237051496E-02 -0.18883601281E+02  0.11516997676E+02  0.22510088822E+02  0.41800000000E+01 0.  1.
        -11    1    4    4    0    0  0.25888070287E+02 -0.48408517091E+01 -0.41803546251E+01  0.26666484457E+02  0.00000000000E+00 0.  1.
         11    1    4    4    0    0 -0.39235567730E+01 -0.17791949035E+03  0.25477622551E+02  0.17977721934E+03  0.00000000000E+00 0. -1.
</event>
<event>
 8    1  0.7130890E-009  0.1192874E+03  0.7561462E-02  0.1244277E+00
         -3   -1    0    0    0  501 -0.00000000000E+00  0.00000000000E+00  0.55267506094E+03  0.55267506094E+03  0.00000000000E+00 0.  1.
          3   -1    0    0  501    0  0.00000000000E+00 -0.00000000000E+00 -0.35326209998E+02  0.35326209998E+02  0.00000000000E+00 0. -1.
         25    2    1    2    0    0 -0.39519926658E+02 -0.68095207263E+02  0.36439910913E+03  0.39323152629E+03  0.12508213571E+03 0.  0.
         23    2    1    2    0    0  0.39519926658E+02  0.68095207263E+02  0.15294974181E+03  0.19476974465E+03  0.91339192338E+02 0.  0.
          5    1    3    3  502    0  0.31034166283E+02 -0.43153590472E+02  0.25568672878E+03  0.26118676751E+03  0.41800000000E+01 0. -1.
         -5    1    3    3    0  502 -0.70554092942E+02 -0.24941616791E+02  0.10871238035E+03  0.13204475878E+03  0.41800000000E+01 0. -1.
        -11    1    4    4    0    0  0.57278844489E+02  0.22790916568E+02  0.44888966341E+02  0.76258187778E+02  0.00000000000E+00 0.  1.
         11    1    4    4    0    0 -0.17758917830E+02  0.45304290695E+02  0.10806077547E+03  0.11851155688E+03  0.00000000000E+00 0. -1.
</event>
<event>
 8    1  0.7130890E-009  0.1374555E+03  0.7561462E-02  0.1216794E+00
         -1   -1    0    0    0  501 -0.00000000000E+00  0.00000000000E+00  0.48554826421E+03  0.48554826421E+03  0.00000000000E+00 0.  1.
          1   -1    0    0  501    0  0.00000000000E+00 -0.00000000000E+00 -0.57127729468E+02  0.57127729468E+02  0.00000000000E+00 0. -1.
         25    2    1    2    0    0  0.71066915953E+02  0.83997466831E+02  0.33576604280E+03  0.37482352932E+03  0.12509101351E+03 0.  0.
         23    2    1    2    0    0 -0.71066915953E+02 -0.83997466831E+02  0.92654491945E+02  0.16785246435E+03  0.86507305676E+02 0.  0.
          5    1    3    3  502    0  0.68867838109E+02  0.45168283751E+01  0.74261239429E+02  0.10146617636E+03  0.41800000000E+01 0.  1.
         -5    1    3    3    0  502  0.21990778439E+01  0.79480638456E+02  0.26150480337E+03  0.27335735296E+03  0.41800000000E+01 0.  1.
        -11    1    4    4    0    0 -0.19468946133E+02 -0.70039864200E+02  0.88079914033E+02  0.11420461329E+03  0.00000000000E+00 0.  1.
         11    1    4    4    0    0 -0.51597969820E+02 -0.13957602630E+02  0.45745779125E+01  0.53647851065E+02  0.00000000000E+00 0. -1.
</event>
<event>
 8    1  0.7130890E-009  0.1270928E+03  0.7561462E-02  0.1231834E+00
         -2   -1    0    0    0  501 -0.00000000000E+00  0.00000000000E+00  0.29478322729E+02  0.29478322729E+02  0.00000000000E+00 0.  1.
          2   -1    0    0  501    0  0.00000000000E+00 -0.00000000000E+00 -0.84115899782E+03  0.84115899782E+03  0.00000000000E+00 0. -1.
         25    2    1    2    0    0 -0.97090607426E+02 -0.30665376731E+02 -0.29288423052E+03  0.33435945654E+03  0.12509245506E+03 0.  0.
         23    2    1    2    0    0  0.97090607426E+02  0.30665376731E+02 -0.51879644457E+03  0.53627786401E+03  0.89873495213E+02 0.  0.
          5    1    3    3  502    0 -0.13889060932E+02 -0.32050959107E+02 -0.22257997758E+03  0.22534304696E+03  0.41800000000E+01 0. -1.
         -5    1    3    3    0  502 -0.83201546494E+02  0.13855823762E+01 -0.70304252938E+02  0.10901640958E+03  0.41800000000E+01 0. -1.
        -11    1    4    4    0    0  0.45329664733E+02  0.60765839497E+02 -0.30108359986E+03  0.31048123914E+03  0.00000000000E+00 0.  1.
         11    1    4    4    0    0  0.51760942693E+02 -0.30100462767E+02 -0.21771284472E+03  0.22579662487E+03  0.00000000000E+00 0. -1.
</event>
<event>
 8    1  0.7130890E-009  0.8889568E+02  0.7561462E-02  0.1305548E+00
         -2   -1    0    0    0  501 -0.00000000000E+00  0.00000000000E+00  0.49911798328E+02  0.49911798328E+02  0.00000000000E+00 0.  1.
          2   -1    0    0  501    0  0.00000000000E+00 -0.00000000000E+00 -0.28442971721E+03  0.28442971721E+03  0.00000000000E+00 0. -1.
         25    2    1    2    0    0 -0.45489365942E+02  0.18415121273E+02 -0.14231299705E+03  0.19572903013E+03  0.12509382479E+03 0.  0.
         23    2    1    2    0    0  0.45489365942E+02 -0.18415121273E+02 -0.92204921835E+02  0.13861248541E+03  0.91122304598E+02 0.  0.
          5    1    3    3  502    0  0.90113158971E+00  0.62884018751E+02 -0.10153175633E+03  0.11950473545E+03  0.41800000000E+01 0.  1.
         -5    1    3    3    0  502 -0.46390497531E+02 -0.44468897478E+02 -0.40781240715E+02  0.76224294673E+02  0.41800000000E+01 0.  1.
        -11    1    4    4    0    0  0.31410207508E+02 -0.68594300703E+01  0.10871771229E+02  0.33938891058E+02  0.00000000000E+00 0.  1.
         11    1    4    4    0    0  0.14079158433E+02 -0.11555691203E+02 -0.10307669306E+03  0.10467359435E+03  0.00000000000E+00 0. -1.
</event>
<event>
 8    1  0.7130890E-009  0.1558034E+03  0.7561462E-02  0.1193518E+00
         -2   -1    0    0    0  501 -0.00000000000E+00  0.00000000000E+00  0.21555968133E+02  0.21555968133E+02  0.00000000000E+00 0.  1.
          2   -1    0    0  501    0  0.00000000000E+00 -0.00000000000E+00 -0.11715487926E+04  0.11715487926E+04  0.00000000000E+00 0. -1.
         25    2    1    2    0    0 -0.36748648699E+02 -0.11075572169E+03 -0.65300471064E+03  0.67504079455E+03  0.12509048374E+03 0.  0.
         23    2    1    2    0    0  0.36748648699E+02  0.11075572169E+03 -0.49698811382E+03  0.51806396617E+03  0.88180466666E+02 0.  0.
          5    1    3    3  502    0 -0.80343666643E+02 -0.84984160451E+02 -0.39029612476E+03  0.40746282002E+03  0.41800000000E+01 0.  1.
         -5    1    3    3    0  502  0.43595017944E+02 -0.25771561243E+02 -0.26270858588E+03  0.26757797453E+03  0.41800000000E+01 0.  1.
        -11    1    4    4    0    0 -0.26771747053E+02  0.44852507354E+02 -0.22877869443E+03  0.23466607100E+03  0.00000000000E+00 0. -1.
         11    1    4    4    0    0  0.63520395751E+02  0.65903214340E+02 -0.26820941939E+03  0.28339789517E+03  0.00000000000E+00 0.  1.
</event>
<event>
 8    1  0.7130890E-009  0.1154866E+03  0.7561462E-02  0.1250734E+00
         -2   -1    0    0    0  501 -0.00000000000E+00  0.00000000000E+00  0.19190364095E+02  0.19190364095E+02  0.00000000000E+00 0.  1.
          2   -1    0    0  501    0  0.00000000000E+00 -0.00000000000E+00 -0.81211426793E+03  0.81211426793E+03  0.00000000000E+00 0. -1.
         25    2    1    2    0    0 -0.60183884273E+02 -0.10877051745E+02 -0.42782155190E+03  0.44991013529E+03  0.12508972535E+03 0.  0.
         23    2    1    2    0    0  0.60183884273E+02  0.10877051745E+02 -0.36510235193E+03  0.38139449673E+03  0.91769409770E+02 0.  0.
          5    1    3    3  502    0  0.31666976397E+02  0.23550261317E+01 -0.40655454547E+02  0.51755984453E+02  0.41800000000E+01 0. -1.
         -5    1    3    3    0  502 -0.91850860671E+02 -0.13232077877E+02 -0.38716609735E+03  0.39815415084E+03  0.41800000000E+01 0. -1.
        -11    1    4    4    0    0  0.75675918135E+02 -0.13791128322E+02 -0.30577007047E+03  0.31529728163E+03  0.00000000000E+00 0. -1.
         11    1    4    4    0    0 -0.15492033862E+02  0.24668180068E+02 -0.59332281463E+02  0.66097215105E+02  0.00000000000E+00 0.  1.
</event>
<event>
 8    1  0.7130890E-009  0.1103737E+03  0.7561462E-02  0.1259879E+00
          1   -1    0    0  501    0  0.00000000000E+00  0.00000000000E+00  0.26303610433E+03  0.26303610433E+03  0.00000000000E+00 0. -1.
         -1   -1    0    0    0  501 -0.00000000000E+00 -0.00000000000E+00 -0.52308285374E+02  0.52308285374E+02  0.00000000000E+00 0.  1.
         25    2    1    2    0    0  0.13638994362E+02 -0.36649132865E+02  0.14437287647E+03  0.19498758725E+03  0.12508977022E+03 0.  0.
         23    2    1    2    0    0 -0.13638994362E+02  0.36649132865E+02  0.66354942492E+02  0.12035680246E+03  0.92485676716E+02 0.  0.
          5    1    3    3  502    0 -0.45989241763E+02 -0.50626631159E+02  0.88943047454E+02  0.11227824469E+03  0.41800000000E+01 0.  1.
         -5    1    3    3    0  502  0.59628236125E+02  0.13977498293E+02  0.55429829013E+02  0.82709342558E+02  0.41800000000E+01 0.  1.
        -11    1    4    4    0    0  0.16101397706E+01  0.61585745217E+02  0.18576591126E+02  0.64346610648E+02  0.00000000000E+00 0.  1.
         11    1    4    4    0    0 -0.15249134133E+02 -0.24936612351E+02  0.47778351365E+02  0.56010191810E+02  0.00000000000E+00 0. -1.
</event>
<event>
 8    1  0.7130890E-009  0.1265301E+03  0.7561462E-02  0.1232697E+00
         -2   -1    0    0    0  501 -0.00000000000E+00  0.00000000000E+00  0.23228349421E+03  0.23228349421E+03  0.00000000000E+00 0.  1.
          2   -1    0    0  501    0  0.00000000000E+00 -0.00000000000E+00 -0.10030869445E+03  0.10030869445E+03  0.00000000000E+00 0. -1.
         25    2    1    2    0    0  0.75958940814E+02  0.75765292084E+02  0.70151407951E+02  0.17911515926E+03  0.12510347744E+03 0.  0.
         23    2    1    2    0    0 -0.75958940814E+02 -0.75765292084E+02  0.61823391812E+02  0.15347702940E+03  0.90680354005E+02 0.  0.
          5    1    3    3  502    0  0.45016748629E+02  0.18551310728E+02 -0.31659518220E+02  0.58227624722E+02  0.41800000000E+01 0.  1.
         -5    1    3    3    0  502  0.30942192186E+02  0.57213981356E+02  0.10181092617E+03  0.12088753454E+03  0.41800000000E+01 0.  1.
        -11    1    4    4    0    0 -0.63149721049E+02 -0.99974576754E+00  0.39143791226E+02  0.74304260656E+02  0.00000000000E+00 0.  1.
         11    1    4    4    0    0 -0.12809219766E+02 -0.74765546317E+02  0.22679600586E+02  0.79172768739E+02  0.00000000000E+00 0. -1.
</event>
<event>
 8    1  0.7130890E-009  0.3075879E+03  0.7561462E-02  0.1081508E+00
         -2   -1    0    0    0  501 -0.00000000000E+00  0.00000000000E+00  0.21615619174E+03  0.21615619174E+03  0.00000000000E+00 0.  1.
          2   -1    0    0  501    0  0.00000000000E+00 -0.00000000000E+00 -0.49086567641E+03  0.49086567641E+03  0.00000000000E+00 0. -1.
         25    2    1    2    0    0  0.30604114037E+03  0.36772940950E+01 -0.11477385910E+03  0.34999379116E+03  0.12509161854E+03 0.  0.
         23    2    1    2    0    0 -0.30604114037E+03 -0.36772940950E+01 -0.15993562556E+03  0.35702807699E+03  0.90636313600E+02 0.  0.
          5    1    3    3  502    0  0.11575064363E+02 -0.65889577125E+01 -0.45076843619E+02  0.47188883324E+02  0.41800000000E+01 0.  1.
         -5    1    3    3    0  502  0.29446607600E+03  0.10266251808E+02 -0.69697015485E+02  0.30280490784E+03  0.41800000000E+01 0.  1.
        -11    1    4    4    0    0 -0.68792587295E+02  0.63216497101E+01  0.28294903563E+01  0.69140359686E+02  0.00000000000E+00 0.  1.
         11    1    4    4    0    0 -0.23724855307E+03 -0.99989438051E+01 -0.16276511592E+03  0.28788771730E+03  0.00000000000E+00 0. -1.
</event>
<event>
 8    1  0.7130890E-009  0.1048640E+03  0.7561462E-02  0.1270388E+00
         -2   -1    0    0    0  501 -0.00000000000E+00  0.00000000000E+00  0.13548147870E+03  0.13548147870E+03  0.00000000000E+00 0.  1.
          2   -1    0    0  501    0  0.00000000000E+00 -0.00000000000E+00 -0.10122264788E+03  0.10122264788E+03  0.00000000000E+00 0. -1.
         25    2    1    2    0    0  0.12253088230E+02  0.44155715938E+02  0.21547914083E+02  0.13494368562E+03  0.12508245387E+03 0.  0.
         23    2    1    2    0    0 -0.12253088230E+02 -0.44155715938E+02  0.12710916742E+02  0.10176044095E+03  0.89965296184E+02 0.  0.
          5    1    3    3  502    0  0.54463268422E+02  0.59888018007E+02 -0.71450365021E+01  0.81371655106E+02  0.41800000000E+01 0. -1.
         -5    1    3    3    0  502 -0.42210180192E+02 -0.15732302069E+02  0.28692950585E+02  0.53572030515E+02  0.41800000000E+01 0. -1.
        -11    1    4    4    0    0  0.28113120112E+02 -0.79741558511E+01  0.32818529197E+02  0.43943037476E+02  0.00000000000E+00 0.  1.
         11    1    4    4    0    0 -0.40366208342E+02 -0.36181560087E+02 -0.20107612455E+02  0.57817403478E+02  0.00000000000E+00 0. -1.
</event>
<event>
 8    1  0.7130890E-009  0.9865380E+02  0.7561462E-02  0.1283153E+00
         -2   -1    0    0    0  501 -0.00000000000E+00  0.00000000000E+00  0.24061814969E+02  0.24061814969E+02  0.00000000000E+00 0.  1.
          2   -1    0    0  501    0  0.00000000000E+00 -0.00000000000E+00 -0.14103994086E+04  0.14103994086E+04  0.00000000000E+00 0. -1.
         25    2    1    2    0    0 -0.21772072526E+02 -0.54755018353E+01 -0.13087993188E+04  0.13149552756E+04  0.12509083012E+03 0.  0.
         23    2    1    2    0    0  0.21772072526E+02  0.54755018353E+01 -0.77538274845E+02  0.11950594794E+03  0.88121979467E+02 0.  0.
          5    1    3    3  502    0  0.20906850410E+02  0.43157389250E+02 -0.27942729069E+03  0.28354318864E+03  0.41800000000E+01 0. -1.
         -5    1    3    3    0  502 -0.42678922936E+02 -0.48632891086E+02 -0.10293720281E+04  0.10314120870E+04  0.41800000000E+01 0. -1.
        -11    1    4    4    0    0  0.52922846621E+02  0.52239724525E+01 -0.69169067025E+02  0.87249512410E+02  0.00000000000E+00 0. -1.
         11    1    4    4    0    0 -0.31150774094E+02  0.25152938284E+00 -0.83692078203E+01  0.32256435532E+02  0.00000000000E+00 0.  1.
</event>
<event>
 8    1  0.7130890E-009  0.7772031E+02  0.7561462E-02  0.1335648E+00
         -2   -1    0    0    0  501 -0.00000000000E+00  0.00000000000E+00  0.18300847020E+02  0.18300847020E+02  0.00000000000E+00 0. -1.
          2   -1    0    0  501    0  0.00000000000E+00 -0.00000000000E+00 -0.64492394328E+03  0.64492394328E+03  0.00000000000E+00 0.  1.
         25    2    1    2    0    0 -0.13355406381E+02 -0.16175482021E+02 -0.38009040212E+03  0.40069432511E+03  0.12508882963E+03 0.  0.
         23    2    1    2    0    0  0.13355406381E+02  0.16175482021E+02 -0.24653269414E+03  0.26253046519E+03  0.87771651301E+02 0.  0.
          5    1    3    3  502    0 -0.31078200687E+01 -0.40917076301E+02 -0.36917943313E+03  0.37147650252E+03  0.41800000000E+01 0.  1.
         -5    1    3    3    0  502 -0.10247586312E+02  0.24741594280E+02 -0.10910968987E+02  0.29217822591E+02  0.41800000000E+01 0.  1.
        -11    1    4    4    0    0  0.40257283045E+01  0.50937846804E+02 -0.10926064901E+03  0.12061824135E+03  0.00000000000E+00 0.  1.
         11    1    4    4    0    0  0.93296780766E+01 -0.34762364783E+02 -0.13727204513E+03  0.14191222383E+03  0.00000000000E+00 0. -1.
</event>
<event>
 8    1  0.7130890E-009  0.1066990E+03  0.7561462E-02  0.1266808E+00
         -1   -1    0    0    0  501 -0.00000000000E+00  0.00000000000E+00  0.15616317986E+03  0.15616317986E+03  0.00000000000E+00 0.  1.
          1   -1    0    0  501    0  0.00000000000E+00 -0.00000000000E+00 -0.93347657543E+02  0.93347657543E+02  0.00000000000E+00 0. -1.
         25    2    1    2    0    0  0.27509383818E+02  0.25531444396E+02  0.87905220252E+02  0.15742863950E+03  0.12509127842E+03 0.  0.
         23    2    1    2    0    0 -0.27509383818E+02 -0.25531444396E+02 -0.25089697938E+02  0.92082197894E+02  0.80255949159E+02 0.  0.
          5    1    3    3  502    0 -0.48605373105E+02 -0.73997336885E+00  0.43574983442E+02  0.65416216928E+02  0.41800000000E+01 0. -1.
         -5    1    3    3    0  502  0.76114756922E+02  0.26271417765E+02  0.44330236810E+02  0.92012422576E+02  0.41800000000E+01 0. -1.
        -11    1    4    4    0    0  0.70746436384E+01  0.23181502266E+02 -0.21223641002E+02  0.32216076224E+02  0.00000000000E+00 0.  1.
         11    1    4    4    0    0 -0.34584027456E+02 -0.48712946662E+02 -0.38660569363E+01  0.59866121670E+02  0.00000000000E+00 0. -1.
</event>
<event>
 8    1  0.7130890E-009  0.1030487E+03  0.7561462E-02  0.1274012E+00
         -2   -1    0    0    0  501 -0.00000000000E+00  0.00000000000E+00  0.30719095442E+02  0.30719095442E+02  0.00000000000E+00 0.  1.
          2   -1    0    0  501    0  0.00000000000E+00 -0.00000000000E+00 -0.58739269801E+03  0.58739269801E+03  0.00000000000E+00 0. -1.
         25    2    1    2    0    0  0.51705974889E+02 -0.48601867095E+02 -0.29964517232E+03  0.33237202535E+03  0.12509310379E+03 0.  0.
         23    2    1    2    0    0 -0.51705974889E+02  0.48601867095E+02 -0.25702843025E+03  0.28573976810E+03  0.10270322194E+03 0.  0.
          5    1    3    3  502    0  0.13641657849E+01 -0.62005015405E+02 -0.57587369773E+02  0.84736417443E+02  0.41800000000E+01 0. -1.
         -5    1    3    3    0  502  0.50341809104E+02  0.13403148310E+02 -0.24205780255E+03  0.24763560791E+03  0.41800000000E+01 0. -1.
        -11    1    4    4    0    0 -0.47331111553E+02  0.47105206687E+01 -0.22806370860E+03  0.23297098168E+03  0.00000000000E+00 0. -1.
         11    1    4    4    0    0 -0.43748633363E+01  0.43891346426E+02 -0.28964721647E+02  0.52768786421E+02  0.00000000000E+00 0.  1.
</event>
<event>
 8    1  0.7130890E-009  0.8772392E+02  0.7561462E-02  0.1308459E+00
         -1   -1    0    0    0  501 -0.00000000000E+00  0.00000000000E+00  0.11662008290E+03  0.11662008290E+03  0.00000000000E+00 0.  1.
          1   -1    0    0  501    0  0.00000000000E+00 -0.00000000000E+00 -0.14482589619E+03  0.14482589619E+03  0.00000000000E+00 0. -1.
         25    2    1    2    0    0  0.41522554471E+02  0.11081865233E+02 -0.71605530326E+02  0.15040857730E+03  0.12509379635E+03 0.  0.
         23    2    1    2    0    0 -0.41522554471E+02 -0.11081865233E+02  0.43399717037E+02  0.11103740179E+03  0.92729924455E+02 0.  0.
          5    1    3    3  502    0  0.12299877199E+02  0.36845309882E+02 -0.96417165957E+02  0.10403175540E+03  0.41800000000E+01 0.  1.
         -5    1    3    3    0  502  0.29222677272E+02 -0.25763444649E+02  0.24811635630E+02  0.46376821903E+02  0.41800000000E+01 0.  1.
        -11    1    4    4    0    0  0.26176817195E+02 -0.13505006529E+02  0.29882580881E+02  0.41959261193E+02  0.00000000000E+00 0.  1.
         11    1    4    4    0    0 -0.67699371666E+02  0.24231412962E+01  0.13517136156E+02  0.69078140592E+02  0.00000000000E+00 0. -1.
</event>
<event>
 8    1  0.7130890E-009  0.1254426E+03  0.7561462E-02  0.1234379E+00
         -1   -1    0    0    0  501 -0.00000000000E+00  0.00000000000E+00  0.15178204748E+03  0.15178204748E+03  0.00000000000E+00 0.  1.
          1   -1    0    0  501    0  0.00000000000E+00 -0.00000000000E+00 -0.13588207074E+03  0.13588207074E+03  0.00000000000E+00 0. -1.
         25    2    1    2    0    0  0.90808400001E+02  0.21894821283E+02  0.30150221970E+01  0.15614623836E+03  0.12508800376E+03 0.  0.
         23    2    1    2    0    0 -0.90808400001E+02 -0.21894821283E+02  0.12884954545E+02  0.13151787986E+03  0.91680870193E+02 0.  0.
          5    1    3    3  502    0 -0.28382318720E+02 -0.13298615737E+02  0.33473336180E+01  0.31797582279E+02  0.41800000000E+01 0. -1.
         -5    1    3    3    0  502  0.11919071872E+03  0.35193437020E+02 -0.33231142105E+00  0.12434865608E+03  0.41800000000E+01 0. -1.
        -11    1    4    4    0    0 -0.59221701196E+02 -0.22423915094E+02  0.51502792042E+02  0.81624625260E+02  0.00000000000E+00 0.  1.
         11    1    4    4    0    0 -0.31586698805E+02  0.52909381155E+00 -0.38617837496E+02  0.49893254600E+02  0.00000000000E+00 0. -1.
</event>
<event>
 8    1  0.7130890E-009  0.1327588E+03  0.7561462E-02  0.1223419E+00
         -1   -1    0    0    0  501 -0.00000000000E+00  0.00000000000E+00  0.15691157429E+02  0.15691157429E+02  0.00000000000E+00 0.  1.
          1   -1    0    0  501    0  0.00000000000E+00 -0.00000000000E+00 -0.15878614810E+04  0.15878614810E+04  0.00000000000E+00 0. -1.
         25    2    1    2    0    0 -0.57805244309E+02 -0.93558173523E+02 -0.10081245500E+04  0.10217909430E+04  0.12508814803E+03 0.  0.
         23    2    1    2    0    0  0.57805244309E+02  0.93558173523E+02 -0.56404577356E+03  0.58176169542E+03  0.90578460378E+02 0.  0.
          5    1    3    3  502    0 -0.37742551239E+02 -0.98190918680E+02 -0.98474943082E+03  0.99036097994E+03  0.41800000000E+01 0.  1.
         -5    1    3    3    0  502 -0.20062693070E+02  0.46327451569E+01 -0.23375119161E+02  0.31429963040E+02  0.41800000000E+01 0.  1.
        -11    1    4    4    0    0 -0.20720804918E+02  0.37167451286E+02 -0.12022435700E+03  0.12753300438E+03  0.00000000000E+00 0.  1.
         11    1    4    4    0    0  0.78526049227E+02  0.56390722238E+02 -0.44382141656E+03  0.45422869103E+03  0.00000000000E+00 0. -1.
</event>
<event>
 8    1  0.7130890E-009  0.1120408E+03  0.7561462E-02  0.1256837E+00
          1   -1    0    0  501    0  0.00000000000E+00  0.00000000000E+00  0.54197108376E+02  0.54197108376E+02  0.00000000000E+00 0. -1.
         -1   -1    0    0    0  501 -0.00000000000E+00 -0.00000000000E+00 -0.34508046799E+03  0.34508046799E+03  0.00000000000E+00 0.  1.
         25    2    1    2    0    0 -0.79279480730E+02 -0.24347156796E+02 -0.15740288177E+03  0.21748829217E+03  0.12508984744E+03 0.  0.
         23    2    1    2    0    0  0.79279480730E+02  0.24347156796E+02 -0.13348047785E+03  0.18178928420E+03  0.91390840757E+02 0.  0.
          5    1    3    3  502    0 -0.51606474196E+02 -0.68024672726E+02 -0.52128956528E+02  0.10012734285E+03  0.41800000000E+01 0.  1.
         -5    1    3    3    0  502 -0.27673006534E+02  0.43677515929E+02 -0.10527392524E+03  0.11736094931E+03  0.41800000000E+01 0.  1.
        -11    1    4    4    0    0  0.10938472014E+02  0.13736929624E+02  0.11615287443E+02  0.21053938061E+02  0.00000000000E+00 0. -1.
         11    1    4    4    0    0  0.68341008716E+02  0.10610227172E+02 -0.14509576529E+03  0.16073534614E+03  0.00000000000E+00 0.  1.
</event>
<event>
 8    1  0.7130890E-009  0.9475115E+02  0.7561462E-02  0.1291738E+00
          1   -1    0    0  501    0  0.00000000000E+00  0.00000000000E+00  0.83062949647E+03  0.83062949647E+03  0.00000000000E+00 0. -1.
         -1   -1    0    0    0  501 -0.00000000000E+00 -0.00000000000E+00 -0.16818024638E+02  0.16818024638E+02  0.00000000000E+00 0.  1.
         25    2    1    2    0    0  0.28875446314E+02  0.32833868486E+02  0.52993737067E+03  0.54625392906E+03  0.12509150193E+03 0.  0.
         23    2    1    2    0    0 -0.28875446314E+02 -0.32833868486E+02  0.28387410116E+03  0.30119359205E+03  0.90670944982E+02 0.  0.
          5    1    3    3  502    0  0.54441157211E+02  0.48507418189E+02  0.16973970565E+03  0.18478595535E+03  0.41800000000E+01 0.  1.
         -5    1    3    3    0  502 -0.25565710897E+02 -0.15673549703E+02  0.36019766502E+03  0.36146797371E+03  0.41800000000E+01 0.  1.
        -11    1    4    4    0    0 -0.22943329253E+02  0.21553009140E+02  0.38188416211E+02  0.49490238360E+02  0.00000000000E+00 0.  1.
         11    1    4    4    0    0 -0.59321170611E+01 -0.54386877626E+02  0.24568568495E+03  0.25170335369E+03  0.00000000000E+00 0. -1.
</event>
<event>
 8    1  0.7130890E-009  0.7431139E+02  0.7561462E-02  0.1346017E+00
         -1   -1    0    0    0  501 -0.00000000000E+00  0.00000000000E+00  0.49093399511E+02  0.49093399511E+02  0.00000000000E+00 0.  1.
          1   -1    0    0  501    0  0.00000000000E+00 -0.00000000000E+00 -0.32554707768E+03  0.32554707768E+03  0.00000000000E+00 0. -1.
         25    2    1    2    0    0 -0.27636550659E+02 -0.14308541534E+02 -0.23788085301E+03  0.27055972283E+03  0.12508697014E+03 0.  0.
         23    2    1    2    0    0  0.27636550659E+02  0.14308541534E+02 -0.38572825161E+02  0.10408075436E+03  0.91522823892E+02 0.  0.
          5    1    3    3  502    0 -0.22788404817E+02  0.31490057424E+02 -0.13342653833E+02  0.41309005337E+02  0.41800000000E+01 0. -1.
         -5    1    3    3    0  502 -0.48481458420E+01 -0.45798598958E+02 -0.22453819917E+03  0.22925071750E+03  0.41800000000E+01 0. -1.
        -11    1    4    4    0    0  0.10070546541E+02 -0.21309918760E+02  0.21608886740E+02  0.31976124395E+02  0.00000000000E+00 0.  1.
         11    1    4    4    0    0  0.17566004118E+02  0.35618460294E+02 -0.60181711901E+02  0.72104629960E+02  0.00000000000E+00 0. -1.
</event>
<event>
 8    1  0.7130890E-009  0.1295136E+03  0.7561462E-02  0.1228179E+00
          1   -1    0    0  501    0  0.00000000000E+00  0.00000000000E+00  0.17851077763E+03  0.17851077763E+03  0.00000000000E+00 0. -1.
         -1   -1    0    0    0  501 -0.00000000000E+00 -0.00000000000E+00 -0.98057328969E+02  0.98057328969E+02  0.00000000000E+00 0.  1.
         25    2    1    2    0    0 -0.74670792884E+02  0.46727543560E+01  0.52900047734E+02  0.15504903897E+03  0.12507688633E+03 0.  0.
         23    2    1    2    0    0  0.74670792884E+02 -0.46727543560E+01  0.27553400924E+02  0.12151906762E+03  0.91706771561E+02 0.  0.
          5    1    3    3  502    0 -0.57960274663E+01  0.55440573784E+02  0.31560808211E+01  0.55988252357E+02  0.41800000000E+01 0. -1.
         -5    1    3    3    0  502 -0.68874765418E+02 -0.50767819428E+02  0.49743966913E+02  0.99060786617E+02  0.41800000000E+01 0. -1.
        -11    1    4    4    0    0 -0.21265658361E+02  0.15670268762E+01  0.10901666178E+02  0.23948488976E+02  0.00000000000E+00 0. -1.
         11    1    4    4    0    0  0.95936451246E+02 -0.62397812322E+01  0.16651734746E+02  0.97570578647E+02  0.00000000000E+00 0.  1.
</event>
<event>
 8    1  0.7130890E-009  0.1039067E+03  0.7561462E-02  0.1272289E+00
         -1   -1    0    0    0  501 -0.00000000000E+00  0.00000000000E+00  0.42163251608E+02  0.42163251608E+02  0.00000000000E+00 0.  1.
          1   -1    0    0  501    0  0.00000000000E+00 -0.00000000000E+00 -0.41822483293E+03  0.41822483293E+03  0.00000000000E+00 0. -1.
         25    2    1    2    0    0 -0.34325930802E+00  0.55414348663E+02 -0.29403586807E+03  0.32430867625E+03  0.12509259735E+03 0.  0.
         23    2    1    2    0    0  0.34325930802E+00 -0.55414348663E+02 -0.82025713255E+02  0.13607940829E+03  0.93373014635E+02 0.  0.
          5    1    3    3  502    0 -0.32969614680E+02 -0.16090637753E+02 -0.26536849649E+02  0.45470659823E+02  0.41800000000E+01 0. -1.
         -5    1    3    3    0  502  0.32626355372E+02  0.71504986416E+02 -0.26749901842E+03  0.27883801642E+03  0.41800000000E+01 0. -1.
        -11    1    4    4    0    0  0.26204651072E+02 -0.60404073803E+02 -0.20191868130E+02  0.68869785889E+02  0.00000000000E+00 0.  1.
         11    1    4    4    0    0 -0.25861391764E+02  0.49897251400E+01 -0.61833845126E+02  0.67209622406E+02  0.00000000000E+00 0. -1.
</event>
<event>
 8    1  0.7130890E-009  0.1428976E+03  0.7561462E-02  0.1209482E+00
          1   -1    0    0  501    0  0.00000000000E+00  0.00000000000E+00  0.17464000670E+04  0.17464000670E+04  0.00000000000E+00 0. -1.
         -1   -1    0    0    0  501 -0.00000000000E+00 -0.00000000000E+00 -0.20066268933E+02  0.20066268933E+02  0.00000000000E+00 0.  1.
         25    2    1    2    0    0  0.94883096613E+02 -0.18300095692E+02  0.14632776937E+04  0.14717902879E+04  0.12508935662E+03 0.  0.
         23    2    1    2    0    0 -0.94883096613E+02  0.18300095692E+02  0.26305610444E+03  0.29467604811E+03  0.91092061786E+02 0.  0.
          5    1    3    3  502    0 -0.27426510144E+02  0.72520904146E+01  0.43427015562E+03  0.43521586223E+03  0.41800000000E+01 0. -1.
         -5    1    3    3    0  502  0.12230960676E+03 -0.25552186107E+02  0.10290075380E+04  0.10365744256E+04  0.41800000000E+01 0. -1.
        -11    1    4    4    0    0 -0.47273479483E+02 -0.36340396949E+02  0.13389774720E+03  0.14657425770E+03  0.00000000000E+00 0.  1.
         11    1    4    4    0    0 -0.47609617130E+02  0.54640492642E+02  0.12915835723E+03  0.14810179041E+03  0.00000000000E+00 0. -1.
</event>
<event>
 8    1  0.7130890E-009  0.1129425E+03  0.7561462E-02  0.1255216E+00
          1   -1    0    0  501    0  0.00000000000E+00  0.00000000000E+00  0.16376070569E+02  0.16376070569E+02  0.00000000000E+00 0. -1.
         -1   -1    0    0    0  501 -0.00000000000E+00 -0.00000000000E+00 -0.89485451553E+03  0.89485451553E+03  0.00000000000E+00 0.  1.
         25    2    1    2    0    0 -0.37732150689E+02 -0.27737738117E+02 -0.42237966105E+03  0.44299666647E+03  0.12509344958E+03 0.  0.
         23    2    1    2    0    0  0.37732150689E+02  0.27737738117E+02 -0.45609878391E+03  0.46823391963E+03  0.94993712897E+02 0.  0.
          5    1    3    3  502    0  0.33706710794E+02  0.14447885217E+02 -0.54282588813E+02  0.65642635444E+02  0.41800000000E+01 0. -1.
         -5    1    3    3    0  502 -0.71438861483E+02 -0.42185623334E+02 -0.36809707223E+03  0.37735403103E+03  0.41800000000E+01 0. -1.
        -11    1    4    4    0    0 -0.29346488285E+02  0.25357261736E+02 -0.16486489963E+03  0.16936541036E+03  0.00000000000E+00 0.  1.
         11    1    4    4    0    0  0.67078638974E+02  0.23804763804E+01 -0.29123388428E+03  0.29886850926E+03  0.00000000000E+00 0. -1.
</event>
<event>
 8    1  0.7130890E-009  0.1028363E+03  0.7561462E-02  0.1274442E+00
         -4   -1    0    0    0  501 -0.00000000000E+00  0.00000000000E+00  0.16149926726E+03  0.16149926726E+03  0.00000000000E+00 0. -1.
          4   -1    0    0  501    0  0.00000000000E+00 -0.00000000000E+00 -0.95735704715E+02  0.95735704715E+02  0.00000000000E+00 0.  1.
         25    2    1    2    0    0  0.35395152094E+02  0.38498359812E+02  0.69511440656E+02  0.15236283710E+03  0.12509058017E+03 0.  0.
         23    2    1    2    0    0 -0.35395152094E+02 -0.38498359812E+02 -0.37478781097E+01  0.10487213487E+03  0.90824983253E+02 0.  0.
          5    1    3    3  502    0 -0.12264332213E+02 -0.20906044563E+02  0.71961908282E+02  0.76049097217E+02  0.41800000000E+01 0. -1.
         -5    1    3    3    0  502  0.47659484307E+02  0.59404404375E+02 -0.24504676255E+01  0.76313739885E+02  0.41800000000E+01 0. -1.
        -11    1    4    4    0    0  0.15530871480E+02  0.21234183164E+02 -0.12586503592E+01  0.26337856866E+02  0.00000000000E+00 0.  1.
         11    1    4    4    0    0 -0.50926023574E+02 -0.59732542976E+02 -0.24892277506E+01  0.78534278008E+02  0.00000000000E+00 0. -1.
</event>
<event>
 8    1  0.7130890E-009  0.1095511E+03  0.7561462E-02  0.1261403E+00
         -1   -1    0    0    0  501 -0.00000000000E+00  0.00000000000E+00  0.11233178044E+03  0.11233178044E+03  0.00000000000E+00 0.  1.
          1   -1    0    0  501    0  0.00000000000E+00 -0.00000000000E+00 -0.52008034517E+03  0.52008034517E+03  0.00000000000E+00 0. -1.
         25    2    1    2    0    0  0.87266881639E+01  0.77873326667E+02 -0.47277882474E+03  0.49528444672E+03  0.12508579435E+03 0.  0.
         23    2    1    2    0    0 -0.87266881639E+01 -0.77873326667E+02  0.65030260011E+02  0.13712767889E+03  0.91840380600E+02 0.  0.
          5    1    3    3  502    0  0.44200141711E+02  0.75780539082E+00 -0.64840063769E+02  0.78587104959E+02  0.41800000000E+01 0. -1.
         -5    1    3    3    0  502 -0.35473453547E+02  0.77115521276E+02 -0.40793876098E+03  0.41669734177E+03  0.41800000000E+01 0. -1.
        -11    1    4    4    0    0  0.15676446898E+02 -0.51263631155E+02  0.81414862247E+02  0.97478667724E+02  0.00000000000E+00 0.  1.
         11    1    4    4    0    0 -0.24403135062E+02 -0.26609695512E+02 -0.16384602236E+02  0.39649011168E+02  0.00000000000E+00 0. -1.
</event>
<event>
 8    1  0.7130890E-009  0.9161954E+02  0.7561462E-02  0.1298976E+00
         -4   -1    0    0    0  501 -0.00000000000E+00  0.00000000000E+00  0.21324408649E+03  0.21324408649E+03  0.00000000000E+00 0. -1.
          4   -1    0    0  501    0  0.00000000000E+00 -0.00000000000E+00 -0.65592103500E+02  0.65592103500E+02  0.00000000000E+00 0.  1.
         25    2    1    2    0    0  0.18975572182E+02 -0.98527946558E+01  0.14119070245E+03  0.18983534320E+03  0.12508194582E+03 0.  0.
         23    2    1    2    0    0 -0.18975572182E+02  0.98527946558E+01  0.64612805380E+01  0.89000846782E+02  0.86152496653E+02 0.  0.
          5    1    3    3  502    0  0.55847152852E+02  0.52023026087E+00  0.15123913563E+02  0.58011897768E+02  0.41800000000E+01 0.  1.
         -5    1    3    3    0  502 -0.36871580669E+02 -0.10373024917E+02  0.12606678888E+03  0.13182344544E+03  0.41800000000E+01 0.  1.
        -11    1    4    4    0    0 -0.44965846981E+02  0.31481019953E+02  0.56258367383E+01  0.55178184557E+02  0.00000000000E+00 0. -1.
         11    1    4    4    0    0  0.25990274799E+02 -0.21628225297E+02  0.83544379968E+00  0.33822662225E+02  0.00000000000E+00 0.  1.
</event>
<event>
 8    1  0.7130890E-009  0.9870203E+02  0.7561462E-02  0.1283049E+00
         -2   -1    0    0    0  501 -0.00000000000E+00  0.00000000000E+00  0.26655760078E+02  0.26655760078E+02  0.00000000000E+00 0.  1.
          2   -1    0    0  501    0  0.00000000000E+00 -0.00000000000E+00 -0.71260050510E+03  0.71260050510E+03  0.00000000000E+00 0. -1.
         25    2    1    2    0    0  0.61093629005E+02 -0.55669680194E+02 -0.32114401158E+03  0.35441823058E+03  0.12508901309E+03 0.  0.
         23    2    1    2    0    0 -0.61093629005E+02  0.55669680194E+02 -0.36480073345E+03  0.38483803460E+03  0.90494159786E+02 0.  0.
          5    1    3    3  502    0  0.18860542387E+02  0.95339576280E+01 -0.24368117392E+03  0.24463156651E+03  0.41800000000E+01 0. -1.
         -5    1    3    3    0  502  0.42233086618E+02 -0.65203637822E+02 -0.77462837654E+02  0.10978666407E+03  0.41800000000E+01 0. -1.
        -11    1    4    4    0    0 -0.36828712975E+02  0.62773308665E+02 -0.34535820992E+03  0.35294353024E+03  0.00000000000E+00 0. -1.
         11    1    4    4    0    0 -0.24264916030E+02 -0.71036284714E+01 -0.19442523531E+02  0.31894504365E+02  0.00000000000E+00 0.  1.
</event>
<event>
 8    1  0.7130890E-009  0.5706507E+02  0.7561462E-02  0.1410578E+00
          2   -1    0    0  501    0  0.00000000000E+00  0.00000000000E+00  0.27668949479E+03  0.27668949479E+03  0.00000000000E+00 0. -1.
         -2   -1    0    0    0  501 -0.00000000000E+00 -0.00000000000E+00 -0.83661074358E+02  0.83661074358E+02  0.00000000000E+00 0.  1.
         25    2    1    2    0    0  0.48892837191E+02 -0.18345311198E+01  0.21689323168E+03  0.25511230625E+03  0.12508293177E+03 0.  0.
         23    2    1    2    0    0 -0.48892837191E+02  0.18345311198E+01 -0.23864811250E+02  0.10523826289E+03  0.90064908417E+02 0.  0.
          5    1    3    3  502    0  0.39786103913E+02  0.85207011664E+01  0.33019231868E+01  0.41035490855E+02  0.41800000000E+01 0.  1.
         -5    1    3    3    0  502  0.91067332775E+01 -0.10355232286E+02  0.21359130849E+03  0.21407681539E+03  0.41800000000E+01 0.  1.
        -11    1    4    4    0    0 -0.39624084208E+02  0.15296301330E+02  0.27990905868E+02  0.50867825736E+02  0.00000000000E+00 0. -1.
         11    1    4    4    0    0 -0.92687529821E+01 -0.13461770210E+02 -0.51855717118E+02  0.54370437159E+02  0.00000000000E+00 0.  1.
</event>
<event>
 8    1  0.7130890E-009  0.1284633E+03  0.7561462E-02  0.1229754E+00
          1   -1    0    0  501    0  0.00000000000E+00  0.00000000000E+00  0.16338542947E+03  0.16338542947E+03  0.00000000000E+00 0. -1.
         -1   -1    0    0    0  501 -0.00000000000E+00 -0.00000000000E+00 -0.13564831644E+03  0.13564831644E+03  0.00000000000E+00 0.  1.
         25    2    1    2    0    0  0.92150497812E+02 -0.44038989672E+02  0.17644556506E+02  0.16245152069E+03  0.12509204348E+03 0.  0.
         23    2    1    2    0    0 -0.92150497812E+02  0.44038989672E+02  0.10092556521E+02  0.13658222522E+03  0.90120462110E+02 0.  0.
          5    1    3    3  502    0  0.11558013016E+03 -0.17651593522E+02  0.36063208653E+02  0.12242700952E+03  0.41800000000E+01 0.  1.
         -5    1    3    3    0  502 -0.23429632349E+02 -0.26387396150E+02 -0.18418652146E+02  0.40024511171E+02  0.41800000000E+01 0.  1.
        -11    1    4    4    0    0 -0.25583863623E+02  0.19884835002E+01 -0.36857558231E+02  0.44910664027E+02  0.00000000000E+00 0.  1.
         11    1    4    4    0    0 -0.66566634189E+02  0.42050506172E+02  0.46950114753E+02  0.91671561195E+02  0.00000000000E+00 0. -1.
</event>
<event>
 8    1  0.7130890E-009  0.1090610E+03  0.7561462E-02  0.1262319E+00
          1   -1    0    0  501    0  0.00000000000E+00  0.00000000000E+00  0.19016730593E+04  0.19016730593E+04  0.00000000000E+00 0. -1.
         -1   -1    0    0    0  501 -0.00000000000E+00 -0.00000000000E+00 -0.22140268270E+02  0.22140268270E+02  0.00000000000E+00 0.  1.
         25    2    1    2    0    0 -0.70092375436E+01  0.12051971901E+02  0.17925622907E+04  0.17969756228E+04  0.12508974183E+03 0.  0.
         23    2    1    2    0    0  0.70092375436E+01 -0.12051971901E+02  0.86970500399E+02  0.12683770482E+03  0.91266401199E+02 0.  0.
          5    1    3    3  502    0 -0.47916028135E+02  0.50331446457E+02  0.10209786584E+04  0.10233494484E+04  0.41800000000E+01 0.  1.
         -5    1    3    3    0  502  0.40906790592E+02 -0.38279474556E+02  0.77158363226E+03  0.77362617436E+03  0.41800000000E+01 0.  1.
        -11    1    4    4    0    0 -0.34566625434E+02 -0.31187092735E+02  0.43570257516E+02  0.63764046979E+02  0.00000000000E+00 0. -1.
         11    1    4    4    0    0  0.41575862978E+02  0.19135120833E+02  0.43400242884E+02  0.63073657846E+02  0.00000000000E+00 0.  1.
</event>
<event>
 8    1  0.7130890E-009  0.1366720E+03  0.7561462E-02  0.1217878E+00
         -1   -1    0    0    0  501 -0.00000000000E+00  0.00000000000E+00  0.33509646946E+03  0.33509646946E+03  0.00000000000E+00 0.  1.
          1   -1    0    0  501    0  0.00000000000E+00 -0.00000000000E+00 -0.94391758966E+02  0.94391758966E+02  0.00000000000E+00 0. -1.
         25    2    1    2    0    0  0.12837642980E+03 -0.37044981742E+02  0.18180826476E+03  0.25798672161E+03  0.12510021979E+03 0.  0.
         23    2    1    2    0    0 -0.12837642980E+03  0.37044981742E+02  0.58896445741E+02  0.17150150682E+03  0.89950748303E+02 0.  0.
          5    1    3    3  502    0  0.94776733865E+02 -0.30424964201E+02  0.32576423259E+02  0.10481890803E+03  0.41800000000E+01 0. -1.
         -5    1    3    3    0  502  0.33599695934E+02 -0.66200175407E+01  0.14923184150E+03  0.15316781358E+03  0.41800000000E+01 0. -1.
        -11    1    4    4    0    0 -0.29858949318E+01  0.10672268127E+02 -0.18675421626E+02  0.21715990616E+02  0.00000000000E+00 0. -1.
         11    1    4    4    0    0 -0.12539053487E+03  0.26372713615E+02  0.77571867366E+02  0.14978551620E+03  0.00000000000E+00 0.  1.
</event>
<event>
 8    1  0.7130890E-009  0.1670629E+03  0.7561462E-02  0.1180946E+00
         -2   -1    0    0    0  501 -0.00000000000E+00  0.00000000000E+00  0.33123984092E+02  0.33123984092E+02  0.00000000000E+00 0.  1.
          2   -1    0    0  501    0  0.00000000000E+00 -0.00000000000E+00 -0.11121783606E+04  0.11121783606E+04  0.00000000000E+00 0. -1.
         25    2    1    2    0    0  0.49499159266E+02  0.13111513905E+03 -0.78119443802E+03  0.80346507917E+03  0.12510010793E+03 0.  0.
         23    2    1    2    0    0 -0.49499159266E+02 -0.13111513905E+03 -0.29785993849E+03  0.34183726552E+03  0.92145681849E+02 0.  0.
          5    1    3    3  502    0  0.71754705474E+02  0.12722435620E+03 -0.48892614220E+03  0.51029503181E+03  0.41800000000E+01 0.  1.
         -5    1    3    3    0  502 -0.22255546208E+02  0.38907828579E+01 -0.29226829582E+03  0.29317004736E+03  0.41800000000E+01 0.  1.
        -11    1    4    4    0    0 -0.70223250332E+02 -0.64820093910E+02 -0.14155958600E+03  0.17079831923E+03  0.00000000000E+00 0.  1.
         11    1    4    4    0    0  0.20724091066E+02 -0.66295045144E+02 -0.15630035249E+03  0.17103894629E+03  0.00000000000E+00 0. -1.
</event>
<event>
 8    1  0.7130890E-009  0.9698392E+02  0.7561462E-02  0.1286769E+00
         -1   -1    0    0    0  501 -0.00000000000E+00  0.00000000000E+00  0.16294982566E+02  0.16294982566E+02  0.00000000000E+00 0.  1.
          1   -1    0    0  501    0  0.00000000000E+00 -0.00000000000E+00 -0.86924965758E+03  0.86924965758E+03  0.00000000000E+00 0. -1.
         25    2    1    2    0    0  0.21566476958E+02 -0.34641755564E+02 -0.59139595858E+03  0.60585912983E+03  0.12510372185E+03 0.  0.
         23    2    1    2    0    0 -0.21566476958E+02  0.34641755564E+02 -0.26155871644E+03  0.27968551032E+03  0.90254409196E+02 0.  0.
          5    1    3    3  502    0  0.41386574628E+02  0.32806812928E+02 -0.36319664085E+03  0.36704006302E+03  0.41800000000E+01 0.  1.
         -5    1    3    3    0  502 -0.19820097669E+02 -0.67448568492E+02 -0.22819931772E+03  0.23881906681E+03  0.41800000000E+01 0.  1.
        -11    1    4    4    0    0 -0.15183726811E+01  0.46993619637E+02 -0.24819638400E+03  0.25261067035E+03  0.00000000000E+00 0. -1.
         11    1    4    4    0    0 -0.20048104277E+02 -0.12351864074E+02 -0.13362332437E+02  0.27074839969E+02  0.00000000000E+00 0.  1.
</event>
<event>
 8    1  0.7130890E-009  0.1158532E+03  0.7561462E-02  0.1250099E+00
         -2   -1    0    0    0  501 -0.00000000000E+00  0.00000000000E+00  0.24697729966E+02  0.24697729966E+02  0.00000000000E+00 0.  1.
          2   -1    0    0  501    0  0.00000000000E+00 -0.00000000000E+00 -0.61006058805E+03  0.61006058805E+03  0.00000000000E+00 0. -1.
         25    2    1    2    0    0  0.54786530635E+02  0.17713735709E+02 -0.34760338267E+03  0.37388683196E+03  0.12509161080E+03 0.  0.
         23    2    1    2    0    0 -0.54786530635E+02 -0.17713735709E+02 -0.23775947541E+03  0.26087148606E+03  0.90603662836E+02 0.  0.
          5    1    3    3  502    0 -0.27236064755E+01 -0.42048675759E+02 -0.53195733018E+02  0.67990937460E+02  0.41800000000E+01 0.  1.
         -5    1    3    3    0  502  0.57510137110E+02  0.59762411468E+02 -0.29440764966E+03  0.30589589450E+03  0.41800000000E+01 0.  1.
        -11    1    4    4    0    0 -0.83765791907E+01 -0.49411344164E+02 -0.13023366195E+03  0.13954373765E+03  0.00000000000E+00 0. -1.
         11    1    4    4    0    0 -0.46409951444E+02  0.31697608455E+02 -0.10752581346E+03  0.12132774842E+03  0.00000000000E+00 0.  1.
</event>
<event>
 8    1  0.7130890E-009  0.1366045E+03  0.7561462E-02  0.1217972E+00
          1   -1    0    0  501    0  0.00000000000E+00  0.00000000000E+00  0.15337593453E+04  0.15337593453E+04  0.00000000000E+00 0. -1.
         -1   -1    0    0    0  501 -0.00000000000E+00 -0.00000000000E+00 -0.15969785186E+02  0.15969785186E+02  0.00000000000E+00 0.  1.
         25    2    1    2    0    0  0.48951541249E+02  0.91014897913E+02  0.10396140806E+04  0.10521998029E+04  0.12508806293E+03 0.  0.
         23    2    1    2    0    0 -0.48951541249E+02 -0.91014897913E+02  0.47817547949E+03  0.49752932762E+03  0.90574155384E+02 0.  0.
          5    1    3    3  502    0  0.41521518486E+02 -0.65367752496E+01  0.11677470926E+03  0.12417959193E+03  0.41800000000E+01 0.  1.
         -5    1    3    3    0  502  0.74300227631E+01  0.97551673163E+02  0.92283937136E+03  0.92802021094E+03  0.41800000000E+01 0.  1.
        -11    1    4    4    0    0 -0.68202448164E+02 -0.41297874407E+02  0.22249577379E+03  0.23635028606E+03  0.00000000000E+00 0.  1.
         11    1    4    4    0    0  0.19250906915E+02 -0.49717023505E+02  0.25567970570E+03  0.26117904156E+03  0.00000000000E+00 0. -1.
</event>
<event>
 8    1  0.7130890E-009  0.1147360E+03  0.7561462E-02  0.1252043E+00
          2   -1    0    0  501    0  0.00000000000E+00  0.00000000000E+00  0.96418140880E+03  0.96418140880E+03  0.00000000000E+00 0. -1.
         -2   -1    0    0    0  501 -0.00000000000E+00 -0.00000000000E+00 -0.19661004706E+02  0.19661004706E+02  0.00000000000E+00 0.  1.
         25    2    1    2    0    0  0.75613692597E+02 -0.62815684670E+01  0.63882297312E+03  0.65536181504E+03  0.12508968389E+03 0.  0.
         23    2    1    2    0    0 -0.75613692597E+02  0.62815684670E+01  0.30569743097E+03  0.32848059846E+03  0.93229263938E+02 0.  0.
          5    1    3    3  502    0  0.35011668210E+02  0.58893760548E+02  0.33474385807E+03  0.34170925486E+03  0.41800000000E+01 0.  1.
         -5    1    3    3    0  502  0.40602024387E+02 -0.65175329015E+02  0.30407911505E+03  0.31365256018E+03  0.41800000000E+01 0.  1.
        -11    1    4    4    0    0 -0.21397612065E+02  0.18575867333E+02  0.14135383803E+02  0.31665907922E+02  0.00000000000E+00 0.  1.
         11    1    4    4    0    0 -0.54216080531E+02 -0.12294298866E+02  0.29156204717E+03  0.29681469054E+03  0.00000000000E+00 0. -1.
</event>
<event>
 8    1  0.7130890E-009  0.8971699E+02  0.7561462E-02  0.1303538E+00
         -1   -1    0    0    0  501 -0.00000000000E+00  0.00000000000E+00  0.24340987795E+03  0.24340987795E+03  0.00000000000E+00 0. -1.
          1   -1    0    0  501    0  0.00000000000E+00 -0.00000000000E+00 -0.61449786534E+02  0.61449786534E+02  0.00000000000E+00 0.  1.
         25    2    1    2    0    0  0.41045627573E+02 -0.14158462729E+02  0.56446736044E+02  0.14394072058E+03  0.12508993333E+03 0.  0.
         23    2    1    2    0    0 -0.41045627573E+02  0.14158462729E+02  0.12551335537E+03  0.16091894391E+03  0.90863075677E+02 0.  0.
          5    1    3    3  502    0  0.18258939284E+02  0.42241201113E+02 -0.16320489323E+02  0.49005496702E+02  0.41800000000E+01 0. -1.
         -5    1    3    3    0  502  0.22786688289E+02 -0.56399663842E+02  0.72767225368E+02  0.94935223876E+02  0.41800000000E+01 0. -1.
        -11    1    4    4    0    0  0.10494039769E+02  0.17716549032E+02  0.10217574406E+03  0.10422995565E+03  0.00000000000E+00 0. -1.
         11    1    4    4    0    0 -0.51539667342E+02 -0.35580863030E+01  0.23337611311E+02  0.56688988256E+02  0.00000000000E+00 0.  1.
</event>
<event>
 8    1  0.7130890E-009  0.1168015E+03  0.7561462E-02  0.1248469E+00
          1   -1    0    0  501    0  0.00000000000E+00  0.00000000000E+00  0.18531095864E+03  0.18531095864E+03  0.00000000000E+00 0. -1.
         -1   -1    0    0    0  501 -0.00000000000E+00 -0.00000000000E+00 -0.11120616935E+03  0.11120616935E+03  0.00000000000E+00 0.  1.
         25    2    1    2    0    0 -0.58289679203E+02 -0.67904926935E+02  0.11586855268E+02  0.15424183136E+03  0.12509005366E+03 0.  0.
         23    2    1    2    0    0  0.58289679203E+02  0.67904926935E+02  0.62517934022E+02  0.14227529662E+03  0.91241449738E+02 0.  0.
          5    1    3    3  502    0 -0.41420087702E+02 -0.46360887893E+00 -0.47318468244E+02  0.63026569281E+02  0.41800000000E+01 0. -1.
         -5    1    3    3    0  502 -0.16869591501E+02 -0.67441318056E+02  0.58905323512E+02  0.91215262081E+02  0.41800000000E+01 0. -1.
        -11    1    4    4    0    0  0.21462798490E+02 -0.18540662364E+02 -0.17815849705E+01  0.28417985941E+02  0.00000000000E+00 0.  1.
         11    1    4    4    0    0  0.36826880713E+02  0.86445589299E+02  0.64299518992E+02  0.11385731068E+03  0.00000000000E+00 0. -1.
</event>
<event>
 8    1  0.7130890E-009  0.1625370E+03  0.7561462E-02  0.1185862E+00
         -2   -1    0    0    0  501 -0.00000000000E+00  0.00000000000E+00  0.64527312272E+02  0.64527312272E+02  0.00000000000E+00 0. -1.
          2   -1    0    0  501    0  0.00000000000E+00 -0.00000000000E+00 -0.48859632582E+03  0.48859632582E+03  0.00000000000E+00 0.  1.
         25    2    1    2    0    0  0.25819114634E+02  0.13680652962E+03 -0.25031518021E+03  0.31255078042E+03  0.12509055787E+03 0.  0.
         23    2    1    2    0    0 -0.25819114634E+02 -0.13680652962E+03 -0.17375383334E+03  0.24057285767E+03  0.91116694536E+02 0.  0.
          5    1    3    3  502    0 -0.32998410086E+02  0.44303179906E+02 -0.22680996907E+02  0.59862900354E+02  0.41800000000E+01 0.  1.
         -5    1    3    3    0  502  0.58817524720E+02  0.92503349715E+02 -0.22763418331E+03  0.25268788007E+03  0.41800000000E+01 0.  1.
        -11    1    4    4    0    0  0.28302454644E+02 -0.55550835450E+02 -0.10148328798E+03  0.11910408053E+03  0.00000000000E+00 0.  1.
         11    1    4    4    0    0 -0.54121569278E+02 -0.81255694171E+02 -0.72270545353E+02  0.12146877715E+03  0.00000000000E+00 0. -1.
</event>
<event>
 8    1  0.7130890E-009  0.1026197E+03  0.7561462E-02  0.1274882E+00
          3   -1    0    0  501    0  0.00000000000E+00  0.00000000000E+00  0.78548667434E+02  0.78548667434E+02  0.00000000000E+00 0. -1.
         -3   -1    0    0    0  501 -0.00000000000E+00 -0.00000000000E+00 -0.18849446559E+03  0.18849446559E+03  0.00000000000E+00 0.  1.
         25    2    1    2    0    0 -0.88354034145E+01  0.47417215356E+02 -0.30941474850E+02  0.13758788085E+03  0.12508634388E+03 0.  0.
         23    2    1    2    0    0  0.88354034145E+01 -0.47417215356E+02 -0.79004323303E+02  0.12945525217E+03  0.90501505778E+02 0.  0.
          5    1    3    3  502    0  0.22074728653E+02  0.79227101442E+02 -0.40883665763E+02  0.91941142989E+02  0.41800000000E+01 0.  1.
         -5    1    3    3    0  502 -0.30910132067E+02 -0.31809886086E+02  0.99421909139E+01  0.45646737861E+02  0.41800000000E+01 0.  1.
        -11    1    4    4    0    0  0.94361042049E+01  0.14018720571E+02 -0.64023814631E+02  0.66216413591E+02  0.00000000000E+00 0.  1.
         11    1    4    4    0    0 -0.60070079033E+00 -0.61435935927E+02 -0.14980508673E+02  0.63238838578E+02  0.00000000000E+00 0. -1.
</event>
<event>
 8    1  0.7130890E-009  0.1056123E+03  0.7561462E-02  0.1268918E+00
         -1   -1    0    0    0  501 -0.00000000000E+00  0.00000000000E+00  0.62987016539E+02  0.62987016539E+02  0.00000000000E+00 0.  1.
          1   -1    0    0  501    0  0.00000000000E+00 -0.00000000000E+00 -0.64309589346E+03  0.64309589346E+03  0.00000000000E+00 0. -1.
         25    2    1    2    0    0  0.66479380183E+02 -0.44458988002E+02 -0.56778577930E+03  0.58687442148E+03  0.12507911817E+03 0.  0.
         23    2    1    2    0    0 -0.66479380183E+02  0.44458988002E+02 -0.12323097622E+02  0.11920848853E+03  0.87536823097E+02 0.  0.
          5    1    3    3  502    0  0.58798892456E+02 -0.13297403772E+02 -0.92507555557E+02  0.11049547926E+03  0.41800000000E+01 0. -1.
         -5    1    3    3    0  502  0.76804877263E+01 -0.31161584229E+02 -0.47527822374E+03  0.47637894222E+03  0.41800000000E+01 0. -1.
        -11    1    4    4    0    0  0.13820224336E+02  0.34934024811E+02 -0.65993162195E+01  0.38143618926E+02  0.00000000000E+00 0. -1.
         11    1    4    4    0    0 -0.80299604519E+02  0.95249631904E+01 -0.57237814028E+01  0.81064869600E+02  0.00000000000E+00 0.  1.
</event>
<event>
 8    1  0.7130890E-009  0.9118623E+02  0.7561462E-02  0.1300004E+00
          1   -1    0    0  501    0  0.00000000000E+00  0.00000000000E+00  0.48417716078E+03  0.48417716078E+03  0.00000000000E+00 0. -1.
         -1   -1    0    0    0  501 -0.00000000000E+00 -0.00000000000E+00 -0.26783439573E+02  0.26783439573E+02  0.00000000000E+00 0.  1.
         25    2    1    2    0    0 -0.10274471945E+02 -0.72707918169E+00  0.18690629719E+03  0.22513867726E+03  0.12508943462E+03 0.  0.
         23    2    1    2    0    0  0.10274471945E+02  0.72707918169E+00  0.27048742402E+03  0.28582192309E+03  0.91785792725E+02 0.  0.
          5    1    3    3  502    0 -0.45778517381E+02  0.18838744773E+02  0.17610514094E+03  0.18297831572E+03  0.41800000000E+01 0. -1.
         -5    1    3    3    0  502  0.35504045436E+02 -0.19565823955E+02  0.10801156246E+02  0.42160361545E+02  0.41800000000E+01 0. -1.
        -11    1    4    4    0    0 -0.12078394404E+01 -0.44886706727E+02  0.14577811179E+03  0.15253698959E+03  0.00000000000E+00 0. -1.
         11    1    4    4    0    0  0.11482311385E+02  0.45613785909E+02  0.12470931223E+03  0.13328493350E+03  0.00000000000E+00 0.  1.
</event>
<event>
 8    1  0.7130890E-009  0.1157435E+03  0.7561462E-02  0.1250289E+00
          2   -1    0    0  501    0  0.00000000000E+00  0.00000000000E+00  0.19640179296E+03  0.19640179296E+03  0.00000000000E+00 0. -1.
         -2   -1    0    0    0  501 -0.00000000000E+00 -0.00000000000E+00 -0.13903736210E+03  0.13903736210E+03  0.00000000000E+00 0.  1.
         25    2    1    2    0    0  0.40851751096E+02 -0.23944997721E+02 -0.86419580437E+02  0.15923826976E+03  0.12508498787E+03 0.  0.
         23    2    1    2    0    0 -0.40851751096E+02  0.23944997721E+02  0.14378401129E+03  0.17620088530E+03  0.90170292181E+02 0.  0.
          5    1    3    3  502    0  0.23809583921E+02 -0.75483902183E+02 -0.53217810407E+02  0.95468966266E+02  0.41800000000E+01 0.  1.
         -5    1    3    3    0  502  0.17042167175E+02  0.51538904462E+02 -0.33201770029E+02  0.63769303495E+02  0.41800000000E+01 0.  1.
        -11    1    4    4    0    0 -0.24373049541E+02 -0.31564109356E+02  0.83929511691E+02  0.92922018252E+02  0.00000000000E+00 0.  1.
         11    1    4    4    0    0 -0.16478701555E+02  0.55509107077E+02  0.59854499603E+02  0.83278867044E+02  0.00000000000E+00 0. -1.
</event>
<event>
 8    1  0.7130890E-009  0.1448602E+03  0.7561462E-02  0.1206935E+00
          3   -1    0    0  501    0  0.00000000000E+00  0.00000000000E+00  0.76886322948E+02  0.76886322948E+02  0.00000000000E+00 0. -1.
         -3   -1    0    0    0  501 -0.00000000000E+00 -0.00000000000E+00 -0.32990591683E+03  0.32990591683E+03  0.00000000000E+00 0.  1.
         25    2    1    2    0    0 -0.97902142999E+02  0.25064109898E+02 -0.20870027697E+03  0.26347293795E+03  0.12509653958E+03 0.  0.
         23    2    1    2    0    0  0.97902142999E+02 -0.25064109898E+02 -0.44319316905E+02  0.14331930182E+03  0.91450430370E+02 0.  0.
          5    1    3    3  502    0  0.20820332451E+02 -0.23327636976E+02 -0.53677233091E+02  0.62260602652E+02  0.41800000000E+01 0. -1.
         -5    1    3    3    0  502 -0.11872247545E+03  0.48391746874E+02 -0.15502304388E+03  0.20121233530E+03  0.41800000000E+01 0. -1.
        -11    1    4    4    0    0  0.39211300528E+02 -0.52161564594E+02 -0.56315780116E+00  0.65258501797E+02  0.00000000000E+00 0. -1.
         11    1    4    4    0    0  0.58690842471E+02  0.27097454696E+02 -0.43756159104E+02  0.78060800025E+02  0.00000000000E+00 0.  1.
</event>
<event>
 8    1  0.7130890E-009  0.1727577E+03  0.7561462E-02  0.1175002E+00
          1   -1    0    0  501    0  0.00000000000E+00  0.00000000000E+00  0.10428110370E+04  0.10428110370E+04  0.00000000000E+00 0. -1.
         -1   -1    0    0    0  501 -0.00000000000E+00 -0.00000000000E+00 -0.35290351876E+02  0.35290351876E+02  0.00000000000E+00 0.  1.
         25    2    1    2    0    0  0.33341555383E+02  0.15315665237E+03  0.57065209811E+03  0.60486445353E+03  0.12509424680E+03 0.  0.
         23    2    1    2    0    0 -0.33341555383E+02 -0.15315665237E+03  0.43686858698E+03  0.47323693531E+03  0.92360246722E+02 0.  0.
          5    1    3    3  502    0 -0.21407801052E+02  0.51721175597E+02  0.36312039779E+03  0.36743335401E+03  0.41800000000E+01 0.  1.
         -5    1    3    3    0  502  0.54749356435E+02  0.10143547678E+03  0.20753170033E+03  0.23743109952E+03  0.41800000000E+01 0.  1.
        -11    1    4    4    0    0 -0.57370007512E+02 -0.12085671137E+03  0.26672403985E+03  0.29839466463E+03  0.00000000000E+00 0.  1.
         11    1    4    4    0    0  0.24028452129E+02 -0.32299941004E+02  0.17014454713E+03  0.17484227069E+03  0.00000000000E+00 0. -1.
</event>
<event>
 8    1  0.7130890E-009  0.1509041E+03  0.7561462E-02  0.1199366E+00
          3   -1    0    0  501    0  0.00000000000E+00  0.00000000000E+00  0.84621454898E+03  0.84621454898E+03  0.00000000000E+00 0. -1.
         -3   -1    0    0    0  501 -0.00000000000E+00 -0.00000000000E+00 -0.28220953164E+02  0.28220953164E+02  0.00000000000E+00 0.  1.
         25    2    1    2    0    0 -0.69367367354E+02  0.84846198134E+02  0.45448769628E+03  0.48395784520E+03  0.12508165680E+03 0.  0.
         23    2    1    2    0    0  0.69367367354E+02 -0.84846198134E+02  0.36350589954E+03  0.39047765695E+03  0.91244466050E+02 0.  0.
          5    1    3    3  502    0 -0.95306166633E+02  0.22802417893E+02  0.24513805375E+03  0.26403286434E+03  0.41800000000E+01 0. -1.
         -5    1    3    3    0  502  0.25938799279E+02  0.62043780242E+02  0.20934964254E+03  0.21992498086E+03  0.41800000000E+01 0. -1.
        -11    1    4    4    0    0  0.67985259143E+02 -0.19144528877E+02  0.24491588205E+03  0.25489664126E+03  0.00000000000E+00 0. -1.
         11    1    4    4    0    0  0.13821082105E+01 -0.65701669257E+02  0.11859001749E+03  0.13558101568E+03  0.00000000000E+00 0.  1.
</event>
<event>
 8    1  0.7130890E-009  0.1108236E+03  0.7561462E-02  0.1259052E+00
         -4   -1    0    0    0  501 -0.00000000000E+00  0.00000000000E+00  0.29275622341E+02  0.29275622341E+02  0.00000000000E+00 0.  1.
          4   -1    0    0  501    0  0.00000000000E+00 -0.00000000000E+00 -0.54808214422E+03  0.54808214422E+03  0.00000000000E+00 0. -1.
         25    2    1    2    0    0  0.24905977602E+02 -0.56754026647E+02 -0.34278654943E+03  0.37012869658E+03  0.12510518097E+03 0.  0.
         23    2    1    2    0    0 -0.24905977602E+02  0.56754026647E+02 -0.17601997245E+03  0.20722906997E+03  0.90108431796E+02 0.  0.
          5    1    3    3  502    0 -0.35477935680E+02 -0.30847652874E+02 -0.26051369228E+03  0.26475482597E+03  0.41800000000E+01 0.  1.
         -5    1    3    3    0  502  0.60383913282E+02 -0.25906373773E+02 -0.82272857145E+02  0.10537387061E+03  0.41800000000E+01 0.  1.
        -11    1    4    4    0    0 -0.52866126638E+02  0.95151580878E+01 -0.99236014583E+02  0.11284126980E+03  0.00000000000E+00 0.  1.
         11    1    4    4    0    0  0.27960149036E+02  0.47238868559E+02 -0.76783957863E+02  0.94387800175E+02  0.00000000000E+00 0. -1.
</event>
<event>
 8    1  0.7130890E-009  0.1539270E+03  0.7561462E-02  0.1195729E+00
          3   -1    0    0  501    0  0.00000000000E+00  0.00000000000E+00  0.47464189086E+02  0.47464189086E+02  0.00000000000E+00 0. -1.
         -3   -1    0    0    0  501 -0.00000000000E+00 -0.00000000000E+00 -0.51788045933E+03  0.51788045933E+03  0.00000000000E+00 0.  1.
         25    2    1    2    0    0 -0.10939604884E+03  0.32015829603E+02 -0.26602095629E+03  0.31528965191E+03  0.12509159272E+03 0.  0.
         23    2    1    2    0    0  0.10939604884E+03 -0.32015829603E+02 -0.20439531395E+03  0.25005499650E+03  0.88076944008E+02 0.  0.
          5    1    3    3  502    0 -0.18439482956E+02 -0.42890264014E+02 -0.46029811996E+02  0.65694788768E+02  0.41800000000E+01 0.  1.
         -5    1    3    3    0  502 -0.90956565881E+02  0.74906093617E+02 -0.21999114430E+03  0.24959486314E+03  0.41800000000E+01 0.  1.
        -11    1    4    4    0    0  0.65899589374E+02 -0.61812954447E+02 -0.11471540896E+03  0.14602473170E+03  0.00000000000E+00 0.  1.
         11    1    4    4    0    0  0.43496459464E+02  0.29797124844E+02 -0.89679904995E+02  0.10403026480E+03  0.00000000000E+00 0. -1.
</event>
<event>
 8    1  0.7130890E-009  0.1520672E+03  0.7561462E-02  0.1197956E+00
          2   -1    0    0  501    0  0.00000000000E+00  0.00000000000E+00  0.23388104336E+03  0.23388104336E+03  0.00000000000E+00 0. -1.
         -2   -1    0    0    0  501 -0.00000000000E+00 -0.00000000000E+00 -0.14203554684E+03  0.14203554684E+03  0.00000000000E+00 0.  1.
         25    2    1    2    0    0 -0.11724283920E+03  0.10742689369E+02  0.13849153277E+03  0.22065520353E+03  0.12509006946E+03 0.  0.
         23    2    1    2    0    0  0.11724283920E+03 -0.10742689369E+02 -0.46646036250E+02  0.15526138668E+03  0.89827372096E+02 0.  0.
          5    1    3    3  502    0 -0.11607678558E+03  0.54008077322E+02  0.98629344732E+02  0.16166605274E+03  0.41800000000E+01 0.  1.
         -5    1    3    3    0  502 -0.11660536194E+01 -0.43265387952E+02  0.39862188039E+02  0.58989150791E+02  0.41800000000E+01 0.  1.
        -11    1    4    4    0    0  0.47013006847E+02  0.25547132141E+02 -0.53811990535E+02  0.75885499924E+02  0.00000000000E+00 0.  1.
         11    1    4    4    0    0  0.70229832351E+02 -0.36289821511E+02  0.71659542853E+01  0.79375886755E+02  0.00000000000E+00 0. -1.
</event>
<event>
 8    1  0.7130890E-009  0.1397774E+03  0.7561462E-02  0.1213629E+00
          2   -1    0    0  501    0  0.00000000000E+00  0.00000000000E+00  0.59241609082E+03  0.59241609082E+03  0.00000000000E+00 0. -1.
         -2   -1    0    0    0  501 -0.00000000000E+00 -0.00000000000E+00 -0.37407047011E+02  0.37407047011E+02  0.00000000000E+00 0.  1.
         25    2    1    2    0    0 -0.80419459263E+02 -0.48451306717E+02  0.26032897463E+03  0.30369955627E+03  0.12508967542E+03 0.  0.
         23    2    1    2    0    0  0.80419459263E+02  0.48451306717E+02  0.29468006918E+03  0.32612358156E+03  0.10346704174E+03 0.  0.
          5    1    3    3  502    0 -0.68907621267E+02  0.31203899179E+02  0.12215832321E+03  0.14374307608E+03  0.41800000000E+01 0.  1.
         -5    1    3    3    0  502 -0.11511837995E+02 -0.79655205896E+02  0.13817065142E+03  0.15995648019E+03  0.41800000000E+01 0.  1.
        -11    1    4    4    0    0  0.62891496422E+02  0.70866960694E+02  0.27667831598E+03  0.29245231573E+03  0.00000000000E+00 0. -1.
         11    1    4    4    0    0  0.17527962841E+02 -0.22415653976E+02  0.18001753201E+02  0.33671265834E+02  0.00000000000E+00 0.  1.
</event>
<event>
 8    1  0.7130890E-009  0.1483500E+03  0.7561462E-02  0.1202515E+00
         -1   -1    0    0    0  501 -0.00000000000E+00  0.00000000000E+00  0.72895779688E+02  0.72895779688E+02  0.00000000000E+00 0.  1.
          1   -1    0    0  501    0  0.00000000000E+00 -0.00000000000E+00 -0.33628728244E+03  0.33628728244E+03  0.00000000000E+00 0. -1.
         25    2    1    2    0    0  0.20611213540E+02 -0.96521259254E+02 -0.19129711916E+03  0.24896232442E+03  0.12508587278E+03 0.  0.
         23    2    1    2    0    0 -0.20611213540E+02  0.96521259254E+02 -0.72094383596E+02  0.16022073771E+03  0.10359492766E+03 0.  0.
          5    1    3    3  502    0 -0.33942359354E+02 -0.92937894779E+02 -0.15234883662E+03  0.18170629175E+03  0.41800000000E+01 0.  1.
         -5    1    3    3    0  502  0.54553572894E+02 -0.35833644749E+01 -0.38948282543E+02  0.67256032663E+02  0.41800000000E+01 0.  1.
        -11    1    4    4    0    0 -0.54818677074E+02  0.93645658113E+02 -0.50694859331E+02  0.11976879979E+03  0.00000000000E+00 0. -1.
         11    1    4    4    0    0  0.34207463535E+02  0.28756011411E+01 -0.21399524266E+02  0.40451937929E+02  0.00000000000E+00 0.  1.
</event>
<event>
 8    1  0.7130890E-009  0.1080508E+03  0.7561462E-02  0.1264223E+00
          1   -1    0    0  501    0  0.00000000000E+00  0.00000000000E+00  0.13704500472E+03  0.13704500472E+03  0.00000000000E+00 0. -1.
         -1   -1    0    0    0  501 -0.00000000000E+00 -0.00000000000E+00 -0.14630901397E+03  0.14630901397E+03  0.00000000000E+00 0.  1.
         25    2    1    2    0    0 -0.44108892264E+02  0.75817009753E+02 -0.32669104335E+02  0.15623279053E+03  0.12509037179E+03 0.  0.
         23    2    1    2    0    0  0.44108892264E+02 -0.75817009753E+02  0.23405095079E+02  0.12712122816E+03  0.88984239213E+02 0.  0.
          5    1    3    3  502    0 -0.78056233008E+01  0.36175973739E+02  0.47041988904E+02  0.60000416257E+02  0.41800000000E+01 0. -1.
         -5    1    3    3    0  502 -0.36303268964E+02  0.39641036014E+02 -0.79711093239E+02  0.96232374277E+02  0.41800000000E+01 0. -1.
        -11    1    4    4    0    0  0.60157925299E+02 -0.14939230064E+02  0.11033723356E+02  0.62959507799E+02  0.00000000000E+00 0. -1.
         11    1    4    4    0    0 -0.16049033035E+02 -0.60877779689E+02  0.12371371724E+02  0.64161720360E+02  0.00000000000E+00 0.  1.
</event>
<event>
 8    1  0.7130890E-009  0.1609783E+03  0.7561462E-02  0.1187597E+00
          4   -1    0    0  501    0  0.00000000000E+00  0.00000000000E+00  0.28133317254E+03  0.28133317254E+03  0.00000000000E+00 0. -1.
         -4   -1    0    0    0  501 -0.00000000000E+00 -0.00000000000E+00 -0.13817858712E+03  0.13817858712E+03  0.00000000000E+00 0.  1.
         25    2    1    2    0    0 -0.13113287354E+03 -0.59884067771E+02 -0.92539019737E+01  0.19109133634E+03  0.12509329330E+03 0.  0.
         23    2    1    2    0    0  0.13113287354E+03  0.59884067771E+02  0.15240848739E+03  0.22842042332E+03  0.90363768550E+02 0.  0.
          5    1    3    3  502    0 -0.79493975957E+02  0.20072556547E+02 -0.39537684255E+02  0.91120253599E+02  0.41800000000E+01 0. -1.
         -5    1    3    3    0  502 -0.51638897580E+02 -0.79956624318E+02  0.30283782281E+02  0.99971082743E+02  0.41800000000E+01 0. -1.
        -11    1    4    4    0    0  0.61160588477E+02  0.21852241802E+02  0.10638537316E+02  0.65812738364E+02  0.00000000000E+00 0.  1.
         11    1    4    4    0    0  0.69972285060E+02  0.38031825968E+02  0.14176995008E+03  0.16260768496E+03  0.00000000000E+00 0. -1.
</event>
<event>
 8    1  0.7130890E-009  0.8362232E+02  0.7561462E-02  0.1319075E+00
          3   -1    0    0  501    0  0.00000000000E+00  0.00000000000E+00  0.15968649692E+03  0.15968649692E+03  0.00000000000E+00 0. -1.
         -3   -1    0    0    0  501 -0.00000000000E+00 -0.00000000000E+00 -0.11400000252E+03  0.11400000252E+03  0.00000000000E+00 0.  1.
         25    2    1    2    0    0 -0.14724696213E+02 -0.74471242146E+01 -0.54059557448E+02  0.13725469918E+03  0.12507653800E+03 0.  0.
         23    2    1    2    0    0  0.14724696213E+02  0.74471242146E+01  0.99746051845E+02  0.13643180027E+03  0.91608323462E+02 0.  0.
          5    1    3    3  502    0 -0.11368392270E+02  0.40805252026E+02  0.21310463404E+02  0.47601651086E+02  0.41800000000E+01 0.  1.
         -5    1    3    3    0  502 -0.33563039433E+01 -0.48252376240E+02 -0.75370020851E+02  0.89653048091E+02  0.41800000000E+01 0.  1.
        -11    1    4    4    0    0  0.29651829816E+02 -0.26042630717E+02  0.90332373490E+02  0.98576809273E+02  0.00000000000E+00 0. -1.
         11    1    4    4    0    0 -0.14927133603E+02  0.33489754931E+02  0.94136783556E+01  0.37854990994E+02  0.00000000000E+00 0.  1.
</event>
<event>
 8    1  0.7130890E-009  0.1232599E+03  0.7561462E-02  0.1237814E+00
         -1   -1    0    0    0  501 -0.00000000000E+00  0.00000000000E+00  0.24063725010E+03  0.24063725010E+03  0.00000000000E+00 0.  1.
          1   -1    0    0  501    0  0.00000000000E+00 -0.00000000000E+00 -0.13278815148E+03  0.13278815148E+03  0.00000000000E+00 0. -1.
         25    2    1    2    0    0 -0.89357621839E+02 -0.89755990897E+01  0.17396839803E+03  0.23233120513E+03  0.12508972542E+03 0.  0.
         23    2    1    2    0    0  0.89357621839E+02  0.89755990897E+01 -0.66119299412E+02  0.14109419645E+03  0.86431849204E+02 0.  0.
          5    1    3    3  502    0 -0.47875265382E+02 -0.65183289591E+02  0.11592327602E+03  0.14140926631E+03  0.41800000000E+01 0.  1.
         -5    1    3    3    0  502 -0.41482356457E+02  0.56207690502E+02  0.58045122015E+02  0.90921938819E+02  0.41800000000E+01 0. -1.
        -11    1    4    4    0    0  0.53473456004E+02 -0.10840786942E+02  0.92105110340E+01  0.55333232980E+02  0.00000000000E+00 0.  1.
         11    1    4    4    0    0  0.35884165835E+02  0.19816386032E+02 -0.75329810446E+02  0.85760963468E+02  0.00000000000E+00 0. -1.
</event>
<event>
 8    1  0.7130890E-009  0.1366769E+03  0.7561462E-02  0.1217872E+00
         -2   -1    0    0    0  501 -0.00000000000E+00  0.00000000000E+00  0.15635171983E+04  0.15635171983E+04  0.00000000000E+00 0. -1.
          2   -1    0    0  501    0  0.00000000000E+00 -0.00000000000E+00 -0.12643512216E+02  0.12643512216E+02  0.00000000000E+00 0.  1.
         25    2    1    2    0    0  0.72696670935E+02  0.40998958873E+02  0.92906623265E+03  0.94115818605E+03  0.12509574701E+03 0.  0.
         23    2    1    2    0    0 -0.72696670935E+02 -0.40998958873E+02  0.62180745341E+03  0.63500252445E+03  0.98071281940E+02 0.  0.
          5    1    3    3  502    0 -0.63761780581E+01  0.62169237746E+02  0.27895531669E+03  0.28590070108E+03  0.41800000000E+01 0.  1.
         -5    1    3    3    0  502  0.79072848993E+02 -0.21170278873E+02  0.65011091596E+03  0.65525748497E+03  0.41800000000E+01 0.  1.
        -11    1    4    4    0    0 -0.63002275162E+02  0.20686690336E+02  0.31420001067E+03  0.32112127388E+03  0.00000000000E+00 0.  1.
         11    1    4    4    0    0 -0.96943957728E+01 -0.61685649208E+02  0.30760744274E+03  0.31388125057E+03  0.00000000000E+00 0. -1.
</event>
<event>
 8    1  0.7130890E-009  0.1053452E+03  0.7561462E-02  0.1269441E+00
         -1   -1    0    0    0  501 -0.00000000000E+00  0.00000000000E+00  0.12102803000E+03  0.12102803000E+03  0.00000000000E+00 0.  1.
          1   -1    0    0  501    0  0.00000000000E+00 -0.00000000000E+00 -0.13114409335E+03  0.13114409335E+03  0.00000000000E+00 0. -1.
         25    2    1    2    0    0 -0.23633642833E+02  0.37119134330E+02  0.39042709772E+02  0.13823504572E+03  0.12509282743E+03 0.  0.
         23    2    1    2    0    0  0.23633642833E+02 -0.37119134330E+02 -0.49158773118E+02  0.11393707763E+03  0.92890760986E+02 0.  0.
          5    1    3    3  502    0  0.37004497414E+02  0.57301653663E+02  0.16154896568E+02  0.70222969352E+02  0.41800000000E+01 0.  1.
         -5    1    3    3    0  502 -0.60638140247E+02 -0.20182519334E+02  0.22887813204E+02  0.68012076373E+02  0.41800000000E+01 0.  1.
        -11    1    4    4    0    0  0.55160093401E+01 -0.53558293900E+02  0.54323650282E+01  0.54114949823E+02  0.00000000000E+00 0.  1.
         11    1    4    4    0    0  0.18117633493E+02  0.16439159571E+02 -0.54591138146E+02  0.59822127803E+02  0.00000000000E+00 0. -1.
</event>
<event>
 8    1  0.7130890E-009  0.1147556E+03  0.7561462E-02  0.1252008E+00
         -1   -1    0    0    0  501 -0.00000000000E+00  0.00000000000E+00  0.16951558447E+03  0.16951558447E+03  0.00000000000E+00 0.  1.
          1   -1    0    0  501    0  0.00000000000E+00 -0.00000000000E+00 -0.87057915461E+02  0.87057915461E+02  0.00000000000E+00 0. -1.
         25    2    1    2    0    0  0.53342295186E+02 -0.59244078481E+01  0.45600515929E+02  0.14355358416E+03  0.12509086860E+03 0.  0.
         23    2    1    2    0    0 -0.53342295186E+02  0.59244078481E+01  0.36857153078E+02  0.11301991577E+03  0.92382642110E+02 0.  0.
          5    1    3    3  502    0 -0.16796089580E+02 -0.46759121664E+02 -0.10072689815E+01  0.49869941596E+02  0.41800000000E+01 0. -1.
         -5    1    3    3    0  502  0.70138384766E+02  0.40834713816E+02  0.46607784911E+02  0.93683642565E+02  0.41800000000E+01 0. -1.
        -11    1    4    4    0    0 -0.22277233445E+02  0.43955456421E+02  0.40490620220E+02  0.63779680189E+02  0.00000000000E+00 0.  1.
         11    1    4    4    0    0 -0.31065061741E+02 -0.38031048573E+02 -0.36334671421E+01  0.49240235580E+02  0.00000000000E+00 0. -1.
</event>
<event>
 8    1  0.7130890E-009  0.1133599E+03  0.7561462E-02  0.1254471E+00
         -2   -1    0    0    0  501 -0.00000000000E+00  0.00000000000E+00  0.28925110060E+02  0.28925110060E+02  0.00000000000E+00 0. -1.
          2   -1    0    0  501    0  0.00000000000E+00 -0.00000000000E+00 -0.57945282399E+03  0.57945282399E+03  0.00000000000E+00 0.  1.
         25    2    1    2    0    0  0.21220477254E+02 -0.59718405997E+02 -0.23248827316E+03  0.27150429674E+03  0.12508872580E+03 0.  0.
         23    2    1    2    0    0 -0.21220477254E+02  0.59718405997E+02 -0.31803944076E+03  0.33687363730E+03  0.91203974473E+02 0.  0.
          5    1    3    3  502    0 -0.22901944879E+02 -0.70190320963E+02 -0.20588456793E+03  0.21876267494E+03  0.41800000000E+01 0. -1.
         -5    1    3    3    0  502  0.44122422133E+02  0.10471914967E+02 -0.26603705234E+02  0.52741621800E+02  0.41800000000E+01 0. -1.
        -11    1    4    4    0    0  0.10898006763E+02  0.72016688431E+02 -0.17100834847E+03  0.18587368079E+03  0.00000000000E+00 0.  1.
         11    1    4    4    0    0 -0.32118484016E+02 -0.12298282434E+02 -0.14703109229E+03  0.15099995652E+03  0.00000000000E+00 0. -1.
</event>
<event>
 8    1  0.7130890E-009  0.1305553E+03  0.7561462E-02  0.1226634E+00
         -2   -1    0    0    0  501 -0.00000000000E+00  0.00000000000E+00  0.51289920919E+02  0.51289920919E+02  0.00000000000E+00 0.  1.
          2   -1    0    0  501    0  0.00000000000E+00 -0.00000000000E+00 -0.36750531264E+03  0.36750531264E+03  0.00000000000E+00 0. -1.
         25    2    1    2    0    0  0.23859152019E+02 -0.79776178376E+02 -0.17213046978E+03  0.22849141462E+03  0.12508369261E+03 0.  0.
         23    2    1    2    0    0 -0.23859152019E+02  0.79776178376E+02 -0.14408492194E+03  0.19030381894E+03  0.92312409796E+02 0.  0.
          5    1    3    3  502    0  0.31811792400E+02  0.20936780963E+02 -0.91395559587E+02  0.99100755018E+02  0.41800000000E+01 0.  1.
         -5    1    3    3    0  502 -0.79526403810E+01 -0.10071295934E+03 -0.80734910195E+02  0.12939065960E+03  0.41800000000E+01 0.  1.
        -11    1    4    4    0    0 -0.14373574056E+02 -0.18233770973E+02 -0.13853884790E+02  0.27037014607E+02  0.00000000000E+00 0.  1.
         11    1    4    4    0    0 -0.94855779622E+01  0.98009949350E+02 -0.13023103715E+03  0.16326680434E+03  0.00000000000E+00 0. -1.
</event>
<event>
 8    1  0.7130890E-009  0.1086421E+03  0.7561462E-02  0.1263105E+00
          2   -1    0    0  501    0  0.00000000000E+00  0.00000000000E+00  0.18096264740E+03  0.18096264740E+03  0.00000000000E+00 0. -1.
         -2   -1    0    0    0  501 -0.00000000000E+00 -0.00000000000E+00 -0.86144311197E+02  0.86144311197E+02  0.00000000000E+00 0.  1.
         25    2    1    2    0    0  0.38031155000E+02  0.45764955688E+02  0.70229878334E+02  0.15530862203E+03  0.12509089634E+03 0.  0.
         23    2    1    2    0    0 -0.38031155000E+02 -0.45764955688E+02  0.24588457872E+02  0.11179833656E+03  0.91397351594E+02 0.  0.
          5    1    3    3  502    0  0.39940456271E+02  0.78886352211E+02  0.13621578828E+02  0.89561802249E+02  0.41800000000E+01 0.  1.
         -5    1    3    3    0  502 -0.19093012713E+01 -0.33121396523E+02  0.56608299505E+02  0.65746819785E+02  0.41800000000E+01 0.  1.
        -11    1    4    4    0    0  0.22053130615E+02 -0.46985380509E+01 -0.16760137115E+02  0.28094822047E+02  0.00000000000E+00 0.  1.
         11    1    4    4    0    0 -0.60084285614E+02 -0.41066417637E+02  0.41348594987E+02  0.83703514518E+02  0.00000000000E+00 0. -1.
</event>
<event>
 8    1  0.7130890E-009  0.1078576E+03  0.7561462E-02  0.1264589E+00
          3   -1    0    0  501    0  0.00000000000E+00  0.00000000000E+00  0.23072891565E+03  0.23072891565E+03  0.00000000000E+00 0. -1.
         -3   -1    0    0    0  501 -0.00000000000E+00 -0.00000000000E+00 -0.71980272172E+02  0.71980272172E+02  0.00000000000E+00 0.  1.
         25    2    1    2    0    0 -0.37687368959E+01  0.65856101027E+02  0.58754862702E+02  0.15313760186E+03  0.12509101404E+03 0.  0.
         23    2    1    2    0    0  0.37687368959E+01 -0.65856101027E+02  0.99993780774E+02  0.14957158596E+03  0.89563796879E+02 0.  0.
          5    1    3    3  502    0  0.37053103189E+02  0.16400161889E+02  0.76325346273E+02  0.86515482138E+02  0.41800000000E+01 0. -1.
         -5    1    3    3    0  502 -0.40821840085E+02  0.49455939138E+02 -0.17570483570E+02  0.66622119727E+02  0.41800000000E+01 0. -1.
        -11    1    4    4    0    0  0.43402464081E+02 -0.54135521402E+02  0.55579162974E+02  0.88901473118E+02  0.00000000000E+00 0. -1.
         11    1    4    4    0    0 -0.39633727185E+02 -0.11720579625E+02  0.44414617801E+02  0.60670112837E+02  0.00000000000E+00 0.  1.
</event>
<event>
 8    1  0.7130890E-009  0.9490733E+02  0.7561462E-02  0.1291385E+00
          3   -1    0    0  501    0  0.00000000000E+00  0.00000000000E+00  0.30385733864E+03  0.30385733864E+03  0.00000000000E+00 0. -1.
         -3   -1    0    0    0  501 -0.00000000000E+00 -0.00000000000E+00 -0.46857416810E+02  0.46857416810E+02  0.00000000000E+00 0.  1.
         25    2    1    2    0    0 -0.26428477348E+02  0.41739902580E+02  0.14661422010E+03  0.19895755480E+03  0.12509074783E+03 0.  0.
         23    2    1    2    0    0  0.26428477348E+02 -0.41739902580E+02  0.11038570173E+03  0.15175720065E+03  0.91676392386E+02 0.  0.
          5    1    3    3  502    0 -0.62937475319E+02  0.24114666962E+02  0.27236377093E+02  0.72814391431E+02  0.41800000000E+01 0.  1.
         -5    1    3    3    0  502  0.36508997971E+02  0.17625235618E+02  0.11937784301E+03  0.12614316337E+03  0.41800000000E+01 0.  1.
        -11    1    4    4    0    0  0.83368068514E+01  0.17610277776E+02 -0.55530915697E+01  0.20259838544E+02  0.00000000000E+00 0.  1.
         11    1    4    4    0    0  0.18091670497E+02 -0.59350180356E+02  0.11593879330E+03  0.13149736211E+03  0.00000000000E+00 0. -1.
</event>
<event>
 8    1  0.7130890E-009  0.9183531E+02  0.7561462E-02  0.1298467E+00
         -3   -1    0    0    0  501 -0.00000000000E+00  0.00000000000E+00  0.36340997609E+03  0.36340997609E+03  0.00000000000E+00 0.  1.
          3   -1    0    0  501    0  0.00000000000E+00 -0.00000000000E+00 -0.10764116085E+03  0.10764116085E+03  0.00000000000E+00 0. -1.
         25    2    1    2    0    0  0.25258309518E+02  0.59877402422E+02  0.31431809564E+03  0.34447916051E+03  0.12508693479E+03 0.  0.
         23    2    1    2    0    0 -0.25258309518E+02 -0.59877402422E+02 -0.58549280400E+02  0.12657197643E+03  0.91483121181E+02 0.  0.
          5    1    3    3  502    0  0.10719610018E+02  0.54249141723E+02  0.36941907051E+02  0.66633747555E+02  0.41800000000E+01 0.  1.
         -5    1    3    3    0  502  0.14538699500E+02  0.56282606994E+01  0.27737618859E+03  0.27784541295E+03  0.41800000000E+01 0.  1.
        -11    1    4    4    0    0  0.29368774490E+02 -0.47841464118E+02 -0.26143251500E+02  0.61925763645E+02  0.00000000000E+00 0. -1.
         11    1    4    4    0    0 -0.54627084009E+02 -0.12035938305E+02 -0.32406028900E+02  0.64646212783E+02  0.00000000000E+00 0.  1.
</event>
<event>
 8    1  0.7130890E-009  0.1536106E+03  0.7561462E-02  0.1196105E+00
          1   -1    0    0  501    0  0.00000000000E+00  0.00000000000E+00  0.60224758634E+03  0.60224758634E+03  0.00000000000E+00 0. -1.
         -1   -1    0    0    0  501 -0.00000000000E+00 -0.00000000000E+00 -0.67707057614E+02  0.67707057614E+02  0.00000000000E+00 0.  1.
         25    2    1    2    0    0  0.11907420099E+03 -0.48500628105E+02  0.94692789377E+02  0.20284286815E+03  0.12509008166E+03 0.  0.
         23    2    1    2    0    0 -0.11907420099E+03  0.48500628105E+02  0.43984773935E+03  0.46711177581E+03  0.90533977142E+02 0.  0.
          5    1    3    3  502    0 -0.23548636961E+02 -0.71894629181E+01 -0.28489580530E+01  0.25135943224E+02  0.41800000000E+01 0.  1.
         -5    1    3    3    0  502  0.14262283795E+03 -0.41311165186E+02  0.97541747430E+02  0.17770692492E+03  0.41800000000E+01 0.  1.
        -11    1    4    4    0    0 -0.80764867405E+02  0.50650740754E+02  0.40224731318E+03  0.41339008491E+03  0.00000000000E+00 0. -1.
         11    1    4    4    0    0 -0.38309333585E+02 -0.21501126493E+01  0.37600426176E+02  0.53721690897E+02  0.00000000000E+00 0.  1.
</event>
<event>
 8    1  0.7130890E-009  0.1346549E+03  0.7561462E-02  0.1220708E+00
          2   -1    0    0  501    0  0.00000000000E+00  0.00000000000E+00  0.13967479701E+04  0.13967479701E+04  0.00000000000E+00 0. -1.
         -2   -1    0    0    0  501 -0.00000000000E+00 -0.00000000000E+00 -0.14839764444E+02  0.14839764444E+02  0.00000000000E+00 0.  1.
         25    2    1    2    0    0  0.91273983656E+02 -0.17917862071E+02  0.83684877641E+03  0.85124391934E+03  0.12509334815E+03 0.  0.
         23    2    1    2    0    0 -0.91273983656E+02  0.17917862071E+02  0.54505942929E+03  0.56034381525E+03  0.90793281478E+02 0.  0.
          5    1    3    3  502    0  0.10696460786E+03  0.23335109727E+02  0.65286566907E+03  0.66199471972E+03  0.41800000000E+01 0. -1.
         -5    1    3    3    0  502 -0.15690624204E+02 -0.41252971797E+02  0.18398310734E+03  0.18924919962E+03  0.41800000000E+01 0. -1.
        -11    1    4    4    0    0 -0.79372323584E+02  0.41081461999E+02  0.50297277460E+03  0.51085150901E+03  0.00000000000E+00 0. -1.
         11    1    4    4    0    0 -0.11901660072E+02 -0.23163599928E+02  0.42086654689E+02  0.49492306241E+02  0.00000000000E+00 0.  1.
</event>
<event>
 8    1  0.7130890E-009  0.2868403E+03  0.7561462E-02  0.1092010E+00
         -2   -1    0    0    0  501 -0.00000000000E+00  0.00000000000E+00  0.32438393258E+03  0.32438393258E+03  0.00000000000E+00 0. -1.
          2   -1    0    0  501    0  0.00000000000E+00 -0.00000000000E+00 -0.28360874023E+03  0.28360874023E+03  0.00000000000E+00 0.  1.
         25    2    1    2    0    0 -0.26671485790E+03  0.29024279600E+02  0.11151921590E+03  0.31632728849E+03  0.12508874329E+03 0.  0.
         23    2    1    2    0    0  0.26671485790E+03 -0.29024279600E+02 -0.70744023553E+02  0.29166538432E+03  0.89915267404E+02 0.  0.
          5    1    3    3  502    0 -0.67649141682E+02  0.62346152525E+02  0.52466712431E+02  0.10598904386E+03  0.41800000000E+01 0. -1.
         -5    1    3    3    0  502 -0.19906571622E+03 -0.33321872925E+02  0.59052503466E+02  0.21033824463E+03  0.41800000000E+01 0. -1.
        -11    1    4    4    0    0  0.19922449039E+03 -0.56128867109E+02 -0.71350419492E+02  0.21893316253E+03  0.00000000000E+00 0.  1.
         11    1    4    4    0    0  0.67490367511E+02  0.27104587509E+02  0.60639593836E+00  0.72732221793E+02  0.00000000000E+00 0. -1.
</event>
<event>
 8    1  0.7130890E-009  0.1101542E+03  0.7561462E-02  0.1260285E+00
         -2   -1    0    0    0  501 -0.00000000000E+00  0.00000000000E+00  0.12512097210E+03  0.12512097210E+03  0.00000000000E+00 0.  1.
          2   -1    0    0  501    0  0.00000000000E+00 -0.00000000000E+00 -0.13494082699E+03  0.13494082699E+03  0.00000000000E+00 0. -1.
         25    2    1    2    0    0  0.33109342705E+02 -0.22312646598E+02 -0.65543398185E+02  0.14675212323E+03  0.12508463477E+03 0.  0.
         23    2    1    2    0    0 -0.33109342705E+02  0.22312646598E+02  0.55723543290E+02  0.11330967586E+03  0.90221320063E+02 0.  0.
          5    1    3    3  502    0  0.65051422067E+02  0.22693780072E+02 -0.12606958521E+02  0.70164827158E+02  0.41800000000E+01 0. -1.
         -5    1    3    3    0  502 -0.31942079362E+02 -0.45006426670E+02 -0.52936439664E+02  0.76587296074E+02  0.41800000000E+01 0. -1.
        -11    1    4    4    0    0 -0.80588342015E+01  0.54532973537E+02  0.18713405957E+02  0.58214960053E+02  0.00000000000E+00 0. -1.
         11    1    4    4    0    0 -0.25050508504E+02 -0.32220326939E+02  0.37010137333E+02  0.55094715806E+02  0.00000000000E+00 0.  1.
</event>
<event>
 8    1  0.7130890E-009  0.2119175E+03  0.7561462E-02  0.1140056E+00
          1   -1    0    0  501    0  0.00000000000E+00  0.00000000000E+00  0.22207266126E+03  0.22207266126E+03  0.00000000000E+00 0. -1.
         -1   -1    0    0    0  501 -0.00000000000E+00 -0.00000000000E+00 -0.34401354816E+03  0.34401354816E+03  0.00000000000E+00 0.  1.
         25    2    1    2    0    0  0.17617212932E+03 -0.57478386196E+02  0.11536138768E+03  0.25158665097E+03  0.12508880506E+03 0.  0.
         23    2    1    2    0    0 -0.17617212932E+03  0.57478386196E+02 -0.23730227458E+03  0.31449955846E+03  0.90869239689E+02 0.  0.
          5    1    3    3  502    0  0.11703395362E+02 -0.57719546059E+02  0.29194726198E+02  0.65865923648E+02  0.41800000000E+01 0. -1.
         -5    1    3    3    0  502  0.16446873395E+03  0.24115986282E+00  0.86166661480E+02  0.18572072732E+03  0.41800000000E+01 0. -1.
        -11    1    4    4    0    0 -0.42581067515E+02  0.51116255217E+02 -0.11709728204E+03  0.13467662128E+03  0.00000000000E+00 0.  1.
         11    1    4    4    0    0 -0.13359106180E+03  0.63621309791E+01 -0.12020499254E+03  0.17982293718E+03  0.00000000000E+00 0. -1.
</event>
<event>
 8    1  0.7130890E-009  0.1050250E+03  0.7561462E-02  0.1270070E+00
          2   -1    0    0  501    0  0.00000000000E+00  0.00000000000E+00  0.10634396212E+03  0.10634396212E+03  0.00000000000E+00 0. -1.
         -2   -1    0    0    0  501 -0.00000000000E+00 -0.00000000000E+00 -0.11808898273E+03  0.11808898273E+03  0.00000000000E+00 0.  1.
         25    2    1    2    0    0  0.18620965296E+02 -0.17725239328E+02 -0.71669088363E+01  0.12790806658E+03  0.12509270345E+03 0.  0.
         23    2    1    2    0    0 -0.18620965296E+02  0.17725239328E+02 -0.45781117745E+01  0.96524878268E+02  0.92925607662E+02 0.  0.
          5    1    3    3  502    0 -0.29008659316E+02 -0.49988787974E+02  0.23560903876E+02  0.62553735539E+02  0.41800000000E+01 0.  1.
         -5    1    3    3    0  502  0.47629624612E+02  0.32263548646E+02 -0.30727812712E+02  0.65354331043E+02  0.41800000000E+01 0.  1.
        -11    1    4    4    0    0 -0.26193966879E+02 -0.33565220260E+02  0.76442817022E+01  0.43257172292E+02  0.00000000000E+00 0.  1.
         11    1    4    4    0    0  0.75730015823E+01  0.51290459588E+02 -0.12222393477E+02  0.53267705976E+02  0.00000000000E+00 0. -1.
</event>
<event>
 8    1  0.7130890E-009  0.1545922E+03  0.7561462E-02  0.1194941E+00
          2   -1    0    0  501    0  0.00000000000E+00  0.00000000000E+00  0.15298623681E+03  0.15298623681E+03  0.00000000000E+00 0. -1.
         -2   -1    0    0    0  501 -0.00000000000E+00 -0.00000000000E+00 -0.19772997547E+03  0.19772997547E+03  0.00000000000E+00 0.  1.
         25    2    1    2    0    0  0.11072667194E+03  0.69010650123E+02 -0.60769126426E+02  0.19069108119E+03  0.12508931213E+03 0.  0.
         23    2    1    2    0    0 -0.11072667194E+03 -0.69010650123E+02  0.16025387765E+02  0.16002513109E+03  0.91259869698E+02 0.  0.
          5    1    3    3  502    0  0.49191190228E+02 -0.19199458073E+02 -0.63913704746E+02  0.83011001926E+02  0.41800000000E+01 0.  1.
         -5    1    3    3    0  502  0.61535481710E+02  0.88210108195E+02  0.31445783199E+01  0.10768007926E+03  0.41800000000E+01 0.  1.
        -11    1    4    4    0    0 -0.12629826044E+02 -0.46160244822E+02 -0.21597813698E+02  0.52504726116E+02  0.00000000000E+00 0.  1.
         11    1    4    4    0    0 -0.98096845894E+02 -0.22850405300E+02  0.37623201462E+02  0.10752040497E+03  0.00000000000E+00 0. -1.
</event>
<event>
 8    1  0.7130890E-009  0.1103640E+03  0.7561462E-02  0.1259897E+00
         -2   -1    0    0    0  501 -0.00000000000E+00  0.00000000000E+00  0.11309380420E+03  0.11309380420E+03  0.00000000000E+00 0. -1.
          2   -1    0    0  501    0  0.00000000000E+00 -0.00000000000E+00 -0.11478986488E+03  0.11478986488E+03  0.00000000000E+00 0.  1.
         25    2    1    2    0    0  0.32161428228E+02 -0.11637267215E+02  0.44157019623E+01  0.12975721001E+03  0.12509057388E+03 0.  0.
         23    2    1    2    0    0 -0.32161428228E+02  0.11637267215E+02 -0.61117626474E+01  0.98126459062E+02  0.91769629352E+02 0.  0.
          5    1    3    3  502    0  0.43917820445E+02 -0.59347151730E+02  0.22399023837E+02  0.77266085963E+02  0.41800000000E+01 0.  1.
         -5    1    3    3    0  502 -0.11756392217E+02  0.47709884516E+02 -0.17983321875E+02  0.52491124051E+02  0.41800000000E+01 0.  1.
        -11    1    4    4    0    0  0.22119995709E+02  0.32499390301E+02 -0.71853344548E+01  0.39964154080E+02  0.00000000000E+00 0.  1.
         11    1    4    4    0    0 -0.54281423937E+02 -0.20862123087E+02  0.10735718074E+01  0.58162304981E+02  0.00000000000E+00 0. -1.
</event>
<event>
 8    1  0.7130890E-009  0.1453225E+03  0.7561462E-02  0.1206341E+00
          1   -1    0    0  501    0  0.00000000000E+00  0.00000000000E+00  0.36744225757E+03  0.36744225757E+03  0.00000000000E+00 0. -1.
         -1   -1    0    0    0  501 -0.00000000000E+00 -0.00000000000E+00 -0.13382400262E+03  0.13382400262E+03  0.00000000000E+00 0.  1.
         25    2    1    2    0    0 -0.10728903278E+03 -0.61541874381E+02  0.28963469191E+03  0.33887283554E+03  0.12509278578E+03 0.  0.
         23    2    1    2    0    0  0.10728903278E+03  0.61541874381E+02 -0.56016436960E+02  0.16239342465E+03  0.89081110807E+02 0.  0.
          5    1    3    3  502    0 -0.11601366718E+03 -0.69213698560E+02  0.29569439124E+03  0.32511898199E+03  0.41800000000E+01 0.  1.
         -5    1    3    3    0  502  0.87246343999E+01  0.76718241792E+01 -0.60596993255E+01  0.13753853553E+02  0.41800000000E+01 0.  1.
        -11    1    4    4    0    0  0.79022854565E+02  0.77498766607E+02 -0.65456512925E+02  0.12858936758E+03  0.00000000000E+00 0.  1.
         11    1    4    4    0    0  0.28266178216E+02 -0.15956892227E+02  0.94400759648E+01  0.33804057075E+02  0.00000000000E+00 0. -1.
</event>
<event>
 8    1  0.7130890E-009  0.1786486E+03  0.7561462E-02  0.1169117E+00
          1   -1    0    0  501    0  0.00000000000E+00  0.00000000000E+00  0.15829141401E+04  0.15829141401E+04  0.00000000000E+00 0. -1.
         -1   -1    0    0    0  501 -0.00000000000E+00 -0.00000000000E+00 -0.24689621173E+02  0.24689621173E+02  0.00000000000E+00 0.  1.
         25    2    1    2    0    0  0.15644661226E+03 -0.18464665904E+02  0.10274605310E+04  0.10469653977E+04  0.12507963458E+03 0.  0.
         23    2    1    2    0    0 -0.15644661226E+03  0.18464665904E+02  0.53076398799E+03  0.56063836356E+03  0.88252350582E+02 0.  0.
          5    1    3    3  502    0  0.38138296047E+02  0.45726698724E+02  0.45389637479E+03  0.45780438186E+03  0.41800000000E+01 0.  1.
         -5    1    3    3    0  502  0.11830831621E+03 -0.64191364627E+02  0.57356415618E+03  0.58916101588E+03  0.41800000000E+01 0.  1.
        -11    1    4    4    0    0 -0.10775923820E+03 -0.70193933577E+01  0.22024357425E+03  0.24529279912E+03  0.00000000000E+00 0.  1.
         11    1    4    4    0    0 -0.48687374055E+02  0.25484059261E+02  0.31052041373E+03  0.31534556444E+03  0.00000000000E+00 0. -1.
</event>
<event>
 8    1  0.7130890E-009  0.1094025E+03  0.7561462E-02  0.1261680E+00
          2   -1    0    0  501    0  0.00000000000E+00  0.00000000000E+00  0.13922896711E+03  0.13922896711E+03  0.00000000000E+00 0. -1.
         -2   -1    0    0    0  501 -0.00000000000E+00 -0.00000000000E+00 -0.11677974194E+03  0.11677974194E+03  0.00000000000E+00 0.  1.
         25    2    1    2    0    0 -0.64658816767E+02 -0.22414058814E+02  0.94279381225E+01  0.14289824101E+03  0.12509144114E+03 0.  0.
         23    2    1    2    0    0  0.64658816767E+02  0.22414058814E+02  0.13021287053E+02  0.11311046804E+03  0.89113811758E+02 0.  0.
          5    1    3    3  502    0  0.49343158694E+01  0.30230964970E+02  0.39809673980E+02  0.50403782184E+02  0.41800000000E+01 0. -1.
         -5    1    3    3    0  502 -0.69593132636E+02 -0.52645023784E+02 -0.30381735857E+02  0.92494458824E+02  0.41800000000E+01 0. -1.
        -11    1    4    4    0    0  0.26852830878E+02  0.47914083373E+02 -0.18179627885E+02  0.57856138669E+02  0.00000000000E+00 0.  1.
         11    1    4    4    0    0  0.37805985889E+02 -0.25500024559E+02  0.31200914938E+02  0.55254329374E+02  0.00000000000E+00 0. -1.
</event>
<event>
 8    1  0.7130890E-009  0.2761698E+03  0.7561462E-02  0.1097800E+00
         -2   -1    0    0    0  501 -0.00000000000E+00  0.00000000000E+00  0.11994601696E+03  0.11994601696E+03  0.00000000000E+00 0.  1.
          2   -1    0    0  501    0  0.00000000000E+00 -0.00000000000E+00 -0.73191830017E+03  0.73191830017E+03  0.00000000000E+00 0. -1.
         25    2    1    2    0    0 -0.54792496476E+01  0.26074298405E+03 -0.43837112601E+03  0.52519896604E+03  0.12509110239E+03 0.  0.
         23    2    1    2    0    0  0.54792496476E+01 -0.26074298405E+03 -0.17360115719E+03  0.32666535110E+03  0.92498453615E+02 0.  0.
          5    1    3    3  502    0  0.22514563485E+02  0.24029405971E+03 -0.31422722136E+03  0.39623775659E+03  0.41800000000E+01 0. -1.
         -5    1    3    3    0  502 -0.27993813133E+02  0.20448924337E+02 -0.12414390465E+03  0.12896120945E+03  0.41800000000E+01 0. -1.
        -11    1    4    4    0    0 -0.42518845020E+02 -0.11621665434E+03 -0.89249338838E+02  0.15257656246E+03  0.00000000000E+00 0. -1.
         11    1    4    4    0    0  0.47998094668E+02 -0.14452632970E+03 -0.84351818355E+02  0.17408878864E+03  0.00000000000E+00 0.  1.
</event>
<event>
 8    1  0.7130890E-009  0.1334477E+03  0.7561462E-02  0.1222428E+00
          2   -1    0    0  501    0  0.00000000000E+00  0.00000000000E+00  0.32184560740E+03  0.32184560740E+03  0.00000000000E+00 0. -1.
         -2   -1    0    0    0  501 -0.00000000000E+00 -0.00000000000E+00 -0.71400777970E+02  0.71400777970E+02  0.00000000000E+00 0.  1.
         25    2    1    2    0    0 -0.40681238354E+02  0.97650809134E+02  0.12523099372E+03  0.20620418520E+03  0.12508685194E+03 0.  0.
         23    2    1    2    0    0  0.40681238354E+02 -0.97650809134E+02  0.12521383571E+03  0.18704220016E+03  0.90086826511E+02 0.  0.
          5    1    3    3  502    0  0.22019706247E+01  0.88130529830E+02  0.17758721621E+02  0.90026015997E+02  0.41800000000E+01 0. -1.
         -5    1    3    3    0  502 -0.42883208979E+02  0.95202793041E+01  0.10747227210E+03  0.11617816921E+03  0.41800000000E+01 0. -1.
        -11    1    4    4    0    0 -0.18365721750E+02  0.22126764386E+01  0.33740850340E+01  0.18803726286E+02  0.00000000000E+00 0.  1.
         11    1    4    4    0    0  0.59046960104E+02 -0.99863485573E+02  0.12183975068E+03  0.16823847388E+03  0.00000000000E+00 0. -1.
</event>
<event>
 8    1  0.7130890E-009  0.1951495E+03  0.7561462E-02  0.1153897E+00
         -1   -1    0    0    0  501 -0.00000000000E+00  0.00000000000E+00  0.23937864542E+03  0.23937864542E+03  0.00000000000E+00 0.  1.
          1   -1    0    0  501    0  0.00000000000E+00 -0.00000000000E+00 -0.18502078763E+03  0.18502078763E+03  0.00000000000E+00 0. -1.
         25    2    1    2    0    0  0.14145209926E+03  0.97839716335E+02 -0.27770391255E+02  0.21447693643E+03  0.12509138720E+03 0.  0.
         23    2    1    2    0    0 -0.14145209926E+03 -0.97839716335E+02  0.82128249047E+02  0.20992249662E+03  0.87983514468E+02 0.  0.
          5    1    3    3  502    0  0.43681266229E+02 -0.21135704120E+02  0.20784405344E+02  0.52955027273E+02  0.41800000000E+01 0.  1.
         -5    1    3    3    0  502  0.97770833029E+02  0.11897542046E+03 -0.48554796599E+02  0.16152190915E+03  0.41800000000E+01 0.  1.
        -11    1    4    4    0    0 -0.19127862029E+02 -0.54513191737E+02  0.49586434085E+02  0.76133945284E+02  0.00000000000E+00 0.  1.
         11    1    4    4    0    0 -0.12232423723E+03 -0.43326524598E+02  0.32541814961E+02  0.13378855134E+03  0.00000000000E+00 0. -1.
</event>
<event>
 8    1  0.7130890E-009  0.2004994E+03  0.7561462E-02  0.1149318E+00
         -1   -1    0    0    0  501 -0.00000000000E+00  0.00000000000E+00  0.17131533519E+03  0.17131533519E+03  0.00000000000E+00 0.  1.
          1   -1    0    0  501    0  0.00000000000E+00 -0.00000000000E+00 -0.28343269895E+03  0.28343269895E+03  0.00000000000E+00 0. -1.
         25    2    1    2    0    0 -0.18899599865E+03 -0.36200699686E+02 -0.68678516385E+02  0.23957238910E+03  0.12509281691E+03 0.  0.
         23    2    1    2    0    0  0.18899599865E+03  0.36200699686E+02 -0.43438847377E+02  0.21517564504E+03  0.85928147849E+02 0.  0.
          5    1    3    3  502    0 -0.96889355594E+02 -0.47144040675E+02 -0.94305674478E+02  0.14325201722E+03  0.41800000000E+01 0. -1.
         -5    1    3    3    0  502 -0.92106643056E+02  0.10943340989E+02  0.25627158093E+02  0.96320371879E+02  0.41800000000E+01 0. -1.
        -11    1    4    4    0    0  0.82343891580E+02 -0.12120129287E+02  0.14584744434E+02  0.84499282747E+02  0.00000000000E+00 0.  1.
         11    1    4    4    0    0  0.10665210707E+03  0.48320828973E+02 -0.58023591811E+02  0.13067636229E+03  0.00000000000E+00 0. -1.
</event>
<event>
 8    1  0.7130890E-009  0.1579661E+03  0.7561462E-02  0.1191012E+00
         -2   -1    0    0    0  501 -0.00000000000E+00  0.00000000000E+00  0.53696738136E+02  0.53696738136E+02  0.00000000000E+00 0.  1.
          2   -1    0    0  501    0  0.00000000000E+00 -0.00000000000E+00 -0.84037617160E+03  0.84037617160E+03  0.00000000000E+00 0. -1.
         25    2    1    2    0    0  0.72985212448E+02  0.12105960547E+03 -0.64959317436E+03  0.67646209074E+03  0.12508956279E+03 0.  0.
         23    2    1    2    0    0 -0.72985212448E+02 -0.12105960547E+03 -0.13708625910E+03  0.21761081900E+03  0.92625897013E+02 0.  0.
          5    1    3    3  502    0  0.78200681728E+02  0.37178729914E+02 -0.47259241500E+03  0.48047754130E+03  0.41800000000E+01 0.  1.
         -5    1    3    3    0  502 -0.52154692801E+01  0.83880875554E+02 -0.17700075936E+03  0.19598454944E+03  0.41800000000E+01 0.  1.
        -11    1    4    4    0    0 -0.27559664789E+02 -0.77120398014E+02 -0.19607294880E+02  0.84211263650E+02  0.00000000000E+00 0.  1.
         11    1    4    4    0    0 -0.45425547659E+02 -0.43939207455E+02 -0.11747896422E+03  0.13339955535E+03  0.00000000000E+00 0. -1.
</event>
<event>
 8    1  0.7130890E-009  0.1111429E+03  0.7561462E-02  0.1258468E+00
          1   -1    0    0  501    0  0.00000000000E+00  0.00000000000E+00  0.38260792802E+03  0.38260792802E+03  0.00000000000E+00 0. -1.
         -1   -1    0    0    0  501 -0.00000000000E+00 -0.00000000000E+00 -0.49447034983E+02  0.49447034983E+02  0.00000000000E+00 0.  1.
         25    2    1    2    0    0  0.30079770840E+02 -0.51865570468E+02  0.27513407072E+03  0.30812420942E+03  0.12508773538E+03 0.  0.
         23    2    1    2    0    0 -0.30079770840E+02  0.51865570468E+02  0.58026822310E+02  0.12393075358E+03  0.91634543501E+02 0.  0.
          5    1    3    3  502    0  0.78874582446E+02 -0.37447370141E+02  0.18248738481E+03  0.20234283605E+03  0.41800000000E+01 0.  1.
         -5    1    3    3    0  502 -0.48794811606E+02 -0.14418200327E+02  0.92646685916E+02  0.10578137337E+03  0.41800000000E+01 0.  1.
        -11    1    4    4    0    0 -0.45717116266E+02  0.23433996641E+02 -0.64233767838E+01  0.51773223654E+02  0.00000000000E+00 0. -1.
         11    1    4    4    0    0  0.15637345426E+02  0.28431573828E+02  0.64450199094E+02  0.72157529930E+02  0.00000000000E+00 0.  1.
</event>
<event>
 8    1  0.7130890E-009  0.8532419E+02  0.7561462E-02  0.1314587E+00
          1   -1    0    0  501    0  0.00000000000E+00  0.00000000000E+00  0.77771159043E+02  0.77771159043E+02  0.00000000000E+00 0. -1.
         -1   -1    0    0    0  501 -0.00000000000E+00 -0.00000000000E+00 -0.24982966449E+03  0.24982966449E+03  0.00000000000E+00 0.  1.
         25    2    1    2    0    0  0.61399280500E+01 -0.35674586954E+02 -0.18710715523E+03  0.22796548106E+03  0.12509515637E+03 0.  0.
         23    2    1    2    0    0 -0.61399280500E+01  0.35674586954E+02  0.15048649786E+02  0.99635342465E+02  0.91598934148E+02 0.  0.
          5    1    3    3  502    0  0.26228653435E+02 -0.52454126714E+02 -0.19218481485E+03  0.20097724530E+03  0.41800000000E+01 0. -1.
         -5    1    3    3    0  502 -0.20088725385E+02  0.16779539760E+02  0.50776596230E+01  0.26988235759E+02  0.41800000000E+01 0. -1.
        -11    1    4    4    0    0  0.34347628347E+02  0.53488315261E+01 -0.18064953674E+02  0.39175402014E+02  0.00000000000E+00 0.  1.
         11    1    4    4    0    0 -0.40487556397E+02  0.30325755428E+02  0.33113603460E+02  0.60459940451E+02  0.00000000000E+00 0. -1.
</event>
<event>
 8    1  0.7130890E-009  0.7299067E+02  0.7561462E-02  0.1350209E+00
          2   -1    0    0  501    0  0.00000000000E+00  0.00000000000E+00  0.19592205809E+03  0.19592205809E+03  0.00000000000E+00 0. -1.
         -2   -1    0    0    0  501 -0.00000000000E+00 -0.00000000000E+00 -0.68517442862E+02  0.68517442862E+02  0.00000000000E+00 0.  1.
         25    2    1    2    0    0  0.21551709885E+02 -0.32551978627E+02  0.71317873431E+02  0.14919081818E+03  0.12509018206E+03 0.  0.
         23    2    1    2    0    0 -0.21551709885E+02  0.32551978627E+02  0.56086741794E+02  0.11524868276E+03  0.92803172157E+02 0.  0.
          5    1    3    3  502    0  0.10427916103E+02  0.10557880515E+02 -0.32599061286E+02  0.36060802431E+02  0.41800000000E+01 0.  1.
         -5    1    3    3    0  502  0.11123793781E+02 -0.43109859142E+02  0.10391693472E+03  0.11313001575E+03  0.41800000000E+01 0.  1.
        -11    1    4    4    0    0 -0.18264724864E+02 -0.23463744267E+02 -0.72759078408E+01  0.30611865417E+02  0.00000000000E+00 0.  1.
         11    1    4    4    0    0 -0.32869850206E+01  0.56015722894E+02  0.63362649634E+02  0.84636817347E+02  0.00000000000E+00 0. -1.
</event>
<event>
 8    1  0.7130890E-009  0.1979685E+03  0.7561462E-02  0.1151464E+00
         -1   -1    0    0    0  501 -0.00000000000E+00  0.00000000000E+00  0.21489502054E+03  0.21489502054E+03  0.00000000000E+00 0.  1.
          1   -1    0    0  501    0  0.00000000000E+00 -0.00000000000E+00 -0.22281712050E+03  0.22281712050E+03  0.00000000000E+00 0. -1.
         25    2    1    2    0    0 -0.14208493614E+03 -0.12553804705E+03 -0.30714504155E+01  0.22717194963E+03  0.12509888312E+03 0.  0.
         23    2    1    2    0    0  0.14208493614E+03  0.12553804705E+03 -0.48506495457E+01  0.21054019141E+03  0.91409589563E+02 0.  0.
          5    1    3    3  502    0 -0.57813953971E+01 -0.25294325018E+02 -0.45627892602E+02  0.52655525770E+02  0.41800000000E+01 0. -1.
         -5    1    3    3    0  502 -0.13630354074E+03 -0.10024372203E+03  0.42556442187E+02  0.17451642386E+03  0.41800000000E+01 0. -1.
        -11    1    4    4    0    0  0.10663043962E+03  0.51708921968E+02  0.28864118826E+02  0.12197131065E+03  0.00000000000E+00 0. -1.
         11    1    4    4    0    0  0.35454496516E+02  0.73829125083E+02 -0.33714768372E+02  0.88568880766E+02  0.00000000000E+00 0.  1.
</event>
<event>
 8    1  0.7130890E-009  0.1543041E+03  0.7561462E-02  0.1195282E+00
          2   -1    0    0  501    0  0.00000000000E+00  0.00000000000E+00  0.80598001706E+03  0.80598001706E+03  0.00000000000E+00 0. -1.
         -2   -1    0    0    0  501 -0.00000000000E+00 -0.00000000000E+00 -0.35039814428E+02  0.35039814428E+02  0.00000000000E+00 0.  1.
         25    2    1    2    0    0  0.84502462432E+01 -0.12682726348E+03  0.45287203758E+03  0.48672073379E+03  0.12508968327E+03 0.  0.
         23    2    1    2    0    0 -0.84502462432E+01  0.12682726348E+03  0.31806816506E+03  0.35429909770E+03  0.90575557325E+02 0.  0.
          5    1    3    3  502    0 -0.35545974031E+02 -0.92784982030E+01  0.37025728477E+02  0.52325746702E+02  0.41800000000E+01 0. -1.
         -5    1    3    3    0  502  0.43996220274E+02 -0.11754876527E+03  0.41584630910E+03  0.43439498709E+03  0.41800000000E+01 0. -1.
        -11    1    4    4    0    0  0.24998727274E+02  0.14608330164E+02  0.23436542402E+02  0.37250653622E+02  0.00000000000E+00 0.  1.
         11    1    4    4    0    0 -0.33448973517E+02  0.11221893331E+03  0.29463162265E+03  0.31704844408E+03  0.00000000000E+00 0. -1.
</event>
<event>
 8    1  0.7130890E-009  0.1094318E+03  0.7561462E-02  0.1261626E+00
         -1   -1    0    0    0  501 -0.00000000000E+00  0.00000000000E+00  0.23533210122E+02  0.23533210122E+02  0.00000000000E+00 0.  1.
          1   -1    0    0  501    0  0.00000000000E+00 -0.00000000000E+00 -0.61190689035E+03  0.61190689035E+03  0.00000000000E+00 0. -1.
         25    2    1    2    0    0 -0.12151405677E+02 -0.12919817101E+02 -0.44599917102E+03  0.46354783464E+03  0.12508699418E+03 0.  0.
         23    2    1    2    0    0  0.12151405677E+02  0.12919817101E+02 -0.14237450921E+03  0.17189226583E+03  0.94667163514E+02 0.  0.
          5    1    3    3  502    0 -0.66089144717E+02  0.65812179131E+01 -0.19491027086E+03  0.20595769848E+03  0.41800000000E+01 0.  1.
         -5    1    3    3    0  502  0.53937739041E+02 -0.19501035014E+02 -0.25108890017E+03  0.25759013616E+03  0.41800000000E+01 0.  1.
        -11    1    4    4    0    0 -0.13091669875E+02  0.49031669260E+02 -0.60956340693E+02  0.79316907915E+02  0.00000000000E+00 0. -1.
         11    1    4    4    0    0  0.25243075552E+02 -0.36111852159E+02 -0.81418168513E+02  0.92575357918E+02  0.00000000000E+00 0.  1.
</event>
<event>
 8    1  0.7130890E-009  0.1014031E+03  0.7561462E-02  0.1277373E+00
         -1   -1    0    0    0  501 -0.00000000000E+00  0.00000000000E+00  0.46593443959E+02  0.46593443959E+02  0.00000000000E+00 0.  1.
          1   -1    0    0  501    0  0.00000000000E+00 -0.00000000000E+00 -0.38323184337E+03  0.38323184337E+03  0.00000000000E+00 0. -1.
         25    2    1    2    0    0  0.44425253188E+02  0.33780874304E+02 -0.27330692348E+03  0.30570923027E+03  0.12508680370E+03 0.  0.
         23    2    1    2    0    0 -0.44425253188E+02 -0.33780874304E+02 -0.63331475928E+02  0.12411605706E+03  0.90989940032E+02 0.  0.
          5    1    3    3  502    0 -0.22827113624E+02 -0.29783034052E+00 -0.11124115510E+01  0.23235224957E+02  0.41800000000E+01 0.  1.
         -5    1    3    3    0  502  0.67252366813E+02  0.34078704645E+02 -0.27219451193E+03  0.28247400531E+03  0.41800000000E+01 0.  1.
        -11    1    4    4    0    0  0.20963154015E+02 -0.32515313626E+02 -0.10622201897E+02  0.40118955863E+02  0.00000000000E+00 0. -1.
         11    1    4    4    0    0 -0.65388407203E+02 -0.12655606787E+01 -0.52709274031E+02  0.83997101196E+02  0.00000000000E+00 0.  1.
</event>
<event>
 8    1  0.7130890E-009  0.1575099E+03  0.7561462E-02  0.1191537E+00
         -2   -1    0    0    0  501 -0.00000000000E+00  0.00000000000E+00  0.15951683585E+03  0.15951683585E+03  0.00000000000E+00 0.  1.
          2   -1    0    0  501    0  0.00000000000E+00 -0.00000000000E+00 -0.24879554302E+03  0.24879554302E+03  0.00000000000E+00 0. -1.
         25    2    1    2    0    0 -0.12697963410E+03 -0.73481521914E+02  0.29684277088E+02  0.19506894292E+03  0.12508946657E+03 0.  0.
         23    2    1    2    0    0  0.12697963410E+03  0.73481521914E+02 -0.11896298426E+03  0.21324343595E+03  0.98980855787E+02 0.  0.
          5    1    3    3  502    0 -0.12910014582E+03 -0.42533948434E+02 -0.18876643232E+02  0.13729451729E+03  0.41800000000E+01 0.  1.
         -5    1    3    3    0  502  0.21205117119E+01 -0.30947573481E+02  0.48560920320E+02  0.57774425627E+02  0.41800000000E+01 0.  1.
        -11    1    4    4    0    0  0.10213333821E+03  0.66662412275E+02 -0.13575046836E+03  0.18249187829E+03  0.00000000000E+00 0. -1.
         11    1    4    4    0    0  0.24846295898E+02  0.68191096389E+01  0.16787484097E+02  0.30751557659E+02  0.00000000000E+00 0.  1.
</event>
<event>
 8    1  0.7130890E-009  0.1088655E+03  0.7561462E-02  0.1262685E+00
         -3   -1    0    0    0  501 -0.00000000000E+00  0.00000000000E+00  0.77505833020E+03  0.77505833020E+03  0.00000000000E+00 0.  1.
          3   -1    0    0  501    0  0.00000000000E+00 -0.00000000000E+00 -0.24365394172E+02  0.24365394172E+02  0.00000000000E+00 0. -1.
         25    2    1    2    0    0  0.39571065358E+01  0.81234042608E+02  0.34810661885E+03  0.37873510444E+03  0.12508969934E+03 0.  0.
         23    2    1    2    0    0 -0.39571065358E+01 -0.81234042608E+02  0.40258631717E+03  0.42068861992E+03  0.91041439944E+02 0.  0.
          5    1    3    3  502    0  0.22188872714E+02  0.85391660782E+02  0.11580519905E+03  0.14564476760E+03  0.41800000000E+01 0. -1.
         -5    1    3    3    0  502 -0.18231766179E+02 -0.41576181743E+01  0.23230141980E+03  0.23309033684E+03  0.41800000000E+01 0. -1.
        -11    1    4    4    0    0 -0.31674910936E+02 -0.90831491569E+01  0.51090332355E+02  0.60794947501E+02  0.00000000000E+00 0. -1.
         11    1    4    4    0    0  0.27717804400E+02 -0.72150893451E+02  0.35149598482E+03  0.35989367242E+03  0.00000000000E+00 0.  1.
</event>
<event>
 8    1  0.7130890E-009  0.1132649E+03  0.7561462E-02  0.1254641E+00
         -2   -1    0    0    0  501 -0.00000000000E+00  0.00000000000E+00  0.33739286711E+02  0.33739286711E+02  0.00000000000E+00 0.  1.
          2   -1    0    0  501    0  0.00000000000E+00 -0.00000000000E+00 -0.61909820139E+03  0.61909820139E+03  0.00000000000E+00 0. -1.
         25    2    1    2    0    0  0.95218097056E+02 -0.60706619332E+00 -0.36329135078E+03  0.39584694959E+03  0.12508935771E+03 0.  0.
         23    2    1    2    0    0 -0.95218097056E+02  0.60706619332E+00 -0.22206756391E+03  0.25699053852E+03  0.87540158855E+02 0.  0.
          5    1    3    3  502    0  0.76805231365E+02 -0.10328786559E+02 -0.78930909452E+02  0.11069457197E+03  0.41800000000E+01 0. -1.
         -5    1    3    3    0  502  0.18412865691E+02  0.97217203660E+01 -0.28436044132E+03  0.28515237762E+03  0.41800000000E+01 0. -1.
        -11    1    4    4    0    0  0.11576387670E+02 -0.15850832782E+02 -0.21116763073E+02  0.28830180958E+02  0.00000000000E+00 0.  1.
         11    1    4    4    0    0 -0.10679448473E+03  0.16457898976E+02 -0.20095080083E+03  0.22816035756E+03  0.00000000000E+00 0. -1.
</event>
<event>
 8    1  0.7130890E-009  0.1084977E+03  0.7561462E-02  0.1263377E+00
          1   -1    0    0  501    0  0.00000000000E+00  0.00000000000E+00  0.61903488333E+03  0.61903488333E+03  0.00000000000E+00 0. -1.
         -1   -1    0    0    0  501 -0.00000000000E+00 -0.00000000000E+00 -0.31633490967E+02  0.31633490967E+02  0.00000000000E+00 0.  1.
         25    2    1    2    0    0  0.15972146212E+02 -0.71144423599E+02  0.43394919879E+03  0.45746747990E+03  0.12509176461E+03 0.  0.
         23    2    1    2    0    0 -0.15972146212E+02  0.71144423599E+02  0.15345219357E+03  0.19320089439E+03  0.91991148590E+02 0.  0.
          5    1    3    3  502    0  0.32272030029E+02 -0.10274625192E+03  0.29829537869E+03  0.31716853809E+03  0.41800000000E+01 0.  1.
         -5    1    3    3    0  502 -0.16299883817E+02  0.31601828321E+02  0.13565382010E+03  0.14029894182E+03  0.41800000000E+01 0.  1.
        -11    1    4    4    0    0 -0.11645881918E+02  0.32368825948E+02 -0.47757380962E+00  0.34403423313E+02  0.00000000000E+00 0.  1.
         11    1    4    4    0    0 -0.43262642944E+01  0.38775597651E+02  0.15392976738E+03  0.15879747108E+03  0.00000000000E+00 0. -1.
</event>
<event>
 8    1  0.7130890E-009  0.1436072E+03  0.7561462E-02  0.1208556E+00
          1   -1    0    0  501    0  0.00000000000E+00  0.00000000000E+00  0.48699333405E+02  0.48699333405E+02  0.00000000000E+00 0. -1.
         -1   -1    0    0    0  501 -0.00000000000E+00 -0.00000000000E+00 -0.50671747550E+03  0.50671747550E+03  0.00000000000E+00 0.  1.
         25    2    1    2    0    0  0.64869800526E+02  0.83706546625E+02 -0.18056617732E+03  0.24386600478E+03  0.12510638244E+03 0.  0.
         23    2    1    2    0    0 -0.64869800526E+02 -0.83706546625E+02 -0.27745196477E+03  0.31155080413E+03  0.94177671588E+02 0.  0.
          5    1    3    3  502    0 -0.27126553621E+02 -0.89200523100E+01 -0.13666738179E+02  0.31932262322E+02  0.41800000000E+01 0. -1.
         -5    1    3    3    0  502  0.91996354147E+02  0.92626598935E+02 -0.16689943914E+03  0.21193374246E+03  0.41800000000E+01 0. -1.
        -11    1    4    4    0    0 -0.10562629736E+02 -0.71240502907E+02 -0.86090949504E+02  0.11224272800E+03  0.00000000000E+00 0. -1.
         11    1    4    4    0    0 -0.54307170790E+02 -0.12466043718E+02 -0.19136101527E+03  0.19930807613E+03  0.00000000000E+00 0.  1.
</event>
<event>
 8    1  0.7130890E-009  0.9968848E+02  0.7561462E-02  0.1280952E+00
         -3   -1    0    0    0  501 -0.00000000000E+00  0.00000000000E+00  0.42417090923E+03  0.42417090923E+03  0.00000000000E+00 0.  1.
          3   -1    0    0  501    0  0.00000000000E+00 -0.00000000000E+00 -0.49254703350E+02  0.49254703350E+02  0.00000000000E+00 0. -1.
         25    2    1    2    0    0 -0.63180075610E+02  0.35856859416E+02  0.30457715865E+03  0.33718352818E+03  0.12509216515E+03 0.  0.
         23    2    1    2    0    0  0.63180075610E+02 -0.35856859416E+02  0.70339047228E+02  0.13624208440E+03  0.91306558777E+02 0.  0.
          5    1    3    3  502    0  0.27706526006E+02  0.19870468028E+02  0.24303016651E+02  0.42078451746E+02  0.41800000000E+01 0.  1.
         -5    1    3    3    0  502 -0.90886601616E+02  0.15986391388E+02  0.28027414200E+03  0.29510507644E+03  0.41800000000E+01 0.  1.
        -11    1    4    4    0    0  0.16723310527E+02 -0.91065030674E+01  0.79594876038E+02  0.81840954323E+02  0.00000000000E+00 0.  1.
         11    1    4    4    0    0  0.46456765083E+02 -0.26750356349E+02 -0.92558288099E+01  0.54401130078E+02  0.00000000000E+00 0. -1.
</event>
<event>
 8    1  0.7130890E-009  0.1062901E+03  0.7561462E-02  0.1267598E+00
          1   -1    0    0  501    0  0.00000000000E+00  0.00000000000E+00  0.15602546123E+03  0.15602546123E+03  0.00000000000E+00 0. -1.
         -1   -1    0    0    0  501 -0.00000000000E+00 -0.00000000000E+00 -0.13722514013E+03  0.13722514013E+03  0.00000000000E+00 0.  1.
         25    2    1    2    0    0  0.79190127022E+02 -0.49753025528E+02  0.37339724063E+02  0.16058482914E+03  0.12508713998E+03 0.  0.
         23    2    1    2    0    0 -0.79190127022E+02  0.49753025528E+02 -0.18539402967E+02  0.13266577222E+03  0.92249975016E+02 0.  0.
          5    1    3    3  502    0  0.49741297906E+02 -0.21407133610E+02  0.82979884087E+02  0.99174571589E+02  0.41800000000E+01 0. -1.
         -5    1    3    3    0  502  0.29448829116E+02 -0.28345891918E+02 -0.45640160024E+02  0.61410257546E+02  0.41800000000E+01 0. -1.
        -11    1    4    4    0    0 -0.45175899324E+02 -0.11943220358E+02 -0.37265629744E+02  0.59768131579E+02  0.00000000000E+00 0.  1.
         11    1    4    4    0    0 -0.34014227698E+02  0.61696245886E+02  0.18726226777E+02  0.72897640645E+02  0.00000000000E+00 0. -1.
</event>
<event>
 8    1  0.7130890E-009  0.1023044E+03  0.7561462E-02  0.1275523E+00
          1   -1    0    0  501    0  0.00000000000E+00  0.00000000000E+00  0.36390081454E+03  0.36390081454E+03  0.00000000000E+00 0. -1.
         -1   -1    0    0    0  501 -0.00000000000E+00 -0.00000000000E+00 -0.47945035238E+02  0.47945035238E+02  0.00000000000E+00 0.  1.
         25    2    1    2    0    0  0.31695336307E+02 -0.20540796103E+02  0.75109064030E+02  0.15071652120E+03  0.12509028585E+03 0.  0.
         23    2    1    2    0    0 -0.31695336307E+02  0.20540796103E+02  0.24084671527E+03  0.26112932858E+03  0.93567448077E+02 0.  0.
          5    1    3    3  502    0 -0.13777926907E+02 -0.49218435403E+02 -0.77428406848E+01  0.51862410619E+02  0.41800000000E+01 0.  1.
         -5    1    3    3    0  502  0.45473263214E+02  0.28677639300E+02  0.82851904714E+02  0.98854110577E+02  0.41800000000E+01 0.  1.
        -11    1    4    4    0    0  0.18356260823E+02  0.41317792613E+02  0.13219208313E+03  0.13970991068E+03  0.00000000000E+00 0. -1.
         11    1    4    4    0    0 -0.50051597130E+02 -0.20776996510E+02  0.10865463214E+03  0.12141941790E+03  0.00000000000E+00 0.  1.
</event>
<event>
 8    1  0.7130890E-009  0.1501414E+03  0.7561462E-02  0.1200299E+00
         -1   -1    0    0    0  501 -0.00000000000E+00  0.00000000000E+00  0.91573697962E+02  0.91573697962E+02  0.00000000000E+00 0.  1.
          1   -1    0    0  501    0  0.00000000000E+00 -0.00000000000E+00 -0.26104850649E+03  0.26104850649E+03  0.00000000000E+00 0. -1.
         25    2    1    2    0    0  0.27843818554E+02  0.10659448519E+03 -0.90011301324E+02  0.18944059369E+03  0.12509213271E+03 0.  0.
         23    2    1    2    0    0 -0.27843818554E+02 -0.10659448519E+03 -0.79463507207E+02  0.16318161077E+03  0.90421936562E+02 0.  0.
          5    1    3    3  502    0 -0.12207995583E+02 -0.20709573951E+02  0.58241760438E+01  0.25086152276E+02  0.41800000000E+01 0. -1.
         -5    1    3    3    0  502  0.40051814136E+02  0.12730405914E+03 -0.95835477368E+02  0.16435444141E+03  0.41800000000E+01 0. -1.
        -11    1    4    4    0    0 -0.25890653349E+02 -0.12307302731E+03 -0.72658938926E+02  0.14524674656E+03  0.00000000000E+00 0. -1.
         11    1    4    4    0    0 -0.19531652050E+01  0.16478542118E+02 -0.68045682805E+01  0.17934864207E+02  0.00000000000E+00 0.  1.
</event>
<event>
 8    1  0.7130890E-009  0.9601402E+02  0.7561462E-02  0.1288908E+00
          3   -1    0    0  501    0  0.00000000000E+00  0.00000000000E+00  0.28172761504E+02  0.28172761504E+02  0.00000000000E+00 0.  1.
         -3   -1    0    0    0  501 -0.00000000000E+00 -0.00000000000E+00 -0.47343387413E+03  0.47343387413E+03  0.00000000000E+00 0. -1.
         25    2    1    2    0    0  0.37636414558E+02 -0.80581636675E+01 -0.25827911574E+03  0.28954607628E+03  0.12508954776E+03 0.  0.
         23    2    1    2    0    0 -0.37636414558E+02  0.80581636675E+01 -0.18698199689E+03  0.21206055936E+03  0.92336233260E+02 0.  0.
          5    1    3    3  502    0 -0.25630579249E+02  0.10524122557E+02 -0.19842753267E+03  0.20039621221E+03  0.41800000000E+01 0.  1.
         -5    1    3    3    0  502  0.63266993806E+02 -0.18582286224E+02 -0.59851583069E+02  0.89149864063E+02  0.41800000000E+01 0.  1.
        -11    1    4    4    0    0 -0.28981383341E+02  0.48542837662E+02 -0.12870999247E+03  0.14057947869E+03  0.00000000000E+00 0. -1.
         11    1    4    4    0    0 -0.86550312169E+01 -0.40484673994E+02 -0.58272004416E+02  0.71481080661E+02  0.00000000000E+00 0.  1.
</event>
<event>
 8    1  0.7130890E-009  0.8514790E+02  0.7561462E-02  0.1315046E+00
          3   -1    0    0  501    0  0.00000000000E+00  0.00000000000E+00  0.26415193341E+03  0.26415193341E+03  0.00000000000E+00 0. -1.
         -3   -1    0    0    0  501 -0.00000000000E+00 -0.00000000000E+00 -0.68985804705E+02  0.68985804705E+02  0.00000000000E+00 0.  1.
         25    2    1    2    0    0  0.59387513956E+02  0.22018566920E+01  0.40213776447E+02  0.14420996556E+03  0.12509053267E+03 0.  0.
         23    2    1    2    0    0 -0.59387513956E+02 -0.22018566920E+01  0.15495235225E+03  0.18892777255E+03  0.90287024453E+02 0.  0.
          5    1    3    3  502    0  0.26384455594E+02 -0.38658819263E+02 -0.30502378105E+02  0.56022417601E+02  0.41800000000E+01 0. -1.
         -5    1    3    3    0  502  0.33003058362E+02  0.40860675955E+02  0.70716154552E+02  0.88187547961E+02  0.41800000000E+01 0. -1.
        -11    1    4    4    0    0 -0.17745481768E+01  0.11302035211E+02 -0.90430943072E+01  0.14582954974E+02  0.00000000000E+00 0.  1.
         11    1    4    4    0    0 -0.57612965779E+02 -0.13503891903E+02  0.16399544656E+03  0.17434481757E+03  0.00000000000E+00 0. -1.
</event>
<event>
 8    1  0.7130890E-009  0.9461167E+02  0.7561462E-02  0.1292053E+00
         -1   -1    0    0    0  501 -0.00000000000E+00  0.00000000000E+00  0.26632250846E+03  0.26632250846E+03  0.00000000000E+00 0.  1.
          1   -1    0    0  501    0  0.00000000000E+00 -0.00000000000E+00 -0.58221412302E+02  0.58221412302E+02  0.00000000000E+00 0. -1.
         25    2    1    2    0    0  0.18661246642E+01 -0.57614719669E+02  0.14109766684E+03  0.19717961624E+03  0.12509320976E+03 0.  0.
         23    2    1    2    0    0 -0.18661246642E+01  0.57614719669E+02  0.67003429322E+02  0.12736430452E+03  0.91702062040E+02 0.  0.
          5    1    3    3  502    0 -0.34163070339E+02 -0.30321291152E+02  0.14455251963E+03  0.15165552876E+03  0.41800000000E+01 0. -1.
         -5    1    3    3    0  502  0.36029195003E+02 -0.27293428517E+02 -0.34548527937E+01  0.45524087477E+02  0.41800000000E+01 0. -1.
        -11    1    4    4    0    0 -0.31521780025E+02 -0.17829796484E+01  0.49491078941E+02  0.58704075899E+02  0.00000000000E+00 0.  1.
         11    1    4    4    0    0  0.29655655361E+02  0.59397699318E+02  0.17512350380E+02  0.68660228626E+02  0.00000000000E+00 0. -1.
</event>
<event>
 8    1  0.7130890E-009  0.1263574E+03  0.7561462E-02  0.1232963E+00
         -2   -1    0    0    0  501 -0.00000000000E+00  0.00000000000E+00  0.28599774072E+02  0.28599774072E+02  0.00000000000E+00 0.  1.
          2   -1    0    0  501    0  0.00000000000E+00 -0.00000000000E+00 -0.83022909235E+03  0.83022909235E+03  0.00000000000E+00 0. -1.
         25    2    1    2    0    0 -0.78029708570E+02 -0.19098388973E+02 -0.62772884306E+03  0.64509258896E+03  0.12509022360E+03 0.  0.
         23    2    1    2    0    0  0.78029708570E+02  0.19098388973E+02 -0.17390047521E+03  0.21373627745E+03  0.94807368598E+02 0.  0.
          5    1    3    3  502    0 -0.23386458264E+02  0.48142351802E+02 -0.14472909175E+03  0.15436513488E+03  0.41800000000E+01 0.  1.
         -5    1    3    3    0  502 -0.54643250307E+02 -0.67240740776E+02 -0.48299975131E+03  0.49072745408E+03  0.41800000000E+01 0.  1.
        -11    1    4    4    0    0  0.28112277277E+02 -0.30802652524E+02 -0.24162507943E+02  0.48196787510E+02  0.00000000000E+00 0.  1.
         11    1    4    4    0    0  0.49917431293E+02  0.49901041497E+02 -0.14973796727E+03  0.16553948994E+03  0.00000000000E+00 0. -1.
</event>
<event>
 8    1  0.7130890E-009  0.1300924E+03  0.7561462E-02  0.1227319E+00
          2   -1    0    0  501    0  0.00000000000E+00  0.00000000000E+00  0.15044686382E+03  0.15044686382E+03  0.00000000000E+00 0.  1.
         -2   -1    0    0    0  501 -0.00000000000E+00 -0.00000000000E+00 -0.21849972659E+03  0.21849972659E+03  0.00000000000E+00 0. -1.
         25    2    1    2    0    0 -0.12016536332E+02 -0.11901083180E+03  0.45540952273E+02  0.17896731054E+03  0.12508934679E+03 0.  0.
         23    2    1    2    0    0  0.12016536332E+02  0.11901083180E+03 -0.11359381504E+03  0.18997927987E+03  0.94236918109E+02 0.  0.
          5    1    3    3  502    0 -0.56939297814E+01 -0.12455754200E+03 -0.76132033499E+01  0.12498974106E+03  0.41800000000E+01 0.  1.
         -5    1    3    3    0  502 -0.63226065508E+01  0.55467102004E+01  0.53154155623E+02  0.53977569486E+02  0.41800000000E+01 0.  1.
        -11    1    4    4    0    0  0.25589655617E+02  0.55867411074E+02 -0.10912782310E+03  0.12523929044E+03  0.00000000000E+00 0.  1.
         11    1    4    4    0    0 -0.13573119285E+02  0.63143420722E+02 -0.44659919378E+01  0.64739989432E+02  0.00000000000E+00 0. -1.
</event>
<event>
 8    1  0.7130890E-009  0.1002518E+03  0.7561462E-02  0.1279767E+00
         -1   -1    0    0    0  501 -0.00000000000E+00  0.00000000000E+00  0.40151774737E+03  0.40151774737E+03  0.00000000000E+00 0.  1.
          1   -1    0    0  501    0  0.00000000000E+00 -0.00000000000E+00 -0.37322787488E+02  0.37322787488E+02  0.00000000000E+00 0. -1.
         25    2    1    2    0    0 -0.45490942822E+02  0.14062624036E+02  0.14696642136E+03  0.19877954450E+03  0.12508794917E+03 0.  0.
         23    2    1    2    0    0  0.45490942822E+02 -0.14062624036E+02  0.21722853852E+03  0.24006099036E+03  0.90409390407E+02 0.  0.
          5    1    3    3  502    0 -0.62573043894E+02  0.35220333844E+02  0.15435688248E+03  0.17029203536E+03  0.41800000000E+01 0. -1.
         -5    1    3    3    0  502  0.17082101073E+02 -0.21157709808E+02 -0.73904611137E+01  0.28487509137E+02  0.41800000000E+01 0. -1.
        -11    1    4    4    0    0  0.15546771114E+02 -0.51114401522E+02  0.97036954738E+02  0.11077253595E+03  0.00000000000E+00 0.  1.
         11    1    4    4    0    0  0.29944171707E+02  0.37051777485E+02  0.12019158378E+03  0.12928845441E+03  0.00000000000E+00 0. -1.
</event>
<event>
 8    1  0.7130890E-009  0.2040452E+03  0.7561462E-02  0.1146370E+00
         -1   -1    0    0    0  501 -0.00000000000E+00  0.00000000000E+00  0.28325339504E+02  0.28325339504E+02  0.00000000000E+00 0.  1.
          1   -1    0    0  501    0  0.00000000000E+00 -0.00000000000E+00 -0.15574326900E+04  0.15574326900E+04  0.00000000000E+00 0. -1.
         25    2    1    2    0    0  0.10119062491E+03  0.14657541028E+03 -0.71084434049E+03  0.74341865926E+03  0.12509089919E+03 0.  0.
         23    2    1    2    0    0 -0.10119062491E+03 -0.14657541028E+03 -0.81826301000E+03  0.84233937024E+03  0.90870059177E+02 0.  0.
          5    1    3    3  502    0 -0.23455991300E+02  0.35154245720E+02 -0.77574117406E+02  0.88437665117E+02  0.41800000000E+01 0. -1.
         -5    1    3    3    0  502  0.12464661621E+03  0.11142116456E+03 -0.63327022308E+03  0.65498099414E+03  0.41800000000E+01 0. -1.
        -11    1    4    4    0    0 -0.22767093284E+02 -0.10912954231E+03 -0.51128194007E+03  0.52329420003E+03  0.00000000000E+00 0.  1.
         11    1    4    4    0    0 -0.78423531622E+02 -0.37445867965E+02 -0.30698106993E+03  0.31904517021E+03  0.00000000000E+00 0. -1.
</event>
<event>
 8    1  0.7130890E-009  0.8721437E+02  0.7561462E-02  0.1309741E+00
          2   -1    0    0  501    0  0.00000000000E+00  0.00000000000E+00  0.65646317989E+03  0.65646317989E+03  0.00000000000E+00 0. -1.
         -2   -1    0    0    0  501 -0.00000000000E+00 -0.00000000000E+00 -0.19745914217E+02  0.19745914217E+02  0.00000000000E+00 0.  1.
         25    2    1    2    0    0  0.19196598806E+02  0.28467693376E+02  0.40464951603E+03  0.42493310524E+03  0.12509194274E+03 0.  0.
         23    2    1    2    0    0 -0.19196598806E+02 -0.28467693376E+02  0.23206774965E+03  0.25127598887E+03  0.90029235155E+02 0.  0.
          5    1    3    3  502    0 -0.17628223066E+01 -0.29665815591E+02  0.21767663912E+02  0.37073868821E+02  0.41800000000E+01 0.  1.
         -5    1    3    3    0  502  0.20959421113E+02  0.58133508967E+02  0.38288185212E+03  0.38785923642E+03  0.41800000000E+01 0.  1.
        -11    1    4    4    0    0  0.14485075837E+02  0.19238764006E+02  0.14135028903E+03  0.14338706940E+03  0.00000000000E+00 0. -1.
         11    1    4    4    0    0 -0.33681674643E+02 -0.47706457382E+02  0.90717460623E+02  0.10788891947E+03  0.00000000000E+00 0.  1.
</event>
<event>
 8    1  0.7130890E-009  0.1534297E+03  0.7561462E-02  0.1196321E+00
         -1   -1    0    0    0  501 -0.00000000000E+00  0.00000000000E+00  0.31062373207E+03  0.31062373207E+03  0.00000000000E+00 0.  1.
          1   -1    0    0  501    0  0.00000000000E+00 -0.00000000000E+00 -0.78085321451E+02  0.78085321451E+02  0.00000000000E+00 0. -1.
         25    2    1    2    0    0 -0.17354537855E+02  0.10871627558E+03  0.14906517028E+03  0.22357956807E+03  0.12508792791E+03 0.  0.
         23    2    1    2    0    0  0.17354537855E+02 -0.10871627558E+03  0.83473240329E+02  0.16512948544E+03  0.90440900877E+02 0.  0.
          5    1    3    3  502    0 -0.99573743759E+01  0.13683268170E+03  0.12346033525E+03  0.18461381006E+03  0.41800000000E+01 0.  1.
         -5    1    3    3    0  502 -0.73971634792E+01 -0.28116406117E+02  0.25604835034E+02  0.38965758014E+02  0.41800000000E+01 0.  1.
        -11    1    4    4    0    0 -0.35506490362E+02 -0.39065898378E+02  0.45920510433E+02  0.69968196721E+02  0.00000000000E+00 0.  1.
         11    1    4    4    0    0  0.52861028218E+02 -0.69650377202E+02  0.37552729897E+02  0.95161288722E+02  0.00000000000E+00 0. -1.
</event>
<event>
 8    1  0.7130890E-009  0.1152212E+03  0.7561462E-02  0.1251195E+00
          1   -1    0    0  501    0  0.00000000000E+00  0.00000000000E+00  0.29146762905E+03  0.29146762905E+03  0.00000000000E+00 0. -1.
         -1   -1    0    0    0  501 -0.00000000000E+00 -0.00000000000E+00 -0.69455706026E+02  0.69455706026E+02  0.00000000000E+00 0.  1.
         25    2    1    2    0    0  0.62645930991E+02  0.43100244413E+02  0.55008052806E+02  0.15638210726E+03  0.12508930354E+03 0.  0.
         23    2    1    2    0    0 -0.62645930991E+02 -0.43100244413E+02  0.16700387022E+03  0.20454122782E+03  0.90358604849E+02 0.  0.
          5    1    3    3  502    0  0.52794272391E+02 -0.33688631170E+02  0.26397355051E+01  0.62821968060E+02  0.41800000000E+01 0. -1.
         -5    1    3    3    0  502  0.98516585995E+01  0.76788875582E+02  0.52368317300E+02  0.93560139201E+02  0.41800000000E+01 0. -1.
        -11    1    4    4    0    0 -0.20091391792E+02  0.97168319588E+01 -0.20269117065E+01  0.22409578723E+02  0.00000000000E+00 0.  1.
         11    1    4    4    0    0 -0.42554539198E+02 -0.52817076371E+02  0.16903078193E+03  0.18213164910E+03  0.00000000000E+00 0. -1.
</event>
<event>
 8    1  0.7130890E-009  0.8546192E+02  0.7561462E-02  0.1314229E+00
         -1   -1    0    0    0  501 -0.00000000000E+00  0.00000000000E+00  0.15987677090E+03  0.15987677090E+03  0.00000000000E+00 0.  1.
          1   -1    0    0  501    0  0.00000000000E+00 -0.00000000000E+00 -0.81883665583E+02  0.81883665583E+02  0.00000000000E+00 0. -1.
         25    2    1    2    0    0  0.66337322077E+01 -0.35789797341E+02  0.43656450022E+02  0.13739689193E+03  0.12508838590E+03 0.  0.
         23    2    1    2    0    0 -0.66337322077E+01  0.35789797341E+02  0.34336655293E+02  0.10436354455E+03  0.91585083598E+02 0.  0.
          5    1    3    3  502    0 -0.17712765017E+02  0.18847851843E+02 -0.31679931333E+02  0.41110509762E+02  0.41800000000E+01 0.  1.
         -5    1    3    3    0  502  0.24346497225E+02 -0.54637649183E+02  0.75336381355E+02  0.96286382168E+02  0.41800000000E+01 0.  1.
        -11    1    4    4    0    0  0.37867210976E+01 -0.23884996248E+02 -0.13025919812E+02  0.27468288796E+02  0.00000000000E+00 0. -1.
         11    1    4    4    0    0 -0.10420453305E+02  0.59674793588E+02  0.47362575105E+02  0.76895255754E+02  0.00000000000E+00 0.  1.
</event>
<event>
 8    1  0.7130890E-009  0.3414467E+03  0.7561462E-02  0.1066181E+00
          1   -1    0    0  501    0  0.00000000000E+00  0.00000000000E+00  0.57722401395E+03  0.57722401395E+03  0.00000000000E+00 0. -1.
         -1   -1    0    0    0  501 -0.00000000000E+00 -0.00000000000E+00 -0.23169939639E+03  0.23169939639E+03  0.00000000000E+00 0.  1.
         25    2    1    2    0    0  0.27868063671E+02 -0.32486655859E+03  0.37281807827E+02  0.35121003720E+03  0.12507456644E+03 0.  0.
         23    2    1    2    0    0 -0.27868063671E+02  0.32486655859E+03  0.30824280974E+03  0.45771337314E+03  0.90404603529E+02 0.  0.
          5    1    3    3  502    0 -0.43407795096E+02 -0.20353944931E+03  0.29262946950E+02  0.21020546273E+03  0.41800000000E+01 0.  1.
         -5    1    3    3    0  502  0.71275858767E+02 -0.12132710928E+03  0.80188608770E+01  0.14100457446E+03  0.41800000000E+01 0.  1.
        -11    1    4    4    0    0  0.13078112669E+02  0.23315333276E+03  0.18011961480E+03  0.29491454566E+03  0.00000000000E+00 0.  1.
         11    1    4    4    0    0 -0.40946176340E+02  0.91713225831E+02  0.12812319494E+03  0.16279882748E+03  0.00000000000E+00 0. -1.
</event>
<event>
 8    1  0.7130890E-009  0.1261322E+03  0.7561462E-02  0.1233310E+00
          1   -1    0    0  501    0  0.00000000000E+00  0.00000000000E+00  0.25839244577E+03  0.25839244577E+03  0.00000000000E+00 0. -1.
         -1   -1    0    0    0  501 -0.00000000000E+00 -0.00000000000E+00 -0.15717032144E+03  0.15717032144E+03  0.00000000000E+00 0.  1.
         25    2    1    2    0    0 -0.86349584028E+02 -0.57858575791E+02 -0.85593168279E+02  0.18378635208E+03  0.12508943721E+03 0.  0.
         23    2    1    2    0    0  0.86349584028E+02  0.57858575791E+02  0.18681529260E+03  0.23177641513E+03  0.89534840176E+02 0.  0.
          5    1    3    3  502    0 -0.79247342295E+02 -0.70012566205E+02 -0.94590089807E+01  0.10624898088E+03  0.41800000000E+01 0.  1.
         -5    1    3    3    0  502 -0.71022417328E+01  0.12153990414E+02 -0.76134159299E+02  0.77537371201E+02  0.41800000000E+01 0.  1.
        -11    1    4    4    0    0  0.87851682366E+02  0.15307656484E+02  0.15425306889E+03  0.17817477853E+03  0.00000000000E+00 0. -1.
         11    1    4    4    0    0 -0.15020983378E+01  0.42550919306E+02  0.32562223715E+02  0.53601636603E+02  0.00000000000E+00 0.  1.
</event>
<event>
 8    1  0.7130890E-009  0.5920549E+02  0.7561462E-02  0.1401197E+00
         -1   -1    0    0    0  501 -0.00000000000E+00  0.00000000000E+00  0.41899106663E+02  0.41899106663E+02  0.00000000000E+00 0.  1.
          1   -1    0    0  501    0  0.00000000000E+00 -0.00000000000E+00 -0.34444227746E+03  0.34444227746E+03  0.00000000000E+00 0. -1.
         25    2    1    2    0    0  0.40845745523E+02  0.15326109647E+02 -0.20398075068E+03  0.24322544033E+03  0.12508878292E+03 0.  0.
         23    2    1    2    0    0 -0.40845745523E+02 -0.15326109647E+02 -0.98562420118E+02  0.14311594379E+03  0.94150720357E+02 0.  0.
          5    1    3    3  502    0  0.19580744138E+01  0.11057745508E+02 -0.20352649438E+03  0.20387892021E+03  0.41800000000E+01 0. -1.
         -5    1    3    3    0  502  0.38887671109E+02  0.42683641389E+01 -0.45425629644E+00  0.39346520119E+02  0.41800000000E+01 0. -1.
        -11    1    4    4    0    0 -0.51890050094E+02 -0.19276750145E+02 -0.11220964414E+03  0.12512064031E+03  0.00000000000E+00 0. -1.
         11    1    4    4    0    0  0.11044304571E+02  0.39506404987E+01  0.13647224020E+02  0.17995303478E+02  0.00000000000E+00 0.  1.
</event>
<event>
 8    1  0.7130890E-009  0.8702569E+02  0.7561462E-02  0.1310219E+00
         -2   -1    0    0    0  501 -0.00000000000E+00  0.00000000000E+00  0.36908068546E+02  0.36908068546E+02  0.00000000000E+00 0.  1.
          2   -1    0    0  501    0  0.00000000000E+00 -0.00000000000E+00 -0.38201618871E+03  0.38201618871E+03  0.00000000000E+00 0. -1.
         25    2    1    2    0    0  0.30368228815E+02 -0.33572956715E+02 -0.17373309723E+03  0.21881243815E+03  0.12508525601E+03 0.  0.
         23    2    1    2    0    0 -0.30368228815E+02  0.33572956715E+02 -0.17137502294E+03  0.20011181911E+03  0.92876094430E+02 0.  0.
          5    1    3    3  502    0 -0.24408561436E+02 -0.39500953857E+02 -0.12346275517E+02  0.48228685925E+02  0.41800000000E+01 0.  1.
         -5    1    3    3    0  502  0.54776790251E+02  0.59279971415E+01 -0.16138682171E+03  0.17058375222E+03  0.41800000000E+01 0.  1.
        -11    1    4    4    0    0 -0.26754982452E+02 -0.99179132240E+01 -0.14776306041E+03  0.15049291050E+03  0.00000000000E+00 0. -1.
         11    1    4    4    0    0 -0.36132463638E+01  0.43490869939E+02 -0.23611962528E+02  0.49618908612E+02  0.00000000000E+00 0.  1.
</event>
<event>
 8    1  0.7130890E-009  0.1581538E+03  0.7561462E-02  0.1190797E+00
         -2   -1    0    0    0  501 -0.00000000000E+00  0.00000000000E+00  0.11039069210E+03  0.11039069210E+03  0.00000000000E+00 0.  1.
          2   -1    0    0  501    0  0.00000000000E+00 -0.00000000000E+00 -0.27367619302E+03  0.27367619302E+03  0.00000000000E+00 0. -1.
         25    2    1    2    0    0  0.12907068276E+03  0.36701001159E+02 -0.93910598182E+02  0.20608753351E+03  0.12508663551E+03 0.  0.
         23    2    1    2    0    0 -0.12907068276E+03 -0.36701001159E+02 -0.69374902736E+02  0.17797935161E+03  0.94114652606E+02 0.  0.
          5    1    3    3  502    0 -0.17180338068E+02 -0.18014706292E+02 -0.31782010579E+01  0.25441442980E+02  0.41800000000E+01 0. -1.
         -5    1    3    3    0  502  0.14625102083E+03  0.54715707451E+02 -0.90732397124E+02  0.18064609053E+03  0.41800000000E+01 0. -1.
        -11    1    4    4    0    0 -0.37350445417E+02 -0.43630218285E+01  0.22806826668E+02  0.43980030411E+02  0.00000000000E+00 0.  1.
         11    1    4    4    0    0 -0.91720237348E+02 -0.32337979331E+02 -0.92181729404E+02  0.13399932120E+03  0.00000000000E+00 0. -1.
</event>
<event>
 8    1  0.7130890E-009  0.7601008E+02  0.7561462E-02  0.1340771E+00
          2   -1    0    0  501    0  0.00000000000E+00  0.00000000000E+00  0.12432436824E+04  0.12432436824E+04  0.00000000000E+00 0. -1.
         -2   -1    0    0    0  501 -0.00000000000E+00 -0.00000000000E+00 -0.15247569280E+02  0.15247569280E+02  0.00000000000E+00 0.  1.
         25    2    1    2    0    0 -0.38371802954E+02 -0.57071558803E+02  0.89291757952E+03  0.90425608002E+03  0.12509075251E+03 0.  0.
         23    2    1    2    0    0  0.38371802954E+02  0.57071558803E+02  0.33507853362E+03  0.35423517168E+03  0.92061800282E+02 0.  0.
          5    1    3    3  502    0 -0.19732950295E+01 -0.51645672719E+00  0.69806680415E+03  0.69808229893E+03  0.41800000000E+01 0.  1.
         -5    1    3    3    0  502 -0.36398507925E+02 -0.56555102076E+02  0.19485077537E+03  0.20617378110E+03  0.41800000000E+01 0. -1.
        -11    1    4    4    0    0  0.45742905133E+02  0.37765461163E+02  0.32652543177E+03  0.33186970489E+03  0.00000000000E+00 0. -1.
         11    1    4    4    0    0 -0.73711021782E+01  0.19306097641E+02  0.85531018487E+01  0.22365466788E+02  0.00000000000E+00 0.  1.
</event>
<event>
 8    1  0.7130890E-009  0.1050069E+03  0.7561462E-02  0.1270106E+00
          1   -1    0    0  501    0  0.00000000000E+00  0.00000000000E+00  0.23166316222E+02  0.23166316222E+02  0.00000000000E+00 0. -1.
         -1   -1    0    0    0  501 -0.00000000000E+00 -0.00000000000E+00 -0.58013083443E+03  0.58013083443E+03  0.00000000000E+00 0.  1.
         25    2    1    2    0    0 -0.49846919277E+00 -0.41079363175E+02 -0.31211908367E+03  0.33875267128E+03  0.12508911767E+03 0.  0.
         23    2    1    2    0    0  0.49846919277E+00  0.41079363175E+02 -0.24484543454E+03  0.26454447937E+03  0.91360452059E+02 0.  0.
          5    1    3    3  502    0 -0.57366510303E+02  0.40107041963E+01 -0.11474158918E+03  0.12841381133E+03  0.41800000000E+01 0.  1.
         -5    1    3    3    0  502  0.56868041110E+02 -0.45090067371E+02 -0.19737749449E+03  0.21033885995E+03  0.41800000000E+01 0.  1.
        -11    1    4    4    0    0 -0.24107788821E+02  0.48329446615E+02 -0.22689797677E+03  0.23323724564E+03  0.00000000000E+00 0.  1.
         11    1    4    4    0    0  0.24606258014E+02 -0.72500834398E+01 -0.17947457766E+02  0.31307233726E+02  0.00000000000E+00 0. -1.
</event>
<event>
 8    1  0.7130890E-009  0.1093582E+03  0.7561462E-02  0.1261763E+00
         -1   -1    0    0    0  501 -0.00000000000E+00  0.00000000000E+00  0.24795381647E+03  0.24795381647E+03  0.00000000000E+00 0.  1.
          1   -1    0    0  501    0  0.00000000000E+00 -0.00000000000E+00 -0.68915766899E+02  0.68915766899E+02  0.00000000000E+00 0. -1.
         25    2    1    2    0    0  0.57679637334E+02  0.34878481553E+02  0.57480269408E+02  0.15327964066E+03  0.12508883975E+03 0.  0.
         23    2    1    2    0    0 -0.57679637334E+02 -0.34878481553E+02  0.12155778016E+03  0.16358994271E+03  0.86266600721E+02 0.  0.
          5    1    3    3  502    0  0.86730057934E+02  0.81032009955E+01  0.48560199417E+01  0.87343105883E+02  0.41800000000E+01 0. -1.
         -5    1    3    3    0  502 -0.29050420600E+02  0.26775280557E+02  0.52624249466E+02  0.65936534772E+02  0.41800000000E+01 0. -1.
        -11    1    4    4    0    0 -0.69816024829E+02 -0.20089162047E+02  0.12458582998E+03  0.14422025096E+03  0.00000000000E+00 0.  1.
         11    1    4    4    0    0  0.12136387495E+02 -0.14789319506E+02 -0.30280498194E+01  0.19369691752E+02  0.00000000000E+00 0. -1.
</event>
<event>
 8    1  0.7130890E-009  0.9695267E+02  0.7561462E-02  0.1286838E+00
         -2   -1    0    0    0  501 -0.00000000000E+00  0.00000000000E+00  0.26675758582E+02  0.26675758582E+02  0.00000000000E+00 0.  1.
          2   -1    0    0  501    0  0.00000000000E+00 -0.00000000000E+00 -0.50201362759E+03  0.50201362759E+03  0.00000000000E+00 0. -1.
         25    2    1    2    0    0  0.50856396937E+00  0.39992058647E+02 -0.28355734943E+03  0.31249277039E+03  0.12508931905E+03 0.  0.
         23    2    1    2    0    0 -0.50856396937E+00 -0.39992058647E+02 -0.19178051958E+03  0.21619661578E+03  0.91441705976E+02 0.  0.
          5    1    3    3  502    0  0.41120882449E+02  0.32681707451E+02 -0.41952263239E+02  0.67353439156E+02  0.41800000000E+01 0. -1.
         -5    1    3    3    0  502 -0.40612318479E+02  0.73103511958E+01 -0.24160508619E+03  0.24513933123E+03  0.41800000000E+01 0. -1.
        -11    1    4    4    0    0  0.32375098869E+02 -0.54818715505E+02 -0.12624891519E+03  0.14139316526E+03  0.00000000000E+00 0.  1.
         11    1    4    4    0    0 -0.32883662838E+02  0.14826656858E+02 -0.65531604398E+02  0.74803450523E+02  0.00000000000E+00 0. -1.
</event>
<event>
 8    1  0.7130890E-009  0.1008173E+03  0.7561462E-02  0.1278587E+00
          2   -1    0    0  501    0  0.00000000000E+00  0.00000000000E+00  0.33334288091E+03  0.33334288091E+03  0.00000000000E+00 0. -1.
         -2   -1    0    0    0  501 -0.00000000000E+00 -0.00000000000E+00 -0.37146943707E+02  0.37146943707E+02  0.00000000000E+00 0.  1.
         25    2    1    2    0    0  0.28461730331E+02 -0.11562535566E+01  0.19955985514E+03  0.23723942592E+03  0.12508797869E+03 0.  0.
         23    2    1    2    0    0 -0.28461730331E+02  0.11562535566E+01  0.96636082064E+02  0.13325039869E+03  0.87210832925E+02 0.  0.
          5    1    3    3  502    0 -0.21443869593E+02 -0.48391422757E+02  0.51549846823E+02  0.74002894856E+02  0.41800000000E+01 0. -1.
         -5    1    3    3    0  502  0.49905599924E+02  0.47235169201E+02  0.14801000832E+03  0.16323653107E+03  0.41800000000E+01 0. -1.
        -11    1    4    4    0    0 -0.22352939314E+02  0.37059510032E+02  0.84366911631E+02  0.94820024035E+02  0.00000000000E+00 0. -1.
         11    1    4    4    0    0 -0.61087910164E+01 -0.35903256476E+02  0.12269170433E+02  0.38430374658E+02  0.00000000000E+00 0.  1.
</event>
<event>
 8    1  0.7130890E-009  0.1119016E+03  0.7561462E-02  0.1257088E+00
          2   -1    0    0  501    0  0.00000000000E+00  0.00000000000E+00  0.11146206777E+03  0.11146206777E+03  0.00000000000E+00 0. -1.
         -2   -1    0    0    0  501 -0.00000000000E+00 -0.00000000000E+00 -0.13388616314E+03  0.13388616314E+03  0.00000000000E+00 0.  1.
         25    2    1    2    0    0  0.12251607561E+02 -0.49150943805E+02  0.10103287721E+02  0.13533812605E+03  0.12509362404E+03 0.  0.
         23    2    1    2    0    0 -0.12251607561E+02  0.49150943805E+02 -0.32527383094E+02  0.11001010487E+03  0.92077550777E+02 0.  0.
          5    1    3    3  502    0 -0.63380854353E+01 -0.85483132589E+02 -0.15174017592E+02  0.87150791700E+02  0.41800000000E+01 0.  1.
         -5    1    3    3    0  502  0.18589692997E+02  0.36332188784E+02  0.25277305313E+02  0.48187334347E+02  0.41800000000E+01 0.  1.
        -11    1    4    4    0    0 -0.41414722325E+02  0.53303003058E+02 -0.19172419899E+01  0.67528254658E+02  0.00000000000E+00 0. -1.
         11    1    4    4    0    0  0.29163114764E+02 -0.41520592531E+01 -0.30610141104E+02  0.42481850209E+02  0.00000000000E+00 0.  1.
</event>
<event>
 8    1  0.7130890E-009  0.1328617E+03  0.7561462E-02  0.1223270E+00
         -2   -1    0    0    0  501 -0.00000000000E+00  0.00000000000E+00  0.13015324710E+02  0.13015324710E+02  0.00000000000E+00 0.  1.
          2   -1    0    0  501    0  0.00000000000E+00 -0.00000000000E+00 -0.24894332823E+04  0.24894332823E+04  0.00000000000E+00 0. -1.
         25    2    1    2    0    0  0.62352382815E+02  0.67543662158E+02 -0.20754145828E+04  0.20812119909E+04  0.12509074458E+03 0.  0.
         23    2    1    2    0    0 -0.62352382815E+02 -0.67543662158E+02 -0.40100337471E+03  0.42123661609E+03  0.90479910838E+02 0.  0.
          5    1    3    3  502    0  0.94199124603E+02  0.75881556055E+02 -0.17191483662E+04  0.17234036275E+04  0.41800000000E+01 0.  1.
         -5    1    3    3    0  502 -0.31846741789E+02 -0.83378938962E+01 -0.35626621660E+03  0.35780836341E+03  0.41800000000E+01 0.  1.
        -11    1    4    4    0    0 -0.65956784381E+01  0.12396517461E+02 -0.76544674873E+01  0.15992732466E+02  0.00000000000E+00 0.  1.
         11    1    4    4    0    0 -0.55756704377E+02 -0.79940179620E+02 -0.39334890722E+03  0.40524388362E+03  0.00000000000E+00 0. -1.
</event>
<event>
 8    1  0.7130890E-009  0.1247556E+03  0.7561462E-02  0.1235452E+00
          4   -1    0    0  501    0  0.00000000000E+00  0.00000000000E+00  0.56556883261E+03  0.56556883261E+03  0.00000000000E+00 0. -1.
         -4   -1    0    0    0  501 -0.00000000000E+00 -0.00000000000E+00 -0.37499648048E+02  0.37499648048E+02  0.00000000000E+00 0.  1.
         25    2    1    2    0    0  0.47206133901E+02  0.82018335132E+02  0.33899039938E+03  0.37352453651E+03  0.12510260640E+03 0.  0.
         23    2    1    2    0    0 -0.47206133901E+02 -0.82018335132E+02  0.18907878517E+03  0.22954394414E+03  0.89354400635E+02 0.  0.
          5    1    3    3  502    0 -0.10667003341E+02  0.73393717054E+02  0.28243595620E+03  0.29204103208E+03  0.41800000000E+01 0. -1.
         -5    1    3    3    0  502  0.57873137242E+02  0.86246180781E+01  0.56554443183E+02  0.81483504435E+02  0.41800000000E+01 0. -1.
        -11    1    4    4    0    0  0.17113830945E+02 -0.92729871647E+01  0.85005911668E+02  0.87205943141E+02  0.00000000000E+00 0. -1.
         11    1    4    4    0    0 -0.64319964846E+02 -0.72745347967E+02  0.10407287351E+03  0.14233800100E+03  0.00000000000E+00 0.  1.
</event>
<event>
 8    1  0.7130890E-009  0.1148536E+03  0.7561462E-02  0.1251837E+00
          2   -1    0    0  501    0  0.00000000000E+00  0.00000000000E+00  0.12256917338E+03  0.12256917338E+03  0.00000000000E+00 0. -1.
         -2   -1    0    0    0  501 -0.00000000000E+00 -0.00000000000E+00 -0.18191025104E+03  0.18191025104E+03  0.00000000000E+00 0.  1.
         25    2    1    2    0    0  0.91141365078E+02 -0.36298446303E+02 -0.46645694827E+02  0.16567228695E+03  0.12508860933E+03 0.  0.
         23    2    1    2    0    0 -0.91141365078E+02  0.36298446303E+02 -0.12695382834E+02  0.13880713747E+03  0.97375166414E+02 0.  0.
          5    1    3    3  502    0  0.89139404570E+02 -0.55900919232E+02 -0.76148314264E+02  0.12994916076E+03  0.41800000000E+01 0. -1.
         -5    1    3    3    0  502  0.20019605075E+01  0.19602472929E+02  0.29502619438E+02  0.35723126186E+02  0.41800000000E+01 0. -1.
        -11    1    4    4    0    0 -0.36883103316E+02  0.33672353370E+02  0.39346511983E+02  0.63579388932E+02  0.00000000000E+00 0. -1.
         11    1    4    4    0    0 -0.54258261762E+02  0.26260929330E+01 -0.52041894817E+02  0.75227748535E+02  0.00000000000E+00 0.  1.
</event>
<event>
 8    1  0.7130890E-009  0.3834017E+02  0.7561462E-02  0.1520794E+00
          1   -1    0    0  501    0  0.00000000000E+00  0.00000000000E+00  0.17694404109E+03  0.17694404109E+03  0.00000000000E+00 0. -1.
         -1   -1    0    0    0  501 -0.00000000000E+00 -0.00000000000E+00 -0.68908704835E+02  0.68908704835E+02  0.00000000000E+00 0.  1.
         25    2    1    2    0    0 -0.15958993266E+02 -0.11386373413E+02  0.43259653165E+02  0.13381276374E+03  0.12510043638E+03 0.  0.
         23    2    1    2    0    0  0.15958993266E+02  0.11386373413E+02  0.64775683090E+02  0.11203998218E+03  0.89290142357E+02 0.  0.
          5    1    3    3  502    0 -0.15738671535E+02 -0.36048970247E+01 -0.43508572577E+02  0.46595808309E+02  0.41800000000E+01 0.  1.
         -5    1    3    3    0  502 -0.22032173152E+00 -0.77814763879E+01  0.86768225743E+02  0.87216955433E+02  0.41800000000E+01 0.  1.
        -11    1    4    4    0    0 -0.16895588581E+02  0.56437448283E+01 -0.16441479767E+02  0.24241184503E+02  0.00000000000E+00 0.  1.
         11    1    4    4    0    0  0.32854581848E+02  0.57426285842E+01  0.81217162857E+02  0.87798797680E+02  0.00000000000E+00 0. -1.
</event>
<event>
 8    1  0.7130890E-009  0.1271352E+03  0.7561462E-02  0.1231770E+00
          2   -1    0    0  501    0  0.00000000000E+00  0.00000000000E+00  0.21386257054E+04  0.21386257054E+04  0.00000000000E+00 0. -1.
         -2   -1    0    0    0  501 -0.00000000000E+00 -0.00000000000E+00 -0.16744997331E+02  0.16744997331E+02  0.00000000000E+00 0.  1.
         25    2    1    2    0    0  0.53857790273E+02  0.40337675897E+02  0.19067484893E+04  0.19120315217E+04  0.12508776420E+03 0.  0.
         23    2    1    2    0    0 -0.53857790273E+02 -0.40337675897E+02  0.21513221871E+03  0.24333918100E+03  0.91674946481E+02 0.  0.
          5    1    3    3  502    0  0.58226943378E+02 -0.32941990443E+02  0.77274608916E+03  0.77564782111E+03  0.41800000000E+01 0.  1.
         -5    1    3    3    0  502 -0.43691531046E+01  0.73279666340E+02  0.11340024002E+04  0.11363837006E+04  0.41800000000E+01 0.  1.
        -11    1    4    4    0    0 -0.46284870311E+02 -0.69544638733E+02  0.15679319541E+03  0.17765937106E+03  0.00000000000E+00 0.  1.
         11    1    4    4    0    0 -0.75729199625E+01  0.29206962836E+02  0.58339023301E+02  0.65679809947E+02  0.00000000000E+00 0. -1.
</event>
<event>
 8    1  0.7130890E-009  0.1180660E+03  0.7561462E-02  0.1246322E+00
         -4   -1    0    0    0  501 -0.00000000000E+00  0.00000000000E+00  0.60752835800E+03  0.60752835800E+03  0.00000000000E+00 0.  1.
          4   -1    0    0  501    0  0.00000000000E+00 -0.00000000000E+00 -0.45847257667E+02  0.45847257667E+02  0.00000000000E+00 0. -1.
         25    2    1    2    0    0 -0.44854349271E+02  0.31004291502E+02  0.51550916489E+03  0.53326169008E+03  0.12508058313E+03 0.  0.
         23    2    1    2    0    0  0.44854349271E+02 -0.31004291502E+02  0.46171935444E+02  0.12011392559E+03  0.96552207427E+02 0.  0.
          5    1    3    3  502    0 -0.84996460204E+02  0.25206039410E+02  0.26530287903E+03  0.27975495115E+03  0.41800000000E+01 0.  1.
         -5    1    3    3    0  502  0.40142110933E+02  0.57982520921E+01  0.25020628586E+03  0.25350673893E+03  0.41800000000E+01 0.  1.
        -11    1    4    4    0    0 -0.24229656871E+02  0.10062803928E+02  0.26673151895E+02  0.37413811982E+02  0.00000000000E+00 0. -1.
         11    1    4    4    0    0  0.69084006142E+02 -0.41067095430E+02  0.19498783549E+02  0.82700113613E+02  0.00000000000E+00 0.  1.
</event>
<event>
 8    1  0.7130890E-009  0.1225754E+03  0.7561462E-02  0.1238908E+00
         -2   -1    0    0    0  501 -0.00000000000E+00  0.00000000000E+00  0.25681933568E+02  0.25681933568E+02  0.00000000000E+00 0. -1.
          2   -1    0    0  501    0  0.00000000000E+00 -0.00000000000E+00 -0.66754604502E+03  0.66754604502E+03  0.00000000000E+00 0.  1.
         25    2    1    2    0    0  0.24378064763E+02 -0.69011062478E+02 -0.35583166282E+03  0.38421425601E+03  0.12509038921E+03 0.  0.
         23    2    1    2    0    0 -0.24378064763E+02  0.69011062478E+02 -0.28603244864E+03  0.30901372258E+03  0.91203630859E+02 0.  0.
          5    1    3    3  502    0 -0.33666426408E+02  0.19018944940E+02 -0.11069831984E+03  0.11733174740E+03  0.41800000000E+01 0.  1.
         -5    1    3    3    0  502  0.58044491171E+02 -0.88030007418E+02 -0.24513334298E+03  0.26688250861E+03  0.41800000000E+01 0.  1.
        -11    1    4    4    0    0 -0.48832665850E+02  0.43595521398E+02 -0.25064079239E+03  0.25904826877E+03  0.00000000000E+00 0.  1.
         11    1    4    4    0    0  0.24454601087E+02  0.25415541080E+02 -0.35391656244E+02  0.49965453810E+02  0.00000000000E+00 0. -1.
</event>
<event>
 8    1  0.7130890E-009  0.1207643E+03  0.7561462E-02  0.1241841E+00
         -2   -1    0    0    0  501 -0.00000000000E+00  0.00000000000E+00  0.48949856251E+02  0.48949856251E+02  0.00000000000E+00 0.  1.
          2   -1    0    0  501    0  0.00000000000E+00 -0.00000000000E+00 -0.52005079769E+03  0.52005079769E+03  0.00000000000E+00 0. -1.
         25    2    1    2    0    0 -0.24688729039E+02  0.10713207662E+03 -0.32030469523E+03  0.36101103661E+03  0.12508819123E+03 0.  0.
         23    2    1    2    0    0  0.24688729039E+02 -0.10713207662E+03 -0.15079624621E+03  0.20798961733E+03  0.91833315649E+02 0.  0.
          5    1    3    3  502    0 -0.60452099115E+01  0.34186089938E+02 -0.32561450679E+01  0.35118487849E+02  0.41800000000E+01 0.  1.
         -5    1    3    3    0  502 -0.18643519128E+02  0.72945986685E+02 -0.31704855016E+03  0.32589254876E+03  0.41800000000E+01 0.  1.
        -11    1    4    4    0    0  0.16008288024E+00  0.10748270440E+02  0.43555908096E+01  0.11598366923E+02  0.00000000000E+00 0.  1.
         11    1    4    4    0    0  0.24528646159E+02 -0.11788034706E+03 -0.15515183702E+03  0.19639125041E+03  0.00000000000E+00 0. -1.
</event>
<event>
 8    1  0.7130890E-009  0.8126638E+02  0.7561462E-02  0.1325496E+00
         -1   -1    0    0    0  501 -0.00000000000E+00  0.00000000000E+00  0.14150541193E+03  0.14150541193E+03  0.00000000000E+00 0.  1.
          1   -1    0    0  501    0  0.00000000000E+00 -0.00000000000E+00 -0.16488428210E+03  0.16488428210E+03  0.00000000000E+00 0. -1.
         25    2    1    2    0    0  0.46381657417E+02  0.57576401076E+02  0.65769016760E+02  0.15949799364E+03  0.12509095213E+03 0.  0.
         23    2    1    2    0    0 -0.46381657417E+02 -0.57576401076E+02 -0.89147886928E+02  0.14689170039E+03  0.90352231821E+02 0.  0.
          5    1    3    3  502    0  0.64952817564E+01  0.43331489215E+02  0.97126401004E+02  0.10663403216E+03  0.41800000000E+01 0.  1.
         -5    1    3    3    0  502  0.39886375661E+02  0.14244911861E+02 -0.31357384244E+02  0.52863961485E+02  0.41800000000E+01 0.  1.
        -11    1    4    4    0    0 -0.20891290008E+02 -0.39581739227E+02 -0.10333841624E+03  0.11261433457E+03  0.00000000000E+00 0. -1.
         11    1    4    4    0    0 -0.25490367409E+02 -0.17994661849E+02  0.14190529315E+02  0.34277365826E+02  0.00000000000E+00 0.  1.
</event>
<event>
 8    1  0.7130890E-009  0.6756845E+02  0.7561462E-02  0.1368562E+00
          1   -1    0    0  501    0  0.00000000000E+00  0.00000000000E+00  0.25012904470E+03  0.25012904470E+03  0.00000000000E+00 0. -1.
         -1   -1    0    0    0  501 -0.00000000000E+00 -0.00000000000E+00 -0.75501107623E+02  0.75501107623E+02  0.00000000000E+00 0.  1.
         25    2    1    2    0    0  0.34951508438E+02 -0.43472909183E+01  0.50024501252E+01  0.13004891429E+03  0.12508872340E+03 0.  0.
         23    2    1    2    0    0 -0.34951508438E+02  0.43472909183E+01  0.16962548696E+03  0.19558123803E+03  0.90767328732E+02 0.  0.
          5    1    3    3  502    0  0.19598002761E+02 -0.10030182138E+02  0.64456364874E+02  0.68240615756E+02  0.41800000000E+01 0. -1.
         -5    1    3    3    0  502  0.15353505677E+02  0.56828912193E+01 -0.59453914749E+02  0.61808298538E+02  0.41800000000E+01 0. -1.
        -11    1    4    4    0    0 -0.35433135210E+02 -0.38878584851E+02  0.75662653712E+02  0.92151443817E+02  0.00000000000E+00 0.  1.
         11    1    4    4    0    0  0.48162677208E+00  0.43225875769E+02  0.93962833244E+02  0.10342979422E+03  0.00000000000E+00 0. -1.
</event>
<event>
 8    1  0.7130890E-009  0.1334565E+03  0.7561462E-02  0.1222415E+00
         -3   -1    0    0    0  501 -0.00000000000E+00  0.00000000000E+00  0.21556994006E+03  0.21556994006E+03  0.00000000000E+00 0.  1.
          3   -1    0    0  501    0  0.00000000000E+00 -0.00000000000E+00 -0.12866504874E+03  0.12866504874E+03  0.00000000000E+00 0. -1.
         25    2    1    2    0    0  0.83903127321E+02  0.38835415119E+02 -0.42601547716E+02  0.16128037908E+03  0.12509414282E+03 0.  0.
         23    2    1    2    0    0 -0.83903127321E+02 -0.38835415119E+02  0.12950643903E+03  0.18295460972E+03  0.90291457093E+02 0.  0.
          5    1    3    3  502    0  0.41187863115E+02  0.73395395285E+02 -0.60056955594E+02  0.10347770017E+03  0.41800000000E+01 0. -1.
         -5    1    3    3    0  502  0.42715264206E+02 -0.34559980167E+02  0.17455407878E+02  0.57802678913E+02  0.41800000000E+01 0. -1.
        -11    1    4    4    0    0  0.18778256490E+02 -0.69766734254E+01  0.10646901035E+02  0.22685973432E+02  0.00000000000E+00 0.  1.
         11    1    4    4    0    0 -0.10268138381E+03 -0.31858741693E+02  0.11885953800E+03  0.16026863629E+03  0.00000000000E+00 0. -1.
</event>
<event>
 8    1  0.7130890E-009  0.1049656E+03  0.7561462E-02  0.1270187E+00
         -2   -1    0    0    0  501 -0.00000000000E+00  0.00000000000E+00  0.66921484659E+02  0.66921484659E+02  0.00000000000E+00 0.  1.
          2   -1    0    0  501    0  0.00000000000E+00 -0.00000000000E+00 -0.29746720941E+03  0.29746720941E+03  0.00000000000E+00 0. -1.
         25    2    1    2    0    0  0.85420715161E+02  0.10462722993E+02 -0.89316218946E+02  0.17615364112E+03  0.12508617495E+03 0.  0.
         23    2    1    2    0    0 -0.85420715161E+02 -0.10462722993E+02 -0.14122950581E+03  0.18823505295E+03  0.89891571892E+02 0.  0.
          5    1    3    3  502    0 -0.41172186220E+01  0.40839540771E+01  0.27703554422E+02  0.28611003088E+02  0.41800000000E+01 0.  1.
         -5    1    3    3    0  502  0.89537933783E+02  0.63787689160E+01 -0.11701977337E+03  0.14754263803E+03  0.41800000000E+01 0.  1.
        -11    1    4    4    0    0 -0.26852803227E+02  0.31111117004E+02 -0.16462218540E+02  0.44271653251E+02  0.00000000000E+00 0.  1.
         11    1    4    4    0    0 -0.58567911934E+02 -0.41573839997E+02 -0.12476728727E+03  0.14396339970E+03  0.00000000000E+00 0. -1.
</event>
<event>
 8    1  0.7130890E-009  0.1079000E+03  0.7561462E-02  0.1264509E+00
         -2   -1    0    0    0  501 -0.00000000000E+00  0.00000000000E+00  0.21540076308E+03  0.21540076308E+03  0.00000000000E+00 0.  1.
          2   -1    0    0  501    0  0.00000000000E+00 -0.00000000000E+00 -0.65560509157E+02  0.65560509157E+02  0.00000000000E+00 0. -1.
         25    2    1    2    0    0  0.38028598141E+02  0.28175328500E+02  0.10298781667E+03  0.16880145950E+03  0.12508964359E+03 0.  0.
         23    2    1    2    0    0 -0.38028598141E+02 -0.28175328500E+02  0.46852437248E+02  0.11215981274E+03  0.90247710802E+02 0.  0.
          5    1    3    3  502    0  0.75691796730E+02  0.48758824070E+02  0.62797758465E+02  0.10985309229E+03  0.41800000000E+01 0. -1.
         -5    1    3    3    0  502 -0.37663198589E+02 -0.20583495570E+02  0.40190058209E+02  0.58948367210E+02  0.41800000000E+01 0. -1.
        -11    1    4    4    0    0 -0.31472449531E+01 -0.44089641374E+02  0.57351017409E+02  0.72408154410E+02  0.00000000000E+00 0.  1.
         11    1    4    4    0    0 -0.34881353188E+02  0.15914312874E+02 -0.10498580161E+02  0.39751658329E+02  0.00000000000E+00 0. -1.
</event>
<event>
 8    1  0.7130890E-009  0.1595253E+03  0.7561462E-02  0.1189234E+00
         -2   -1    0    0    0  501 -0.00000000000E+00  0.00000000000E+00  0.21326423366E+03  0.21326423366E+03  0.00000000000E+00 0.  1.
          2   -1    0    0  501    0  0.00000000000E+00 -0.00000000000E+00 -0.21046663526E+03  0.21046663526E+03  0.00000000000E+00 0. -1.
         25    2    1    2    0    0 -0.81325881630E+02  0.11011879283E+03  0.12091690479E+03  0.22137835995E+03  0.12508969916E+03 0.  0.
         23    2    1    2    0    0  0.81325881630E+02 -0.11011879283E+03 -0.11811930640E+03  0.20235250896E+03  0.90853287135E+02 0.  0.
          5    1    3    3  502    0  0.27153523488E+02  0.16554918903E+01  0.26806949614E+01  0.27653444933E+02  0.41800000000E+01 0. -1.
         -5    1    3    3    0  502 -0.10847940512E+03  0.10846330094E+03  0.11823620983E+03  0.19372491502E+03  0.41800000000E+01 0. -1.
        -11    1    4    4    0    0  0.10795902432E+02 -0.61205674486E+01 -0.64583149593E+02  0.65764702284E+02  0.00000000000E+00 0. -1.
         11    1    4    4    0    0  0.70529979198E+02 -0.10399822538E+03 -0.53536156802E+02  0.13658780668E+03  0.00000000000E+00 0.  1.
</event>
<event>
 8    1  0.7130890E-009  0.6395983E+02  0.7561462E-02  0.1381927E+00
          4   -1    0    0  501    0  0.00000000000E+00  0.00000000000E+00  0.28806482318E+03  0.28806482318E+03  0.00000000000E+00 0. -1.
         -4   -1    0    0    0  501 -0.00000000000E+00 -0.00000000000E+00 -0.47968240443E+02  0.47968240443E+02  0.00000000000E+00 0.  1.
         25    2    1    2    0    0  0.19607793705E+02 -0.13580177752E+02  0.18833164651E+03  0.22734724831E+03  0.12509626467E+03 0.  0.
         23    2    1    2    0    0 -0.19607793705E+02  0.13580177752E+02  0.51764936223E+02  0.10868581531E+03  0.92542482277E+02 0.  0.
          5    1    3    3  502    0  0.33726765116E+02 -0.17380015754E+02 -0.23159730147E+00  0.38171791550E+02  0.41800000000E+01 0.  1.
         -5    1    3    3    0  502 -0.14118971412E+02  0.37998380022E+01  0.18856324382E+03  0.18917545676E+03  0.41800000000E+01 0.  1.
        -11    1    4    4    0    0  0.22774563539E+02 -0.11270594148E+02 -0.12071235189E+02  0.28132219177E+02  0.00000000000E+00 0.  1.
         11    1    4    4    0    0 -0.42382357244E+02  0.24850771900E+02  0.63836171413E+02  0.80553596134E+02  0.00000000000E+00 0. -1.
</event>
<event>
 8    1  0.7130890E-009  0.1444294E+03  0.7561462E-02  0.1207490E+00
          3   -1    0    0  501    0  0.00000000000E+00  0.00000000000E+00  0.51989528105E+02  0.51989528105E+02  0.00000000000E+00 0. -1.
         -3   -1    0    0    0  501 -0.00000000000E+00 -0.00000000000E+00 -0.50510532561E+03  0.50510532561E+03  0.00000000000E+00 0.  1.
         25    2    1    2    0    0  0.97343456636E+02 -0.66251260426E+02 -0.28456108455E+03  0.33239618816E+03  0.12508891639E+03 0.  0.
         23    2    1    2    0    0 -0.97343456636E+02  0.66251260426E+02 -0.16855471295E+03  0.22469866556E+03  0.90630132884E+02 0.  0.
          5    1    3    3  502    0  0.12507660299E+03 -0.53280525758E+02 -0.25796100624E+03  0.29162360017E+03  0.41800000000E+01 0. -1.
         -5    1    3    3    0  502 -0.27733146354E+02 -0.12970734668E+02 -0.26600078315E+02  0.40772587983E+02  0.41800000000E+01 0. -1.
        -11    1    4    4    0    0 -0.85041606230E+02  0.42220427708E+02 -0.17299721067E+03  0.19733898298E+03  0.00000000000E+00 0.  1.
         11    1    4    4    0    0 -0.12301850406E+02  0.24030832718E+02  0.44424977158E+01  0.27359682573E+02  0.00000000000E+00 0. -1.
</event>
<event>
 8    1  0.7130890E-009  0.1433552E+03  0.7561462E-02  0.1208884E+00
         -1   -1    0    0    0  501 -0.00000000000E+00  0.00000000000E+00  0.53618884225E+02  0.53618884225E+02  0.00000000000E+00 0.  1.
          1   -1    0    0  501    0  0.00000000000E+00 -0.00000000000E+00 -0.57062220850E+03  0.57062220850E+03  0.00000000000E+00 0. -1.
         25    2    1    2    0    0  0.10792769807E+03  0.83655650770E+02 -0.25774835434E+03  0.31737723668E+03  0.12508972890E+03 0.  0.
         23    2    1    2    0    0 -0.10792769807E+03 -0.83655650770E+02 -0.25925496993E+03  0.30686385605E+03  0.91135233564E+02 0.  0.
          5    1    3    3  502    0  0.52010808195E+02  0.17949072106E+02 -0.21312419986E+03  0.22015151674E+03  0.41800000000E+01 0. -1.
         -5    1    3    3    0  502  0.55916889879E+02  0.65706578664E+02 -0.44624154485E+02  0.97225719935E+02  0.41800000000E+01 0. -1.
        -11    1    4    4    0    0 -0.66815014518E+02 -0.79470393452E+02 -0.10697147698E+03  0.14907275569E+03  0.00000000000E+00 0.  1.
         11    1    4    4    0    0 -0.41112683556E+02 -0.41852573187E+01 -0.15228349295E+03  0.15779110036E+03  0.00000000000E+00 0. -1.
</event>
<event>
 8    1  0.7130890E-009  0.2244174E+03  0.7561462E-02  0.1130632E+00
         -1   -1    0    0    0  501 -0.00000000000E+00  0.00000000000E+00  0.42435188441E+02  0.42435188441E+02  0.00000000000E+00 0.  1.
          1   -1    0    0  501    0  0.00000000000E+00 -0.00000000000E+00 -0.14593242874E+04  0.14593242874E+04  0.00000000000E+00 0. -1.
         25    2    1    2    0    0  0.19817738451E+03 -0.10292861267E+03 -0.78761659769E+03  0.82816504398E+03  0.12509540385E+03 0.  0.
         23    2    1    2    0    0 -0.19817738451E+03  0.10292861267E+03 -0.62927250125E+03  0.67359443185E+03  0.88752480271E+02 0.  0.
          5    1    3    3  502    0  0.55880162767E+02 -0.35551964299E+02 -0.45880348315E+03  0.46357808760E+03  0.41800000000E+01 0. -1.
         -5    1    3    3    0  502  0.14229722174E+03 -0.67376648368E+02 -0.32881311455E+03  0.36458695637E+03  0.41800000000E+01 0. -1.
        -11    1    4    4    0    0 -0.59426595882E+02  0.45336345328E+02 -0.33448139041E+03  0.34273124316E+03  0.00000000000E+00 0. -1.
         11    1    4    4    0    0 -0.13875078863E+03  0.57592267338E+02 -0.29479111084E+03  0.33086318870E+03  0.00000000000E+00 0.  1.
</event>
<event>
 8    1  0.7130890E-009  0.9478535E+02  0.7561462E-02  0.1291660E+00
          2   -1    0    0  501    0  0.00000000000E+00  0.00000000000E+00  0.29324675883E+03  0.29324675883E+03  0.00000000000E+00 0. -1.
         -2   -1    0    0    0  501 -0.00000000000E+00 -0.00000000000E+00 -0.49820106808E+02  0.49820106808E+02  0.00000000000E+00 0.  1.
         25    2    1    2    0    0 -0.17869943512E+01 -0.55168506675E+02  0.12913791678E+03  0.18807177636E+03  0.12509050338E+03 0.  0.
         23    2    1    2    0    0  0.17869943512E+01  0.55168506675E+02  0.11428873524E+03  0.15499508928E+03  0.88965191055E+02 0.  0.
          5    1    3    3  502    0  0.27089508082E+02 -0.67599981819E+02  0.13716580055E+03  0.15535613355E+03  0.41800000000E+01 0.  1.
         -5    1    3    3    0  502 -0.28876502433E+02  0.12431475144E+02 -0.80278837678E+01  0.32715642815E+02  0.41800000000E+01 0.  1.
        -11    1    4    4    0    0 -0.19778769184E+02 -0.54941184434E+01 -0.34382088039E+01  0.20813609194E+02  0.00000000000E+00 0.  1.
         11    1    4    4    0    0  0.21565763535E+02  0.60662625119E+02  0.11772694404E+03  0.13418148008E+03  0.00000000000E+00 0. -1.
</event>
<event>
 8    1  0.7130890E-009  0.1973680E+03  0.7561462E-02  0.1151979E+00
          1   -1    0    0  501    0  0.00000000000E+00  0.00000000000E+00  0.37573688504E+03  0.37573688504E+03  0.00000000000E+00 0. -1.
         -1   -1    0    0    0  501 -0.00000000000E+00 -0.00000000000E+00 -0.17242090688E+03  0.17242090688E+03  0.00000000000E+00 0.  1.
         25    2    1    2    0    0  0.48683712961E+02 -0.18366941907E+03  0.24475373931E+03  0.33415089696E+03  0.12509144505E+03 0.  0.
         23    2    1    2    0    0 -0.48683712961E+02  0.18366941907E+03 -0.41437761148E+02  0.21400689496E+03  0.89315752420E+02 0.  0.
          5    1    3    3  502    0  0.13196075557E+02 -0.73893829131E+02  0.19397072423E+03  0.20803016284E+03  0.41800000000E+01 0. -1.
         -5    1    3    3    0  502  0.35487637404E+02 -0.10977558994E+03  0.50783015083E+02  0.12612073412E+03  0.41800000000E+01 0. -1.
        -11    1    4    4    0    0 -0.68319897277E+02  0.12817893100E+03 -0.61548467442E+01  0.14537994653E+03  0.00000000000E+00 0.  1.
         11    1    4    4    0    0  0.19636184315E+02  0.55490488074E+02 -0.35282914404E+02  0.68626948424E+02  0.00000000000E+00 0. -1.
</event>
<event>
 8    1  0.7130890E-009  0.1003308E+03  0.7561462E-02  0.1279602E+00
         -2   -1    0    0    0  501 -0.00000000000E+00  0.00000000000E+00  0.17931274333E+02  0.17931274333E+02  0.00000000000E+00 0. -1.
          2   -1    0    0  501    0  0.00000000000E+00 -0.00000000000E+00 -0.89872928860E+03  0.89872928860E+03  0.00000000000E+00 0.  1.
         25    2    1    2    0    0 -0.14762377870E+02 -0.11302924173E+02 -0.72765930222E+03  0.73856676384E+03  0.12508845127E+03 0.  0.
         23    2    1    2    0    0  0.14762377870E+02  0.11302924173E+02 -0.15313871205E+03  0.17809379910E+03  0.88995799080E+02 0.  0.
          5    1    3    3  502    0 -0.46956025534E+02  0.35334077779E+02 -0.22052397385E+03  0.22825788229E+03  0.41800000000E+01 0.  1.
         -5    1    3    3    0  502  0.32193647664E+02 -0.46637001953E+02 -0.50713532837E+03  0.51030888154E+03  0.41800000000E+01 0.  1.
        -11    1    4    4    0    0 -0.12841917004E+02  0.41836169103E+02 -0.11039696916E+03  0.11875466592E+03  0.00000000000E+00 0.  1.
         11    1    4    4    0    0  0.27604294874E+02 -0.30533244929E+02 -0.42741742889E+02  0.59339133180E+02  0.00000000000E+00 0. -1.
</event>
<event>
 8    1  0.7130890E-009  0.1147558E+03  0.7561462E-02  0.1252008E+00
          1   -1    0    0  501    0  0.00000000000E+00  0.00000000000E+00  0.48986316435E+03  0.48986316435E+03  0.00000000000E+00 0. -1.
         -1   -1    0    0    0  501 -0.00000000000E+00 -0.00000000000E+00 -0.40398472391E+02  0.40398472391E+02  0.00000000000E+00 0.  1.
         25    2    1    2    0    0 -0.37623479369E+02 -0.75351707257E+02  0.29763421123E+03  0.33365847084E+03  0.12509374675E+03 0.  0.
         23    2    1    2    0    0  0.37623479369E+02  0.75351707257E+02  0.15183048073E+03  0.19660316591E+03  0.92232879067E+02 0.  0.
          5    1    3    3  502    0 -0.44355442560E+02 -0.83662110877E+02  0.10807297036E+03  0.14374975966E+03  0.41800000000E+01 0. -1.
         -5    1    3    3    0  502  0.67319631904E+01  0.83104036205E+01  0.18956124087E+03  0.18990871117E+03  0.41800000000E+01 0. -1.
        -11    1    4    4    0    0 -0.16198083057E+01  0.83206208121E+02  0.11680095057E+03  0.14341673160E+03  0.00000000000E+00 0.  1.
         11    1    4    4    0    0  0.39243287675E+02 -0.78545008639E+01  0.35029530154E+02  0.53186434306E+02  0.00000000000E+00 0. -1.
</event>
<event>
 8    1  0.7130890E-009  0.7826508E+02  0.7561462E-02  0.1334048E+00
         -3   -1    0    0    0  501 -0.00000000000E+00  0.00000000000E+00  0.37613398611E+02  0.37613398611E+02  0.00000000000E+00 0.  1.
          3   -1    0    0  501    0  0.00000000000E+00 -0.00000000000E+00 -0.39609326831E+03  0.39609326831E+03  0.00000000000E+00 0. -1.
         25    2    1    2    0    0  0.20919822084E+02  0.78871602625E+01 -0.29958824758E+03  0.32542378461E+03  0.12509066812E+03 0.  0.
         23    2    1    2    0    0 -0.20919822084E+02 -0.78871602625E+01 -0.58891622123E+02  0.10828288231E+03  0.88074475262E+02 0.  0.
          5    1    3    3  502    0 -0.11648512950E+02  0.62017910218E+02 -0.13499161003E+03  0.14907084296E+03  0.41800000000E+01 0. -1.
         -5    1    3    3    0  502  0.32568335034E+02 -0.54130749955E+02 -0.16459663754E+03  0.17635294165E+03  0.41800000000E+01 0. -1.
        -11    1    4    4    0    0 -0.11180888964E+02 -0.14423217840E+02 -0.81121316321E+02  0.83148718887E+02  0.00000000000E+00 0. -1.
         11    1    4    4    0    0 -0.97389331201E+01  0.65360575775E+01  0.22229694198E+02  0.25134163426E+02  0.00000000000E+00 0.  1.
</event>
<event>
 8    1  0.7130890E-009  0.1088231E+03  0.7561462E-02  0.1262765E+00
         -1   -1    0    0    0  501 -0.00000000000E+00  0.00000000000E+00  0.48537557771E+02  0.48537557771E+02  0.00000000000E+00 0.  1.
          1   -1    0    0  501    0  0.00000000000E+00 -0.00000000000E+00 -0.47508010075E+03  0.47508010075E+03  0.00000000000E+00 0. -1.
         25    2    1    2    0    0 -0.35794378114E+02 -0.66557042438E+02 -0.10172925731E+03  0.17806721415E+03  0.12509202037E+03 0.  0.
         23    2    1    2    0    0  0.35794378114E+02  0.66557042438E+02 -0.32481328567E+03  0.34555044437E+03  0.90500616856E+02 0.  0.
          5    1    3    3  502    0  0.42371969889E+02 -0.67820561278E+01 -0.52572182072E+02  0.67990343766E+02  0.41800000000E+01 0.  1.
         -5    1    3    3    0  502 -0.78166348003E+02 -0.59774986310E+02 -0.49157075235E+02  0.11007687039E+03  0.41800000000E+01 0.  1.
        -11    1    4    4    0    0  0.30614613350E+02  0.49386041761E+02 -0.32223375022E+03  0.32743064220E+03  0.00000000000E+00 0. -1.
         11    1    4    4    0    0  0.51797647643E+01  0.17171000677E+02 -0.25795354464E+01  0.18119802162E+02  0.00000000000E+00 0.  1.
</event>
<event>
 8    1  0.7130890E-009  0.1325868E+03  0.7561462E-02  0.1223667E+00
          2   -1    0    0  501    0  0.00000000000E+00  0.00000000000E+00  0.25284132032E+03  0.25284132032E+03  0.00000000000E+00 0. -1.
         -2   -1    0    0    0  501 -0.00000000000E+00 -0.00000000000E+00 -0.76740262483E+02  0.76740262483E+02  0.00000000000E+00 0.  1.
         25    2    1    2    0    0  0.10072347501E+02 -0.84875694830E+02  0.10811536587E+03  0.18612308414E+03  0.12509010495E+03 0.  0.
         23    2    1    2    0    0 -0.10072347501E+02  0.84875694830E+02  0.67985691961E+02  0.14345849866E+03  0.93021238267E+02 0.  0.
          5    1    3    3  502    0  0.65766098292E+02 -0.36470305602E+02  0.38480792917E+02  0.84578405629E+02  0.41800000000E+01 0. -1.
         -5    1    3    3    0  502 -0.55693750791E+02 -0.48405389228E+02  0.69634572956E+02  0.10154467851E+03  0.41800000000E+01 0. -1.
        -11    1    4    4    0    0 -0.30177791029E+02  0.15350623037E+01 -0.52931917304E+01  0.30676919114E+02  0.00000000000E+00 0. -1.
         11    1    4    4    0    0  0.20105443527E+02  0.83340632526E+02  0.73278883691E+02  0.11278157954E+03  0.00000000000E+00 0.  1.
</event>
<event>
 8    1  0.7130890E-009  0.9603930E+02  0.7561462E-02  0.1288852E+00
         -1   -1    0    0    0  501 -0.00000000000E+00  0.00000000000E+00  0.15549862715E+03  0.15549862715E+03  0.00000000000E+00 0.  1.
          1   -1    0    0  501    0  0.00000000000E+00 -0.00000000000E+00 -0.10233523794E+03  0.10233523794E+03  0.00000000000E+00 0. -1.
         25    2    1    2    0    0  0.43029456115E+02  0.39360321023E+02  0.55842532492E+02  0.14888674542E+03  0.12509238811E+03 0.  0.
         23    2    1    2    0    0 -0.43029456115E+02 -0.39360321023E+02 -0.26791432841E+01  0.10894711967E+03  0.91986564841E+02 0.  0.
          5    1    3    3  502    0  0.10528229486E+02 -0.35908075982E+02 -0.14924742779E+02  0.40502517006E+02  0.41800000000E+01 0.  1.
         -5    1    3    3    0  502  0.32501226629E+02  0.75268397004E+02  0.70767275270E+02  0.10838422842E+03  0.41800000000E+01 0.  1.
        -11    1    4    4    0    0 -0.30539991749E+02  0.51922024573E+00  0.39259663152E+02  0.49742153517E+02  0.00000000000E+00 0.  1.
         11    1    4    4    0    0 -0.12489464366E+02 -0.39879541268E+02 -0.41938806436E+02  0.59204966153E+02  0.00000000000E+00 0. -1.
</event>
<event>
 8    1  0.7130890E-009  0.1719321E+03  0.7561462E-02  0.1175848E+00
          2   -1    0    0  501    0  0.00000000000E+00  0.00000000000E+00  0.50948861001E+03  0.50948861001E+03  0.00000000000E+00 0. -1.
         -2   -1    0    0    0  501 -0.00000000000E+00 -0.00000000000E+00 -0.68607722153E+02  0.68607722153E+02  0.00000000000E+00 0.  1.
         25    2    1    2    0    0 -0.14494533179E+03  0.20403512135E+02  0.29516884032E+03  0.35241935727E+03  0.12509718850E+03 0.  0.
         23    2    1    2    0    0  0.14494533179E+03 -0.20403512135E+02  0.14571204754E+03  0.22567697489E+03  0.90954074593E+02 0.  0.
          5    1    3    3  502    0  0.58978700436E+01 -0.19563884455E+02  0.28774032743E+01  0.21054270247E+02  0.41800000000E+01 0.  1.
         -5    1    3    3    0  502 -0.15084320183E+03  0.39967396590E+02  0.29229143704E+03  0.33136508702E+03  0.41800000000E+01 0.  1.
        -11    1    4    4    0    0  0.11372536076E+03 -0.49680549841E+02  0.81371554326E+02  0.14840129570E+03  0.00000000000E+00 0.  1.
         11    1    4    4    0    0  0.31219971026E+02  0.29277037706E+02  0.64340493212E+02  0.77275679191E+02  0.00000000000E+00 0. -1.
</event>
<event>
 8    1  0.7130890E-009  0.3220424E+03  0.7561462E-02  0.1074713E+00
         -2   -1    0    0    0  501 -0.00000000000E+00  0.00000000000E+00  0.24368319608E+03  0.24368319608E+03  0.00000000000E+00 0. -1.
          2   -1    0    0  501    0  0.00000000000E+00 -0.00000000000E+00 -0.46239987491E+03  0.46239987491E+03  0.00000000000E+00 0.  1.
         25    2    1    2    0    0 -0.71306488649E+02  0.30401292395E+03 -0.52128698375E+02  0.34040120855E+03  0.12508840210E+03 0.  0.
         23    2    1    2    0    0  0.71306488649E+02 -0.30401292395E+03 -0.16658798046E+03  0.36568186243E+03  0.91995630468E+02 0.  0.
          5    1    3    3  502    0 -0.82449803346E+02  0.30597636542E+03 -0.64178872246E+02  0.32335105738E+03  0.41800000000E+01 0. -1.
         -5    1    3    3    0  502  0.11143314697E+02 -0.19634414676E+01  0.12050173871E+02  0.17050151177E+02  0.41800000000E+01 0. -1.
        -11    1    4    4    0    0  0.74270557266E+02 -0.24483047751E+03 -0.95392406171E+02  0.27305272302E+03  0.00000000000E+00 0.  1.
         11    1    4    4    0    0 -0.29640686168E+01 -0.59182446434E+02 -0.71195574285E+02  0.92629139402E+02  0.00000000000E+00 0. -1.
</event>
<event>
 8    1  0.7130890E-009  0.1143330E+03  0.7561462E-02  0.1252750E+00
         -1   -1    0    0    0  501 -0.00000000000E+00  0.00000000000E+00  0.72223895580E+02  0.72223895580E+02  0.00000000000E+00 0.  1.
          1   -1    0    0  501    0  0.00000000000E+00 -0.00000000000E+00 -0.24155790430E+03  0.24155790430E+03  0.00000000000E+00 0. -1.
         25    2    1    2    0    0  0.26103917287E+02 -0.67175891363E+02 -0.68298658620E+02  0.15970600385E+03  0.12508911231E+03 0.  0.
         23    2    1    2    0    0 -0.26103917287E+02  0.67175891363E+02 -0.10103535010E+03  0.15407579603E+03  0.91308236614E+02 0.  0.
          5    1    3    3  502    0  0.49066280416E+02  0.20382703968E+02 -0.31458886653E+02  0.61887708347E+02  0.41800000000E+01 0.  1.
         -5    1    3    3    0  502 -0.22962363130E+02 -0.87558595331E+02 -0.36839771967E+02  0.97818295505E+02  0.41800000000E+01 0.  1.
        -11    1    4    4    0    0 -0.24074754625E+02  0.77463984918E+01  0.10732919418E+02  0.27473551992E+02  0.00000000000E+00 0.  1.
         11    1    4    4    0    0 -0.20291626620E+01  0.59429492871E+02 -0.11176826951E+03  0.12660224403E+03  0.00000000000E+00 0. -1.
</event>
<event>
 8    1  0.7130890E-009  0.7392823E+02  0.7561462E-02  0.1347222E+00
          1   -1    0    0  501    0  0.00000000000E+00  0.00000000000E+00  0.80867106651E+02  0.80867106651E+02  0.00000000000E+00 0. -1.
         -1   -1    0    0    0  501 -0.00000000000E+00 -0.00000000000E+00 -0.17106875651E+03  0.17106875651E+03  0.00000000000E+00 0.  1.
         25    2    1    2    0    0  0.31427310535E+02 -0.31397363157E+02 -0.62740384496E+02  0.14682627155E+03  0.12509247743E+03 0.  0.
         23    2    1    2    0    0 -0.31427310535E+02  0.31397363157E+02 -0.27461265361E+02  0.10510959161E+03  0.91216417885E+02 0.  0.
          5    1    3    3  502    0  0.14033126853E+02  0.15602493898E+02 -0.87989853174E+02  0.90554144724E+02  0.41800000000E+01 0.  1.
         -5    1    3    3    0  502  0.17394183682E+02 -0.46999857055E+02  0.25249468678E+02  0.56272126828E+02  0.41800000000E+01 0.  1.
        -11    1    4    4    0    0 -0.45774946267E+02  0.48986564699E+01  0.18941708230E+02  0.49780828153E+02  0.00000000000E+00 0. -1.
         11    1    4    4    0    0  0.14347635732E+02  0.26498706688E+02 -0.46402973591E+02  0.55328763454E+02  0.00000000000E+00 0.  1.
</event>
<event>
 8    1  0.7130890E-009  0.1192666E+03  0.7561462E-02  0.1244312E+00
          1   -1    0    0  501    0  0.00000000000E+00  0.00000000000E+00  0.29258912816E+03  0.29258912816E+03  0.00000000000E+00 0. -1.
         -1   -1    0    0    0  501 -0.00000000000E+00 -0.00000000000E+00 -0.86181227059E+02  0.86181227059E+02  0.00000000000E+00 0.  1.
         25    2    1    2    0    0 -0.41593330445E+02 -0.88971970944E+02  0.18209181344E+03  0.24176590710E+03  0.12508920243E+03 0.  0.
         23    2    1    2    0    0  0.41593330445E+02  0.88971970944E+02  0.24316087659E+02  0.13700444811E+03  0.92373859575E+02 0.  0.
          5    1    3    3  502    0 -0.47535021423E+02  0.29852645112E+01  0.12363843276E+03  0.13256102188E+03  0.41800000000E+01 0.  1.
         -5    1    3    3    0  502  0.59416909781E+01 -0.91957235455E+02  0.58453380682E+02  0.10920488523E+03  0.41800000000E+01 0.  1.
        -11    1    4    4    0    0  0.29733202494E+02  0.55438245523E+02 -0.31858681731E+02  0.70515516015E+02  0.00000000000E+00 0.  1.
         11    1    4    4    0    0  0.11860127951E+02  0.33533725421E+02  0.56174769390E+02  0.66488932099E+02  0.00000000000E+00 0. -1.
</event>
<event>
 8    1  0.7130890E-009  0.1147662E+03  0.7561462E-02  0.1251990E+00
         -1   -1    0    0    0  501 -0.00000000000E+00  0.00000000000E+00  0.56997856069E+03  0.56997856069E+03  0.00000000000E+00 0.  1.
          1   -1    0    0  501    0  0.00000000000E+00 -0.00000000000E+00 -0.27362315216E+02  0.27362315216E+02  0.00000000000E+00 0. -1.
         25    2    1    2    0    0  0.37183868661E+02  0.47592618648E+02  0.32785576829E+03  0.35606830115E+03  0.12509009889E+03 0.  0.
         23    2    1    2    0    0 -0.37183868661E+02 -0.47592618648E+02  0.21476047718E+03  0.24127257476E+03  0.91884140818E+02 0.  0.
          5    1    3    3  502    0  0.40342850300E+02 -0.27922427052E+02  0.21223437188E+03  0.21787177079E+03  0.41800000000E+01 0.  1.
         -5    1    3    3    0  502 -0.31589816391E+01  0.75515045700E+02  0.11562139642E+03  0.13819653035E+03  0.41800000000E+01 0.  1.
        -11    1    4    4    0    0  0.24564811845E+02 -0.33010554898E+02  0.12310266684E+03  0.12979750883E+03  0.00000000000E+00 0.  1.
         11    1    4    4    0    0 -0.61748680506E+02 -0.14582063751E+02  0.91657810346E+02  0.11147506593E+03  0.00000000000E+00 0. -1.
</event>
<event>
 8    1  0.7130890E-009  0.1811013E+03  0.7561462E-02  0.1166741E+00
          2   -1    0    0  501    0  0.00000000000E+00  0.00000000000E+00  0.41516437117E+02  0.41516437117E+02  0.00000000000E+00 0. -1.
         -2   -1    0    0    0  501 -0.00000000000E+00 -0.00000000000E+00 -0.99192794769E+03  0.99192794769E+03  0.00000000000E+00 0.  1.
         25    2    1    2    0    0 -0.16821028232E+03  0.60048016985E+01 -0.47010100119E+03  0.51475542691E+03  0.12508973378E+03 0.  0.
         23    2    1    2    0    0  0.16821028232E+03 -0.60048016985E+01 -0.48031050938E+03  0.51868895789E+03  0.10004645368E+03 0.  0.
          5    1    3    3  502    0 -0.42814728401E+02  0.45173110797E+02 -0.25631972937E+03  0.26380103671E+03  0.41800000000E+01 0. -1.
         -5    1    3    3    0  502 -0.12539555392E+03 -0.39168309099E+02 -0.21378127182E+03  0.25095439020E+03  0.41800000000E+01 0. -1.
        -11    1    4    4    0    0  0.89465289934E+02 -0.78860216887E+00 -0.38344921431E+03  0.39374859993E+03  0.00000000000E+00 0.  1.
         11    1    4    4    0    0  0.78744992386E+02 -0.52161995296E+01 -0.96861295079E+02  0.12494035796E+03  0.00000000000E+00 0. -1.
</event>
<event>
 8    1  0.7130890E-009  0.1080185E+03  0.7561462E-02  0.1264284E+00
         -1   -1    0    0    0  501 -0.00000000000E+00  0.00000000000E+00  0.37958528694E+02  0.37958528694E+02  0.00000000000E+00 0.  1.
          1   -1    0    0  501    0  0.00000000000E+00 -0.00000000000E+00 -0.43417250041E+03  0.43417250041E+03  0.00000000000E+00 0. -1.
         25    2    1    2    0    0  0.60320441431E+02  0.29966037991E+02 -0.20025015909E+03  0.24552663919E+03  0.12508671092E+03 0.  0.
         23    2    1    2    0    0 -0.60320441431E+02 -0.29966037991E+02 -0.19596381262E+03  0.22660438991E+03  0.91712674051E+02 0.  0.
          5    1    3    3  502    0  0.58497755934E+01 -0.47075431853E+02 -0.66689107473E+02  0.81946480182E+02  0.41800000000E+01 0. -1.
         -5    1    3    3    0  502  0.54470665838E+02  0.77041469844E+02 -0.13356105162E+03  0.16358015901E+03  0.41800000000E+01 0. -1.
        -11    1    4    4    0    0  0.18923876711E+00 -0.10362699988E+02  0.79105381196E+01  0.13038327182E+02  0.00000000000E+00 0.  1.
         11    1    4    4    0    0 -0.60509680198E+02 -0.19603338002E+02 -0.20387435074E+03  0.21356606273E+03  0.00000000000E+00 0. -1.
</event>
<event>
 8    1  0.7130890E-009  0.1409028E+03  0.7561462E-02  0.1212119E+00
          2   -1    0    0  501    0  0.00000000000E+00  0.00000000000E+00  0.36796641143E+03  0.36796641143E+03  0.00000000000E+00 0. -1.
         -2   -1    0    0    0  501 -0.00000000000E+00 -0.00000000000E+00 -0.18193932201E+03  0.18193932201E+03  0.00000000000E+00 0.  1.
         25    2    1    2    0    0  0.55990538250E+02 -0.89624528101E+02  0.31897721075E+03  0.35855394369E+03  0.12508786173E+03 0.  0.
         23    2    1    2    0    0 -0.55990538250E+02  0.89624528101E+02 -0.13295012132E+03  0.19135178975E+03  0.88160514234E+02 0.  0.
          5    1    3    3  502    0  0.69611515795E+02 -0.11559183040E+02  0.22345765872E+03  0.23437187434E+03  0.41800000000E+01 0. -1.
         -5    1    3    3    0  502 -0.13620977545E+02 -0.78065345060E+02  0.95519552030E+02  0.12418206935E+03  0.41800000000E+01 0. -1.
        -11    1    4    4    0    0 -0.57600891345E+02  0.18326568765E+02 -0.88982615130E+02  0.10757151854E+03  0.00000000000E+00 0.  1.
         11    1    4    4    0    0  0.16103530954E+01  0.71297959336E+02 -0.43967506191E+02  0.83780271205E+02  0.00000000000E+00 0. -1.
</event>
<event>
 8    1  0.7130890E-009  0.1618825E+03  0.7561462E-02  0.1186588E+00
          1   -1    0    0  501    0  0.00000000000E+00  0.00000000000E+00  0.35564945127E+02  0.35564945127E+02  0.00000000000E+00 0. -1.
         -1   -1    0    0    0  501 -0.00000000000E+00 -0.00000000000E+00 -0.85827070434E+03  0.85827070434E+03  0.00000000000E+00 0.  1.
         25    2    1    2    0    0  0.97990531183E+02  0.88712340653E+02 -0.52748121044E+03  0.55799295228E+03  0.12509070243E+03 0.  0.
         23    2    1    2    0    0 -0.97990531183E+02 -0.88712340653E+02 -0.29522454877E+03  0.33584269719E+03  0.90336921984E+02 0.  0.
          5    1    3    3  502    0  0.70572356935E+02 -0.14710659143E+02 -0.26095896890E+03  0.27076542782E+03  0.41800000000E+01 0. -1.
         -5    1    3    3    0  502  0.27418174249E+02  0.10342299980E+03 -0.26652224154E+03  0.28722752445E+03  0.41800000000E+01 0. -1.
        -11    1    4    4    0    0 -0.39619967594E+02 -0.16444786160E+01 -0.15948055239E+03  0.16433652282E+03  0.00000000000E+00 0.  1.
         11    1    4    4    0    0 -0.58370563589E+02 -0.87067862037E+02 -0.13574399638E+03  0.17150617437E+03  0.00000000000E+00 0. -1.
</event>
<event>
 8    1  0.7130890E-009  0.1186041E+03  0.7561462E-02  0.1245418E+00
         -1   -1    0    0    0  501 -0.00000000000E+00  0.00000000000E+00  0.67066166090E+02  0.67066166090E+02  0.00000000000E+00 0.  1.
          1   -1    0    0  501    0  0.00000000000E+00 -0.00000000000E+00 -0.22882021009E+03  0.22882021009E+03  0.00000000000E+00 0. -1.
         25    2    1    2    0    0  0.36034355737E+02  0.42863154857E+02 -0.83258264151E+02  0.16036046649E+03  0.12509123002E+03 0.  0.
         23    2    1    2    0    0 -0.36034355737E+02 -0.42863154857E+02 -0.78495779850E+02  0.13552590969E+03  0.95236337102E+02 0.  0.
          5    1    3    3  502    0 -0.10796089884E+02  0.72468005015E+02 -0.73657360091E+02  0.10397618190E+03  0.41800000000E+01 0.  1.
         -5    1    3    3    0  502  0.46830445621E+02 -0.29604850158E+02 -0.96009040600E+01  0.56384284590E+02  0.41800000000E+01 0.  1.
        -11    1    4    4    0    0 -0.65432086749E+02 -0.13699394564E+02 -0.61254185334E+02  0.90670318235E+02  0.00000000000E+00 0. -1.
         11    1    4    4    0    0  0.29397731012E+02 -0.29163760293E+02 -0.17241594515E+02  0.44855591452E+02  0.00000000000E+00 0.  1.
</event>
<event>
 8    1  0.7130890E-009  0.1077678E+03  0.7561462E-02  0.1264760E+00
          1   -1    0    0  501    0  0.00000000000E+00  0.00000000000E+00  0.52229539085E+02  0.52229539085E+02  0.00000000000E+00 0. -1.
         -1   -1    0    0    0  501 -0.00000000000E+00 -0.00000000000E+00 -0.36038368423E+03  0.36038368423E+03  0.00000000000E+00 0.  1.
         25    2    1    2    0    0  0.27658180392E+02  0.40580869096E+02 -0.26996349473E+03  0.30156430219E+03  0.12509579525E+03 0.  0.
         23    2    1    2    0    0 -0.27658180392E+02 -0.40580869096E+02 -0.38190650411E+02  0.11104892112E+03  0.91986712218E+02 0.  0.
          5    1    3    3  502    0  0.40120355020E+02 -0.24379697620E+02 -0.19882848223E+03  0.20433856780E+03  0.41800000000E+01 0. -1.
         -5    1    3    3    0  502 -0.12462174627E+02  0.64960566716E+02 -0.71135012494E+02  0.97225734387E+02  0.41800000000E+01 0. -1.
        -11    1    4    4    0    0  0.13161720576E+02  0.23040716261E+02 -0.40011047203E+00  0.26538002614E+02  0.00000000000E+00 0.  1.
         11    1    4    4    0    0 -0.40819900968E+02 -0.63621585357E+02 -0.37790539939E+02  0.84510918509E+02  0.00000000000E+00 0. -1.
</event>
<event>
 8    1  0.7130890E-009  0.6741439E+02  0.7561462E-02  0.1369113E+00
         -1   -1    0    0    0  501 -0.00000000000E+00  0.00000000000E+00  0.18979680962E+02  0.18979680962E+02  0.00000000000E+00 0.  1.
          1   -1    0    0  501    0  0.00000000000E+00 -0.00000000000E+00 -0.62466712362E+03  0.62466712362E+03  0.00000000000E+00 0. -1.
         25    2    1    2    0    0  0.16632395351E+01 -0.12852166672E+02 -0.36111394361E+03  0.38238508091E+03  0.12508846981E+03 0.  0.
         23    2    1    2    0    0 -0.16632395351E+01  0.12852166672E+02 -0.24457349904E+03  0.26126172367E+03  0.90959041692E+02 0.  0.
          5    1    3    3  502    0 -0.16586145544E+02 -0.18107288736E+02 -0.45862161862E+01  0.25327453647E+02  0.41800000000E+01 0.  1.
         -5    1    3    3    0  502  0.18249385079E+02  0.52551220637E+01 -0.35652772743E+03  0.35705762726E+03  0.41800000000E+01 0.  1.
        -11    1    4    4    0    0 -0.44489108966E+02  0.16599453291E+02 -0.15089400623E+03  0.15818920248E+03  0.00000000000E+00 0. -1.
         11    1    4    4    0    0  0.42825869431E+02 -0.37472866193E+01 -0.93679492815E+02  0.10307252119E+03  0.00000000000E+00 0.  1.
</event>
<event>
 8    1  0.7130890E-009  0.1211279E+03  0.7561462E-02  0.1241248E+00
          2   -1    0    0  501    0  0.00000000000E+00  0.00000000000E+00  0.73500435600E+03  0.73500435600E+03  0.00000000000E+00 0. -1.
         -2   -1    0    0    0  501 -0.00000000000E+00 -0.00000000000E+00 -0.34407574182E+02  0.34407574182E+02  0.00000000000E+00 0.  1.
         25    2    1    2    0    0 -0.99755145819E+02 -0.61410623810E+01  0.49501656286E+03  0.52026805560E+03  0.12509456584E+03 0.  0.
         23    2    1    2    0    0  0.99755145819E+02  0.61410623810E+01  0.20558021895E+03  0.24914387458E+03  0.99099152633E+02 0.  0.
          5    1    3    3  502    0 -0.86699275646E+02  0.98520050249E+01  0.14265514679E+03  0.16727758279E+03  0.41800000000E+01 0.  1.
         -5    1    3    3    0  502 -0.13055870173E+02 -0.15993067406E+02  0.35236141608E+03  0.35299047281E+03  0.41800000000E+01 0.  1.
        -11    1    4    4    0    0  0.66734428804E+02 -0.39463776266E+02  0.15564776547E+03  0.17388818396E+03  0.00000000000E+00 0.  1.
         11    1    4    4    0    0  0.33020717015E+02  0.45604838647E+02  0.49932453479E+02  0.75255690620E+02  0.00000000000E+00 0. -1.
</event>
<event>
 8    1  0.7130890E-009  0.1068295E+03  0.7561462E-02  0.1266556E+00
          2   -1    0    0  501    0  0.00000000000E+00  0.00000000000E+00  0.57113665794E+02  0.57113665794E+02  0.00000000000E+00 0. -1.
         -2   -1    0    0    0  501 -0.00000000000E+00 -0.00000000000E+00 -0.33735927408E+03  0.33735927408E+03  0.00000000000E+00 0.  1.
         25    2    1    2    0    0  0.15118047444E+02  0.71638880387E+02 -0.22013624598E+03  0.26357057658E+03  0.12509515379E+03 0.  0.
         23    2    1    2    0    0 -0.15118047444E+02 -0.71638880387E+02 -0.60109362298E+02  0.13090236329E+03  0.90341622394E+02 0.  0.
          5    1    3    3  502    0 -0.15096505915E+02  0.81959076527E+02 -0.66793424503E+02  0.10688324786E+03  0.41800000000E+01 0.  1.
         -5    1    3    3    0  502  0.30214553359E+02 -0.10320196139E+02 -0.15334282148E+03  0.15668732872E+03  0.41800000000E+01 0.  1.
        -11    1    4    4    0    0 -0.39984269767E+02 -0.55378944823E+02 -0.52401419976E+01  0.68505681857E+02  0.00000000000E+00 0. -1.
         11    1    4    4    0    0  0.24866222323E+02 -0.16259935564E+02 -0.54869220301E+02  0.62396681431E+02  0.00000000000E+00 0.  1.
</event>
<event>
 8    1  0.7130890E-009  0.1359597E+03  0.7561462E-02  0.1218871E+00
         -1   -1    0    0    0  501 -0.00000000000E+00  0.00000000000E+00  0.19366206671E+02  0.19366206671E+02  0.00000000000E+00 0.  1.
          1   -1    0    0  501    0  0.00000000000E+00 -0.00000000000E+00 -0.12282170730E+04  0.12282170730E+04  0.00000000000E+00 0. -1.
         25    2    1    2    0    0 -0.33326223520E+02  0.10093140902E+03 -0.74200766405E+03  0.75994779369E+03  0.12508992417E+03 0.  0.
         23    2    1    2    0    0  0.33326223520E+02 -0.10093140902E+03 -0.46684320227E+03  0.48763548597E+03  0.92455422612E+02 0.  0.
          5    1    3    3  502    0 -0.44436648422E+02  0.12619372879E+03 -0.55768882223E+03  0.57352747776E+03  0.41800000000E+01 0.  1.
         -5    1    3    3    0  502  0.11110424902E+02 -0.25262319768E+02 -0.18431884182E+03  0.18642031593E+03  0.41800000000E+01 0.  1.
        -11    1    4    4    0    0  0.38354404191E+02 -0.81380850768E+02 -0.45586282288E+03  0.46465558910E+03  0.00000000000E+00 0. -1.
         11    1    4    4    0    0 -0.50281806712E+01 -0.19550558251E+02 -0.10980379388E+02  0.22979896873E+02  0.00000000000E+00 0.  1.
</event>
<event>
 8    1  0.7130890E-009  0.8806330E+02  0.7561462E-02  0.1307611E+00
         -1   -1    0    0    0  501 -0.00000000000E+00  0.00000000000E+00  0.20007718176E+03  0.20007718176E+03  0.00000000000E+00 0.  1.
          1   -1    0    0  501    0  0.00000000000E+00 -0.00000000000E+00 -0.93869985047E+02  0.93869985047E+02  0.00000000000E+00 0. -1.
         25    2    1    2    0    0  0.42298292775E+02 -0.72436822870E+02  0.49194636512E+02  0.15844221890E+03  0.12509030973E+03 0.  0.
         23    2    1    2    0    0 -0.42298292775E+02  0.72436822870E+02  0.57012560204E+02  0.13550494791E+03  0.89860558694E+02 0.  0.
          5    1    3    3  502    0  0.16093008855E+02 -0.57166953476E+02 -0.34856159009E+02  0.68988910156E+02  0.41800000000E+01 0.  1.
         -5    1    3    3    0  502  0.26205283921E+02 -0.15269869394E+02  0.84050795521E+02  0.89453308739E+02  0.41800000000E+01 0.  1.
        -11    1    4    4    0    0 -0.26150575633E+02  0.26278315078E+02 -0.21612746146E+02  0.42912856410E+02  0.00000000000E+00 0. -1.
         11    1    4    4    0    0 -0.16147717143E+02  0.46158507792E+02  0.78625306350E+02  0.92592091504E+02  0.00000000000E+00 0.  1.
</event>
<event>
 8    1  0.7130890E-009  0.1429951E+03  0.7561462E-02  0.1209355E+00
         -2   -1    0    0    0  501 -0.00000000000E+00  0.00000000000E+00  0.21166931398E+02  0.21166931398E+02  0.00000000000E+00 0. -1.
          2   -1    0    0  501    0  0.00000000000E+00 -0.00000000000E+00 -0.11592580667E+04  0.11592580667E+04  0.00000000000E+00 0.  1.
         25    2    1    2    0    0 -0.78007683843E+02 -0.78008191555E+02 -0.69686739342E+03  0.71654736224E+03  0.12508189970E+03 0.  0.
         23    2    1    2    0    0  0.78007683843E+02  0.78008191555E+02 -0.44122374192E+03  0.46387763590E+03  0.91288520430E+02 0.  0.
          5    1    3    3  502    0  0.12147164610E+02  0.14933787396E+02 -0.26336776909E+03  0.26410343771E+03  0.41800000000E+01 0. -1.
         -5    1    3    3    0  502 -0.90154848453E+02 -0.92941978950E+02 -0.43349962433E+03  0.45244392453E+03  0.41800000000E+01 0. -1.
        -11    1    4    4    0    0  0.19625971093E+02  0.75818082767E+02 -0.31805449183E+03  0.32755491172E+03  0.00000000000E+00 0.  1.
         11    1    4    4    0    0  0.58381712750E+02  0.21901087874E+01 -0.12316925009E+03  0.13632272418E+03  0.00000000000E+00 0. -1.
</event>
<event>
 8    1  0.7130890E-009  0.1099883E+03  0.7561462E-02  0.1260592E+00
          1   -1    0    0  501    0  0.00000000000E+00  0.00000000000E+00  0.25436542086E+03  0.25436542086E+03  0.00000000000E+00 0. -1.
         -1   -1    0    0    0  501 -0.00000000000E+00 -0.00000000000E+00 -0.54427683802E+02  0.54427683802E+02  0.00000000000E+00 0.  1.
         25    2    1    2    0    0  0.39533898748E+02 -0.25089118629E+02  0.10921311517E+03  0.17253528185E+03  0.12509406834E+03 0.  0.
         23    2    1    2    0    0 -0.39533898748E+02  0.25089118629E+02  0.90724621888E+02  0.13625782282E+03  0.90237709623E+02 0.  0.
          5    1    3    3  502    0 -0.42660555546E+02  0.33849711084E+01  0.18573358079E+02  0.46838264904E+02  0.41800000000E+01 0.  1.
         -5    1    3    3    0  502  0.82194454294E+02 -0.28474089737E+02  0.90639757094E+02  0.12569701695E+03  0.41800000000E+01 0.  1.
        -11    1    4    4    0    0  0.11859092395E+02  0.35522533832E+02  0.70921586360E+02  0.80201994327E+02  0.00000000000E+00 0.  1.
         11    1    4    4    0    0 -0.51392991143E+02 -0.10433415203E+02  0.19803035528E+02  0.56055828488E+02  0.00000000000E+00 0. -1.
</event>
<event>
 8    1  0.7130890E-009  0.7755107E+02  0.7561462E-02  0.1336148E+00
         -2   -1    0    0    0  501 -0.00000000000E+00  0.00000000000E+00  0.53332416017E+02  0.53332416017E+02  0.00000000000E+00 0.  1.
          2   -1    0    0  501    0  0.00000000000E+00 -0.00000000000E+00 -0.22808888438E+03  0.22808888438E+03  0.00000000000E+00 0. -1.
         25    2    1    2    0    0 -0.23518664617E+01 -0.45103488439E+01 -0.12664930477E+03  0.17808340091E+03  0.12509107385E+03 0.  0.
         23    2    1    2    0    0  0.23518664617E+01  0.45103488439E+01 -0.48107163592E+02  0.10333789949E+03  0.91315649035E+02 0.  0.
          5    1    3    3  502    0 -0.19977455866E+02  0.23929009563E+02 -0.13874199866E+03  0.14226212016E+03  0.41800000000E+01 0. -1.
         -5    1    3    3    0  502  0.17625589404E+02 -0.28439358407E+02  0.12092693893E+02  0.35821280742E+02  0.41800000000E+01 0. -1.
        -11    1    4    4    0    0 -0.35682171129E+02  0.27888880699E+02 -0.33614523921E+02  0.56399851255E+02  0.00000000000E+00 0.  1.
         11    1    4    4    0    0  0.38034037590E+02 -0.23378531855E+02 -0.14492639671E+02  0.46938048231E+02  0.00000000000E+00 0. -1.
</event>
<event>
 8    1  0.7130890E-009  0.2005259E+03  0.7561462E-02  0.1149296E+00
          2   -1    0    0  501    0  0.00000000000E+00  0.00000000000E+00  0.48581873396E+03  0.48581873396E+03  0.00000000000E+00 0. -1.
         -2   -1    0    0    0  501 -0.00000000000E+00 -0.00000000000E+00 -0.91398668546E+02  0.91398668546E+02  0.00000000000E+00 0.  1.
         25    2    1    2    0    0 -0.12699900783E+03 -0.12098705198E+03  0.14948364685E+03  0.26222030996E+03  0.12509002973E+03 0.  0.
         23    2    1    2    0    0  0.12699900783E+03  0.12098705198E+03  0.24493641856E+03  0.31499709255E+03  0.91992958649E+02 0.  0.
          5    1    3    3  502    0  0.16304397396E+02  0.16603856136E+01  0.41549353201E+02  0.44859908675E+02  0.41800000000E+01 0.  1.
         -5    1    3    3    0  502 -0.14330340523E+03 -0.12264743759E+03  0.10793429365E+03  0.21736040128E+03  0.41800000000E+01 0.  1.
        -11    1    4    4    0    0 -0.12010119230E+02  0.21156580452E+02  0.15824517021E+02  0.29021702213E+02  0.00000000000E+00 0. -1.
         11    1    4    4    0    0  0.13900912706E+03  0.99830471528E+02  0.22911190154E+03  0.28597539034E+03  0.00000000000E+00 0.  1.
</event>
<event>
 8    1  0.7130890E-009  0.1669509E+03  0.7561462E-02  0.1181065E+00
         -1   -1    0    0    0  501 -0.00000000000E+00  0.00000000000E+00  0.39355957581E+03  0.39355957581E+03  0.00000000000E+00 0.  1.
          1   -1    0    0  501    0  0.00000000000E+00 -0.00000000000E+00 -0.99921356849E+02  0.99921356849E+02  0.00000000000E+00 0. -1.
         25    2    1    2    0    0  0.55804478400E+02 -0.13889681605E+03  0.66156401425E+02  0.20598754117E+03  0.12509089634E+03 0.  0.
         23    2    1    2    0    0 -0.55804478400E+02  0.13889681605E+03  0.22748181754E+03  0.28749339149E+03  0.92184638218E+02 0.  0.
          5    1    3    3  502    0 -0.86418107326E+01 -0.34866537853E+02 -0.32592663449E+02  0.48683780310E+02  0.41800000000E+01 0. -1.
         -5    1    3    3    0  502  0.64446289133E+02 -0.10403027820E+03  0.98749064875E+02  0.15730376085E+03  0.41800000000E+01 0. -1.
        -11    1    4    4    0    0  0.23619980271E+02  0.54504113230E+02  0.87610464275E+02  0.10584987141E+03  0.00000000000E+00 0.  1.
         11    1    4    4    0    0 -0.79424458672E+02  0.84392702824E+02  0.13987135326E+03  0.18164352008E+03  0.00000000000E+00 0. -1.
</event>
<event>
 8    1  0.7130890E-009  0.1909245E+03  0.7561462E-02  0.1157630E+00
          2   -1    0    0  501    0  0.00000000000E+00  0.00000000000E+00  0.34843940316E+03  0.34843940316E+03  0.00000000000E+00 0. -1.
         -2   -1    0    0    0  501 -0.00000000000E+00 -0.00000000000E+00 -0.13119404112E+03  0.13119404112E+03  0.00000000000E+00 0.  1.
         25    2    1    2    0    0  0.17574769226E+03 -0.41999375936E+02  0.74902156875E+02  0.23218362433E+03  0.12509078059E+03 0.  0.
         23    2    1    2    0    0 -0.17574769226E+03  0.41999375936E+02  0.14234320516E+03  0.24744981996E+03  0.91206504303E+02 0.  0.
          5    1    3    3  502    0  0.12940420434E+03 -0.17807369312E+02 -0.11409711361E+02  0.13118766869E+03  0.41800000000E+01 0. -1.
         -5    1    3    3    0  502  0.46343487916E+02 -0.24192006624E+02  0.86311868235E+02  0.10099595564E+03  0.41800000000E+01 0. -1.
        -11    1    4    4    0    0 -0.71784583219E+02  0.59562347611E+02  0.43480024362E+02  0.10291361503E+03  0.00000000000E+00 0.  1.
         11    1    4    4    0    0 -0.10396310904E+03 -0.17562971676E+02  0.98863180801E+02  0.14453620492E+03  0.00000000000E+00 0. -1.
</event>
<event>
 8    1  0.7130890E-009  0.1713676E+03  0.7561462E-02  0.1176429E+00
         -2   -1    0    0    0  501 -0.00000000000E+00  0.00000000000E+00  0.81600933476E+02  0.81600933476E+02  0.00000000000E+00 0.  1.
          2   -1    0    0  501    0  0.00000000000E+00 -0.00000000000E+00 -0.48312753035E+03  0.48312753035E+03  0.00000000000E+00 0. -1.
         25    2    1    2    0    0  0.13315235605E+03 -0.29707613485E+02 -0.33813761892E+03  0.38548327495E+03  0.12509282038E+03 0.  0.
         23    2    1    2    0    0 -0.13315235605E+03  0.29707613485E+02 -0.63388977948E+02  0.17924518888E+03  0.97460674059E+02 0.  0.
          5    1    3    3  502    0  0.14877096048E+03 -0.42244046561E+02 -0.32798915268E+03  0.36264543955E+03  0.41800000000E+01 0.  1.
         -5    1    3    3    0  502 -0.15618604425E+02  0.12536433075E+02 -0.10148466243E+02  0.22837835395E+02  0.41800000000E+01 0.  1.
        -11    1    4    4    0    0 -0.99974248965E+02  0.64906609707E+02 -0.42338042046E+02  0.12649200862E+03  0.00000000000E+00 0.  1.
         11    1    4    4    0    0 -0.33178107090E+02 -0.35198996222E+02 -0.21050935902E+02  0.52753180259E+02  0.00000000000E+00 0. -1.
</event>
<event>
 8    1  0.7130890E-009  0.1431521E+03  0.7561462E-02  0.1209149E+00
         -3   -1    0    0    0  501 -0.00000000000E+00  0.00000000000E+00  0.22186826610E+04  0.22186826610E+04  0.00000000000E+00 0.  1.
          3   -1    0    0  501    0  0.00000000000E+00 -0.00000000000E+00 -0.11908340076E+02  0.11908340076E+02  0.00000000000E+00 0. -1.
         25    2    1    2    0    0  0.84925409236E+02 -0.44345539342E+02  0.16916260435E+04  0.16989482490E+04  0.12509048596E+03 0.  0.
         23    2    1    2    0    0 -0.84925409236E+02  0.44345539342E+02  0.51514827734E+03  0.53164275201E+03  0.89930062412E+02 0.  0.
          5    1    3    3  502    0  0.99799555231E+02  0.10025226600E+02  0.11544546717E+04  0.11588112520E+04  0.41800000000E+01 0. -1.
         -5    1    3    3    0  502 -0.14874145996E+02 -0.54370765942E+02  0.53717137182E+03  0.54013699698E+03  0.41800000000E+01 0. -1.
        -11    1    4    4    0    0 -0.57893185289E+01  0.49736536100E+02  0.15597298791E+03  0.16381334558E+03  0.00000000000E+00 0. -1.
         11    1    4    4    0    0 -0.79136090707E+02 -0.53909967582E+01  0.35917528943E+03  0.36782940643E+03  0.00000000000E+00 0.  1.
</event>
<event>
 8    1  0.7130890E-009  0.1988712E+03  0.7561462E-02  0.1150695E+00
         -1   -1    0    0    0  501 -0.00000000000E+00  0.00000000000E+00  0.26172599271E+03  0.26172599271E+03  0.00000000000E+00 0.  1.
          1   -1    0    0  501    0  0.00000000000E+00 -0.00000000000E+00 -0.16051317428E+03  0.16051317428E+03  0.00000000000E+00 0. -1.
         25    2    1    2    0    0 -0.17283902415E+03  0.15192662065E+02  0.49780208945E+02  0.21961246245E+03  0.12508964471E+03 0.  0.
         23    2    1    2    0    0  0.17283902415E+03 -0.15192662065E+02  0.51432609483E+02  0.20262670454E+03  0.91148904682E+02 0.  0.
          5    1    3    3  502    0 -0.80948730929E+02  0.68766515278E+02  0.36243964927E+02  0.11230595735E+03  0.41800000000E+01 0. -1.
         -5    1    3    3    0  502 -0.91890293218E+02 -0.53573853213E+02  0.13536244018E+02  0.10730650510E+03  0.41800000000E+01 0. -1.
        -11    1    4    4    0    0  0.55208958288E+02 -0.35484066085E+02  0.51234150627E+02  0.83259150918E+02  0.00000000000E+00 0.  1.
         11    1    4    4    0    0  0.11763006586E+03  0.20291404020E+02  0.19845885659E+00  0.11936755362E+03  0.00000000000E+00 0. -1.
</event>
<event>
 8    1  0.7130890E-009  0.1069752E+03  0.7561462E-02  0.1266276E+00
          1   -1    0    0  501    0  0.00000000000E+00  0.00000000000E+00  0.77297634639E+02  0.77297634639E+02  0.00000000000E+00 0. -1.
         -1   -1    0    0    0  501 -0.00000000000E+00 -0.00000000000E+00 -0.21015270538E+03  0.21015270538E+03  0.00000000000E+00 0.  1.
         25    2    1    2    0    0  0.56681098766E+02  0.25346859505E+02 -0.97000574026E+02  0.17003688358E+03  0.12509284620E+03 0.  0.
         23    2    1    2    0    0 -0.56681098766E+02 -0.25346859505E+02 -0.35854496719E+02  0.11741345644E+03  0.92979377150E+02 0.  0.
          5    1    3    3  502    0  0.26982441432E+02 -0.40694957533E+02 -0.82667329997E+02  0.96101464938E+02  0.41800000000E+01 0.  1.
         -5    1    3    3    0  502  0.29698657335E+02  0.66041817039E+02 -0.14333244029E+02  0.73935418641E+02  0.41800000000E+01 0.  1.
        -11    1    4    4    0    0  0.72620652806E+01  0.15096050216E+02 -0.38206229477E+02  0.41717433947E+02  0.00000000000E+00 0.  1.
         11    1    4    4    0    0 -0.63943164047E+02 -0.40442909722E+02  0.23517327576E+01  0.75696022498E+02  0.00000000000E+00 0. -1.
</event>
<event>
 8    1  0.7130890E-009  0.7342937E+02  0.7561462E-02  0.1348805E+00
          1   -1    0    0  501    0  0.00000000000E+00  0.00000000000E+00  0.61265950675E+03  0.61265950675E+03  0.00000000000E+00 0. -1.
         -1   -1    0    0    0  501 -0.00000000000E+00 -0.00000000000E+00 -0.19937139605E+02  0.19937139605E+02  0.00000000000E+00 0.  1.
         25    2    1    2    0    0 -0.20090815132E+02  0.14150284388E+02  0.35522361396E+03  0.37740650293E+03  0.12509189078E+03 0.  0.
         23    2    1    2    0    0  0.20090815132E+02 -0.14150284388E+02  0.23749875319E+03  0.25519014342E+03  0.90069307400E+02 0.  0.
          5    1    3    3  502    0 -0.42745739101E+02  0.44076196950E+01  0.33332317374E+02  0.54544854058E+02  0.41800000000E+01 0. -1.
         -5    1    3    3    0  502  0.22654923968E+02  0.97426646929E+01  0.32189129659E+03  0.32286164887E+03  0.41800000000E+01 0. -1.
        -11    1    4    4    0    0 -0.20393464296E+02 -0.29082742921E+02  0.17904729980E+03  0.18253666724E+03  0.00000000000E+00 0. -1.
         11    1    4    4    0    0  0.40484279428E+02  0.14932458533E+02  0.58451453385E+02  0.72653476183E+02  0.00000000000E+00 0.  1.
</event>
<event>
 8    1  0.7130890E-009  0.1173885E+03  0.7561462E-02  0.1247468E+00
          2   -1    0    0  501    0  0.00000000000E+00  0.00000000000E+00  0.77317675593E+03  0.77317675593E+03  0.00000000000E+00 0. -1.
         -2   -1    0    0    0  501 -0.00000000000E+00 -0.00000000000E+00 -0.20856691466E+02  0.20856691466E+02  0.00000000000E+00 0.  1.
         25    2    1    2    0    0 -0.50092705336E+02 -0.99930878848E+01  0.27622238865E+03  0.30749878185E+03  0.12509017514E+03 0.  0.
         23    2    1    2    0    0  0.50092705336E+02  0.99930878848E+01  0.47609767581E+03  0.48653466554E+03  0.86242929715E+02 0.  0.
          5    1    3    3  502    0  0.23789997902E+02  0.39342081193E+02  0.92343444056E+02  0.10324024125E+03  0.41800000000E+01 0.  1.
         -5    1    3    3    0  502 -0.73882703238E+02 -0.49335169078E+02  0.18387894459E+03  0.20425854061E+03  0.41800000000E+01 0.  1.
        -11    1    4    4    0    0  0.55273035848E+02  0.40631099502E+02  0.30283056239E+03  0.31050337237E+03  0.00000000000E+00 0.  1.
         11    1    4    4    0    0 -0.51803305120E+01 -0.30638011617E+02  0.17326711343E+03  0.17603129317E+03  0.00000000000E+00 0. -1.
</event>
<event>
 8    1  0.7130890E-009  0.1235289E+03  0.7561462E-02  0.1237386E+00
         -1   -1    0    0    0  501 -0.00000000000E+00  0.00000000000E+00  0.20173789719E+02  0.20173789719E+02  0.00000000000E+00 0.  1.
          1   -1    0    0  501    0  0.00000000000E+00 -0.00000000000E+00 -0.10110970786E+04  0.10110970786E+04  0.00000000000E+00 0. -1.
         25    2    1    2    0    0  0.91536003552E+02  0.19410873440E+02 -0.53946963433E+03  0.56163200364E+03  0.12508956469E+03 0.  0.
         23    2    1    2    0    0 -0.91536003552E+02 -0.19410873440E+02 -0.45145365455E+03  0.46963886468E+03  0.89412745489E+02 0.  0.
          5    1    3    3  502    0  0.85626886607E+02  0.60987796039E+02 -0.28735415182E+03  0.30600875142E+03  0.41800000000E+01 0. -1.
         -5    1    3    3    0  502  0.59091169447E+01 -0.41576922599E+02 -0.25211548251E+03  0.25562325222E+03  0.41800000000E+01 0. -1.
        -11    1    4    4    0    0 -0.13403427965E+02 -0.16771332557E+02 -0.14882061641E+02  0.26122887199E+02  0.00000000000E+00 0.  1.
         11    1    4    4    0    0 -0.78132575587E+02 -0.26395408835E+01 -0.43657159291E+03  0.44351597748E+03  0.00000000000E+00 0. -1.
</event>
<event>
 8    1  0.7130890E-009  0.1066033E+03  0.7561462E-02  0.1266993E+00
         -1   -1    0    0    0  501 -0.00000000000E+00  0.00000000000E+00  0.98687891677E+02  0.98687891677E+02  0.00000000000E+00 0.  1.
          1   -1    0    0  501    0  0.00000000000E+00 -0.00000000000E+00 -0.15554927092E+03  0.15554927092E+03  0.00000000000E+00 0. -1.
         25    2    1    2    0    0  0.33158911174E+02  0.36490484153E+02  0.40905950005E+00  0.13446026672E+03  0.12509327390E+03 0.  0.
         23    2    1    2    0    0 -0.33158911174E+02 -0.36490484153E+02 -0.57270438743E+02  0.11977689587E+03  0.92927567528E+02 0.  0.
          5    1    3    3  502    0 -0.45128928657E+02  0.21904725413E+02 -0.16441070214E+02  0.52954871229E+02  0.41800000000E+01 0. -1.
         -5    1    3    3    0  502  0.78287839831E+02  0.14585758740E+02  0.16850129714E+02  0.81505395495E+02  0.41800000000E+01 0. -1.
        -11    1    4    4    0    0 -0.38516468826E+02 -0.53141760911E+02 -0.63531504353E+01  0.65938817430E+02  0.00000000000E+00 0.  1.
         11    1    4    4    0    0  0.53575576520E+01  0.16651276758E+02 -0.50917288308E+02  0.53838078441E+02  0.00000000000E+00 0. -1.
</event>
<event>
 8    1  0.7130890E-009  0.2581605E+03  0.7561462E-02  0.1108254E+00
          3   -1    0    0  501    0  0.00000000000E+00  0.00000000000E+00  0.25677999568E+03  0.25677999568E+03  0.00000000000E+00 0. -1.
         -3   -1    0    0    0  501 -0.00000000000E+00 -0.00000000000E+00 -0.29610967184E+03  0.29610967184E+03  0.00000000000E+00 0.  1.
         25    2    1    2    0    0  0.21819010882E+03 -0.11948646006E+03  0.27304026150E+02  0.27978063875E+03  0.12509099987E+03 0.  0.
         23    2    1    2    0    0 -0.21819010882E+03  0.11948646006E+03 -0.66633702316E+02  0.27310902877E+03  0.90909590160E+02 0.  0.
          5    1    3    3  502    0  0.52597118817E+02  0.14254318421E+02  0.38078128451E+02  0.66611251060E+02  0.41800000000E+01 0.  1.
         -5    1    3    3    0  502  0.16559299001E+03 -0.13374077848E+03 -0.10774102301E+02  0.21316938769E+03  0.41800000000E+01 0.  1.
        -11    1    4    4    0    0 -0.36934070843E+02  0.19572683230E+02 -0.50436815551E+02  0.65506395724E+02  0.00000000000E+00 0.  1.
         11    1    4    4    0    0 -0.18125603798E+03  0.99913776831E+02 -0.16196886765E+02  0.20760263304E+03  0.00000000000E+00 0. -1.
</event>
<event>
 8    1  0.7130890E-009  0.7206372E+02  0.7561462E-02  0.1353213E+00
         -1   -1    0    0    0  501 -0.00000000000E+00  0.00000000000E+00  0.43914097886E+03  0.43914097886E+03  0.00000000000E+00 0.  1.
          1   -1    0    0  501    0  0.00000000000E+00 -0.00000000000E+00 -0.31649226382E+02  0.31649226382E+02  0.00000000000E+00 0. -1.
         25    2    1    2    0    0 -0.18230852867E+01 -0.25113394994E+02  0.30651423522E+03  0.33200644381E+03  0.12507316297E+03 0.  0.
         23    2    1    2    0    0  0.18230852867E+01  0.25113394994E+02  0.10097751726E+03  0.13878376143E+03  0.91817575637E+02 0.  0.
          5    1    3    3  502    0  0.29444827892E+02 -0.27786676663E+02  0.29579467898E+03  0.29858175061E+03  0.41800000000E+01 0.  1.
         -5    1    3    3    0  502 -0.31267913178E+02  0.26732816695E+01  0.10719556241E+02  0.33424693199E+02  0.41800000000E+01 0.  1.
        -11    1    4    4    0    0 -0.32282526754E+02  0.65617870883E+01  0.93648140428E+02  0.99273323653E+02  0.00000000000E+00 0.  1.
         11    1    4    4    0    0  0.34105612040E+02  0.18551607905E+02  0.73293768343E+01  0.39510437777E+02  0.00000000000E+00 0. -1.
</event>
<event>
 8    1  0.7130890E-009  0.1093057E+03  0.7561462E-02  0.1261861E+00
         -1   -1    0    0    0  501 -0.00000000000E+00  0.00000000000E+00  0.15924152670E+03  0.15924152670E+03  0.00000000000E+00 0.  1.
          1   -1    0    0  501    0  0.00000000000E+00 -0.00000000000E+00 -0.11998403647E+03  0.11998403647E+03  0.00000000000E+00 0. -1.
         25    2    1    2    0    0  0.37321164738E+02  0.57907336224E+02  0.73039873879E+02  0.16040004513E+03  0.12508885792E+03 0.  0.
         23    2    1    2    0    0 -0.37321164738E+02 -0.57907336224E+02 -0.33782383644E+02  0.11882551804E+03  0.90731060657E+02 0.  0.
          5    1    3    3  502    0  0.73863380261E+02  0.70872218735E+02  0.62470191375E+02  0.11999444796E+03  0.41800000000E+01 0.  1.
         -5    1    3    3    0  502 -0.36542215523E+02 -0.12964882511E+02  0.10569682504E+02  0.40405597163E+02  0.41800000000E+01 0.  1.
        -11    1    4    4    0    0 -0.10976811344E+02  0.25018935297E+01 -0.49755820719E+02  0.51013640861E+02  0.00000000000E+00 0. -1.
         11    1    4    4    0    0 -0.26344353394E+02 -0.60409229753E+02  0.15973437075E+02  0.67811877183E+02  0.00000000000E+00 0.  1.
</event>
<event>
 8    1  0.7130890E-009  0.1104295E+03  0.7561462E-02  0.1259777E+00
         -1   -1    0    0    0  501 -0.00000000000E+00  0.00000000000E+00  0.64866731643E+03  0.64866731643E+03  0.00000000000E+00 0.  1.
          1   -1    0    0  501    0  0.00000000000E+00 -0.00000000000E+00 -0.24048000161E+02  0.24048000161E+02  0.00000000000E+00 0. -1.
         25    2    1    2    0    0  0.16339939084E+02 -0.32390029653E+02  0.21351778080E+03  0.25010018894E+03  0.12507659317E+03 0.  0.
         23    2    1    2    0    0 -0.16339939084E+02  0.32390029653E+02  0.41110153548E+03  0.42261512766E+03  0.91010801688E+02 0.  0.
          5    1    3    3  502    0 -0.35530217697E+02  0.29468976282E+02  0.53223360522E+02  0.70576309325E+02  0.41800000000E+01 0. -1.
         -5    1    3    3    0  502  0.51870156780E+02 -0.61859005935E+02  0.16029442028E+03  0.17952387961E+03  0.41800000000E+01 0. -1.
        -11    1    4    4    0    0 -0.46864704905E+02 -0.29717440638E+01  0.14411479111E+03  0.15157244092E+03  0.00000000000E+00 0.  1.
         11    1    4    4    0    0  0.30524765821E+02  0.35361773717E+02  0.26698674436E+03  0.27104268674E+03  0.00000000000E+00 0. -1.
</event>
<event>
 8    1  0.7130890E-009  0.9555032E+02  0.7561462E-02  0.1289941E+00
         -1   -1    0    0    0  501 -0.00000000000E+00  0.00000000000E+00  0.60207607362E+03  0.60207607362E+03  0.00000000000E+00 0.  1.
          1   -1    0    0  501    0  0.00000000000E+00 -0.00000000000E+00 -0.30694013996E+02  0.30694013996E+02  0.00000000000E+00 0. -1.
         25    2    1    2    0    0 -0.37514442880E+02 -0.69820463259E+02  0.26701174912E+03  0.30532688021E+03  0.12508796542E+03 0.  0.
         23    2    1    2    0    0  0.37514442880E+02  0.69820463259E+02  0.30437031050E+03  0.32744320741E+03  0.91079842160E+02 0.  0.
          5    1    3    3  502    0 -0.23659380481E+02 -0.42139627244E+02  0.26965163055E+03  0.27397990570E+03  0.41800000000E+01 0.  1.
         -5    1    3    3    0  502 -0.13855062400E+02 -0.27680836015E+02 -0.26398814317E+01  0.31346974504E+02  0.41800000000E+01 0.  1.
        -11    1    4    4    0    0  0.45683982054E+02  0.49237791784E+01  0.19200791158E+03  0.19742924790E+03  0.00000000000E+00 0.  1.
         11    1    4    4    0    0 -0.81695391734E+01  0.64896684081E+02  0.11236239893E+03  0.13001395951E+03  0.00000000000E+00 0. -1.
</event>
<event>
 8    1  0.7130890E-009  0.7095646E+02  0.7561462E-02  0.1356870E+00
         -1   -1    0    0    0  501 -0.00000000000E+00  0.00000000000E+00  0.36405576821E+02  0.36405576821E+02  0.00000000000E+00 0.  1.
          1   -1    0    0  501    0  0.00000000000E+00 -0.00000000000E+00 -0.39399643351E+03  0.39399643351E+03  0.00000000000E+00 0. -1.
         25    2    1    2    0    0 -0.34538271656E+02  0.31201051361E+02 -0.15695865067E+03  0.20603351707E+03  0.12508954521E+03 0.  0.
         23    2    1    2    0    0  0.34538271656E+02 -0.31201051361E+02 -0.20063220602E+03  0.22436849326E+03  0.89003038495E+02 0.  0.
          5    1    3    3  502    0 -0.14223064630E+02  0.13520026675E+02 -0.17316585846E+03  0.17432433457E+03  0.41800000000E+01 0.  1.
         -5    1    3    3    0  502 -0.20315207026E+02  0.17681024686E+02  0.16207207787E+02  0.31709182498E+02  0.41800000000E+01 0.  1.
        -11    1    4    4    0    0 -0.42833642385E+01  0.25510888209E+02 -0.25897202703E+02  0.36603520790E+02  0.00000000000E+00 0.  1.
         11    1    4    4    0    0  0.38821635894E+02 -0.56711939570E+02 -0.17473500331E+03  0.18776497247E+03  0.00000000000E+00 0. -1.
</event>
<event>
 8    1  0.7130890E-009  0.2164017E+03  0.7561462E-02  0.1136595E+00
         -1   -1    0    0    0  501 -0.00000000000E+00  0.00000000000E+00  0.29502704711E+03  0.29502704711E+03  0.00000000000E+00 0.  1.
          1   -1    0    0  501    0  0.00000000000E+00 -0.00000000000E+00 -0.19633038028E+03  0.19633038028E+03  0.00000000000E+00 0. -1.
         25    2    1    2    0    0 -0.15971797367E+03 -0.14288438503E+03  0.35768365998E+02  0.25070379166E+03  0.12508891458E+03 0.  0.
         23    2    1    2    0    0  0.15971797367E+03  0.14288438503E+03  0.62928300835E+02  0.24065363573E+03  0.89601466224E+02 0.  0.
          5    1    3    3  502    0 -0.52851910100E+02 -0.52731110892E+02 -0.46859662102E+02  0.88245083656E+02  0.41800000000E+01 0.  1.
         -5    1    3    3    0  502 -0.10686606357E+03 -0.90153274134E+02  0.82628028099E+02  0.16245870801E+03  0.41800000000E+01 0.  1.
        -11    1    4    4    0    0  0.15908313444E+03  0.13052894899E+03  0.33182789922E+02  0.20843787500E+03  0.00000000000E+00 0. -1.
         11    1    4    4    0    0  0.63483923254E+00  0.12355436039E+02  0.29745510913E+02  0.32215760740E+02  0.00000000000E+00 0.  1.
</event>
<event>
 8    1  0.7130890E-009  0.1255028E+03  0.7561462E-02  0.1234286E+00
         -1   -1    0    0    0  501 -0.00000000000E+00  0.00000000000E+00  0.11445963923E+02  0.11445963923E+02  0.00000000000E+00 0.  1.
          1   -1    0    0  501    0  0.00000000000E+00 -0.00000000000E+00 -0.21980010694E+04  0.21980010694E+04  0.00000000000E+00 0. -1.
         25    2    1    2    0    0 -0.15469351444E+02 -0.75500606037E+02 -0.17602112718E+04  0.17663324559E+04  0.12508789298E+03 0.  0.
         23    2    1    2    0    0  0.15469351444E+02  0.75500606037E+02 -0.42634383370E+03  0.44311457746E+03  0.92961399967E+02 0.  0.
          5    1    3    3  502    0 -0.42015380964E+02 -0.90223767974E+02 -0.16071451487E+04  0.16102293694E+04  0.41800000000E+01 0. -1.
         -5    1    3    3    0  502  0.26546029520E+02  0.14723161937E+02 -0.15306612303E+03  0.15610308645E+03  0.41800000000E+01 0. -1.
        -11    1    4    4    0    0 -0.39312137599E+02  0.28319798064E+02 -0.17303446314E+03  0.17968967850E+03  0.00000000000E+00 0.  1.
         11    1    4    4    0    0  0.54781489043E+02  0.47180807973E+02 -0.25330937055E+03  0.26342489896E+03  0.00000000000E+00 0. -1.
</event>
<event>
 8    1  0.7130890E-009  0.1186413E+03  0.7561462E-02  0.1245355E+00
         -2   -1    0    0    0  501 -0.00000000000E+00  0.00000000000E+00  0.51978907938E+02  0.51978907938E+02  0.00000000000E+00 0.  1.
          2   -1    0    0  501    0  0.00000000000E+00 -0.00000000000E+00 -0.38637425977E+03  0.38637425977E+03  0.00000000000E+00 0. -1.
         25    2    1    2    0    0 -0.68453852616E+02  0.42677345878E+02 -0.11955499469E+03  0.19091595204E+03  0.12509283832E+03 0.  0.
         23    2    1    2    0    0  0.68453852616E+02 -0.42677345878E+02 -0.21484035715E+03  0.24743721567E+03  0.92528432658E+02 0.  0.
          5    1    3    3  502    0 -0.46714509172E+02 -0.30224830509E+02 -0.88007064645E+01  0.56486375178E+02  0.41800000000E+01 0. -1.
         -5    1    3    3    0  502 -0.21739343444E+02  0.72902176387E+02 -0.11075428822E+03  0.13442957686E+03  0.41800000000E+01 0. -1.
        -11    1    4    4    0    0  0.50177823947E+02  0.85553812987E+01 -0.16836592009E+03  0.17589227275E+03  0.00000000000E+00 0. -1.
         11    1    4    4    0    0  0.18276028670E+02 -0.51232727177E+02 -0.46474437062E+02  0.71544942925E+02  0.00000000000E+00 0.  1.
</event>
<event>
 8    1  0.7130890E-009  0.2392101E+03  0.7561462E-02  0.1120320E+00
         -1   -1    0    0    0  501 -0.00000000000E+00  0.00000000000E+00  0.42403426455E+03  0.42403426455E+03  0.00000000000E+00 0. -1.
          1   -1    0    0  501    0  0.00000000000E+00 -0.00000000000E+00 -0.17540236088E+03  0.17540236088E+03  0.00000000000E+00 0.  1.
         25    2    1    2    0    0 -0.20777354894E+03  0.90849175495E+02  0.24222338761E+03  0.35460596064E+03  0.12509915063E+03 0.  0.
         23    2    1    2    0    0  0.20777354894E+03 -0.90849175495E+02  0.64085160582E+01  0.24483066478E+03  0.92073693367E+02 0.  0.
          5    1    3    3  502    0  0.22417066830E+01  0.13451538262E+02 -0.99593147301E+01  0.17396249032E+02  0.41800000000E+01 0.  1.
         -5    1    3    3    0  502 -0.21001525563E+03  0.77397637232E+02  0.25218270234E+03  0.33720971161E+03  0.41800000000E+01 0.  1.
        -11    1    4    4    0    0  0.32712968216E+02  0.14713325894E+02 -0.15814721621E+02  0.39201092693E+02  0.00000000000E+00 0. -1.
         11    1    4    4    0    0  0.17506058073E+03 -0.10556250139E+03  0.22223237679E+02  0.20562957209E+03  0.00000000000E+00 0.  1.
</event>
<event>
 8    1  0.7130890E-009  0.1815903E+03  0.7561462E-02  0.1166273E+00
          1   -1    0    0  501    0  0.00000000000E+00  0.00000000000E+00  0.64770274875E+03  0.64770274875E+03  0.00000000000E+00 0. -1.
         -1   -1    0    0    0  501 -0.00000000000E+00 -0.00000000000E+00 -0.56521033726E+02  0.56521033726E+02  0.00000000000E+00 0.  1.
         25    2    1    2    0    0  0.43110923041E+02 -0.14494679458E+03  0.38673160297E+03  0.43367924396E+03  0.12509288132E+03 0.  0.
         23    2    1    2    0    0 -0.43110923041E+02  0.14494679458E+03  0.20445011205E+03  0.27054453852E+03  0.92338367210E+02 0.  0.
          5    1    3    3  502    0 -0.47011972337E+01  0.21807613937E+02  0.47415328005E+02  0.52567661265E+02  0.41800000000E+01 0. -1.
         -5    1    3    3    0  502  0.47812120274E+02 -0.16675440852E+03  0.33931627497E+03  0.38111158269E+03  0.41800000000E+01 0. -1.
        -11    1    4    4    0    0  0.18291662332E+02  0.55731735164E+02  0.31761078600E+02  0.66703653042E+02  0.00000000000E+00 0.  1.
         11    1    4    4    0    0 -0.61402585372E+02  0.89215059417E+02  0.17268903345E+03  0.20384088548E+03  0.00000000000E+00 0. -1.
</event>
<event>
 8    1  0.7130890E-009  0.8836263E+02  0.7561462E-02  0.1306866E+00
         -1   -1    0    0    0  501 -0.00000000000E+00  0.00000000000E+00  0.13091712694E+03  0.13091712694E+03  0.00000000000E+00 0.  1.
          1   -1    0    0  501    0  0.00000000000E+00 -0.00000000000E+00 -0.11227474193E+03  0.11227474193E+03  0.00000000000E+00 0. -1.
         25    2    1    2    0    0  0.14438896404E+02 -0.18917196634E+02 -0.43896942552E+02  0.13469864304E+03  0.12510172186E+03 0.  0.
         23    2    1    2    0    0 -0.14438896404E+02  0.18917196634E+02  0.62539327561E+02  0.10849322583E+03  0.85400646958E+02 0.  0.
          5    1    3    3  502    0 -0.52697081183E+02 -0.22621764783E+01 -0.38016616267E+02  0.65152400723E+02  0.41800000000E+01 0.  1.
         -5    1    3    3    0  502  0.67135977587E+02 -0.16655020156E+02 -0.58803262857E+01  0.69546242315E+02  0.41800000000E+01 0.  1.
        -11    1    4    4    0    0  0.10172866545E+02  0.26806424921E+02  0.74638487062E+02  0.79956084081E+02  0.00000000000E+00 0.  1.
         11    1    4    4    0    0 -0.24611762949E+02 -0.78892282861E+01 -0.12099159501E+02  0.28537141746E+02  0.00000000000E+00 0. -1.
</event>
<event>
 8    1  0.7130890E-009  0.1379422E+03  0.7561462E-02  0.1216125E+00
         -2   -1    0    0    0  501 -0.00000000000E+00  0.00000000000E+00  0.35335300624E+02  0.35335300624E+02  0.00000000000E+00 0.  1.
          2   -1    0    0  501    0  0.00000000000E+00 -0.00000000000E+00 -0.80829854808E+03  0.80829854808E+03  0.00000000000E+00 0. -1.
         25    2    1    2    0    0  0.63973618085E+02 -0.94258418619E+02 -0.26026286386E+03  0.31042211466E+03  0.12509139728E+03 0.  0.
         23    2    1    2    0    0 -0.63973618085E+02  0.94258418619E+02 -0.51270038360E+03  0.53321173405E+03  0.92064090147E+02 0.  0.
          5    1    3    3  502    0 -0.13404591855E+02 -0.14695268200E+02  0.66004553817E+01  0.21369894747E+02  0.41800000000E+01 0.  1.
         -5    1    3    3    0  502  0.77378209939E+02 -0.79563150419E+02 -0.26686331924E+03  0.28905221991E+03  0.41800000000E+01 0.  1.
        -11    1    4    4    0    0 -0.10423793987E+02 -0.17614025219E+02 -0.10838005925E+03  0.11029572343E+03  0.00000000000E+00 0.  1.
         11    1    4    4    0    0 -0.53549824097E+02  0.11187244384E+03 -0.40432032435E+03  0.42291601061E+03  0.00000000000E+00 0. -1.
</event>
<event>
 8    1  0.7130890E-009  0.1020650E+03  0.7561462E-02  0.1276013E+00
          2   -1    0    0  501    0  0.00000000000E+00  0.00000000000E+00  0.50072626230E+03  0.50072626230E+03  0.00000000000E+00 0. -1.
         -2   -1    0    0    0  501 -0.00000000000E+00 -0.00000000000E+00 -0.29089082909E+02  0.29089082909E+02  0.00000000000E+00 0.  1.
         25    2    1    2    0    0 -0.36550071494E+02  0.32357708356E+02  0.28949898814E+03  0.31912716693E+03  0.12509818352E+03 0.  0.
         23    2    1    2    0    0  0.36550071494E+02 -0.32357708356E+02  0.18213819125E+03  0.21068817828E+03  0.93980097571E+02 0.  0.
          5    1    3    3  502    0 -0.63715685756E+02 -0.28043557982E+01  0.68581540989E+02  0.93746750276E+02  0.41800000000E+01 0. -1.
         -5    1    3    3    0  502  0.27165614262E+02  0.35162064154E+02  0.22091744715E+03  0.22538041665E+03  0.41800000000E+01 0. -1.
        -11    1    4    4    0    0 -0.12975266686E+02 -0.43012920494E+02  0.41336531552E+02  0.61050616014E+02  0.00000000000E+00 0.  1.
         11    1    4    4    0    0  0.49525338180E+02  0.10655212138E+02  0.14080165970E+03  0.14963756227E+03  0.00000000000E+00 0. -1.
</event>
<event>
 8    1  0.7130890E-009  0.8440243E+02  0.7561462E-02  0.1317003E+00
         -2   -1    0    0    0  501 -0.00000000000E+00  0.00000000000E+00  0.18131808155E+03  0.18131808155E+03  0.00000000000E+00 0.  1.
          2   -1    0    0  501    0  0.00000000000E+00 -0.00000000000E+00 -0.84434823806E+02  0.84434823806E+02  0.00000000000E+00 0. -1.
         25    2    1    2    0    0 -0.17020896576E+02  0.40420501441E+02  0.14474748184E+02  0.13334398035E+03  0.12509025103E+03 0.  0.
         23    2    1    2    0    0  0.17020896576E+02 -0.40420501441E+02  0.82408509557E+02  0.13240892500E+03  0.93901188043E+02 0.  0.
          5    1    3    3  502    0 -0.29838287423E+02  0.42557621809E+02 -0.47104887955E+02  0.70269605376E+02  0.41800000000E+01 0.  1.
         -5    1    3    3    0  502  0.12817390847E+02 -0.21371203683E+01  0.61579636139E+02  0.63074374976E+02  0.41800000000E+01 0.  1.
        -11    1    4    4    0    0 -0.16221558217E+01 -0.68929007346E+02  0.61838783908E+02  0.92616816176E+02  0.00000000000E+00 0.  1.
         11    1    4    4    0    0  0.18643052398E+02  0.28508505905E+02  0.20569725649E+02  0.39792108827E+02  0.00000000000E+00 0. -1.
</event>
<event>
 8    1  0.7130890E-009  0.1374541E+03  0.7561462E-02  0.1216796E+00
         -2   -1    0    0    0  501 -0.00000000000E+00  0.00000000000E+00  0.28389787363E+02  0.28389787363E+02  0.00000000000E+00 0.  1.
          2   -1    0    0  501    0  0.00000000000E+00 -0.00000000000E+00 -0.83209635092E+03  0.83209635092E+03  0.00000000000E+00 0. -1.
         25    2    1    2    0    0 -0.47913018582E+01 -0.87077340446E+02 -0.61595944271E+03  0.63455392264E+03  0.12508887193E+03 0.  0.
         23    2    1    2    0    0  0.47913018582E+01  0.87077340446E+02 -0.18774712085E+03  0.22593221564E+03  0.90503949563E+02 0.  0.
          5    1    3    3  502    0 -0.59836622285E+02 -0.21856158685E+02 -0.20124617064E+03  0.21112935996E+03  0.41800000000E+01 0.  1.
         -5    1    3    3    0  502  0.55045320426E+02 -0.65221181761E+02 -0.41471327207E+03  0.42342456268E+03  0.41800000000E+01 0.  1.
        -11    1    4    4    0    0  0.38037123211E+02  0.84026633698E+02 -0.13464237105E+03  0.16320498153E+03  0.00000000000E+00 0.  1.
         11    1    4    4    0    0 -0.33245821353E+02  0.30507067486E+01 -0.53104749792E+02  0.62727234114E+02  0.00000000000E+00 0. -1.
</event>
<event>
 8    1  0.7130890E-009  0.9274721E+02  0.7561462E-02  0.1296332E+00
          2   -1    0    0  501    0  0.00000000000E+00  0.00000000000E+00  0.31766847719E+03  0.31766847719E+03  0.00000000000E+00 0. -1.
         -2   -1    0    0    0  501 -0.00000000000E+00 -0.00000000000E+00 -0.55827312370E+02  0.55827312370E+02  0.00000000000E+00 0.  1.
         25    2    1    2    0    0  0.51499127733E+02 -0.28015027037E+02  0.72184223262E+02  0.15587138613E+03  0.12509326533E+03 0.  0.
         23    2    1    2    0    0 -0.51499127733E+02  0.28015027037E+02  0.18965694155E+03  0.21762440342E+03  0.89183090261E+02 0.  0.
          5    1    3    3  502    0  0.63043658071E+02 -0.46187835970E+02  0.95758475063E+02  0.12367286267E+03  0.41800000000E+01 0.  1.
         -5    1    3    3    0  502 -0.11544530338E+02  0.18172808932E+02 -0.23574251801E+02  0.32198523463E+02  0.41800000000E+01 0.  1.
        -11    1    4    4    0    0 -0.18693890644E+01  0.35113889243E+02  0.19443696242E+02  0.40181303573E+02  0.00000000000E+00 0.  1.
         11    1    4    4    0    0 -0.49629738668E+02 -0.70988622060E+01  0.17021324531E+03  0.17744309985E+03  0.00000000000E+00 0. -1.
</event>
<event>
 8    1  0.7130890E-009  0.1256870E+03  0.7561462E-02  0.1234000E+00
          2   -1    0    0  501    0  0.00000000000E+00  0.00000000000E+00  0.16065188744E+03  0.16065188744E+03  0.00000000000E+00 0. -1.
         -2   -1    0    0    0  501 -0.00000000000E+00 -0.00000000000E+00 -0.13268032831E+03  0.13268032831E+03  0.00000000000E+00 0.  1.
         25    2    1    2    0    0  0.66009032721E+02 -0.67055723632E+02  0.41801419970E+02  0.16201366526E+03  0.12508959407E+03 0.  0.
         23    2    1    2    0    0 -0.66009032721E+02  0.67055723632E+02 -0.13829860848E+02  0.13131855049E+03  0.90551831457E+02 0.  0.
          5    1    3    3  502    0  0.77970814323E+02 -0.11197404209E+02  0.62986856398E+02  0.10094377755E+03  0.41800000000E+01 0.  1.
         -5    1    3    3    0  502 -0.11961781602E+02 -0.55858319423E+02 -0.21185436428E+02  0.61069887707E+02  0.41800000000E+01 0.  1.
        -11    1    4    4    0    0 -0.53856604836E+02  0.74339037663E+01 -0.37482002693E+02  0.66035576286E+02  0.00000000000E+00 0.  1.
         11    1    4    4    0    0 -0.12152427886E+02  0.59621819866E+02  0.23652141845E+02  0.65282974208E+02  0.00000000000E+00 0. -1.
</event>
<event>
 8    1  0.7130890E-009  0.7343984E+02  0.7561462E-02  0.1348772E+00
          1   -1    0    0  501    0  0.00000000000E+00  0.00000000000E+00  0.87772704637E+02  0.87772704637E+02  0.00000000000E+00 0. -1.
         -1   -1    0    0    0  501 -0.00000000000E+00 -0.00000000000E+00 -0.14004229146E+03  0.14004229146E+03  0.00000000000E+00 0.  1.
         25    2    1    2    0    0  0.34429346470E+01 -0.19123651987E+02 -0.14144163381E+02  0.12737673652E+03  0.12508879960E+03 0.  0.
         23    2    1    2    0    0 -0.34429346470E+01  0.19123651987E+02 -0.38125423438E+02  0.10043825957E+03  0.90866540646E+02 0.  0.
          5    1    3    3  502    0  0.38976723121E+02  0.13886532138E+02 -0.51370350665E+02  0.66093918385E+02  0.41800000000E+01 0.  1.
         -5    1    3    3    0  502 -0.35533788474E+02 -0.33010184126E+02  0.37226187283E+02  0.61282818138E+02  0.41800000000E+01 0.  1.
        -11    1    4    4    0    0 -0.23937266771E+02  0.25668525930E+02  0.18634363075E+02  0.39737959826E+02  0.00000000000E+00 0. -1.
         11    1    4    4    0    0  0.20494332124E+02 -0.65448739431E+01 -0.56759786513E+02  0.60700299745E+02  0.00000000000E+00 0.  1.
</event>
<event>
 8    1  0.7130890E-009  0.1983198E+03  0.7561462E-02  0.1151164E+00
         -1   -1    0    0    0  501 -0.00000000000E+00  0.00000000000E+00  0.10228026841E+04  0.10228026841E+04  0.00000000000E+00 0.  1.
          1   -1    0    0  501    0  0.00000000000E+00 -0.00000000000E+00 -0.39371509704E+02  0.39371509704E+02  0.00000000000E+00 0. -1.
         25    2    1    2    0    0  0.16774991038E+03 -0.20587761412E+02  0.50971825886E+03  0.55138415196E+03  0.12509153155E+03 0.  0.
         23    2    1    2    0    0 -0.16774991038E+03  0.20587761412E+02  0.47371291556E+03  0.51079004187E+03  0.89099114204E+02 0.  0.
          5    1    3    3  502    0 -0.18439151136E+02 -0.11404557085E+02  0.79213389477E+02  0.82233203084E+02  0.41800000000E+01 0.  1.
         -5    1    3    3    0  502  0.18618906151E+03 -0.91832043275E+01  0.43050486938E+03  0.46915094888E+03  0.41800000000E+01 0.  1.
        -11    1    4    4    0    0 -0.28290625294E+01 -0.18411622494E+02  0.80233105998E+02  0.82367121692E+02  0.00000000000E+00 0.  1.
         11    1    4    4    0    0 -0.16492084785E+03  0.38999383907E+02  0.39347980956E+03  0.42842292018E+03  0.00000000000E+00 0. -1.
</event>
<event>
 8    1  0.7130890E-009  0.1091209E+03  0.7561462E-02  0.1262207E+00
          3   -1    0    0  501    0  0.00000000000E+00  0.00000000000E+00  0.26084676521E+03  0.26084676521E+03  0.00000000000E+00 0. -1.
         -3   -1    0    0    0  501 -0.00000000000E+00 -0.00000000000E+00 -0.68376514119E+02  0.68376514119E+02  0.00000000000E+00 0.  1.
         25    2    1    2    0    0 -0.61565958596E+02 -0.43182375892E+02  0.78032929206E+02  0.16550429273E+03  0.12508975987E+03 0.  0.
         23    2    1    2    0    0  0.61565958596E+02  0.43182375892E+02  0.11443732189E+03  0.16371898661E+03  0.89738069341E+02 0.  0.
          5    1    3    3  502    0  0.32230984314E+02 -0.29078781860E+02  0.16370144845E+01  0.43641312088E+02  0.41800000000E+01 0.  1.
         -5    1    3    3    0  502 -0.93796942910E+02 -0.14103594032E+02  0.76395914721E+02  0.12186298064E+03  0.41800000000E+01 0.  1.
        -11    1    4    4    0    0  0.40230889650E+02  0.42238426027E+02  0.12613929332E+02  0.59680150205E+02  0.00000000000E+00 0.  1.
         11    1    4    4    0    0  0.21335068946E+02  0.94394986471E+00  0.10182339256E+03  0.10403883640E+03  0.00000000000E+00 0. -1.
</event>
<event>
 8    1  0.7130890E-009  0.1606460E+03  0.7561462E-02  0.1187969E+00
         -1   -1    0    0    0  501 -0.00000000000E+00  0.00000000000E+00  0.12424334825E+03  0.12424334825E+03  0.00000000000E+00 0.  1.
          1   -1    0    0  501    0  0.00000000000E+00 -0.00000000000E+00 -0.22588511616E+03  0.22588511616E+03  0.00000000000E+00 0. -1.
         25    2    1    2    0    0 -0.38929188654E+02  0.10972661986E+03 -0.80225007111E+01  0.17107732340E+03  0.12509067603E+03 0.  0.
         23    2    1    2    0    0  0.38929188654E+02 -0.10972661986E+03 -0.93619267204E+02  0.17905114101E+03  0.98688049268E+02 0.  0.
          5    1    3    3  502    0 -0.78710490200E+02  0.10349817042E+03 -0.10509304245E+02  0.13051869760E+03  0.41800000000E+01 0. -1.
         -5    1    3    3    0  502  0.39781301547E+02  0.62284494424E+01  0.24868035344E+01  0.40558625803E+02  0.41800000000E+01 0. -1.
        -11    1    4    4    0    0  0.57184305584E+02 -0.22261058021E+02 -0.52218575114E+02  0.80575300783E+02  0.00000000000E+00 0. -1.
         11    1    4    4    0    0 -0.18255116930E+02 -0.87465561840E+02 -0.41400692090E+02  0.98475840223E+02  0.00000000000E+00 0.  1.
</event>
<event>
 8    1  0.7130890E-009  0.1791302E+03  0.7561462E-02  0.1168647E+00
         -2   -1    0    0    0  501 -0.00000000000E+00  0.00000000000E+00  0.15521097529E+03  0.15521097529E+03  0.00000000000E+00 0.  1.
          2   -1    0    0  501    0  0.00000000000E+00 -0.00000000000E+00 -0.29734133918E+03  0.29734133918E+03  0.00000000000E+00 0. -1.
         25    2    1    2    0    0 -0.14133239735E+03 -0.77086708756E+02 -0.16909212403E+03  0.26487099778E+03  0.12508913562E+03 0.  0.
         23    2    1    2    0    0  0.14133239735E+03  0.77086708756E+02  0.26961760137E+02  0.18768131668E+03  0.92629006875E+02 0.  0.
          5    1    3    3  502    0 -0.99419369390E+02  0.66535012734E+01 -0.45149200737E+02  0.10947329728E+03  0.41800000000E+01 0. -1.
         -5    1    3    3    0  502 -0.41913027959E+02 -0.83740210029E+02 -0.12394292330E+03  0.15539770051E+03  0.41800000000E+01 0. -1.
        -11    1    4    4    0    0  0.85452530622E+02  0.65642073604E+02 -0.24894778809E+02  0.11059279736E+03  0.00000000000E+00 0. -1.
         11    1    4    4    0    0  0.55879866727E+02  0.11444635151E+02  0.51856538947E+02  0.77088519318E+02  0.00000000000E+00 0.  1.
</event>
<event>
 8    1  0.7130890E-009  0.9832334E+02  0.7561462E-02  0.1283862E+00
         -1   -1    0    0    0  501 -0.00000000000E+00  0.00000000000E+00  0.11707665447E+03  0.11707665447E+03  0.00000000000E+00 0.  1.
          1   -1    0    0  501    0  0.00000000000E+00 -0.00000000000E+00 -0.11045123485E+03  0.11045123485E+03  0.00000000000E+00 0. -1.
         25    2    1    2    0    0 -0.15229639997E+02  0.20924206285E+02 -0.22976960450E+02  0.12979180538E+03  0.12509279632E+03 0.  0.
         23    2    1    2    0    0  0.15229639997E+02 -0.20924206285E+02  0.29602380073E+02  0.97736083941E+02  0.89477800907E+02 0.  0.
          5    1    3    3  502    0 -0.17817668879E+02  0.69377055690E+02  0.78114015219E+01  0.72174341523E+02  0.41800000000E+01 0. -1.
         -5    1    3    3    0  502  0.25880288824E+01 -0.48452849405E+02 -0.30788361972E+02  0.57617463862E+02  0.41800000000E+01 0. -1.
        -11    1    4    4    0    0 -0.16375075004E+02 -0.37200497052E+02 -0.12602795802E+02  0.42554089396E+02  0.00000000000E+00 0. -1.
         11    1    4    4    0    0  0.31604715000E+02  0.16276290766E+02  0.42205175875E+02  0.55181994546E+02  0.00000000000E+00 0.  1.
</event>
<event>
 8    1  0.7130890E-009  0.9351479E+02  0.7561462E-02  0.1294557E+00
         -2   -1    0    0    0  501 -0.00000000000E+00  0.00000000000E+00  0.81396068906E+02  0.81396068906E+02  0.00000000000E+00 0.  1.
          2   -1    0    0  501    0  0.00000000000E+00 -0.00000000000E+00 -0.21745231440E+03  0.21745231440E+03  0.00000000000E+00 0. -1.
         25    2    1    2    0    0 -0.64732919350E+01  0.68443757079E+02 -0.11279625137E+03  0.18192611472E+03  0.12509062916E+03 0.  0.
         23    2    1    2    0    0  0.64732919350E+01 -0.68443757079E+02 -0.23259994130E+02  0.11692226859E+03  0.91669723316E+02 0.  0.
          5    1    3    3  502    0 -0.33531172190E+01  0.18042772825E+01 -0.11491035093E+03  0.11504938054E+03  0.41800000000E+01 0.  1.
         -5    1    3    3    0  502 -0.31201747159E+01  0.66639479796E+02  0.21140995650E+01  0.66876734181E+02  0.41800000000E+01 0.  1.
        -11    1    4    4    0    0  0.44228398840E+02 -0.10639526024E+02 -0.10985954311E+02  0.46797884248E+02  0.00000000000E+00 0. -1.
         11    1    4    4    0    0 -0.37755106905E+02 -0.57804231055E+02 -0.12274039819E+02  0.70124384338E+02  0.00000000000E+00 0.  1.
</event>
<event>
 8    1  0.7130890E-009  0.1401895E+03  0.7561462E-02  0.1213074E+00
          2   -1    0    0  501    0  0.00000000000E+00  0.00000000000E+00  0.48455738367E+03  0.48455738367E+03  0.00000000000E+00 0.  1.
         -2   -1    0    0    0  501 -0.00000000000E+00 -0.00000000000E+00 -0.60338507832E+02  0.60338507832E+02  0.00000000000E+00 0. -1.
         25    2    1    2    0    0  0.83067034236E+02 -0.82149325634E+02  0.12741370226E+03  0.21337600057E+03  0.12508565952E+03 0.  0.
         23    2    1    2    0    0 -0.83067034236E+02  0.82149325634E+02  0.29680517359E+03  0.33151989094E+03  0.90351995773E+02 0.  0.
          5    1    3    3  502    0  0.26965573835E+02 -0.77991515582E+02  0.13311892940E+03  0.15667782370E+03  0.41800000000E+01 0.  1.
         -5    1    3    3    0  502  0.56101460401E+02 -0.41578100520E+01 -0.57052271433E+01  0.56698176869E+02  0.41800000000E+01 0.  1.
        -11    1    4    4    0    0 -0.24620383597E+02 -0.14368418937E+02  0.27840927584E+02  0.39846354914E+02  0.00000000000E+00 0. -1.
         11    1    4    4    0    0 -0.58446650639E+02  0.96517744572E+02  0.26896424600E+03  0.29167353602E+03  0.00000000000E+00 0.  1.
</event>
<event>
 8    1  0.7130890E-009  0.1704641E+03  0.7561462E-02  0.1177365E+00
          1   -1    0    0  501    0  0.00000000000E+00  0.00000000000E+00  0.86630088509E+03  0.86630088509E+03  0.00000000000E+00 0.  1.
         -1   -1    0    0    0  501 -0.00000000000E+00 -0.00000000000E+00 -0.51719712575E+02  0.51719712575E+02  0.00000000000E+00 0. -1.
         25    2    1    2    0    0  0.12884349020E+03 -0.89827870173E+02  0.23038601254E+03  0.30560131941E+03  0.12507901671E+03 0.  0.
         23    2    1    2    0    0 -0.12884349020E+03  0.89827870173E+02  0.58419515997E+03  0.61241927826E+03  0.95413291625E+02 0.  0.
          5    1    3    3  502    0  0.49957022312E+01 -0.55635412645E+01 -0.15465292549E+02  0.17679301621E+02  0.41800000000E+01 0. -1.
         -5    1    3    3    0  502  0.12384778797E+03 -0.84264328908E+02  0.24585130509E+03  0.28792201779E+03  0.41800000000E+01 0. -1.
        -11    1    4    4    0    0 -0.75577542401E+02  0.10288886536E+03  0.37407796824E+03  0.39526245692E+03  0.00000000000E+00 0. -1.
         11    1    4    4    0    0 -0.53265947798E+02 -0.13060995187E+02  0.21011719174E+03  0.21715682134E+03  0.00000000000E+00 0.  1.
</event>
<event>
 8    1  0.7130890E-009  0.1078251E+03  0.7561462E-02  0.1264651E+00
         -1   -1    0    0    0  501 -0.00000000000E+00  0.00000000000E+00  0.94402273113E+02  0.94402273113E+02  0.00000000000E+00 0.  1.
          1   -1    0    0  501    0  0.00000000000E+00 -0.00000000000E+00 -0.13609738858E+03  0.13609738858E+03  0.00000000000E+00 0. -1.
         25    2    1    2    0    0  0.33880161183E+02  0.12069570825E+02 -0.28680881282E+02  0.13327746266E+03  0.12508696670E+03 0.  0.
         23    2    1    2    0    0 -0.33880161183E+02 -0.12069570825E+02 -0.13014234187E+02  0.97222199039E+02  0.89382581260E+02 0.  0.
          5    1    3    3  502    0 -0.57635236981E+01  0.58203584236E+02 -0.40377636509E+02  0.71194812686E+02  0.41800000000E+01 0.  1.
         -5    1    3    3    0  502  0.39643684881E+02 -0.46134013411E+02  0.11696755227E+02  0.62082649969E+02  0.41800000000E+01 0.  1.
        -11    1    4    4    0    0  0.26096016739E+02  0.15153585286E+02 -0.76954277021E+01  0.31142460471E+02  0.00000000000E+00 0. -1.
         11    1    4    4    0    0 -0.59976177922E+02 -0.27223156110E+02 -0.53188064847E+01  0.66079738568E+02  0.00000000000E+00 0.  1.
</event>
<event>
 8    1  0.7130890E-009  0.1235571E+03  0.7561462E-02  0.1237342E+00
         -3   -1    0    0    0  501 -0.00000000000E+00  0.00000000000E+00  0.87222851018E+03  0.87222851018E+03  0.00000000000E+00 0.  1.
          3   -1    0    0  501    0  0.00000000000E+00 -0.00000000000E+00 -0.54457669413E+02  0.54457669413E+02  0.00000000000E+00 0. -1.
         25    2    1    2    0    0 -0.69225213277E+02  0.57145180191E+02  0.78127649257E+03  0.79630289132E+03  0.12509050763E+03 0.  0.
         23    2    1    2    0    0  0.69225213277E+02 -0.57145180191E+02  0.36494348198E+02  0.13038328828E+03  0.87236819293E+02 0.  0.
          5    1    3    3  502    0 -0.30577778897E+02 -0.27544718845E+02  0.93495404776E+02  0.10223783650E+03  0.41800000000E+01 0. -1.
         -5    1    3    3    0  502 -0.38647434379E+02  0.84689899036E+02  0.68778108780E+03  0.69406505481E+03  0.41800000000E+01 0. -1.
        -11    1    4    4    0    0  0.71864273226E+02 -0.19009746641E+02 -0.43218806716E+01  0.74461553074E+02  0.00000000000E+00 0. -1.
         11    1    4    4    0    0 -0.26390599497E+01 -0.38135433549E+02  0.40816228870E+02  0.55921735207E+02  0.00000000000E+00 0.  1.
</event>
<event>
 8    1  0.7130890E-009  0.2394308E+03  0.7561462E-02  0.1120173E+00
          2   -1    0    0  501    0  0.00000000000E+00  0.00000000000E+00  0.47815237317E+04  0.47815237317E+04  0.00000000000E+00 0. -1.
         -2   -1    0    0    0  501 -0.00000000000E+00 -0.00000000000E+00 -0.18563146080E+02  0.18563146080E+02  0.00000000000E+00 0.  1.
         25    2    1    2    0    0 -0.21946531671E+03 -0.76319732942E+02  0.36498662048E+04  0.36593934131E+04  0.12508841578E+03 0.  0.
         23    2    1    2    0    0  0.21946531671E+03  0.76319732942E+02  0.11130943808E+04  0.11406934647E+04  0.90624240442E+02 0.  0.
          5    1    3    3  502    0 -0.89063259435E+02 -0.41589212781E+02  0.75536925825E+03  0.76174937841E+03  0.41800000000E+01 0. -1.
         -5    1    3    3    0  502 -0.13040205728E+03 -0.34730520161E+02  0.28944969466E+04  0.28976440347E+04  0.41800000000E+01 0. -1.
        -11    1    4    4    0    0  0.10836973698E+03 -0.38910840004E+01  0.59406665727E+03  0.60388271519E+03  0.00000000000E+00 0. -1.
         11    1    4    4    0    0  0.11109557973E+03  0.80210816942E+02  0.51902772355E+03  0.53681074953E+03  0.00000000000E+00 0.  1.
</event>
<event>
 8    1  0.7130890E-009  0.6487679E+02  0.7561462E-02  0.1378436E+00
         -2   -1    0    0    0  501 -0.00000000000E+00  0.00000000000E+00  0.56607475349E+02  0.56607475349E+02  0.00000000000E+00 0.  1.
          2   -1    0    0  501    0  0.00000000000E+00 -0.00000000000E+00 -0.27433131767E+03  0.27433131767E+03  0.00000000000E+00 0. -1.
         25    2    1    2    0    0  0.17069256628E+02 -0.65680635595E+01 -0.20150745537E+03  0.23787968628E+03  0.12508793544E+03 0.  0.
         23    2    1    2    0    0 -0.17069256628E+02  0.65680635595E+01 -0.16216386947E+02  0.93059106740E+02  0.89791576224E+02 0.  0.
          5    1    3    3  502    0 -0.18430832781E+01 -0.40583905206E+02 -0.19370814584E+03  0.19796658426E+03  0.41800000000E+01 0. -1.
         -5    1    3    3    0  502  0.18912339906E+02  0.34015841646E+02 -0.77993095324E+01  0.39913102019E+02  0.41800000000E+01 0. -1.
        -11    1    4    4    0    0 -0.23141053277E+02 -0.14857733171E+02 -0.47364396533E+02  0.54769029941E+02  0.00000000000E+00 0. -1.
         11    1    4    4    0    0  0.60717966493E+01  0.21425796731E+02  0.31148009586E+02  0.38290076799E+02  0.00000000000E+00 0.  1.
</event>
<event>
 8    1  0.7130890E-009  0.1191425E+03  0.7561462E-02  0.1244518E+00
         -2   -1    0    0    0  501 -0.00000000000E+00  0.00000000000E+00  0.15494902409E+03  0.15494902409E+03  0.00000000000E+00 0. -1.
          2   -1    0    0  501    0  0.00000000000E+00 -0.00000000000E+00 -0.15510932720E+03  0.15510932720E+03  0.00000000000E+00 0.  1.
         25    2    1    2    0    0  0.87747159640E+02  0.22424904293E+01 -0.66686664325E+02  0.16673658734E+03  0.12509750425E+03 0.  0.
         23    2    1    2    0    0 -0.87747159640E+02 -0.22424904293E+01  0.66526361220E+02  0.14332176396E+03  0.91710296576E+02 0.  0.
          5    1    3    3  502    0  0.12307140079E+02 -0.48941276059E+02  0.47239586046E+01  0.50857667899E+02  0.41800000000E+01 0.  1.
         -5    1    3    3    0  502  0.75440019561E+02  0.51183766488E+02 -0.71410622930E+02  0.11587891944E+03  0.41800000000E+01 0.  1.
        -11    1    4    4    0    0 -0.66110958940E+02  0.16075836661E+02  0.85456387578E+02  0.10923317076E+03  0.00000000000E+00 0. -1.
         11    1    4    4    0    0 -0.21636200700E+02 -0.18318327090E+02 -0.18930026359E+02  0.34088593196E+02  0.00000000000E+00 0.  1.
</event>
<event>
 8    1  0.7130890E-009  0.9468302E+02  0.7561462E-02  0.1291892E+00
         -1   -1    0    0    0  501 -0.00000000000E+00  0.00000000000E+00  0.25523953672E+03  0.25523953672E+03  0.00000000000E+00 0.  1.
          1   -1    0    0  501    0  0.00000000000E+00 -0.00000000000E+00 -0.53859328064E+02  0.53859328064E+02  0.00000000000E+00 0. -1.
         25    2    1    2    0    0 -0.22558531247E+02 -0.32205524710E+02  0.14437189923E+03  0.19502843463E+03  0.12508701721E+03 0.  0.
         23    2    1    2    0    0  0.22558531247E+02  0.32205524710E+02  0.57008309433E+02  0.11407043016E+03  0.90642333036E+02 0.  0.
          5    1    3    3  502    0 -0.10413574140E+02  0.48189233948E+02  0.60218968122E+02  0.77938702303E+02  0.41800000000E+01 0. -1.
         -5    1    3    3    0  502 -0.12144957107E+02 -0.80394758658E+02  0.84152931105E+02  0.11708973233E+03  0.41800000000E+01 0. -1.
        -11    1    4    4    0    0  0.35650253257E+02  0.24853301742E+02  0.77388802318E+02  0.88756148458E+02  0.00000000000E+00 0.  1.
         11    1    4    4    0    0 -0.13091722010E+02  0.73522229675E+01 -0.20380492885E+02  0.25314281700E+02  0.00000000000E+00 0. -1.
</event>
<event>
 8    1  0.7130890E-009  0.8220518E+02  0.7561462E-02  0.1322907E+00
         -4   -1    0    0    0  501 -0.00000000000E+00  0.00000000000E+00  0.75589053655E+02  0.75589053655E+02  0.00000000000E+00 0.  1.
          4   -1    0    0  501    0  0.00000000000E+00 -0.00000000000E+00 -0.22790958090E+03  0.22790958090E+03  0.00000000000E+00 0. -1.
         25    2    1    2    0    0 -0.51719247028E+02  0.11100430629E+02 -0.14079391669E+03  0.19562279766E+03  0.12508897598E+03 0.  0.
         23    2    1    2    0    0  0.51719247028E+02 -0.11100430629E+02 -0.11526610554E+02  0.10787583690E+03  0.93307198882E+02 0.  0.
          5    1    3    3  502    0 -0.48161567350E+02  0.41308990924E+01  0.57072087673E+01  0.48853306222E+02  0.41800000000E+01 0. -1.
         -5    1    3    3    0  502 -0.35576796779E+01  0.69695315361E+01 -0.14650112546E+03  0.14676949143E+03  0.41800000000E+01 0. -1.
        -11    1    4    4    0    0 -0.26199425075E+02  0.68087238919E+01 -0.60540039039E+01  0.27738413051E+02  0.00000000000E+00 0. -1.
         11    1    4    4    0    0  0.77918672103E+02 -0.17909154520E+02 -0.54726066504E+01  0.80137423851E+02  0.00000000000E+00 0.  1.
</event>
<event>
 8    1  0.7130890E-009  0.1029005E+03  0.7561462E-02  0.1274312E+00
         -2   -1    0    0    0  501 -0.00000000000E+00  0.00000000000E+00  0.94513961852E+02  0.94513961852E+02  0.00000000000E+00 0.  1.
          2   -1    0    0  501    0  0.00000000000E+00 -0.00000000000E+00 -0.14725931572E+03  0.14725931572E+03  0.00000000000E+00 0. -1.
         25    2    1    2    0    0 -0.50602977549E+01  0.21459590998E+02  0.12082650373E+02  0.12759098176E+03  0.12508935817E+03 0.  0.
         23    2    1    2    0    0  0.50602977549E+01 -0.21459590998E+02 -0.64828004237E+02  0.11418229581E+03  0.91371800265E+02 0.  0.
          5    1    3    3  502    0 -0.58915320272E+02 -0.12699502243E+02  0.18940087581E+02  0.63312649902E+02  0.41800000000E+01 0.  1.
         -5    1    3    3    0  502  0.53855022517E+02  0.34159093241E+02 -0.68574372082E+01  0.64278331858E+02  0.41800000000E+01 0.  1.
        -11    1    4    4    0    0  0.41734501860E+02 -0.14248435867E+02 -0.62817651547E+02  0.76751833308E+02  0.00000000000E+00 0. -1.
         11    1    4    4    0    0 -0.36674204106E+02 -0.72111551318E+01 -0.20103526896E+01  0.37430462501E+02  0.00000000000E+00 0.  1.
</event>
<event>
 8    1  0.7130890E-009  0.1697076E+03  0.7561462E-02  0.1178153E+00
         -2   -1    0    0    0  501 -0.00000000000E+00  0.00000000000E+00  0.24854278607E+03  0.24854278607E+03  0.00000000000E+00 0.  1.
          2   -1    0    0  501    0  0.00000000000E+00 -0.00000000000E+00 -0.23925879226E+03  0.23925879226E+03  0.00000000000E+00 0. -1.
         25    2    1    2    0    0 -0.56668273507E+02  0.13660343231E+03  0.16501044750E+03  0.25445667765E+03  0.12509181458E+03 0.  0.
         23    2    1    2    0    0  0.56668273507E+02 -0.13660343231E+03 -0.15572645369E+03  0.23334490068E+03  0.91254168986E+02 0.  0.
          5    1    3    3  502    0  0.14201997107E+02  0.61039044865E+02  0.39805892210E+01  0.62934721819E+02  0.41800000000E+01 0.  1.
         -5    1    3    3    0  502 -0.70870270615E+02  0.75564387442E+02  0.16102985828E+03  0.19152195583E+03  0.41800000000E+01 0.  1.
        -11    1    4    4    0    0  0.48992308367E+02 -0.15225443320E+02 -0.57081963994E+02  0.76749013132E+02  0.00000000000E+00 0. -1.
         11    1    4    4    0    0  0.76759651404E+01 -0.12137798899E+03 -0.98644489693E+02  0.15659588755E+03  0.00000000000E+00 0.  1.
</event>
<event>
 8    1  0.7130890E-009  0.1730088E+03  0.7561462E-02  0.1174746E+00
         -2   -1    0    0    0  501 -0.00000000000E+00  0.00000000000E+00  0.65448330805E+02  0.65448330805E+02  0.00000000000E+00 0. -1.
          2   -1    0    0  501    0  0.00000000000E+00 -0.00000000000E+00 -0.48310811273E+03  0.48310811273E+03  0.00000000000E+00 0.  1.
         25    2    1    2    0    0 -0.10667873749E+03  0.84113322932E+02 -0.16291799593E+03  0.24626148401E+03  0.12508813285E+03 0.  0.
         23    2    1    2    0    0  0.10667873749E+03 -0.84113322932E+02 -0.25474178600E+03  0.30229495953E+03  0.89629576014E+02 0.  0.
          5    1    3    3  502    0  0.15223632853E+02  0.57385953502E+02 -0.46307805357E+02  0.75410820799E+02  0.41800000000E+01 0. -1.
         -5    1    3    3    0  502 -0.12190237035E+03  0.26727369429E+02 -0.11661019057E+03  0.17085066321E+03  0.41800000000E+01 0. -1.
        -11    1    4    4    0    0  0.76223344098E+02 -0.10121269453E+03 -0.21333341625E+03  0.24812326414E+03  0.00000000000E+00 0.  1.
         11    1    4    4    0    0  0.30455393397E+02  0.17099371601E+02 -0.41408369750E+02  0.54171695390E+02  0.00000000000E+00 0. -1.
</event>
<event>
 8    1  0.7130890E-009  0.1385510E+03  0.7561462E-02  0.1215292E+00
         -1   -1    0    0    0  501 -0.00000000000E+00  0.00000000000E+00  0.53108388217E+02  0.53108388217E+02  0.00000000000E+00 0.  1.
          1   -1    0    0  501    0  0.00000000000E+00 -0.00000000000E+00 -0.47453905735E+03  0.47453905735E+03  0.00000000000E+00 0. -1.
         25    2    1    2    0    0  0.41492794506E+02 -0.10522322849E+03 -0.18787378872E+03  0.25246174476E+03  0.12508713871E+03 0.  0.
         23    2    1    2    0    0 -0.41492794506E+02  0.10522322849E+03 -0.23355688041E+03  0.27518570080E+03  0.91568410114E+02 0.  0.
          5    1    3    3  502    0 -0.13904941236E+02 -0.10620884523E+03 -0.15315476588E+03  0.18694256045E+03  0.41800000000E+01 0.  1.
         -5    1    3    3    0  502  0.55397735742E+02  0.98561674180E+00 -0.34719022840E+02  0.65519184310E+02  0.41800000000E+01 0.  1.
        -11    1    4    4    0    0 -0.15048359892E+02  0.60874144129E+02 -0.38889864865E+02  0.73787100146E+02  0.00000000000E+00 0. -1.
         11    1    4    4    0    0 -0.26444434613E+02  0.44349084359E+02 -0.19466701554E+03  0.20139860066E+03  0.00000000000E+00 0.  1.
</event>
<event>
 8    1  0.7130890E-009  0.1377458E+03  0.7561462E-02  0.1216395E+00
          2   -1    0    0  501    0  0.00000000000E+00  0.00000000000E+00  0.44053137640E+03  0.44053137640E+03  0.00000000000E+00 0. -1.
         -2   -1    0    0    0  501 -0.00000000000E+00 -0.00000000000E+00 -0.62133730102E+02  0.62133730102E+02  0.00000000000E+00 0.  1.
         25    2    1    2    0    0 -0.61802290549E+02  0.86217119975E+02  0.30193968907E+03  0.34361045839E+03  0.12509059272E+03 0.  0.
         23    2    1    2    0    0  0.61802290549E+02 -0.86217119975E+02  0.76457957235E+02  0.15905464812E+03  0.90551902072E+02 0.  0.
          5    1    3    3  502    0 -0.32998982197E+02  0.10011677470E+03  0.12415639331E+03  0.16292508648E+03  0.41800000000E+01 0. -1.
         -5    1    3    3    0  502 -0.28803308352E+02 -0.13899654729E+02  0.17778329576E+03  0.18068537192E+03  0.41800000000E+01 0. -1.
        -11    1    4    4    0    0  0.84388205718E+02 -0.72932436829E+02  0.51444819808E+02  0.12282947159E+03  0.00000000000E+00 0.  1.
         11    1    4    4    0    0 -0.22585915169E+02 -0.13284683146E+02  0.25013137427E+02  0.36225176525E+02  0.00000000000E+00 0. -1.
</event>
<event>
 8    1  0.7130890E-009  0.1408610E+03  0.7561462E-02  0.1212175E+00
          1   -1    0    0  501    0  0.00000000000E+00  0.00000000000E+00  0.78456693736E+03  0.78456693736E+03  0.00000000000E+00 0. -1.
         -1   -1    0    0    0  501 -0.00000000000E+00 -0.00000000000E+00 -0.26035482956E+02  0.26035482956E+02  0.00000000000E+00 0.  1.
         25    2    1    2    0    0  0.29819865562E+02  0.84590139541E+02  0.35254724580E+03  0.38468376808E+03  0.12508926738E+03 0.  0.
         23    2    1    2    0    0 -0.29819865562E+02 -0.84590139541E+02  0.40598420861E+03  0.42591865224E+03  0.92405652401E+02 0.  0.
          5    1    3    3  502    0 -0.48741806343E+02  0.25473856679E+02  0.13944578120E+03  0.14995759185E+03  0.41800000000E+01 0. -1.
         -5    1    3    3    0  502  0.78561671906E+02  0.59116282862E+02  0.21310146460E+03  0.23472617623E+03  0.41800000000E+01 0. -1.
        -11    1    4    4    0    0 -0.47367673092E+02 -0.96122662469E+02  0.35365416584E+03  0.36953285607E+03  0.00000000000E+00 0. -1.
         11    1    4    4    0    0  0.17547807530E+02  0.11532522928E+02  0.52330042767E+02  0.56385796174E+02  0.00000000000E+00 0.  1.
</event>
<event>
 8    1  0.7130890E-009  0.1169487E+03  0.7561462E-02  0.1248217E+00
         -1   -1    0    0    0  501 -0.00000000000E+00  0.00000000000E+00  0.27919078648E+03  0.27919078648E+03  0.00000000000E+00 0.  1.
          1   -1    0    0  501    0  0.00000000000E+00 -0.00000000000E+00 -0.63924276691E+02  0.63924276691E+02  0.00000000000E+00 0. -1.
         25    2    1    2    0    0 -0.45737237106E+02  0.61206553688E+02  0.14615588835E+03  0.20699653068E+03  0.12509149828E+03 0.  0.
         23    2    1    2    0    0  0.45737237106E+02 -0.61206553688E+02  0.69110621434E+02  0.13611853249E+03  0.88959765172E+02 0.  0.
          5    1    3    3  502    0  0.27576180160E+02 -0.21122918519E+02  0.47528215561E+02  0.59017176088E+02  0.41800000000E+01 0.  1.
         -5    1    3    3    0  502 -0.73313417266E+02  0.82329472207E+02  0.98627672789E+02  0.14797935459E+03  0.41800000000E+01 0.  1.
        -11    1    4    4    0    0  0.54827687265E+02 -0.54380328056E+02  0.86112538394E+02  0.11566617759E+03  0.00000000000E+00 0.  1.
         11    1    4    4    0    0 -0.90904501597E+01 -0.68262256328E+01 -0.17001916959E+02  0.20452354896E+02  0.00000000000E+00 0. -1.
</event>
<event>
 8    1  0.7130890E-009  0.1282844E+03  0.7561462E-02  0.1230024E+00
          2   -1    0    0  501    0  0.00000000000E+00  0.00000000000E+00  0.36221604762E+03  0.36221604762E+03  0.00000000000E+00 0. -1.
         -2   -1    0    0    0  501 -0.00000000000E+00 -0.00000000000E+00 -0.61654067521E+02  0.61654067521E+02  0.00000000000E+00 0.  1.
         25    2    1    2    0    0 -0.17426489998E+02 -0.96915225034E+02  0.12237127092E+03  0.20080215754E+03  0.12510209881E+03 0.  0.
         23    2    1    2    0    0  0.17426489998E+02  0.96915225034E+02  0.17819070917E+03  0.22306795760E+03  0.91165462073E+02 0.  0.
          5    1    3    3  502    0  0.41035125864E+02 -0.71012265435E+02  0.10704092947E+03  0.13491425566E+03  0.41800000000E+01 0.  1.
         -5    1    3    3    0  502 -0.58461615862E+02 -0.25902959600E+02  0.15330341447E+02  0.65887901880E+02  0.41800000000E+01 0.  1.
        -11    1    4    4    0    0 -0.15049160668E+02  0.56768167283E+02  0.29612697058E+02  0.65772440129E+02  0.00000000000E+00 0.  1.
         11    1    4    4    0    0  0.32475650666E+02  0.40147057751E+02  0.14857801212E+03  0.15729551747E+03  0.00000000000E+00 0. -1.
</event>
<event>
 8    1  0.7130890E-009  0.1438107E+03  0.7561462E-02  0.1208291E+00
          1   -1    0    0  501    0  0.00000000000E+00  0.00000000000E+00  0.13162107399E+03  0.13162107399E+03  0.00000000000E+00 0. -1.
         -1   -1    0    0    0  501 -0.00000000000E+00 -0.00000000000E+00 -0.22987218701E+03  0.22987218701E+03  0.00000000000E+00 0.  1.
         25    2    1    2    0    0 -0.11951939303E+03  0.61206055290E+02 -0.29153645748E+02  0.18581940215E+03  0.12509136117E+03 0.  0.
         23    2    1    2    0    0  0.11951939303E+03 -0.61206055290E+02 -0.69097467270E+02  0.17567385885E+03  0.89753987028E+02 0.  0.
          5    1    3    3  502    0 -0.76082867613E+02  0.75646022548E+02  0.29454325628E+02  0.11133711497E+03  0.41800000000E+01 0.  1.
         -5    1    3    3    0  502 -0.43436525414E+02 -0.14439967258E+02 -0.58607971376E+02  0.74482287178E+02  0.41800000000E+01 0.  1.
        -11    1    4    4    0    0  0.91856789772E+02 -0.46390152158E+02 -0.91028322501E+02  0.13738948847E+03  0.00000000000E+00 0.  1.
         11    1    4    4    0    0  0.27662603254E+02 -0.14815903132E+02  0.21930855232E+02  0.38284370383E+02  0.00000000000E+00 0. -1.
</event>
<event>
 8    1  0.7130890E-009  0.1242367E+03  0.7561462E-02  0.1236267E+00
          1   -1    0    0  501    0  0.00000000000E+00  0.00000000000E+00  0.29946405182E+02  0.29946405182E+02  0.00000000000E+00 0. -1.
         -1   -1    0    0    0  501 -0.00000000000E+00 -0.00000000000E+00 -0.85979557631E+03  0.85979557631E+03  0.00000000000E+00 0.  1.
         25    2    1    2    0    0  0.60380503183E+02 -0.55029672985E+01 -0.72449180874E+03  0.73770715457E+03  0.12508947658E+03 0.  0.
         23    2    1    2    0    0 -0.60380503183E+02  0.55029672985E+01 -0.10535736238E+03  0.15203482692E+03  0.91314440125E+02 0.  0.
          5    1    3    3  502    0 -0.12412150640E+02  0.47186276637E+02 -0.26752226125E+03  0.27196734887E+03  0.41800000000E+01 0.  1.
         -5    1    3    3    0  502  0.72792653823E+02 -0.52689243936E+02 -0.45696954749E+03  0.46573980570E+03  0.41800000000E+01 0.  1.
        -11    1    4    4    0    0 -0.73197813297E+02 -0.24281638302E+02 -0.76531559465E+02  0.10864896421E+03  0.00000000000E+00 0.  1.
         11    1    4    4    0    0  0.12817310114E+02  0.29784605601E+02 -0.28825802919E+02  0.43385862712E+02  0.00000000000E+00 0. -1.
</event>
<event>
 8    1  0.7130890E-009  0.2253259E+03  0.7561462E-02  0.1129974E+00
          2   -1    0    0  501    0  0.00000000000E+00  0.00000000000E+00  0.11043219048E+04  0.11043219048E+04  0.00000000000E+00 0. -1.
         -2   -1    0    0    0  501 -0.00000000000E+00 -0.00000000000E+00 -0.82552719033E+02  0.82552719033E+02  0.00000000000E+00 0.  1.
         25    2    1    2    0    0 -0.10751895622E+03 -0.18033424539E+03  0.15256631865E+03  0.28810539544E+03  0.12508985286E+03 0.  0.
         23    2    1    2    0    0  0.10751895622E+03  0.18033424539E+03  0.86920286710E+03  0.89876922838E+03  0.90508207871E+02 0.  0.
          5    1    3    3  502    0 -0.33191695647E+02 -0.72983901379E+01  0.78598125401E+02  0.85732682654E+02  0.41800000000E+01 0. -1.
         -5    1    3    3    0  502 -0.74327260571E+02 -0.17303585526E+03  0.73968193251E+02  0.20237271279E+03  0.41800000000E+01 0. -1.
        -11    1    4    4    0    0  0.38721911250E+02  0.42022210809E+01  0.17429450702E+03  0.17859344963E+03  0.00000000000E+00 0.  1.
         11    1    4    4    0    0  0.68797044968E+02  0.17613202431E+03  0.69490836008E+03  0.72017577875E+03  0.00000000000E+00 0. -1.
</event>
<event>
 8    1  0.7130890E-009  0.1525668E+03  0.7561462E-02  0.1197354E+00
         -1   -1    0    0    0  501 -0.00000000000E+00  0.00000000000E+00  0.82481924909E+02  0.82481924909E+02  0.00000000000E+00 0.  1.
          1   -1    0    0  501    0  0.00000000000E+00 -0.00000000000E+00 -0.33894803003E+03  0.33894803003E+03  0.00000000000E+00 0. -1.
         25    2    1    2    0    0 -0.12018539980E+03 -0.33089047536E+02 -0.14367798217E+03  0.22766431541E+03  0.12509301563E+03 0.  0.
         23    2    1    2    0    0  0.12018539980E+03  0.33089047536E+02 -0.11278812294E+03  0.19376563953E+03  0.96356354188E+02 0.  0.
          5    1    3    3  502    0  0.87645337980E+01  0.21070543742E+02  0.47480180874E+01  0.23681236075E+02  0.41800000000E+01 0.  1.
         -5    1    3    3    0  502 -0.12894993360E+03 -0.54159591278E+02 -0.14842600026E+03  0.20398307933E+03  0.41800000000E+01 0.  1.
        -11    1    4    4    0    0  0.85171593251E+02 -0.10811800825E+02 -0.24763632858E+02  0.89355094126E+02  0.00000000000E+00 0.  1.
         11    1    4    4    0    0  0.35013806546E+02  0.43900848361E+02 -0.88024490086E+02  0.10441054540E+03  0.00000000000E+00 0. -1.
</event>
<event>
 8    1  0.7130890E-009  0.1169913E+03  0.7561462E-02  0.1248145E+00
          1   -1    0    0  501    0  0.00000000000E+00  0.00000000000E+00  0.31285182521E+03  0.31285182521E+03  0.00000000000E+00 0. -1.
         -1   -1    0    0    0  501 -0.00000000000E+00 -0.00000000000E+00 -0.76975149972E+02  0.76975149972E+02  0.00000000000E+00 0.  1.
         25    2    1    2    0    0  0.62144874980E+00  0.93452478958E+02  0.53313585493E+02  0.16499454166E+03  0.12508840217E+03 0.  0.
         23    2    1    2    0    0 -0.62144874980E+00 -0.93452478958E+02  0.18256308975E+03  0.22483243352E+03  0.92122686697E+02 0.  0.
          5    1    3    3  502    0  0.91220043610E+01  0.11575569852E+03  0.69932167589E+02  0.13561184744E+03  0.41800000000E+01 0. -1.
         -5    1    3    3    0  502 -0.85005556112E+01 -0.22303219562E+02 -0.16618582095E+02  0.29382694216E+02  0.41800000000E+01 0. -1.
        -11    1    4    4    0    0  0.17425824111E+01 -0.60028791774E+02  0.27252355188E+02  0.65948338103E+02  0.00000000000E+00 0.  1.
         11    1    4    4    0    0 -0.23640311609E+01 -0.33423687185E+02  0.15531073456E+03  0.15888409542E+03  0.00000000000E+00 0. -1.
</event>
<event>
 8    1  0.7130890E-009  0.1611427E+03  0.7561462E-02  0.1187413E+00
          3   -1    0    0  501    0  0.00000000000E+00  0.00000000000E+00  0.47161856701E+03  0.47161856701E+03  0.00000000000E+00 0. -1.
         -3   -1    0    0    0  501 -0.00000000000E+00 -0.00000000000E+00 -0.65687400259E+02  0.65687400259E+02  0.00000000000E+00 0.  1.
         25    2    1    2    0    0 -0.11076274928E+03 -0.82285445427E+02  0.22983830746E+03  0.29582912723E+03  0.12509973535E+03 0.  0.
         23    2    1    2    0    0  0.11076274928E+03  0.82285445427E+02  0.17609285930E+03  0.24147684004E+03  0.90901529264E+02 0.  0.
          5    1    3    3  502    0 -0.11396828520E+03 -0.18574637681E+02  0.10762857525E+03  0.15790873886E+03  0.41800000000E+01 0. -1.
         -5    1    3    3    0  502  0.32055359151E+01 -0.63710807745E+02  0.12220973220E+03  0.13792038837E+03  0.41800000000E+01 0. -1.
        -11    1    4    4    0    0  0.39546483885E+02  0.88726315078E+01  0.11593905142E+03  0.12281901979E+03  0.00000000000E+00 0. -1.
         11    1    4    4    0    0  0.71216265398E+02  0.73412813919E+02  0.60153807876E+02  0.11865782025E+03  0.00000000000E+00 0.  1.
</event>
<event>
 8    1  0.7130890E-009  0.9439133E+02  0.7561462E-02  0.1292553E+00
         -3   -1    0    0    0  501 -0.00000000000E+00  0.00000000000E+00  0.29034698316E+03  0.29034698316E+03  0.00000000000E+00 0.  1.
          3   -1    0    0  501    0  0.00000000000E+00 -0.00000000000E+00 -0.58053401417E+02  0.58053401417E+02  0.00000000000E+00 0. -1.
         25    2    1    2    0    0 -0.47515333106E+02  0.38449688273E+02  0.17352307372E+03  0.22247178935E+03  0.12508938618E+03 0.  0.
         23    2    1    2    0    0  0.47515333106E+02 -0.38449688273E+02  0.58770508019E+02  0.12592859522E+03  0.93101842481E+02 0.  0.
          5    1    3    3  502    0 -0.63939449974E+02  0.67306271283E+02  0.78230437633E+02  0.12147370575E+03  0.41800000000E+01 0.  1.
         -5    1    3    3    0  502  0.16424116869E+02 -0.28856583010E+02  0.95292636089E+02  0.10099808360E+03  0.41800000000E+01 0.  1.
        -11    1    4    4    0    0  0.16617753302E+02 -0.21413079171E+02  0.80193909637E+02  0.84650651665E+02  0.00000000000E+00 0.  1.
         11    1    4    4    0    0  0.30897579804E+02 -0.17036609102E+02 -0.21423401618E+02  0.41277943557E+02  0.00000000000E+00 0. -1.
</event>
<event>
 8    1  0.7130890E-009  0.2146027E+03  0.7561462E-02  0.1137972E+00
          2   -1    0    0  501    0  0.00000000000E+00  0.00000000000E+00  0.10875679760E+03  0.10875679760E+03  0.00000000000E+00 0.  1.
         -2   -1    0    0    0  501 -0.00000000000E+00 -0.00000000000E+00 -0.58445516033E+03  0.58445516033E+03  0.00000000000E+00 0. -1.
         25    2    1    2    0    0  0.17182035353E+03 -0.93060188843E+02 -0.40715940075E+03  0.46862510676E+03  0.12509308707E+03 0.  0.
         23    2    1    2    0    0 -0.17182035353E+03  0.93060188843E+02 -0.68538961984E+02  0.22458685117E+03  0.86943842653E+02 0.  0.
          5    1    3    3  502    0  0.92667880214E+01 -0.64401765904E+02 -0.14212051522E+03  0.15636231662E+03  0.41800000000E+01 0. -1.
         -5    1    3    3    0  502  0.16255356551E+03 -0.28658422939E+02 -0.26503888553E+03  0.31226279014E+03  0.41800000000E+01 0. -1.
        -11    1    4    4    0    0 -0.12513837035E+03  0.85609899158E+02 -0.85857335457E+02  0.17424163859E+03  0.00000000000E+00 0.  1.
         11    1    4    4    0    0 -0.46681983178E+02  0.74502896851E+01  0.17318373473E+02  0.50345212579E+02  0.00000000000E+00 0. -1.
</event>
<event>
 8    1  0.7130890E-009  0.2128842E+03  0.7561462E-02  0.1139302E+00
         -2   -1    0    0    0  501 -0.00000000000E+00  0.00000000000E+00  0.80336801315E+02  0.80336801315E+02  0.00000000000E+00 0.  1.
          2   -1    0    0  501    0  0.00000000000E+00 -0.00000000000E+00 -0.63846192205E+03  0.63846192205E+03  0.00000000000E+00 0. -1.
         25    2    1    2    0    0 -0.19762996920E+03 -0.21198433069E+02 -0.27633546702E+03  0.36265261441E+03  0.12509456470E+03 0.  0.
         23    2    1    2    0    0  0.19762996920E+03  0.21198433069E+02 -0.28178965372E+03  0.35614610895E+03  0.89037428573E+02 0.  0.
          5    1    3    3  502    0 -0.13842478181E+03 -0.57003493977E+02 -0.12093240938E+03  0.19249139873E+03  0.41800000000E+01 0. -1.
         -5    1    3    3    0  502 -0.59205187388E+02  0.35805060908E+02 -0.15540305764E+03  0.17016121569E+03  0.41800000000E+01 0. -1.
        -11    1    4    4    0    0  0.73227042148E+02 -0.19537996860E+02 -0.52753385433E+02  0.92340958939E+02  0.00000000000E+00 0.  1.
         11    1    4    4    0    0  0.12440292705E+03  0.40736429930E+02 -0.22903626828E+03  0.26380515001E+03  0.00000000000E+00 0. -1.
</event>
<event>
 8    1  0.7130890E-009  0.1557513E+03  0.7561462E-02  0.1193579E+00
         -1   -1    0    0    0  501 -0.00000000000E+00  0.00000000000E+00  0.40807119156E+02  0.40807119156E+02  0.00000000000E+00 0.  1.
          1   -1    0    0  501    0  0.00000000000E+00 -0.00000000000E+00 -0.71755308211E+03  0.71755308211E+03  0.00000000000E+00 0. -1.
         25    2    1    2    0    0 -0.12075380825E+02 -0.12905993303E+03 -0.30490199772E+03  0.35414013136E+03  0.12509086013E+03 0.  0.
         23    2    1    2    0    0  0.12075380825E+02  0.12905993303E+03 -0.37184396524E+03  0.40422006991E+03  0.91234035866E+02 0.  0.
          5    1    3    3  502    0  0.45448422959E+02 -0.45766925873E+02 -0.56410429180E+02  0.85789157669E+02  0.41800000000E+01 0.  1.
         -5    1    3    3    0  502 -0.57523803784E+02 -0.83293007160E+02 -0.24849156854E+03  0.26835097369E+03  0.41800000000E+01 0.  1.
        -11    1    4    4    0    0  0.32399091081E+02  0.29094790685E+02 -0.19733853975E+03  0.20208589069E+03  0.00000000000E+00 0. -1.
         11    1    4    4    0    0 -0.20323710256E+02  0.99965142347E+02 -0.17450542549E+03  0.20213417922E+03  0.00000000000E+00 0.  1.
</event>
<event>
 8    1  0.7130890E-009  0.1067533E+03  0.7561462E-02  0.1266703E+00
         -4   -1    0    0    0  501 -0.00000000000E+00  0.00000000000E+00  0.17370274473E+02  0.17370274473E+02  0.00000000000E+00 0.  1.
          4   -1    0    0  501    0  0.00000000000E+00 -0.00000000000E+00 -0.80562148263E+03  0.80562148263E+03  0.00000000000E+00 0. -1.
         25    2    1    2    0    0 -0.29724681485E+02 -0.32307227958E+02 -0.50067856300E+03  0.51793217430E+03  0.12508956815E+03 0.  0.
         23    2    1    2    0    0  0.29724681485E+02  0.32307227958E+02 -0.28757264516E+03  0.30505958280E+03  0.91847749829E+02 0.  0.
          5    1    3    3  502    0 -0.59715196277E+02  0.27235829145E+02 -0.25022956557E+03  0.25872766173E+03  0.41800000000E+01 0. -1.
         -5    1    3    3    0  502  0.29990514793E+02 -0.59543057103E+02 -0.25044899743E+03  0.25920451258E+03  0.41800000000E+01 0. -1.
        -11    1    4    4    0    0 -0.87497439259E+01  0.40642222034E+02 -0.53777627088E+02  0.67973387482E+02  0.00000000000E+00 0.  1.
         11    1    4    4    0    0  0.38474425411E+02 -0.83349940753E+01 -0.23379501807E+03  0.23708619532E+03  0.00000000000E+00 0. -1.
</event>
<event>
 8    1  0.7130890E-009  0.8881538E+02  0.7561462E-02  0.1305746E+00
          1   -1    0    0  501    0  0.00000000000E+00  0.00000000000E+00  0.71957636005E+02  0.71957636005E+02  0.00000000000E+00 0. -1.
         -1   -1    0    0    0  501 -0.00000000000E+00 -0.00000000000E+00 -0.17525850699E+03  0.17525850699E+03  0.00000000000E+00 0.  1.
         25    2    1    2    0    0 -0.25917768531E+02  0.54722822701E+01 -0.71158999052E+02  0.14632900930E+03  0.12508756620E+03 0.  0.
         23    2    1    2    0    0  0.25917768531E+02 -0.54722822701E+01 -0.32141871932E+02  0.10088713369E+03  0.91888177771E+02 0.  0.
          5    1    3    3  502    0  0.20530600768E+02 -0.23206736707E+02 -0.84397473998E+02  0.90002578928E+02  0.41800000000E+01 0. -1.
         -5    1    3    3    0  502 -0.46448369298E+02  0.28679018977E+02  0.13238474946E+02  0.56326430376E+02  0.41800000000E+01 0. -1.
        -11    1    4    4    0    0  0.36247476234E+02  0.34674818125E+02 -0.30726243994E+01  0.50255980401E+02  0.00000000000E+00 0. -1.
         11    1    4    4    0    0 -0.10329707704E+02 -0.40147100395E+02 -0.29069247532E+02  0.50631153290E+02  0.00000000000E+00 0.  1.
</event>
<event>
 8    1  0.7130890E-009  0.9056616E+02  0.7561462E-02  0.1301486E+00
          2   -1    0    0  501    0  0.00000000000E+00  0.00000000000E+00  0.79163196507E+02  0.79163196507E+02  0.00000000000E+00 0. -1.
         -2   -1    0    0    0  501 -0.00000000000E+00 -0.00000000000E+00 -0.19062965371E+03  0.19062965371E+03  0.00000000000E+00 0.  1.
         25    2    1    2    0    0  0.46056132569E+02 -0.27189140701E+02 -0.53492343074E+02  0.14618168924E+03  0.12508892350E+03 0.  0.
         23    2    1    2    0    0 -0.46056132569E+02  0.27189140701E+02 -0.57974114127E+02  0.12361116097E+03  0.95175125368E+02 0.  0.
          5    1    3    3  502    0 -0.17084116647E+02 -0.11652929493E+02  0.32221088705E+02  0.38514007383E+02  0.41800000000E+01 0.  1.
         -5    1    3    3    0  502  0.63140249216E+02 -0.15536211208E+02 -0.85713431779E+02  0.10766768186E+03  0.41800000000E+01 0.  1.
        -11    1    4    4    0    0  0.32290571479E+01 -0.23766943258E+02 -0.45774689426E+02  0.51678008804E+02  0.00000000000E+00 0.  1.
         11    1    4    4    0    0 -0.49285189717E+02  0.50956083959E+02 -0.12199424701E+02  0.71933152169E+02  0.00000000000E+00 0. -1.
</event>
<event>
 8    1  0.7130890E-009  0.1119019E+03  0.7561462E-02  0.1257088E+00
          4   -1    0    0  501    0  0.00000000000E+00  0.00000000000E+00  0.61766798425E+02  0.61766798425E+02  0.00000000000E+00 0.  1.
         -4   -1    0    0    0  501 -0.00000000000E+00 -0.00000000000E+00 -0.32240565003E+03  0.32240565003E+03  0.00000000000E+00 0. -1.
         25    2    1    2    0    0  0.89624163081E+01  0.35751006815E+02 -0.25621254150E+03  0.28748817126E+03  0.12508446264E+03 0.  0.
         23    2    1    2    0    0 -0.89624163081E+01 -0.35751006815E+02 -0.44263101014E+01  0.96684277197E+02  0.89273724251E+02 0.  0.
          5    1    3    3  502    0  0.61069729702E+02 -0.69992668980E+01 -0.14226745175E+03  0.15503548578E+03  0.41800000000E+01 0. -1.
         -5    1    3    3    0  502 -0.52107313394E+02  0.42750273713E+02 -0.11394508975E+03  0.13245268548E+03  0.41800000000E+01 0. -1.
        -11    1    4    4    0    0 -0.16934801439E+02 -0.63537292714E+02  0.58252371584E+01  0.66012941558E+02  0.00000000000E+00 0. -1.
         11    1    4    4    0    0  0.79723851313E+01  0.27786285898E+02 -0.10251547260E+02  0.30671335640E+02  0.00000000000E+00 0.  1.
</event>
<event>
 8    1  0.7130890E-009  0.7874659E+02  0.7561462E-02  0.1332647E+00
         -1   -1    0    0    0  501 -0.00000000000E+00  0.00000000000E+00  0.19265784689E+03  0.19265784689E+03  0.00000000000E+00 0.  1.
          1   -1    0    0  501    0  0.00000000000E+00 -0.00000000000E+00 -0.17437479110E+03  0.17437479110E+03  0.00000000000E+00 0. -1.
         25    2    1    2    0    0 -0.19798349627E+02 -0.46691099776E+02  0.14857189313E+03  0.20073280202E+03  0.12509203385E+03 0.  0.
         23    2    1    2    0    0  0.19798349627E+02  0.46691099776E+02 -0.13028883735E+03  0.16629983597E+03  0.90046770404E+02 0.  0.
          5    1    3    3  502    0  0.28736786614E+02  0.77962438199E+01 -0.51635522453E+01  0.30507687464E+02  0.41800000000E+01 0. -1.
         -5    1    3    3    0  502 -0.48535136241E+02 -0.54487343596E+02  0.15373544538E+03  0.17022511456E+03  0.41800000000E+01 0. -1.
        -11    1    4    4    0    0 -0.37276664445E+01  0.10772869392E+02  0.12663398080E+02  0.17038540519E+02  0.00000000000E+00 0.  1.
         11    1    4    4    0    0  0.23526016072E+02  0.35918230384E+02 -0.14295223543E+03  0.14926129545E+03  0.00000000000E+00 0. -1.
</event>
<event>
 8    1  0.7130890E-009  0.1133536E+03  0.7561462E-02  0.1254483E+00
          2   -1    0    0  501    0  0.00000000000E+00  0.00000000000E+00  0.19719928658E+03  0.19719928658E+03  0.00000000000E+00 0. -1.
         -2   -1    0    0    0  501 -0.00000000000E+00 -0.00000000000E+00 -0.99122517925E+02  0.99122517925E+02  0.00000000000E+00 0.  1.
         25    2    1    2    0    0 -0.47850355467E+02  0.46795887093E+02 -0.56587897278E+01  0.14198045388E+03  0.12508763254E+03 0.  0.
         23    2    1    2    0    0  0.47850355467E+02 -0.46795887093E+02  0.10373555838E+03  0.15434135062E+03  0.92631932252E+02 0.  0.
          5    1    3    3  502    0  0.24808668620E+02  0.40945259121E+02 -0.38830922030E+02  0.61784279464E+02  0.41800000000E+01 0.  1.
         -5    1    3    3    0  502 -0.72659024088E+02  0.58506279717E+01  0.33172132302E+02  0.80196174413E+02  0.41800000000E+01 0.  1.
        -11    1    4    4    0    0  0.70807439898E+02 -0.28692010400E+02  0.44835151250E+02  0.88583947718E+02  0.00000000000E+00 0.  1.
         11    1    4    4    0    0 -0.22957084431E+02 -0.18103876692E+02  0.58900407129E+02  0.65757402905E+02  0.00000000000E+00 0. -1.
</event>
<event>
 8    1  0.7130890E-009  0.7749075E+02  0.7561462E-02  0.1336327E+00
         -1   -1    0    0    0  501 -0.00000000000E+00  0.00000000000E+00  0.26360799858E+02  0.26360799858E+02  0.00000000000E+00 0.  1.
          1   -1    0    0  501    0  0.00000000000E+00 -0.00000000000E+00 -0.45055507443E+03  0.45055507443E+03  0.00000000000E+00 0. -1.
         25    2    1    2    0    0  0.85606635675E+01  0.26052423966E+01 -0.26836579250E+03  0.29622402627E+03  0.12509357658E+03 0.  0.
         23    2    1    2    0    0 -0.85606635675E+01 -0.26052423966E+01 -0.15582848207E+03  0.18069184802E+03  0.91032718675E+02 0.  0.
          5    1    3    3  502    0  0.62239974182E+00 -0.42566227173E+02 -0.23621788034E+03  0.24005963940E+03  0.41800000000E+01 0. -1.
         -5    1    3    3    0  502  0.79382638257E+01  0.45171469569E+02 -0.32147912168E+02  0.56164386869E+02  0.41800000000E+01 0. -1.
        -11    1    4    4    0    0 -0.35755433793E+02  0.85417608749E+01 -0.20261410309E+02  0.41975438917E+02  0.00000000000E+00 0.  1.
         11    1    4    4    0    0  0.27194770226E+02 -0.11147003272E+02 -0.13556707176E+03  0.13871640910E+03  0.00000000000E+00 0. -1.
</event>
<event>
 8    1  0.7130890E-009  0.8059694E+02  0.7561462E-02  0.1327366E+00
         -2   -1    0    0    0  501 -0.00000000000E+00  0.00000000000E+00  0.41240786625E+02  0.41240786625E+02  0.00000000000E+00 0. -1.
          2   -1    0    0  501    0  0.00000000000E+00 -0.00000000000E+00 -0.33108689173E+03  0.33108689173E+03  0.00000000000E+00 0.  1.
         25    2    1    2    0    0 -0.37664478510E+02 -0.18064938371E+02 -0.14053188929E+03  0.19272231503E+03  0.12509086243E+03 0.  0.
         23    2    1    2    0    0  0.37664478510E+02  0.18064938371E+02 -0.14931421581E+03  0.17960536333E+03  0.90655372435E+02 0.  0.
          5    1    3    3  502    0 -0.43122734131E+02 -0.46006750784E+02 -0.16386042152E+02  0.65285267052E+02  0.41800000000E+01 0.  1.
         -5    1    3    3    0  502  0.54582556213E+01  0.27941812413E+02 -0.12414584714E+03  0.12743704798E+03  0.41800000000E+01 0.  1.
        -11    1    4    4    0    0 -0.73208107691E+01 -0.12745542712E+02  0.53264305920E+01  0.15633745303E+02  0.00000000000E+00 0. -1.
         11    1    4    4    0    0  0.44985289279E+02  0.30810481083E+02 -0.15464064641E+03  0.16397161802E+03  0.00000000000E+00 0.  1.
</event>
<event>
 8    1  0.7130890E-009  0.5000908E+02  0.7561462E-02  0.1445293E+00
         -2   -1    0    0    0  501 -0.00000000000E+00  0.00000000000E+00  0.16002168945E+03  0.16002168945E+03  0.00000000000E+00 0.  1.
          2   -1    0    0  501    0  0.00000000000E+00 -0.00000000000E+00 -0.15025388498E+03  0.15025388498E+03  0.00000000000E+00 0. -1.
         25    2    1    2    0    0 -0.21275295596E+02  0.13025754801E+02 -0.10124244936E+03  0.16285025918E+03  0.12509142606E+03 0.  0.
         23    2    1    2    0    0  0.21275295596E+02 -0.13025754801E+02  0.11101025384E+03  0.14742531524E+03  0.93747739316E+02 0.  0.
          5    1    3    3  502    0 -0.83968116615E+01  0.12041024081E+02  0.28537155790E+02  0.32362545752E+02  0.41800000000E+01 0.  1.
         -5    1    3    3    0  502 -0.12878483935E+02  0.98473072007E+00 -0.12977960515E+03  0.13048771343E+03  0.41800000000E+01 0.  1.
        -11    1    4    4    0    0 -0.23077327627E+02  0.44599596446E+01  0.93861836652E+02  0.96760005529E+02  0.00000000000E+00 0.  1.
         11    1    4    4    0    0  0.44352623223E+02 -0.17485714445E+02  0.17148417186E+02  0.50665309714E+02  0.00000000000E+00 0. -1.
</event>
<event>
 8    1  0.7130890E-009  0.9493961E+02  0.7561462E-02  0.1291312E+00
          1   -1    0    0  501    0  0.00000000000E+00  0.00000000000E+00  0.70501686919E+02  0.70501686919E+02  0.00000000000E+00 0. -1.
         -1   -1    0    0    0  501 -0.00000000000E+00 -0.00000000000E+00 -0.24604316143E+03  0.24604316143E+03  0.00000000000E+00 0.  1.
         25    2    1    2    0    0 -0.36634713399E+02 -0.63417280721E+02 -0.72076618007E+02  0.16188285782E+03  0.12508863686E+03 0.  0.
         23    2    1    2    0    0  0.36634713399E+02  0.63417280721E+02 -0.10346485650E+03  0.15466199053E+03  0.88608696319E+02 0.  0.
          5    1    3    3  502    0 -0.20351425722E+02 -0.20708344581E+02 -0.10263338637E+03  0.10674315183E+03  0.41800000000E+01 0. -1.
         -5    1    3    3    0  502 -0.16283287677E+02 -0.42708936140E+02  0.30556768365E+02  0.55139705990E+02  0.41800000000E+01 0. -1.
        -11    1    4    4    0    0 -0.24687656793E+02  0.43772532961E+02 -0.51032458682E+02  0.71622809766E+02  0.00000000000E+00 0. -1.
         11    1    4    4    0    0  0.61322370191E+02  0.19644747760E+02 -0.52432397822E+02  0.83039180763E+02  0.00000000000E+00 0.  1.
</event>
<event>
 8    1  0.7130890E-009  0.6025423E+02  0.7561462E-02  0.1396768E+00
          2   -1    0    0  501    0  0.00000000000E+00  0.00000000000E+00  0.18500245242E+03  0.18500245242E+03  0.00000000000E+00 0. -1.
         -2   -1    0    0    0  501 -0.00000000000E+00 -0.00000000000E+00 -0.65188582370E+02  0.65188582370E+02  0.00000000000E+00 0.  1.
         25    2    1    2    0    0 -0.72349983967E+01  0.27875180098E+02  0.59902695663E+02  0.14165053090E+03  0.12508864493E+03 0.  0.
         23    2    1    2    0    0  0.72349983967E+01 -0.27875180098E+02  0.59911174385E+02  0.10854050389E+03  0.85803970190E+02 0.  0.
          5    1    3    3  502    0  0.73317048285E+01  0.41769711501E+01 -0.38329949971E+02  0.39469715586E+02  0.41800000000E+01 0. -1.
         -5    1    3    3    0  502 -0.14566703225E+02  0.23698208948E+02  0.98232645634E+02  0.10218081532E+03  0.41800000000E+01 0. -1.
        -11    1    4    4    0    0  0.35918208424E+02  0.82313890115E+01  0.55653524619E+01  0.37267232383E+02  0.00000000000E+00 0.  1.
         11    1    4    4    0    0 -0.28683210027E+02 -0.36106569109E+02  0.54345821923E+02  0.71273271503E+02  0.00000000000E+00 0. -1.
</event>
<event>
 8    1  0.7130890E-009  0.1919083E+03  0.7561462E-02  0.1156751E+00
          2   -1    0    0  501    0  0.00000000000E+00  0.00000000000E+00  0.11786112503E+04  0.11786112503E+04  0.00000000000E+00 0. -1.
         -2   -1    0    0    0  501 -0.00000000000E+00 -0.00000000000E+00 -0.42968873555E+02  0.42968873555E+02  0.00000000000E+00 0.  1.
         25    2    1    2    0    0  0.18733811366E+03  0.27913899649E+01  0.42235383348E+03  0.47867910850E+03  0.12509023772E+03 0.  0.
         23    2    1    2    0    0 -0.18733811366E+03 -0.27913899649E+01  0.71328854324E+03  0.74290101533E+03  0.89543352447E+02 0.  0.
          5    1    3    3  502    0  0.23636169350E+02  0.18783806424E+02  0.19869750701E+03  0.20102156993E+03  0.41800000000E+01 0. -1.
         -5    1    3    3    0  502  0.16370194431E+03 -0.15992416459E+02  0.22365632647E+03  0.27765753857E+03  0.41800000000E+01 0. -1.
        -11    1    4    4    0    0 -0.10283745412E+03  0.10070004958E+02  0.23044797838E+03  0.25255339576E+03  0.00000000000E+00 0.  1.
         11    1    4    4    0    0 -0.84500659547E+02 -0.12861394923E+02  0.48284056486E+03  0.49034761957E+03  0.00000000000E+00 0. -1.
</event>
<event>
 8    1  0.7130890E-009  0.1129689E+03  0.7561462E-02  0.1255169E+00
          2   -1    0    0  501    0  0.00000000000E+00  0.00000000000E+00  0.98016313348E+03  0.98016313348E+03  0.00000000000E+00 0. -1.
         -2   -1    0    0    0  501 -0.00000000000E+00 -0.00000000000E+00 -0.14570895944E+02  0.14570895944E+02  0.00000000000E+00 0.  1.
         25    2    1    2    0    0  0.44314701063E+02  0.14511123430E+02  0.62014859683E+03  0.63435515888E+03  0.12509124677E+03 0.  0.
         23    2    1    2    0    0 -0.44314701063E+02 -0.14511123430E+02  0.34544364071E+03  0.36037887055E+03  0.91472706287E+02 0.  0.
          5    1    3    3  502    0  0.70742455678E+02 -0.26783236660E+02  0.47717499853E+03  0.48315141356E+03  0.41800000000E+01 0. -1.
         -5    1    3    3    0  502 -0.26427754615E+02  0.41294360090E+02  0.14297359830E+03  0.15120374532E+03  0.41800000000E+01 0. -1.
        -11    1    4    4    0    0 -0.57321066996E+02  0.22626652551E+02  0.17772104301E+03  0.18810220428E+03  0.00000000000E+00 0.  1.
         11    1    4    4    0    0  0.13006365933E+02 -0.37137775982E+02  0.16772259771E+03  0.17227666627E+03  0.00000000000E+00 0. -1.
</event>
<event>
 8    1  0.7130890E-009  0.1159857E+03  0.7561462E-02  0.1249870E+00
          2   -1    0    0  501    0  0.00000000000E+00  0.00000000000E+00  0.28764086659E+03  0.28764086659E+03  0.00000000000E+00 0. -1.
         -2   -1    0    0    0  501 -0.00000000000E+00 -0.00000000000E+00 -0.11728588685E+03  0.11728588685E+03  0.00000000000E+00 0.  1.
         25    2    1    2    0    0  0.63167553848E+02 -0.86117255301E+02 -0.22788507674E+02  0.16605404751E+03  0.12509320163E+03 0.  0.
         23    2    1    2    0    0 -0.63167553848E+02  0.86117255301E+02  0.19314348741E+03  0.23887270593E+03  0.91375277771E+02 0.  0.
          5    1    3    3  502    0  0.60121745308E+02 -0.79761146749E+02  0.36332959692E+02  0.10636738762E+03  0.41800000000E+01 0.  1.
         -5    1    3    3    0  502  0.30458085400E+01 -0.63561085523E+01 -0.59121467366E+02  0.59686659892E+02  0.41800000000E+01 0.  1.
        -11    1    4    4    0    0 -0.37082279738E+02  0.90088045429E+02  0.18835223944E+03  0.21205545855E+03  0.00000000000E+00 0. -1.
         11    1    4    4    0    0 -0.26085274110E+02 -0.39707901278E+01  0.47912479712E+01  0.26817247374E+02  0.00000000000E+00 0.  1.
</event>
<event>
 8    1  0.7130890E-009  0.1337157E+03  0.7561462E-02  0.1222044E+00
          1   -1    0    0  501    0  0.00000000000E+00  0.00000000000E+00  0.98266394730E+03  0.98266394730E+03  0.00000000000E+00 0. -1.
         -1   -1    0    0    0  501 -0.00000000000E+00 -0.00000000000E+00 -0.18997504745E+02  0.18997504745E+02  0.00000000000E+00 0.  1.
         25    2    1    2    0    0 -0.63470379373E+02  0.53318613336E+02  0.55273540506E+03  0.57274325239E+03  0.12508813521E+03 0.  0.
         23    2    1    2    0    0  0.63470379373E+02 -0.53318613336E+02  0.41093103749E+03  0.42891819965E+03  0.90747676711E+02 0.  0.
          5    1    3    3  502    0  0.33657969618E+02  0.16271961274E+00  0.74770916793E+02  0.82103884162E+02  0.41800000000E+01 0.  1.
         -5    1    3    3    0  502 -0.97128348990E+02  0.53155893723E+02  0.47796448827E+03  0.49063936823E+03  0.41800000000E+01 0.  1.
        -11    1    4    4    0    0  0.38283490445E+02  0.21403385055E+02  0.15865024865E+03  0.16460143356E+03  0.00000000000E+00 0. -1.
         11    1    4    4    0    0  0.25186888928E+02 -0.74721998391E+02  0.25228078884E+03  0.26431676609E+03  0.00000000000E+00 0.  1.
</event>
<event>
 8    1  0.7130890E-009  0.1243564E+03  0.7561462E-02  0.1236079E+00
         -1   -1    0    0    0  501 -0.00000000000E+00  0.00000000000E+00  0.24039826721E+02  0.24039826721E+02  0.00000000000E+00 0.  1.
          1   -1    0    0  501    0  0.00000000000E+00 -0.00000000000E+00 -0.93162942989E+03  0.93162942989E+03  0.00000000000E+00 0. -1.
         25    2    1    2    0    0  0.80806848219E+02  0.39661833202E+02 -0.64396328521E+03  0.66214736444E+03  0.12509041454E+03 0.  0.
         23    2    1    2    0    0 -0.80806848219E+02 -0.39661833202E+02 -0.26362631796E+03  0.29352189217E+03  0.92484906494E+02 0.  0.
          5    1    3    3  502    0  0.17862734678E+02 -0.42069180312E+02 -0.12860120154E+03  0.13654535752E+03  0.41800000000E+01 0. -1.
         -5    1    3    3    0  502  0.62944113541E+02  0.81731013514E+02 -0.51536208367E+03  0.52560200692E+03  0.41800000000E+01 0. -1.
        -11    1    4    4    0    0 -0.54899400368E+01 -0.21374243861E+02 -0.38135837252E+01  0.22395114715E+02  0.00000000000E+00 0.  1.
         11    1    4    4    0    0 -0.75316908182E+02 -0.18287589341E+02 -0.25981273424E+03  0.27112677746E+03  0.00000000000E+00 0. -1.
</event>
<event>
 8    1  0.7130890E-009  0.1469364E+03  0.7561462E-02  0.1204289E+00
         -1   -1    0    0    0  501 -0.00000000000E+00  0.00000000000E+00  0.11521096684E+03  0.11521096684E+03  0.00000000000E+00 0.  1.
          1   -1    0    0  501    0  0.00000000000E+00 -0.00000000000E+00 -0.23804736593E+03  0.23804736593E+03  0.00000000000E+00 0. -1.
         25    2    1    2    0    0 -0.94700093640E+02  0.79572563254E+02 -0.85105350674E+02  0.19542358610E+03  0.12509019438E+03 0.  0.
         23    2    1    2    0    0  0.94700093640E+02 -0.79572563254E+02 -0.37731048420E+02  0.15783474668E+03  0.90489086002E+02 0.  0.
          5    1    3    3  502    0 -0.61962383254E+02  0.10415095414E+03 -0.27013037204E+02  0.12423338829E+03  0.41800000000E+01 0. -1.
         -5    1    3    3    0  502 -0.32737710386E+02 -0.24578390884E+02 -0.58092313470E+02  0.71190197808E+02  0.41800000000E+01 0. -1.
        -11    1    4    4    0    0  0.85699592930E+02 -0.47151497292E+02 -0.62479371310E+02  0.11606616977E+03  0.00000000000E+00 0. -1.
         11    1    4    4    0    0  0.90005007099E+01 -0.32421065962E+02  0.24748322890E+02  0.41768576909E+02  0.00000000000E+00 0.  1.
</event>
<event>
 8    1  0.7130890E-009  0.2244443E+03  0.7561462E-02  0.1130612E+00
         -1   -1    0    0    0  501 -0.00000000000E+00  0.00000000000E+00  0.84624970531E+02  0.84624970531E+02  0.00000000000E+00 0.  1.
          1   -1    0    0  501    0  0.00000000000E+00 -0.00000000000E+00 -0.80855553407E+03  0.80855553407E+03  0.00000000000E+00 0. -1.
         25    2    1    2    0    0 -0.19340354578E+03 -0.81332492809E+02 -0.18326805822E+03  0.30537443064E+03  0.12508579382E+03 0.  0.
         23    2    1    2    0    0  0.19340354578E+03  0.81332492809E+02 -0.54066250532E+03  0.58780607396E+03  0.95812995068E+02 0.  0.
          5    1    3    3  502    0 -0.18619330380E+03 -0.10414103184E+03 -0.13833038862E+03  0.25429524122E+03  0.41800000000E+01 0. -1.
         -5    1    3    3    0  502 -0.72102419781E+01  0.22808539028E+02 -0.44937669599E+02  0.51079189412E+02  0.41800000000E+01 0. -1.
        -11    1    4    4    0    0  0.12873375727E+03  0.66421297040E+02 -0.24357005394E+03  0.28339114336E+03  0.00000000000E+00 0.  1.
         11    1    4    4    0    0  0.64669788512E+02  0.14911195769E+02 -0.29709245138E+03  0.30441493060E+03  0.00000000000E+00 0. -1.
</event>
<event>
 8    1  0.7130890E-009  0.1472949E+03  0.7561462E-02  0.1203837E+00
         -1   -1    0    0    0  501 -0.00000000000E+00  0.00000000000E+00  0.21817459554E+02  0.21817459554E+02  0.00000000000E+00 0. -1.
          1   -1    0    0  501    0  0.00000000000E+00 -0.00000000000E+00 -0.12266104604E+04  0.12266104604E+04  0.00000000000E+00 0.  1.
         25    2    1    2    0    0  0.11651448555E+03 -0.34411307515E+02 -0.67921440616E+03  0.70124199831E+03  0.12509343403E+03 0.  0.
         23    2    1    2    0    0 -0.11651448555E+03  0.34411307515E+02 -0.52557859469E+03  0.54718592164E+03  0.91759523855E+02 0.  0.
          5    1    3    3  502    0  0.10005003325E+03  0.18389149044E+02 -0.27503262683E+03  0.29327220832E+03  0.41800000000E+01 0. -1.
         -5    1    3    3    0  502  0.16464452308E+02 -0.52800456560E+02 -0.40418177933E+03  0.40796978999E+03  0.41800000000E+01 0. -1.
        -11    1    4    4    0    0 -0.52692342157E+02  0.48877407465E+02 -0.39087272548E+03  0.39742542874E+03  0.00000000000E+00 0.  1.
         11    1    4    4    0    0 -0.63822143396E+02 -0.14466099950E+02 -0.13470586921E+03  0.14976049290E+03  0.00000000000E+00 0. -1.
</event>
<event>
 8    1  0.7130890E-009  0.7021835E+02  0.7561462E-02  0.1359352E+00
         -2   -1    0    0    0  501 -0.00000000000E+00  0.00000000000E+00  0.69757758079E+03  0.69757758079E+03  0.00000000000E+00 0.  1.
          2   -1    0    0  501    0  0.00000000000E+00 -0.00000000000E+00 -0.19146443368E+02  0.19146443368E+02  0.00000000000E+00 0. -1.
         25    2    1    2    0    0 -0.22417365772E+02 -0.32474488259E+02  0.40647446997E+03  0.42710895046E+03  0.12507369888E+03 0.  0.
         23    2    1    2    0    0  0.22417365772E+02  0.32474488259E+02  0.27195666745E+03  0.28961507369E+03  0.91429378560E+02 0.  0.
          5    1    3    3  502    0 -0.25438893979E+02 -0.39912885282E+02  0.41314288567E+03  0.41586619497E+03  0.41800000000E+01 0.  1.
         -5    1    3    3    0  502  0.30215282066E+01  0.74383970226E+01 -0.66684157048E+01  0.11242755489E+02  0.41800000000E+01 0.  1.
        -11    1    4    4    0    0  0.37806350865E+02 -0.96537388154E+01  0.20720634435E+03  0.21084824870E+03  0.00000000000E+00 0.  1.
         11    1    4    4    0    0 -0.15388985093E+02  0.42128227074E+02  0.64750323096E+02  0.78766824994E+02  0.00000000000E+00 0. -1.
</event>
<event>
 8    1  0.7130890E-009  0.1544953E+03  0.7561462E-02  0.1195056E+00
         -2   -1    0    0    0  501 -0.00000000000E+00  0.00000000000E+00  0.39063777826E+02  0.39063777826E+02  0.00000000000E+00 0.  1.
          2   -1    0    0  501    0  0.00000000000E+00 -0.00000000000E+00 -0.80452739433E+03  0.80452739433E+03  0.00000000000E+00 0. -1.
         25    2    1    2    0    0  0.80104755268E+02 -0.99521536453E+02 -0.27142511042E+03  0.32502230399E+03  0.12508636811E+03 0.  0.
         23    2    1    2    0    0 -0.80104755268E+02  0.99521536453E+02 -0.49403850608E+03  0.51856886817E+03  0.92294731747E+02 0.  0.
          5    1    3    3  502    0  0.12613163261E+02  0.29684881223E+02 -0.58741582881E+02  0.67144098922E+02  0.41800000000E+01 0.  1.
         -5    1    3    3    0  502  0.67491592007E+02 -0.12920641768E+03 -0.21268352754E+03  0.25787820506E+03  0.41800000000E+01 0.  1.
        -11    1    4    4    0    0 -0.48037954140E+02  0.37970256055E+02 -0.91546661901E+02  0.11013708135E+03  0.00000000000E+00 0.  1.
         11    1    4    4    0    0 -0.32066801129E+02  0.61551280398E+02 -0.40249184418E+03  0.40843178682E+03  0.00000000000E+00 0. -1.
</event>
<event>
 8    1  0.7130890E-009  0.9280847E+02  0.7561462E-02  0.1296190E+00
         -2   -1    0    0    0  501 -0.00000000000E+00  0.00000000000E+00  0.15309042211E+03  0.15309042211E+03  0.00000000000E+00 0.  1.
          2   -1    0    0  501    0  0.00000000000E+00 -0.00000000000E+00 -0.95413533211E+02  0.95413533211E+02  0.00000000000E+00 0. -1.
         25    2    1    2    0    0  0.41410332288E+02 -0.35663552653E+02  0.41715628593E+02  0.14273926066E+03  0.12509036037E+03 0.  0.
         23    2    1    2    0    0 -0.41410332288E+02  0.35663552653E+02  0.15961260308E+02  0.10576469466E+03  0.89133070171E+02 0.  0.
          5    1    3    3  502    0 -0.20216303508E+02 -0.47455556930E+02 -0.19191010966E+02  0.55195073267E+02  0.41800000000E+01 0.  1.
         -5    1    3    3    0  502  0.61626635796E+02  0.11792004276E+02  0.60906639559E+02  0.87544187395E+02  0.41800000000E+01 0.  1.
        -11    1    4    4    0    0 -0.17050466644E+02  0.42406553653E+02 -0.29039759892E+02  0.54151102113E+02  0.00000000000E+00 0. -1.
         11    1    4    4    0    0 -0.24359865644E+02 -0.67430010003E+01  0.45001020200E+02  0.51613592548E+02  0.00000000000E+00 0.  1.
</event>
<event>
 8    1  0.7130890E-009  0.1179410E+03  0.7561462E-02  0.1246533E+00
          4   -1    0    0  501    0  0.00000000000E+00  0.00000000000E+00  0.42148625125E+02  0.42148625125E+02  0.00000000000E+00 0. -1.
         -4   -1    0    0    0  501 -0.00000000000E+00 -0.00000000000E+00 -0.39807922293E+03  0.39807922293E+03  0.00000000000E+00 0.  1.
         25    2    1    2    0    0 -0.55954294210E+01  0.57990195424E+02 -0.26349054502E+03  0.29743838228E+03  0.12509257509E+03 0.  0.
         23    2    1    2    0    0  0.55954294210E+01 -0.57990195424E+02 -0.92440052789E+02  0.14278946578E+03  0.91921143282E+02 0.  0.
          5    1    3    3  502    0  0.20160867040E+02 -0.30020750379E+02 -0.13301088163E+03  0.13790240406E+03  0.41800000000E+01 0.  1.
         -5    1    3    3    0  502 -0.25756296461E+02  0.88010945804E+02 -0.13047966339E+03  0.15953597822E+03  0.41800000000E+01 0.  1.
        -11    1    4    4    0    0 -0.38107417837E+02 -0.41440273078E+01 -0.43095345164E+02  0.57676312567E+02  0.00000000000E+00 0.  1.
         11    1    4    4    0    0  0.43702847258E+02 -0.53846168117E+02 -0.49344707625E+02  0.85113153213E+02  0.00000000000E+00 0. -1.
</event>
<event>
 8    1  0.7130890E-009  0.8298243E+02  0.7561462E-02  0.1320795E+00
         -1   -1    0    0    0  501 -0.00000000000E+00  0.00000000000E+00  0.40986244131E+02  0.40986244131E+02  0.00000000000E+00 0.  1.
          1   -1    0    0  501    0  0.00000000000E+00 -0.00000000000E+00 -0.31708600024E+03  0.31708600024E+03  0.00000000000E+00 0. -1.
         25    2    1    2    0    0 -0.44974639461E+01  0.11409611491E+02 -0.10458548903E+03  0.16351231716E+03  0.12509095464E+03 0.  0.
         23    2    1    2    0    0  0.44974639461E+01 -0.11409611491E+02 -0.17151426708E+03  0.19455992720E+03  0.91027551026E+02 0.  0.
          5    1    3    3  502    0 -0.11116547883E+02 -0.29978861099E+02  0.15844649737E+02  0.35928193315E+02  0.41800000000E+01 0.  1.
         -5    1    3    3    0  502  0.66190839366E+01  0.41388472589E+02 -0.12043013876E+03  0.12758412385E+03  0.41800000000E+01 0.  1.
        -11    1    4    4    0    0  0.25919438200E+02 -0.44898260151E+02 -0.89858512509E+02  0.10374113606E+03  0.00000000000E+00 0. -1.
         11    1    4    4    0    0 -0.21421974254E+02  0.33488648660E+02 -0.81655754569E+02  0.90818791141E+02  0.00000000000E+00 0.  1.
</event>
<event>
 8    1  0.7130890E-009  0.7652009E+02  0.7561462E-02  0.1339227E+00
          4   -1    0    0  501    0  0.00000000000E+00  0.00000000000E+00  0.65416669749E+02  0.65416669749E+02  0.00000000000E+00 0. -1.
         -4   -1    0    0    0  501 -0.00000000000E+00 -0.00000000000E+00 -0.19860850025E+03  0.19860850025E+03  0.00000000000E+00 0.  1.
         25    2    1    2    0    0  0.24222913370E+02  0.77866181579E+01 -0.10258310894E+03  0.16376152505E+03  0.12508861615E+03 0.  0.
         23    2    1    2    0    0 -0.24222913370E+02 -0.77866181579E+01 -0.30608721560E+02  0.10026364495E+03  0.92024582093E+02 0.  0.
          5    1    3    3  502    0  0.10606964561E+01 -0.36384526183E+02 -0.10740199098E+03  0.11347959679E+03  0.41800000000E+01 0.  1.
         -5    1    3    3    0  502  0.23162216914E+02  0.44171144341E+02  0.48188820340E+01  0.50281928253E+02  0.41800000000E+01 0.  1.
        -11    1    4    4    0    0  0.13792384394E+02 -0.21831805902E+02 -0.49284902396E+02  0.55640445904E+02  0.00000000000E+00 0.  1.
         11    1    4    4    0    0 -0.38015297764E+02  0.14045187745E+02  0.18676180836E+02  0.44623199050E+02  0.00000000000E+00 0. -1.
</event>
<event>
 8    1  0.7130890E-009  0.1340346E+03  0.7561462E-02  0.1221589E+00
          1   -1    0    0  501    0  0.00000000000E+00  0.00000000000E+00  0.12811997616E+03  0.12811997616E+03  0.00000000000E+00 0. -1.
         -1   -1    0    0    0  501 -0.00000000000E+00 -0.00000000000E+00 -0.14745998923E+03  0.14745998923E+03  0.00000000000E+00 0.  1.
         25    2    1    2    0    0  0.81534642851E+02 -0.12577675770E+02 -0.25353422134E+01  0.14986799769E+03  0.12509153791E+03 0.  0.
         23    2    1    2    0    0 -0.81534642851E+02  0.12577675770E+02 -0.16804670854E+02  0.12571196771E+03  0.93354196212E+02 0.  0.
          5    1    3    3  502    0  0.11154485912E+03 -0.23159561322E+02  0.12009906295E+02  0.11463128336E+03  0.41800000000E+01 0.  1.
         -5    1    3    3    0  502 -0.30010216266E+02  0.10581885551E+02 -0.14545248508E+02  0.35236714323E+02  0.41800000000E+01 0.  1.
        -11    1    4    4    0    0 -0.14672156876E+02  0.45240473047E+02  0.58673887802E+01  0.47920755837E+02  0.00000000000E+00 0. -1.
         11    1    4    4    0    0 -0.66862485975E+02 -0.32662797276E+02 -0.22672059635E+02  0.77791211874E+02  0.00000000000E+00 0.  1.
</event>
<event>
 8    1  0.7130890E-009  0.8213728E+02  0.7561462E-02  0.1323093E+00
         -2   -1    0    0    0  501 -0.00000000000E+00  0.00000000000E+00  0.25190433041E+02  0.25190433041E+02  0.00000000000E+00 0.  1.
          2   -1    0    0  501    0  0.00000000000E+00 -0.00000000000E+00 -0.94259808937E+03  0.94259808937E+03  0.00000000000E+00 0. -1.
         25    2    1    2    0    0 -0.61402460137E+02  0.60160931854E+01 -0.78374890533E+03  0.79606294891E+03  0.12508963404E+03 0.  0.
         23    2    1    2    0    0  0.61402460137E+02 -0.60160931854E+01 -0.13365875101E+03  0.17172557350E+03  0.88422595450E+02 0.  0.
          5    1    3    3  502    0 -0.36009770519E+02  0.24736566841E+02 -0.77238005578E+02  0.88835709135E+02  0.41800000000E+01 0.  1.
         -5    1    3    3    0  502 -0.25392689618E+02 -0.18720473655E+02 -0.70651089975E+03  0.70722723978E+03  0.41800000000E+01 0.  1.
        -11    1    4    4    0    0  0.18037333332E+02  0.28097861379E+02 -0.10369762848E+03  0.10894050377E+03  0.00000000000E+00 0. -1.
         11    1    4    4    0    0  0.43365126805E+02 -0.34113954565E+02 -0.29961122522E+02  0.62785069735E+02  0.00000000000E+00 0.  1.
</event>
<event>
 8    1  0.7130890E-009  0.8830234E+02  0.7561462E-02  0.1307016E+00
          3   -1    0    0  501    0  0.00000000000E+00  0.00000000000E+00  0.83341183920E+02  0.83341183920E+02  0.00000000000E+00 0. -1.
         -3   -1    0    0    0  501 -0.00000000000E+00 -0.00000000000E+00 -0.15552065733E+03  0.15552065733E+03  0.00000000000E+00 0.  1.
         25    2    1    2    0    0 -0.28583958199E+02  0.20437058230E+02 -0.41829721012E+02  0.13649930626E+03  0.12509044342E+03 0.  0.
         23    2    1    2    0    0  0.28583958199E+02 -0.20437058230E+02 -0.30349752397E+02  0.10236253499E+03  0.91226449469E+02 0.  0.
          5    1    3    3  502    0  0.25459882590E+02  0.49457592062E+02 -0.49447977924E+02  0.74544174520E+02  0.41800000000E+01 0.  1.
         -5    1    3    3    0  502 -0.54043840789E+02 -0.29020533832E+02  0.76182569121E+01  0.61955131744E+02  0.41800000000E+01 0.  1.
        -11    1    4    4    0    0  0.31773546226E+02  0.63152338097E+01 -0.56300532478E+02  0.64955295205E+02  0.00000000000E+00 0.  1.
         11    1    4    4    0    0 -0.31895880269E+01 -0.26752292040E+02  0.25950780081E+02  0.37407239780E+02  0.00000000000E+00 0. -1.
</event>
<event>
 8    1  0.7130890E-009  0.2282185E+03  0.7561462E-02  0.1127900E+00
          2   -1    0    0  501    0  0.00000000000E+00  0.00000000000E+00  0.48987357396E+03  0.48987357396E+03  0.00000000000E+00 0. -1.
         -2   -1    0    0    0  501 -0.00000000000E+00 -0.00000000000E+00 -0.12586129235E+03  0.12586129235E+03  0.00000000000E+00 0.  1.
         25    2    1    2    0    0  0.14707593503E+03  0.15670987887E+03  0.11519129438E+03  0.27405599402E+03  0.12509331219E+03 0.  0.
         23    2    1    2    0    0 -0.14707593503E+03 -0.15670987887E+03  0.24882098723E+03  0.34167887229E+03  0.92969087797E+02 0.  0.
          5    1    3    3  502    0  0.61934617411E+01 -0.96898752557E+01 -0.15557842750E+02  0.19793219087E+02  0.41800000000E+01 0.  1.
         -5    1    3    3    0  502  0.14088247329E+03  0.16639975412E+03  0.13074913713E+03  0.25426277493E+03  0.41800000000E+01 0.  1.
        -11    1    4    4    0    0 -0.11360357087E+03 -0.70622744985E+02  0.18931389211E+03  0.23180399731E+03  0.00000000000E+00 0.  1.
         11    1    4    4    0    0 -0.33472364163E+02 -0.86087133882E+02  0.59507095115E+02  0.10987487498E+03  0.00000000000E+00 0. -1.
</event>
<event>
 8    1  0.7130890E-009  0.2328556E+03  0.7561462E-02  0.1124646E+00
         -2   -1    0    0    0  501 -0.00000000000E+00  0.00000000000E+00  0.85771798020E+02  0.85771798020E+02  0.00000000000E+00 0.  1.
          2   -1    0    0  501    0  0.00000000000E+00 -0.00000000000E+00 -0.72211505161E+03  0.72211505161E+03  0.00000000000E+00 0. -1.
         25    2    1    2    0    0  0.24302004695E+02  0.21497032080E+03 -0.42329425884E+03  0.49155764991E+03  0.12509223543E+03 0.  0.
         23    2    1    2    0    0 -0.24302004695E+02 -0.21497032080E+03 -0.21304899475E+03  0.31632919972E+03  0.88721261093E+02 0.  0.
          5    1    3    3  502    0  0.57314302871E+02  0.15482185913E+03 -0.20818032269E+03  0.26572778653E+03  0.41800000000E+01 0.  1.
         -5    1    3    3    0  502 -0.33012298176E+02  0.60148461676E+02 -0.21511393614E+03  0.22582986338E+03  0.41800000000E+01 0.  1.
        -11    1    4    4    0    0  0.26622205875E+02 -0.13056270525E+03 -0.14258116880E+03  0.19515314894E+03  0.00000000000E+00 0.  1.
         11    1    4    4    0    0 -0.50924210571E+02 -0.84407615557E+02 -0.70467825957E+02  0.12117605077E+03  0.00000000000E+00 0. -1.
</event>
<event>
 8    1  0.7130890E-009  0.8092225E+02  0.7561462E-02  0.1326454E+00
         -2   -1    0    0    0  501 -0.00000000000E+00  0.00000000000E+00  0.32994309519E+02  0.32994309519E+02  0.00000000000E+00 0.  1.
          2   -1    0    0  501    0  0.00000000000E+00 -0.00000000000E+00 -0.49035622082E+03  0.49035622082E+03  0.00000000000E+00 0. -1.
         25    2    1    2    0    0 -0.15658868196E+02 -0.54916854632E+02 -0.32542136453E+03  0.35328065308E+03  0.12508834587E+03 0.  0.
         23    2    1    2    0    0  0.15658868196E+02  0.54916854632E+02 -0.13194054677E+03  0.17006987726E+03  0.90853696635E+02 0.  0.
          5    1    3    3  502    0 -0.19279762640E+02  0.11569538320E+02 -0.25592167323E+03  0.25694150831E+03  0.41800000000E+01 0. -1.
         -5    1    3    3    0  502  0.36208944444E+01 -0.66486392951E+02 -0.69499691300E+02  0.96339144770E+02  0.41800000000E+01 0. -1.
        -11    1    4    4    0    0 -0.45944750608E+01  0.51517405233E+02 -0.13903385145E+03  0.14834272511E+03  0.00000000000E+00 0. -1.
         11    1    4    4    0    0  0.20253343256E+02  0.33994493986E+01  0.70933046798E+01  0.21727152150E+02  0.00000000000E+00 0.  1.
</event>
<event>
 8    1  0.7130890E-009  0.8334553E+02  0.7561462E-02  0.1319817E+00
         -2   -1    0    0    0  501 -0.00000000000E+00  0.00000000000E+00  0.58827416929E+02  0.58827416929E+02  0.00000000000E+00 0. -1.
          2   -1    0    0  501    0  0.00000000000E+00 -0.00000000000E+00 -0.29102609165E+03  0.29102609165E+03  0.00000000000E+00 0.  1.
         25    2    1    2    0    0 -0.32098171229E+02  0.61262565558E+02 -0.15857617974E+03  0.21348812696E+03  0.12508949212E+03 0.  0.
         23    2    1    2    0    0  0.32098171229E+02 -0.61262565558E+02 -0.73622494981E+02  0.13636538162E+03  0.91607046677E+02 0.  0.
          5    1    3    3  502    0 -0.27243798528E+02  0.33031701945E+02 -0.17499636711E+03  0.18020687776E+03  0.41800000000E+01 0.  1.
         -5    1    3    3    0  502 -0.48543727010E+01  0.28230863613E+02  0.16420187374E+02  0.33281249196E+02  0.41800000000E+01 0.  1.
        -11    1    4    4    0    0  0.45177065238E+02 -0.16513587134E+02 -0.75709881799E+02  0.89697558415E+02  0.00000000000E+00 0.  1.
         11    1    4    4    0    0 -0.13078894010E+02 -0.44748978425E+02  0.20873868180E+01  0.46667823201E+02  0.00000000000E+00 0. -1.
</event>
<event>
 8    1  0.7130890E-009  0.1089863E+03  0.7561462E-02  0.1262459E+00
         -1   -1    0    0    0  501 -0.00000000000E+00  0.00000000000E+00  0.98460773888E+02  0.98460773888E+02  0.00000000000E+00 0.  1.
          1   -1    0    0  501    0  0.00000000000E+00 -0.00000000000E+00 -0.16618282701E+03  0.16618282701E+03  0.00000000000E+00 0. -1.
         25    2    1    2    0    0 -0.25082512401E+02  0.24845616126E+02  0.21841881311E+02  0.13179854186E+03  0.12508937120E+03 0.  0.
         23    2    1    2    0    0  0.25082512401E+02 -0.24845616126E+02 -0.89563934433E+02  0.13284505904E+03  0.91540560909E+02 0.  0.
          5    1    3    3  502    0 -0.52528880235E+01  0.71253982542E+02 -0.95710306987E+01  0.72206647127E+02  0.41800000000E+01 0.  1.
         -5    1    3    3    0  502 -0.19829624377E+02 -0.46408366417E+02  0.31412912010E+02  0.59591894729E+02  0.41800000000E+01 0.  1.
        -11    1    4    4    0    0 -0.19940776869E+02 -0.42858250021E+02 -0.58686204989E+02  0.75356053726E+02  0.00000000000E+00 0.  1.
         11    1    4    4    0    0  0.45023289270E+02  0.18012633896E+02 -0.30877729443E+02  0.57489005315E+02  0.00000000000E+00 0. -1.
</event>
<event>
 8    1  0.7130890E-009  0.1070520E+03  0.7561462E-02  0.1266128E+00
         -1   -1    0    0    0  501 -0.00000000000E+00  0.00000000000E+00  0.22433510009E+03  0.22433510009E+03  0.00000000000E+00 0.  1.
          1   -1    0    0  501    0  0.00000000000E+00 -0.00000000000E+00 -0.86414726112E+02  0.86414726112E+02  0.00000000000E+00 0. -1.
         25    2    1    2    0    0  0.73360345286E+02 -0.26045494146E+02  0.12083867288E+03  0.19054954913E+03  0.12508812007E+03 0.  0.
         23    2    1    2    0    0 -0.73360345286E+02  0.26045494146E+02  0.17081701104E+02  0.12020027708E+03  0.89978964605E+02 0.  0.
          5    1    3    3  502    0  0.59281131452E+02  0.37965662629E+02  0.25935359439E+02  0.75138268242E+02  0.41800000000E+01 0.  1.
         -5    1    3    3    0  502  0.14079213834E+02 -0.64011156775E+02  0.94903313437E+02  0.11541128088E+03  0.41800000000E+01 0.  1.
        -11    1    4    4    0    0 -0.36781368870E+02  0.14716170018E+02  0.54023582707E+02  0.66992404379E+02  0.00000000000E+00 0.  1.
         11    1    4    4    0    0 -0.36578976417E+02  0.11329324128E+02 -0.36941881603E+02  0.53207872700E+02  0.00000000000E+00 0. -1.
</event>
<event>
 8    1  0.7130890E-009  0.2327314E+03  0.7561462E-02  0.1124732E+00
         -1   -1    0    0    0  501 -0.00000000000E+00  0.00000000000E+00  0.51453391463E+03  0.51453391463E+03  0.00000000000E+00 0.  1.
          1   -1    0    0  501    0  0.00000000000E+00 -0.00000000000E+00 -0.12775800317E+03  0.12775800317E+03  0.00000000000E+00 0. -1.
         25    2    1    2    0    0 -0.20067813760E+03  0.10041370839E+03  0.12506635733E+03  0.28573431613E+03  0.12509147826E+03 0.  0.
         23    2    1    2    0    0  0.20067813760E+03 -0.10041370839E+03  0.26170955413E+03  0.35655760168E+03  0.91031889167E+02 0.  0.
          5    1    3    3  502    0 -0.11448685723E+03  0.58282991270E+02  0.13828901616E+03  0.18880008459E+03  0.41800000000E+01 0. -1.
         -5    1    3    3    0  502 -0.86191280376E+02  0.42130717118E+02 -0.13222658831E+02  0.96934231541E+02  0.41800000000E+01 0. -1.
        -11    1    4    4    0    0  0.65917759865E+02 -0.81493945131E+02  0.13207150284E+03  0.16860989301E+03  0.00000000000E+00 0.  1.
         11    1    4    4    0    0  0.13476037774E+03 -0.18919763256E+02  0.12963805129E+03  0.18794770866E+03  0.00000000000E+00 0. -1.
</event>
<event>
 8    1  0.7130890E-009  0.6591444E+02  0.7561462E-02  0.1374564E+00
         -2   -1    0    0    0  501 -0.00000000000E+00  0.00000000000E+00  0.21820608621E+02  0.21820608621E+02  0.00000000000E+00 0.  1.
          2   -1    0    0  501    0  0.00000000000E+00 -0.00000000000E+00 -0.58511773170E+03  0.58511773170E+03  0.00000000000E+00 0. -1.
         25    2    1    2    0    0  0.80392155361E+01 -0.16817600602E+02 -0.39329880325E+03  0.41313433379E+03  0.12509423823E+03 0.  0.
         23    2    1    2    0    0 -0.80392155361E+01  0.16817600602E+02 -0.16999831983E+03  0.19380400653E+03  0.91176222379E+02 0.  0.
          5    1    3    3  502    0 -0.11019062715E+02  0.18751300392E+02 -0.49776849947E+01  0.22699796418E+02  0.41800000000E+01 0.  1.
         -5    1    3    3    0  502  0.19058278251E+02 -0.35568900994E+02 -0.38832111825E+03  0.39043453737E+03  0.41800000000E+01 0.  1.
        -11    1    4    4    0    0 -0.33930808523E+02  0.24789426047E+02 -0.31074013097E+02  0.52262890283E+02  0.00000000000E+00 0.  1.
         11    1    4    4    0    0  0.25891592987E+02 -0.79718254456E+01 -0.13892430673E+03  0.14154111625E+03  0.00000000000E+00 0. -1.
</event>
<event>
 8    1  0.7130890E-009  0.7994075E+02  0.7561462E-02  0.1329220E+00
         -1   -1    0    0    0  501 -0.00000000000E+00  0.00000000000E+00  0.21927427156E+03  0.21927427156E+03  0.00000000000E+00 0.  1.
          1   -1    0    0  501    0  0.00000000000E+00 -0.00000000000E+00 -0.20622675393E+03  0.20622675393E+03  0.00000000000E+00 0. -1.
         25    2    1    2    0    0  0.16631240727E+02 -0.31683406939E+02  0.18574617134E+03  0.22678574105E+03  0.12509874394E+03 0.  0.
         23    2    1    2    0    0 -0.16631240727E+02  0.31683406939E+02 -0.17269865370E+03  0.19871528444E+03  0.91556009280E+02 0.  0.
          5    1    3    3  502    0 -0.33245043245E+02 -0.16068685674E+02  0.37051779251E+01  0.37344829671E+02  0.41800000000E+01 0. -1.
         -5    1    3    3    0  502  0.49876283972E+02 -0.15614721265E+02  0.18204099341E+03  0.18944091138E+03  0.41800000000E+01 0. -1.
        -11    1    4    4    0    0  0.17435212364E+00  0.47329127225E+02 -0.34366479453E+02  0.58490440181E+02  0.00000000000E+00 0.  1.
         11    1    4    4    0    0 -0.16805592851E+02 -0.15645720287E+02 -0.13833217425E+03  0.14022484426E+03  0.00000000000E+00 0. -1.
</event>
<event>
 8    1  0.7130890E-009  0.1347663E+03  0.7561462E-02  0.1220550E+00
         -1   -1    0    0    0  501 -0.00000000000E+00  0.00000000000E+00  0.12381447575E+03  0.12381447575E+03  0.00000000000E+00 0.  1.
          1   -1    0    0  501    0  0.00000000000E+00 -0.00000000000E+00 -0.21724688917E+03  0.21724688917E+03  0.00000000000E+00 0. -1.
         25    2    1    2    0    0 -0.85668929134E+02  0.25244390776E+02  0.41932583831E+02  0.15932065464E+03  0.12509310422E+03 0.  0.
         23    2    1    2    0    0  0.85668929134E+02 -0.25244390776E+02 -0.13536499725E+03  0.18174071029E+03  0.82033886959E+02 0.  0.
          5    1    3    3  502    0 -0.11640986706E+03  0.16917590059E+02  0.47109662138E+02  0.12678428400E+03  0.41800000000E+01 0. -1.
         -5    1    3    3    0  502  0.30740937923E+02  0.83268007168E+01 -0.51770783075E+01  0.32536370640E+02  0.41800000000E+01 0. -1.
        -11    1    4    4    0    0  0.73285318635E+02  0.17379093808E+02 -0.70655175669E+02  0.10327112219E+03  0.00000000000E+00 0.  1.
         11    1    4    4    0    0  0.12383610499E+02 -0.42623484584E+02 -0.64709821583E+02  0.78469588099E+02  0.00000000000E+00 0. -1.
</event>
<event>
 8    1  0.7130890E-009  0.1090104E+03  0.7561462E-02  0.1262413E+00
          1   -1    0    0  501    0  0.00000000000E+00  0.00000000000E+00  0.73585913709E+02  0.73585913709E+02  0.00000000000E+00 0. -1.
         -1   -1    0    0    0  501 -0.00000000000E+00 -0.00000000000E+00 -0.16652652650E+03  0.16652652650E+03  0.00000000000E+00 0.  1.
         25    2    1    2    0    0 -0.49704534125E+01 -0.26572550921E+02 -0.37066594391E+02  0.13324230963E+03  0.12509506300E+03 0.  0.
         23    2    1    2    0    0  0.49704534125E+01  0.26572550921E+02 -0.55874018402E+02  0.10687013058E+03  0.86997201149E+02 0.  0.
          5    1    3    3  502    0  0.31022331899E+01  0.50061329929E+02 -0.20299354889E+02  0.54270588848E+02  0.41800000000E+01 0.  1.
         -5    1    3    3    0  502 -0.80726866024E+01 -0.76633880850E+02 -0.16767239502E+02  0.78971720784E+02  0.41800000000E+01 0.  1.
        -11    1    4    4    0    0  0.27396936871E+02 -0.23216974509E+02 -0.28143102434E+02  0.45625149532E+02  0.00000000000E+00 0.  1.
         11    1    4    4    0    0 -0.22426483458E+02  0.49789525430E+02 -0.27730915968E+02  0.61244981046E+02  0.00000000000E+00 0. -1.
</event>
<event>
 8    1  0.7130890E-009  0.1845365E+03  0.7561462E-02  0.1163483E+00
          2   -1    0    0  501    0  0.00000000000E+00  0.00000000000E+00  0.18818322811E+03  0.18818322811E+03  0.00000000000E+00 0. -1.
         -2   -1    0    0    0  501 -0.00000000000E+00 -0.00000000000E+00 -0.25531834362E+03  0.25531834362E+03  0.00000000000E+00 0.  1.
         25    2    1    2    0    0  0.14208693904E+03  0.52584553013E+02 -0.15137052020E+03  0.24802060699E+03  0.12508938263E+03 0.  0.
         23    2    1    2    0    0 -0.14208693904E+03 -0.52584553013E+02  0.84235404697E+02  0.19548096474E+03  0.90351373582E+02 0.  0.
          5    1    3    3  502    0  0.12055675876E+02 -0.35409541834E+02 -0.16902834262E+02  0.41259582885E+02  0.41800000000E+01 0.  1.
         -5    1    3    3    0  502  0.13003126317E+03  0.87994094847E+02 -0.13446768594E+03  0.20676102411E+03  0.41800000000E+01 0.  1.
        -11    1    4    4    0    0 -0.71962049714E+02 -0.71807448775E+02  0.34370932964E+02  0.10731359341E+03  0.00000000000E+00 0.  1.
         11    1    4    4    0    0 -0.70124889328E+02  0.19222895763E+02  0.49864471733E+02  0.88167371323E+02  0.00000000000E+00 0. -1.
</event>
<event>
 8    1  0.7130890E-009  0.9844219E+02  0.7561462E-02  0.1283606E+00
          2   -1    0    0  501    0  0.00000000000E+00  0.00000000000E+00  0.31192748880E+03  0.31192748880E+03  0.00000000000E+00 0. -1.
         -2   -1    0    0    0  501 -0.00000000000E+00 -0.00000000000E+00 -0.45269854813E+02  0.45269854813E+02  0.00000000000E+00 0.  1.
         25    2    1    2    0    0  0.78764396397E+01  0.47979562182E+02  0.13244126145E+03  0.18855461754E+03  0.12509228343E+03 0.  0.
         23    2    1    2    0    0 -0.78764396397E+01 -0.47979562182E+02  0.13421637254E+03  0.16864272607E+03  0.89790075788E+02 0.  0.
          5    1    3    3  502    0  0.98326831971E+01 -0.38155440350E+02  0.75293327807E+02  0.85082764996E+02  0.41800000000E+01 0. -1.
         -5    1    3    3    0  502 -0.19562435575E+01  0.86135002532E+02  0.57147933640E+02  0.10347185255E+03  0.41800000000E+01 0. -1.
        -11    1    4    4    0    0  0.19669686564E+02 -0.35876848751E+02  0.13231332448E+03  0.13849498431E+03  0.00000000000E+00 0. -1.
         11    1    4    4    0    0 -0.27546126204E+02 -0.12102713430E+02  0.19030480658E+01  0.30147741759E+02  0.00000000000E+00 0.  1.
</event>
<event>
 8    1  0.7130890E-009  0.1223835E+03  0.7561462E-02  0.1239216E+00
          2   -1    0    0  501    0  0.00000000000E+00  0.00000000000E+00  0.12695705486E+02  0.12695705486E+02  0.00000000000E+00 0. -1.
         -2   -1    0    0    0  501 -0.00000000000E+00 -0.00000000000E+00 -0.12617352069E+04  0.12617352069E+04  0.00000000000E+00 0.  1.
         25    2    1    2    0    0 -0.37537735312E+02  0.51872412012E+02 -0.79097242614E+03  0.80335859104E+03  0.12509123945E+03 0.  0.
         23    2    1    2    0    0  0.37537735312E+02 -0.51872412012E+02 -0.45806707526E+03  0.47107232133E+03  0.89352435817E+02 0.  0.
          5    1    3    3  502    0 -0.74495632677E+02 -0.22538688492E+01 -0.44239712474E+03  0.44865060747E+03  0.41800000000E+01 0. -1.
         -5    1    3    3    0  502  0.36957897365E+02  0.54126280861E+02 -0.34857530140E+03  0.35470798357E+03  0.41800000000E+01 0. -1.
        -11    1    4    4    0    0  0.55006109312E+02 -0.59655933934E+01 -0.16801162626E+03  0.17688744140E+03  0.00000000000E+00 0.  1.
         11    1    4    4    0    0 -0.17468373999E+02 -0.45906818619E+02 -0.29005544900E+03  0.29418487993E+03  0.00000000000E+00 0. -1.
</event>
<event>
 8    1  0.7130890E-009  0.1264291E+03  0.7561462E-02  0.1232853E+00
          1   -1    0    0  501    0  0.00000000000E+00  0.00000000000E+00  0.59396830893E+03  0.59396830893E+03  0.00000000000E+00 0.  1.
         -1   -1    0    0    0  501 -0.00000000000E+00 -0.00000000000E+00 -0.29810184099E+02  0.29810184099E+02  0.00000000000E+00 0. -1.
         25    2    1    2    0    0 -0.68193910161E+02 -0.13607537576E+02  0.38887175668E+03  0.41437273475E+03  0.12509174915E+03 0.  0.
         23    2    1    2    0    0  0.68193910161E+02  0.13607537576E+02  0.17528636815E+03  0.20940575827E+03  0.91048812603E+02 0.  0.
          5    1    3    3  502    0 -0.51435838264E+02 -0.68226036405E+02  0.21979190123E+03  0.23585247454E+03  0.41800000000E+01 0. -1.
         -5    1    3    3    0  502 -0.16758071897E+02  0.54618498829E+02  0.16907985544E+03  0.17852026021E+03  0.41800000000E+01 0. -1.
        -11    1    4    4    0    0  0.13827628584E+02  0.45119308472E+02  0.10504726277E+03  0.11516024802E+03  0.00000000000E+00 0.  1.
         11    1    4    4    0    0  0.54366281577E+02 -0.31511770896E+02  0.70239105381E+02  0.94245510250E+02  0.00000000000E+00 0. -1.
</event>
<event>
 8    1  0.7130890E-009  0.3102902E+03  0.7561462E-02  0.1080207E+00
          1   -1    0    0  501    0  0.00000000000E+00  0.00000000000E+00  0.14377102480E+03  0.14377102480E+03  0.00000000000E+00 0. -1.
         -1   -1    0    0    0  501 -0.00000000000E+00 -0.00000000000E+00 -0.74558544991E+03  0.74558544991E+03  0.00000000000E+00 0.  1.
         25    2    1    2    0    0  0.30378485481E+03 -0.54583072607E+02 -0.30187267477E+03  0.44949082429E+03  0.12510131703E+03 0.  0.
         23    2    1    2    0    0 -0.30378485481E+03  0.54583072607E+02 -0.29994175034E+03  0.43986565043E+03  0.90841548891E+02 0.  0.
          5    1    3    3  502    0  0.17234905975E+03 -0.19180539287E+02 -0.84423942189E+02  0.19291699225E+03  0.41800000000E+01 0. -1.
         -5    1    3    3    0  502  0.13143579506E+03 -0.35402533320E+02 -0.21744873258E+03  0.25657383204E+03  0.41800000000E+01 0. -1.
        -11    1    4    4    0    0 -0.15901117126E+03  0.94700873731E+01 -0.20992703524E+03  0.26352152714E+03  0.00000000000E+00 0.  1.
         11    1    4    4    0    0 -0.14477368355E+03  0.45112985234E+02 -0.90014715097E+02  0.17634412329E+03  0.00000000000E+00 0. -1.
</event>
<event>
 8    1  0.7130890E-009  0.1086467E+03  0.7561462E-02  0.1263097E+00
          2   -1    0    0  501    0  0.00000000000E+00  0.00000000000E+00  0.70023169867E+02  0.70023169867E+02  0.00000000000E+00 0.  1.
         -2   -1    0    0    0  501 -0.00000000000E+00 -0.00000000000E+00 -0.18001670835E+03  0.18001670835E+03  0.00000000000E+00 0. -1.
         25    2    1    2    0    0  0.27254246907E+02  0.15642803739E+02 -0.63914985070E+02  0.14393943232E+03  0.12508374625E+03 0.  0.
         23    2    1    2    0    0 -0.27254246907E+02 -0.15642803739E+02 -0.46078553413E+02  0.10610044590E+03  0.90258408203E+02 0.  0.
          5    1    3    3  502    0  0.68086698822E+02  0.35671710014E+02 -0.17747367664E+02  0.78998170300E+02  0.41800000000E+01 0.  1.
         -5    1    3    3    0  502 -0.40832451915E+02 -0.20028906275E+02 -0.46167617406E+02  0.64941262021E+02  0.41800000000E+01 0.  1.
        -11    1    4    4    0    0  0.31930441666E+02 -0.15417135124E+02 -0.10224842988E+02  0.36902419630E+02  0.00000000000E+00 0.  1.
         11    1    4    4    0    0 -0.59184688573E+02 -0.22566861501E+00 -0.35853710426E+02  0.69198026266E+02  0.00000000000E+00 0. -1.
</event>
<event>
 8    1  0.7130890E-009  0.1062747E+03  0.7561462E-02  0.1267628E+00
          2   -1    0    0  501    0  0.00000000000E+00  0.00000000000E+00  0.31464308056E+03  0.31464308056E+03  0.00000000000E+00 0. -1.
         -2   -1    0    0    0  501 -0.00000000000E+00 -0.00000000000E+00 -0.46244125422E+02  0.46244125422E+02  0.00000000000E+00 0.  1.
         25    2    1    2    0    0 -0.41330136308E+01  0.43618009999E+02  0.11913281486E+03  0.17820998351E+03  0.12508620246E+03 0.  0.
         23    2    1    2    0    0  0.41330136308E+01 -0.43618009999E+02  0.14926614028E+03  0.18267722248E+03  0.95765204435E+02 0.  0.
          5    1    3    3  502    0 -0.26336218692E+01 -0.33717950807E+02  0.88632988547E+02  0.94958492140E+02  0.41800000000E+01 0.  1.
         -5    1    3    3    0  502 -0.14993917616E+01  0.77335960806E+02  0.30499826315E+02  0.83251491366E+02  0.41800000000E+01 0.  1.
        -11    1    4    4    0    0  0.11722048204E+02  0.27286864258E+02  0.70090517213E+02  0.76122664026E+02  0.00000000000E+00 0. -1.
         11    1    4    4    0    0 -0.75890345730E+01 -0.70904874257E+02  0.79175623063E+02  0.10655455845E+03  0.00000000000E+00 0.  1.
</event>
<event>
 8    1  0.7130890E-009  0.1040059E+03  0.7561462E-02  0.1272091E+00
         -2   -1    0    0    0  501 -0.00000000000E+00  0.00000000000E+00  0.13156584822E+02  0.13156584822E+02  0.00000000000E+00 0.  1.
          2   -1    0    0  501    0  0.00000000000E+00 -0.00000000000E+00 -0.10363325326E+04  0.10363325326E+04  0.00000000000E+00 0. -1.
         25    2    1    2    0    0 -0.49787871611E+01 -0.35567845420E+01 -0.77100555992E+03  0.78111058463E+03  0.12508690162E+03 0.  0.
         23    2    1    2    0    0  0.49787871611E+01  0.35567845420E+01 -0.25217038782E+03  0.26837853275E+03  0.91649840758E+02 0.  0.
          5    1    3    3  502    0  0.53455912443E+02  0.17647326829E+02 -0.49232320724E+03  0.49554876198E+03  0.41800000000E+01 0.  1.
         -5    1    3    3    0  502 -0.58434699604E+02 -0.21204111371E+02 -0.27868235269E+03  0.28556182265E+03  0.41800000000E+01 0.  1.
        -11    1    4    4    0    0  0.41804216386E+02 -0.19165984254E+02 -0.16135944475E+03  0.16778497510E+03  0.00000000000E+00 0. -1.
         11    1    4    4    0    0 -0.36825429225E+02  0.22722768796E+02 -0.90810943070E+02  0.10059355765E+03  0.00000000000E+00 0.  1.
</event>
<event>
 8    1  0.7130890E-009  0.1422038E+03  0.7561462E-02  0.1210394E+00
         -2   -1    0    0    0  501 -0.00000000000E+00  0.00000000000E+00  0.95472723996E+02  0.95472723996E+02  0.00000000000E+00 0.  1.
          2   -1    0    0  501    0  0.00000000000E+00 -0.00000000000E+00 -0.27936736197E+03  0.27936736197E+03  0.00000000000E+00 0. -1.
         25    2    1    2    0    0 -0.11037409204E+03 -0.30461322388E+02 -0.14442393587E+03  0.22274648948E+03  0.12508953980E+03 0.  0.
         23    2    1    2    0    0  0.11037409204E+03  0.30461322388E+02 -0.39470702101E+02  0.15209359648E+03  0.92001051144E+02 0.  0.
          5    1    3    3  502    0 -0.13701263654E+03 -0.24746160342E+02 -0.13398464042E+03  0.19327232418E+03  0.41800000000E+01 0. -1.
         -5    1    3    3    0  502  0.26638544506E+02 -0.57151620460E+01 -0.10439295444E+02  0.29474165298E+02  0.41800000000E+01 0. -1.
        -11    1    4    4    0    0  0.98492193648E+02  0.17618373450E+02  0.90991699068E+01  0.10046847359E+03  0.00000000000E+00 0.  1.
         11    1    4    4    0    0  0.11881898391E+02  0.12842948938E+02 -0.48569872008E+02  0.51625122892E+02  0.00000000000E+00 0. -1.
</event>
<event>
 8    1  0.7130890E-009  0.1576858E+03  0.7561462E-02  0.1191335E+00
         -2   -1    0    0    0  501 -0.00000000000E+00  0.00000000000E+00  0.71948662720E+02  0.71948662720E+02  0.00000000000E+00 0.  1.
          2   -1    0    0  501    0  0.00000000000E+00 -0.00000000000E+00 -0.41202881342E+03  0.41202881342E+03  0.00000000000E+00 0. -1.
         25    2    1    2    0    0  0.84201566254E+02  0.10378146714E+03 -0.16384399664E+03  0.24566629182E+03  0.12508627031E+03 0.  0.
         23    2    1    2    0    0 -0.84201566254E+02 -0.10378146714E+03 -0.17623615406E+03  0.23831118432E+03  0.88727345793E+02 0.  0.
          5    1    3    3  502    0  0.94566730400E+02  0.65575554093E+02 -0.17005690862E+03  0.20537732193E+03  0.41800000000E+01 0.  1.
         -5    1    3    3    0  502 -0.10365164146E+02  0.38205913051E+02  0.62129119783E+01  0.40288969894E+02  0.41800000000E+01 0.  1.
        -11    1    4    4    0    0 -0.18524730339E+02  0.15558658933E+02 -0.25915280853E+02  0.35451929194E+02  0.00000000000E+00 0.  1.
         11    1    4    4    0    0 -0.65676835915E+02 -0.11934012608E+03 -0.15032087321E+03  0.20285925512E+03  0.00000000000E+00 0. -1.
</event>
<event>
 8    1  0.7130890E-009  0.1249697E+03  0.7561462E-02  0.1235117E+00
          3   -1    0    0  501    0  0.00000000000E+00  0.00000000000E+00  0.32547133336E+02  0.32547133336E+02  0.00000000000E+00 0. -1.
         -3   -1    0    0    0  501 -0.00000000000E+00 -0.00000000000E+00 -0.48817893149E+03  0.48817893149E+03  0.00000000000E+00 0.  1.
         25    2    1    2    0    0 -0.17512813906E+01 -0.61398018947E+02 -0.28378306711E+03  0.31615269987E+03  0.12508763626E+03 0.  0.
         23    2    1    2    0    0  0.17512813906E+01  0.61398018947E+02 -0.17184873104E+03  0.20457336495E+03  0.92441828017E+02 0.  0.
          5    1    3    3  502    0 -0.14766820904E+02  0.36765963325E+02 -0.70846577605E+02  0.81280409800E+02  0.41800000000E+01 0. -1.
         -5    1    3    3    0  502  0.13015539514E+02 -0.98163982272E+02 -0.21293648950E+03  0.23487229008E+03  0.41800000000E+01 0. -1.
        -11    1    4    4    0    0  0.46117080382E+02  0.42675932121E+02 -0.97431282460E+02  0.11593478808E+03  0.00000000000E+00 0.  1.
         11    1    4    4    0    0 -0.44365798991E+02  0.18722086826E+02 -0.74417448585E+02  0.88638576868E+02  0.00000000000E+00 0. -1.
</event>
<event>
 8    1  0.7130890E-009  0.3593919E+03  0.7561462E-02  0.1058825E+00
          2   -1    0    0  501    0  0.00000000000E+00  0.00000000000E+00  0.14277738282E+04  0.14277738282E+04  0.00000000000E+00 0. -1.
         -2   -1    0    0    0  501 -0.00000000000E+00 -0.00000000000E+00 -0.97202358982E+02  0.97202358982E+02  0.00000000000E+00 0.  1.
         25    2    1    2    0    0 -0.15815766900E+03  0.31841172037E+03  0.70660015129E+03  0.80083140022E+03  0.12508911161E+03 0.  0.
         23    2    1    2    0    0  0.15815766900E+03 -0.31841172037E+03  0.62397131797E+03  0.72414478700E+03  0.92981691526E+02 0.  0.
          5    1    3    3  502    0 -0.37163820697E+02  0.11488267896E+03  0.37035212932E+03  0.38956045947E+03  0.41800000000E+01 0. -1.
         -5    1    3    3    0  502 -0.12099384831E+03  0.20352904141E+03  0.33624802197E+03  0.41127094075E+03  0.41800000000E+01 0. -1.
        -11    1    4    4    0    0  0.11369229179E+03 -0.15774387591E+03  0.26839329631E+03  0.33142726065E+03  0.00000000000E+00 0.  1.
         11    1    4    4    0    0  0.44465377212E+02 -0.16066784446E+03  0.35557802166E+03  0.39271752635E+03  0.00000000000E+00 0. -1.
</event>
<event>
 8    1  0.7130890E-009  0.1084468E+03  0.7561462E-02  0.1263474E+00
         -1   -1    0    0    0  501 -0.00000000000E+00  0.00000000000E+00  0.33635484929E+02  0.33635484929E+02  0.00000000000E+00 0.  1.
          1   -1    0    0  501    0  0.00000000000E+00 -0.00000000000E+00 -0.55850808740E+03  0.55850808740E+03  0.00000000000E+00 0. -1.
         25    2    1    2    0    0 -0.90383020928E+01  0.33851461479E+02 -0.46018298830E+03  0.47816689242E+03  0.12509029511E+03 0.  0.
         23    2    1    2    0    0  0.90383020928E+01 -0.33851461479E+02 -0.64689614168E+02  0.11397667991E+03  0.87053575650E+02 0.  0.
          5    1    3    3  502    0 -0.44145325265E+02  0.65803509457E+02 -0.33370222209E+03  0.34300664284E+03  0.41800000000E+01 0.  1.
         -5    1    3    3    0  502  0.35107023172E+02 -0.31952047978E+02 -0.12648076621E+03  0.13516024958E+03  0.41800000000E+01 0.  1.
        -11    1    4    4    0    0 -0.23789774577E+02  0.17086324174E+02 -0.65840426224E+01  0.30020750581E+02  0.00000000000E+00 0.  1.
         11    1    4    4    0    0  0.32828076670E+02 -0.50937785652E+02 -0.58105571545E+02  0.83955929330E+02  0.00000000000E+00 0. -1.
</event>
<event>
 8    1  0.7130890E-009  0.2329543E+03  0.7561462E-02  0.1124578E+00
          2   -1    0    0  501    0  0.00000000000E+00  0.00000000000E+00  0.32807392757E+03  0.32807392757E+03  0.00000000000E+00 0.  1.
         -2   -1    0    0    0  501 -0.00000000000E+00 -0.00000000000E+00 -0.58783967640E+03  0.58783967640E+03  0.00000000000E+00 0. -1.
         25    2    1    2    0    0  0.21922923606E+03  0.10812189290E+01  0.24900397351E+03  0.35455929491E+03  0.12508672116E+03 0.  0.
         23    2    1    2    0    0 -0.21922923606E+03 -0.10812189290E+01 -0.50876972234E+03  0.56135430905E+03  0.90605755592E+02 0.  0.
          5    1    3    3  502    0  0.13679813777E+03  0.31999911512E+02  0.74539665688E+02  0.15909543989E+03  0.41800000000E+01 0. -1.
         -5    1    3    3    0  502  0.82431098290E+02 -0.30918692583E+02  0.17446430782E+03  0.19546385502E+03  0.41800000000E+01 0. -1.
        -11    1    4    4    0    0 -0.65302651678E+02 -0.42376825867E+02 -0.16704935089E+03  0.18429790373E+03  0.00000000000E+00 0.  1.
         11    1    4    4    0    0 -0.15392658438E+03  0.41295606938E+02 -0.34172037145E+03  0.37705640532E+03  0.00000000000E+00 0. -1.
</event>
<event>
 8    1  0.7130890E-009  0.1637819E+03  0.7561462E-02  0.1184492E+00
         -1   -1    0    0    0  501 -0.00000000000E+00  0.00000000000E+00  0.57256497228E+02  0.57256497228E+02  0.00000000000E+00 0.  1.
          1   -1    0    0  501    0  0.00000000000E+00 -0.00000000000E+00 -0.69772064615E+03  0.69772064615E+03  0.00000000000E+00 0. -1.
         25    2    1    2    0    0 -0.11469674809E+03  0.41785775969E+02 -0.11912168377E+03  0.21151405494E+03  0.12508726872E+03 0.  0.
         23    2    1    2    0    0  0.11469674809E+03 -0.41785775969E+02 -0.52134246515E+03  0.54346308844E+03  0.93020252812E+02 0.  0.
          5    1    3    3  502    0 -0.49164417569E+02 -0.44278676654E+02 -0.40021587670E+02  0.77439918910E+02  0.41800000000E+01 0.  1.
         -5    1    3    3    0  502 -0.65532330518E+02  0.86064452623E+02 -0.79100096102E+02  0.13407413603E+03  0.41800000000E+01 0.  1.
        -11    1    4    4    0    0  0.12608520291E+03 -0.18958633912E+02 -0.41766030194E+03  0.43668871752E+03  0.00000000000E+00 0.  1.
         11    1    4    4    0    0 -0.11388454820E+02 -0.22827142057E+02 -0.10368216321E+03  0.10677437092E+03  0.00000000000E+00 0. -1.
</event>
<event>
 8    1  0.7130890E-009  0.1065236E+03  0.7561462E-02  0.1267147E+00
          2   -1    0    0  501    0  0.00000000000E+00  0.00000000000E+00  0.27549695931E+03  0.27549695931E+03  0.00000000000E+00 0. -1.
         -2   -1    0    0    0  501 -0.00000000000E+00 -0.00000000000E+00 -0.70418747875E+02  0.70418747875E+02  0.00000000000E+00 0.  1.
         25    2    1    2    0    0  0.11092523838E+02  0.68134297707E+02  0.17739414803E+03  0.22777766033E+03  0.12509457294E+03 0.  0.
         23    2    1    2    0    0 -0.11092523838E+02 -0.68134297707E+02  0.27684063408E+02  0.11813804686E+03  0.91787058674E+02 0.  0.
          5    1    3    3  502    0 -0.30005852964E+02  0.90765789777E+02  0.12255021387E+03  0.15548249781E+03  0.41800000000E+01 0. -1.
         -5    1    3    3    0  502  0.41098376803E+02 -0.22631492070E+02  0.54843934156E+02  0.72295162513E+02  0.41800000000E+01 0. -1.
        -11    1    4    4    0    0 -0.19145544355E+01 -0.48962711168E+02  0.61231480999E+02  0.78423892207E+02  0.00000000000E+00 0. -1.
         11    1    4    4    0    0 -0.91779694030E+01 -0.19171586539E+02 -0.33547417591E+02  0.39714154653E+02  0.00000000000E+00 0.  1.
</event>
<event>
 8    1  0.7130890E-009  0.1037131E+03  0.7561462E-02  0.1272676E+00
         -1   -1    0    0    0  501 -0.00000000000E+00  0.00000000000E+00  0.18135223834E+03  0.18135223834E+03  0.00000000000E+00 0.  1.
          1   -1    0    0  501    0  0.00000000000E+00 -0.00000000000E+00 -0.16801425605E+03  0.16801425605E+03  0.00000000000E+00 0. -1.
         25    2    1    2    0    0  0.37929055245E+02 -0.14347876859E+02 -0.12512514514E+03  0.18152216953E+03  0.12509804668E+03 0.  0.
         23    2    1    2    0    0 -0.37929055245E+02  0.14347876859E+02  0.13846312744E+03  0.16784432486E+03  0.85762491376E+02 0.  0.
          5    1    3    3  502    0  0.33641885988E+02  0.47167054908E+02 -0.98228699497E+02  0.11411773467E+03  0.41800000000E+01 0.  1.
         -5    1    3    3    0  502  0.42871692568E+01 -0.61514931767E+02 -0.26896445642E+02  0.67404434859E+02  0.41800000000E+01 0.  1.
        -11    1    4    4    0    0 -0.27573964145E+02 -0.30727169278E+02  0.98195940656E+02  0.10652194700E+03  0.00000000000E+00 0.  1.
         11    1    4    4    0    0 -0.10355091100E+02  0.45075046137E+02  0.40267186779E+02  0.61322377866E+02  0.00000000000E+00 0. -1.
</event>
<event>
 8    1  0.7130890E-009  0.7609377E+02  0.7561462E-02  0.1340517E+00
          3   -1    0    0  501    0  0.00000000000E+00  0.00000000000E+00  0.81290479351E+02  0.81290479351E+02  0.00000000000E+00 0.  1.
         -3   -1    0    0    0  501 -0.00000000000E+00 -0.00000000000E+00 -0.17763882357E+03  0.17763882357E+03  0.00000000000E+00 0. -1.
         25    2    1    2    0    0 -0.20653808572E+02 -0.37869398727E+02 -0.92277383113E+02  0.16131742487E+03  0.12509006741E+03 0.  0.
         23    2    1    2    0    0  0.20653808572E+02  0.37869398727E+02 -0.40709611101E+01  0.97611878053E+02  0.87469050779E+02 0.  0.
          5    1    3    3  502    0  0.28440141229E+02 -0.16636665589E+02 -0.10157399144E+03  0.10686612379E+03  0.41800000000E+01 0. -1.
         -5    1    3    3    0  502 -0.49093949802E+02 -0.21232733138E+02  0.92966083313E+01  0.54451301087E+02  0.41800000000E+01 0. -1.
        -11    1    4    4    0    0 -0.54508374414E+01 -0.96627299265E+01  0.31070927701E+02  0.32992158563E+02  0.00000000000E+00 0.  1.
         11    1    4    4    0    0  0.26104646014E+02  0.47532128653E+02 -0.35141888811E+02  0.64619719490E+02  0.00000000000E+00 0. -1.
</event>
<event>
 8    1  0.7130890E-009  0.1183470E+03  0.7561462E-02  0.1245849E+00
         -1   -1    0    0    0  501 -0.00000000000E+00  0.00000000000E+00  0.31041480923E+02  0.31041480923E+02  0.00000000000E+00 0.  1.
          1   -1    0    0  501    0  0.00000000000E+00 -0.00000000000E+00 -0.67568361071E+03  0.67568361071E+03  0.00000000000E+00 0. -1.
         25    2    1    2    0    0 -0.21766769911E+01 -0.79057035760E+02 -0.47732236941E+03  0.49973620874E+03  0.12507949935E+03 0.  0.
         23    2    1    2    0    0  0.21766769911E+01  0.79057035760E+02 -0.16731976038E+03  0.20698888290E+03  0.92702441202E+02 0.  0.
          5    1    3    3  502    0 -0.10288807650E+02  0.33372171518E+02 -0.11047287671E+03  0.11593657871E+03  0.41800000000E+01 0.  1.
         -5    1    3    3    0  502  0.81121306587E+01 -0.11242920728E+03 -0.36684949270E+03  0.38379963003E+03  0.41800000000E+01 0.  1.
        -11    1    4    4    0    0 -0.18834656045E+02  0.30985982480E+02 -0.52497353446E+01  0.36639256266E+02  0.00000000000E+00 0.  1.
         11    1    4    4    0    0  0.21011333036E+02  0.48071053280E+02 -0.16207002503E+03  0.17034962663E+03  0.00000000000E+00 0. -1.
</event>
<event>
 8    1  0.7130890E-009  0.9123012E+02  0.7561462E-02  0.1299900E+00
         -2   -1    0    0    0  501 -0.00000000000E+00  0.00000000000E+00  0.32707520535E+02  0.32707520535E+02  0.00000000000E+00 0. -1.
          2   -1    0    0  501    0  0.00000000000E+00 -0.00000000000E+00 -0.46912072805E+03  0.46912072805E+03  0.00000000000E+00 0.  1.
         25    2    1    2    0    0  0.22385013368E+01 -0.55135489979E+02 -0.19665507304E+03  0.23950819214E+03  0.12508406457E+03 0.  0.
         23    2    1    2    0    0 -0.22385013368E+01  0.55135489979E+02 -0.23975813448E+03  0.26232005644E+03  0.91010525880E+02 0.  0.
          5    1    3    3  502    0 -0.22517553811E+02 -0.46609623625E+02 -0.20518519196E+03  0.21165522116E+03  0.41800000000E+01 0.  1.
         -5    1    3    3    0  502  0.24756055148E+02 -0.85258663544E+01  0.85301189249E+01  0.27852970981E+02  0.41800000000E+01 0.  1.
        -11    1    4    4    0    0  0.39437052550E+02  0.65080141857E+01 -0.66296969476E+02  0.77413974993E+02  0.00000000000E+00 0.  1.
         11    1    4    4    0    0 -0.41675553887E+02  0.48627475794E+02 -0.17346116500E+03  0.18490608145E+03  0.00000000000E+00 0. -1.
</event>
<event>
 8    1  0.7130890E-009  0.1445781E+03  0.7561462E-02  0.1207298E+00
          1   -1    0    0  501    0  0.00000000000E+00  0.00000000000E+00  0.31747228314E+03  0.31747228314E+03  0.00000000000E+00 0. -1.
         -1   -1    0    0    0  501 -0.00000000000E+00 -0.00000000000E+00 -0.69802060288E+02  0.69802060288E+02  0.00000000000E+00 0.  1.
         25    2    1    2    0    0  0.58704054590E+02  0.82177618397E+02  0.15017076643E+03  0.21999614890E+03  0.12509084479E+03 0.  0.
         23    2    1    2    0    0 -0.58704054590E+02 -0.82177618397E+02  0.97499456426E+02  0.16727819453E+03  0.90975399816E+02 0.  0.
          5    1    3    3  502    0  0.14728959522E+02 -0.30129803137E+02  0.10457790997E+02  0.35377748349E+02  0.41800000000E+01 0. -1.
         -5    1    3    3    0  502  0.43975095068E+02  0.11230742153E+03  0.13971297543E+03  0.18461840055E+03  0.41800000000E+01 0. -1.
        -11    1    4    4    0    0 -0.62071649786E+01 -0.81944832814E+02  0.70336381768E+02  0.10816973293E+03  0.00000000000E+00 0. -1.
         11    1    4    4    0    0 -0.52496889612E+02 -0.23278558256E+00  0.27163074659E+02  0.59108461602E+02  0.00000000000E+00 0.  1.
</event>
<event>
 8    1  0.7130890E-009  0.1860360E+03  0.7561462E-02  0.1162086E+00
          3   -1    0    0  501    0  0.00000000000E+00  0.00000000000E+00  0.94405702324E+02  0.94405702324E+02  0.00000000000E+00 0. -1.
         -3   -1    0    0    0  501 -0.00000000000E+00 -0.00000000000E+00 -0.41638615352E+03  0.41638615352E+03  0.00000000000E+00 0.  1.
         25    2    1    2    0    0 -0.12722528103E+03 -0.81021180473E+02 -0.25550204316E+03  0.32198629730E+03  0.12507268995E+03 0.  0.
         23    2    1    2    0    0  0.12722528103E+03  0.81021180473E+02 -0.66478408036E+02  0.18880555855E+03  0.92073103481E+02 0.  0.
          5    1    3    3  502    0 -0.38137916465E+02 -0.97915686666E+02 -0.13860129593E+03  0.17398210828E+03  0.41800000000E+01 0.  1.
         -5    1    3    3    0  502 -0.89087364564E+02  0.16894506193E+02 -0.11690074723E+03  0.14800418902E+03  0.41800000000E+01 0.  1.
        -11    1    4    4    0    0  0.12173588503E+03  0.99269949968E+02 -0.54350385268E+02  0.16621706606E+03  0.00000000000E+00 0. -1.
         11    1    4    4    0    0  0.54893959983E+01 -0.18248769495E+02 -0.12128022768E+02  0.22588492486E+02  0.00000000000E+00 0.  1.
</event>
<event>
 8    1  0.7130890E-009  0.3524552E+03  0.7561462E-02  0.1061612E+00
         -3   -1    0    0    0  501 -0.00000000000E+00  0.00000000000E+00  0.62828385331E+03  0.62828385331E+03  0.00000000000E+00 0.  1.
          3   -1    0    0  501    0  0.00000000000E+00 -0.00000000000E+00 -0.25095903978E+03  0.25095903978E+03  0.00000000000E+00 0. -1.
         25    2    1    2    0    0 -0.32613000432E+03  0.12515179744E+03  0.20719517165E+02  0.37161900061E+03  0.12509049167E+03 0.  0.
         23    2    1    2    0    0  0.32613000432E+03 -0.12515179744E+03  0.35660529637E+03  0.50762389248E+03  0.92146224565E+02 0.  0.
          5    1    3    3  502    0 -0.13507575413E+03  0.68197643432E+02  0.69143257947E+02  0.16641706777E+03  0.41800000000E+01 0.  1.
         -5    1    3    3    0  502 -0.19105425019E+03  0.56954154006E+02 -0.48423740781E+02  0.20520193285E+03  0.41800000000E+01 0.  1.
        -11    1    4    4    0    0  0.11535656626E+03 -0.15054364334E+02  0.72259639459E+02  0.13694972347E+03  0.00000000000E+00 0. -1.
         11    1    4    4    0    0  0.21077343806E+03 -0.11009743310E+03  0.28434565691E+03  0.37067416901E+03  0.00000000000E+00 0.  1.
</event>
<event>
 8    1  0.7130890E-009  0.2249626E+03  0.7561462E-02  0.1130236E+00
         -2   -1    0    0    0  501 -0.00000000000E+00  0.00000000000E+00  0.13999801145E+04  0.13999801145E+04  0.00000000000E+00 0.  1.
          2   -1    0    0  501    0  0.00000000000E+00 -0.00000000000E+00 -0.37768298765E+02  0.37768298765E+02  0.00000000000E+00 0. -1.
         25    2    1    2    0    0 -0.29742959521E+02 -0.19995314480E+03  0.67697657829E+03  0.71750334671E+03  0.12509141151E+03 0.  0.
         23    2    1    2    0    0  0.29742959521E+02  0.19995314480E+03  0.68523523741E+03  0.72024506651E+03  0.91322075624E+02 0.  0.
          5    1    3    3  502    0  0.26374435308E+02  0.32248719022E+01  0.75717712180E+02  0.80353313400E+02  0.41800000000E+01 0. -1.
         -5    1    3    3    0  502 -0.56117394829E+02 -0.20317801670E+03  0.60125886611E+03  0.63715003331E+03  0.41800000000E+01 0. -1.
        -11    1    4    4    0    0  0.49102608395E+02  0.11454614530E+03  0.50080934293E+03  0.51608321376E+03  0.00000000000E+00 0.  1.
         11    1    4    4    0    0 -0.19359648873E+02  0.85406999497E+02  0.18442589447E+03  0.20416185275E+03  0.00000000000E+00 0. -1.
</event>
<event>
 8    1  0.7130890E-009  0.1016105E+03  0.7561462E-02  0.1276945E+00
         -1   -1    0    0    0  501 -0.00000000000E+00  0.00000000000E+00  0.87928513176E+02  0.87928513176E+02  0.00000000000E+00 0.  1.
          1   -1    0    0  501    0  0.00000000000E+00 -0.00000000000E+00 -0.21630878631E+03  0.21630878631E+03  0.00000000000E+00 0. -1.
         25    2    1    2    0    0  0.31778070616E+02  0.84356001780E+01  0.14451672415E+02  0.13014459306E+03  0.12509100345E+03 0.  0.
         23    2    1    2    0    0 -0.31778070616E+02 -0.84356001780E+01 -0.14283194555E+03  0.17409270643E+03  0.93948393487E+02 0.  0.
          5    1    3    3  502    0 -0.42222784865E+02  0.13462494299E+02  0.30732829953E+02  0.54092342817E+02  0.41800000000E+01 0.  1.
         -5    1    3    3    0  502  0.74000855481E+02 -0.50268941206E+01 -0.16281157538E+02  0.76052250244E+02  0.41800000000E+01 0.  1.
        -11    1    4    4    0    0  0.18162155578E+02 -0.25794394588E+02 -0.10348641232E+03  0.10818804103E+03  0.00000000000E+00 0. -1.
         11    1    4    4    0    0 -0.49940226194E+02  0.17358794410E+02 -0.39345533231E+02  0.65904665395E+02  0.00000000000E+00 0.  1.
</event>
<event>
 8    1  0.7130890E-009  0.1292493E+03  0.7561462E-02  0.1228574E+00
         -4   -1    0    0    0  501 -0.00000000000E+00  0.00000000000E+00  0.78868684129E+03  0.78868684129E+03  0.00000000000E+00 0.  1.
          4   -1    0    0  501    0  0.00000000000E+00 -0.00000000000E+00 -0.27739298901E+02  0.27739298901E+02  0.00000000000E+00 0. -1.
         25    2    1    2    0    0  0.41882164219E+02 -0.87895312407E+02  0.48206605721E+03  0.50745862283E+03  0.12508744439E+03 0.  0.
         23    2    1    2    0    0 -0.41882164219E+02  0.87895312407E+02  0.27888148517E+03  0.30896751736E+03  0.90588864593E+02 0.  0.
          5    1    3    3  502    0 -0.27914730660E+02 -0.43473601850E+02  0.33221712804E+03  0.33623634368E+03  0.41800000000E+01 0. -1.
         -5    1    3    3    0  502  0.69796894879E+02 -0.44421710558E+02  0.14984892917E+03  0.17122227915E+03  0.41800000000E+01 0. -1.
        -11    1    4    4    0    0 -0.59096935292E+02  0.88709860372E+02  0.18494506698E+03  0.21346326356E+03  0.00000000000E+00 0.  1.
         11    1    4    4    0    0  0.17214771073E+02 -0.81454796421E+00  0.93936418193E+02  0.95504253803E+02  0.00000000000E+00 0. -1.
</event>
<event>
 8    1  0.7130890E-009  0.9746147E+02  0.7561462E-02  0.1285727E+00
          1   -1    0    0  501    0  0.00000000000E+00  0.00000000000E+00  0.48977439950E+03  0.48977439950E+03  0.00000000000E+00 0. -1.
         -1   -1    0    0    0  501 -0.00000000000E+00 -0.00000000000E+00 -0.36614296169E+02  0.36614296169E+02  0.00000000000E+00 0.  1.
         25    2    1    2    0    0  0.59978569073E+02  0.39366702278E+02  0.31669778120E+03  0.34798274257E+03  0.12508932214E+03 0.  0.
         23    2    1    2    0    0 -0.59978569073E+02 -0.39366702278E+02  0.13646232213E+03  0.17840595310E+03  0.89775011798E+02 0.  0.
          5    1    3    3  502    0  0.34874230012E+02 -0.11970850340E+02  0.27405770301E+03  0.27655851127E+03  0.41800000000E+01 0. -1.
         -5    1    3    3    0  502  0.25104339061E+02  0.51337552618E+02  0.42640078188E+02  0.71424231297E+02  0.41800000000E+01 0. -1.
        -11    1    4    4    0    0 -0.19095483396E+01 -0.42328040247E+02  0.17208156889E+02  0.45732155312E+02  0.00000000000E+00 0.  1.
         11    1    4    4    0    0 -0.58069020734E+02  0.29613379685E+01  0.11925416524E+03  0.13267379779E+03  0.00000000000E+00 0. -1.
</event>
<event>
 8    1  0.7130890E-009  0.1152120E+03  0.7561462E-02  0.1251212E+00
          2   -1    0    0  501    0  0.00000000000E+00  0.00000000000E+00  0.11353606403E+04  0.11353606403E+04  0.00000000000E+00 0. -1.
         -2   -1    0    0    0  501 -0.00000000000E+00 -0.00000000000E+00 -0.20505810754E+02  0.20505810754E+02  0.00000000000E+00 0.  1.
         25    2    1    2    0    0 -0.63805368082E+02  0.13414140386E+02  0.92352270579E+03  0.93423398357E+03  0.12509150165E+03 0.  0.
         23    2    1    2    0    0  0.63805368082E+02 -0.13414140386E+02  0.19133212374E+03  0.22163246747E+03  0.90895021335E+02 0.  0.
          5    1    3    3  502    0 -0.51436048318E+02  0.61611172599E+02  0.37905645196E+03  0.38748273487E+03  0.41800000000E+01 0. -1.
         -5    1    3    3    0  502 -0.12369319765E+02 -0.48197032213E+02  0.54446625383E+03  0.54675124870E+03  0.41800000000E+01 0. -1.
        -11    1    4    4    0    0  0.33655609855E+02 -0.45172000681E+02  0.56156766931E+02  0.79541135222E+02  0.00000000000E+00 0.  1.
         11    1    4    4    0    0  0.30149758227E+02  0.31757860294E+02  0.13517535681E+03  0.14209133225E+03  0.00000000000E+00 0. -1.
</event>
<event>
 8    1  0.7130890E-009  0.1035534E+03  0.7561462E-02  0.1272996E+00
         -1   -1    0    0    0  501 -0.00000000000E+00  0.00000000000E+00  0.19850590964E+03  0.19850590964E+03  0.00000000000E+00 0.  1.
          1   -1    0    0  501    0  0.00000000000E+00 -0.00000000000E+00 -0.12225202215E+03  0.12225202215E+03  0.00000000000E+00 0. -1.
         25    2    1    2    0    0 -0.39964653186E+02 -0.62370862196E+02  0.12386915691E+03  0.19099261092E+03  0.12508921391E+03 0.  0.
         23    2    1    2    0    0  0.39964653186E+02  0.62370862196E+02 -0.47615269413E+02  0.12976532087E+03  0.95312783325E+02 0.  0.
          5    1    3    3  502    0 -0.77134173511E+02 -0.54726169814E+02  0.11966642959E+03  0.15258493096E+03  0.41800000000E+01 0. -1.
         -5    1    3    3    0  502  0.37169520325E+02 -0.76446923815E+01  0.42027273153E+01  0.38407679957E+02  0.41800000000E+01 0. -1.
        -11    1    4    4    0    0  0.34822299147E+02  0.50687891604E+02  0.17078563359E+02  0.63824228939E+02  0.00000000000E+00 0.  1.
         11    1    4    4    0    0  0.51423540383E+01  0.11682970591E+02 -0.64693832773E+02  0.65941091936E+02  0.00000000000E+00 0. -1.
</event>
<event>
 8    1  0.7130890E-009  0.1708602E+03  0.7561462E-02  0.1176954E+00
          2   -1    0    0  501    0  0.00000000000E+00  0.00000000000E+00  0.33585866518E+03  0.33585866518E+03  0.00000000000E+00 0.  1.
         -2   -1    0    0    0  501 -0.00000000000E+00 -0.00000000000E+00 -0.11269536109E+03  0.11269536109E+03  0.00000000000E+00 0. -1.
         25    2    1    2    0    0  0.15361828300E+03 -0.44098226059E+02  0.14791475065E+03  0.25113623996E+03  0.12508959648E+03 0.  0.
         23    2    1    2    0    0 -0.15361828300E+03  0.44098226059E+02  0.75248553440E+02  0.19741778632E+03  0.88137433289E+02 0.  0.
          5    1    3    3  502    0  0.30858697366E+02 -0.48865529152E+02  0.10682300207E+03  0.12152664446E+03  0.41800000000E+01 0.  1.
         -5    1    3    3    0  502  0.12275958563E+03  0.47673030934E+01  0.41091748579E+02  0.12960959550E+03  0.41800000000E+01 0.  1.
        -11    1    4    4    0    0 -0.72183816116E+02  0.30172117676E+02  0.83457745401E+02  0.11439429733E+03  0.00000000000E+00 0.  1.
         11    1    4    4    0    0 -0.81434466882E+02  0.13926108383E+02 -0.82091919608E+01  0.83023488987E+02  0.00000000000E+00 0. -1.
</event>
<event>
 8    1  0.7130890E-009  0.1569757E+03  0.7561462E-02  0.1192154E+00
         -2   -1    0    0    0  501 -0.00000000000E+00  0.00000000000E+00  0.98182097240E+02  0.98182097240E+02  0.00000000000E+00 0. -1.
          2   -1    0    0  501    0  0.00000000000E+00 -0.00000000000E+00 -0.26656968343E+03  0.26656968343E+03  0.00000000000E+00 0.  1.
         25    2    1    2    0    0 -0.54585560450E+02  0.10467278499E+03 -0.68071099193E+02  0.18497817080E+03  0.12508906347E+03 0.  0.
         23    2    1    2    0    0  0.54585560450E+02 -0.10467278499E+03 -0.10031648699E+03  0.17977360987E+03  0.91209527547E+02 0.  0.
          5    1    3    3  502    0  0.27563951601E+02  0.70291285796E+02 -0.50227990049E+01  0.75784808482E+02  0.41800000000E+01 0.  1.
         -5    1    3    3    0  502 -0.82149512052E+02  0.34381499193E+02 -0.63048300188E+02  0.10919336232E+03  0.41800000000E+01 0.  1.
        -11    1    4    4    0    0  0.79156819311E+02 -0.64582726109E+02 -0.68902862018E+02  0.12322473351E+03  0.00000000000E+00 0.  1.
         11    1    4    4    0    0 -0.24571258860E+02 -0.40090058880E+02 -0.31413624975E+02  0.56548876355E+02  0.00000000000E+00 0. -1.
</event>
<event>
 8    1  0.7130890E-009  0.1260135E+03  0.7561462E-02  0.1233494E+00
          2   -1    0    0  501    0  0.00000000000E+00  0.00000000000E+00  0.37556648835E+03  0.37556648835E+03  0.00000000000E+00 0. -1.
         -2   -1    0    0    0  501 -0.00000000000E+00 -0.00000000000E+00 -0.46072873188E+02  0.46072873188E+02  0.00000000000E+00 0.  1.
         25    2    1    2    0    0 -0.50423331361E+02 -0.52722374905E+02  0.20404075912E+03  0.25020454897E+03  0.12509006269E+03 0.  0.
         23    2    1    2    0    0  0.50423331361E+02  0.52722374905E+02  0.12545285605E+03  0.17143481257E+03  0.91265079352E+02 0.  0.
          5    1    3    3  502    0  0.39456177286E+02 -0.27360037205E+02  0.95378750316E+02  0.10686411921E+03  0.41800000000E+01 0. -1.
         -5    1    3    3    0  502 -0.89879508647E+02 -0.25362337700E+02  0.10866200880E+03  0.14334042976E+03  0.41800000000E+01 0. -1.
        -11    1    4    4    0    0 -0.95280747825E+01  0.49394053041E+02  0.85863347993E+02  0.99514175942E+02  0.00000000000E+00 0. -1.
         11    1    4    4    0    0  0.59951406143E+02  0.33283218641E+01  0.39589508057E+02  0.71920636630E+02  0.00000000000E+00 0.  1.
</event>
<event>
 8    1  0.7130890E-009  0.1254859E+03  0.7561462E-02  0.1234312E+00
          1   -1    0    0  501    0  0.00000000000E+00  0.00000000000E+00  0.12879024938E+04  0.12879024938E+04  0.00000000000E+00 0. -1.
         -1   -1    0    0    0  501 -0.00000000000E+00 -0.00000000000E+00 -0.17307378072E+02  0.17307378072E+02  0.00000000000E+00 0.  1.
         25    2    1    2    0    0  0.22087568930E+02  0.92742586225E+02  0.85688904307E+03  0.87120515355E+03  0.12510211598E+03 0.  0.
         23    2    1    2    0    0 -0.22087568930E+02 -0.92742586225E+02  0.41370607261E+03  0.43400471828E+03  0.90101792303E+02 0.  0.
          5    1    3    3  502    0  0.64707354343E+02  0.23502069853E+02  0.52328347902E+03  0.52780911399E+03  0.41800000000E+01 0. -1.
         -5    1    3    3    0  502 -0.42619785413E+02  0.69240516372E+02  0.33360556405E+03  0.34339603956E+03  0.41800000000E+01 0. -1.
        -11    1    4    4    0    0  0.76586121952E+01 -0.32651631773E+02  0.31664822152E+02  0.46124227474E+02  0.00000000000E+00 0.  1.
         11    1    4    4    0    0 -0.29746181125E+02 -0.60090954453E+02  0.38204125045E+03  0.38788049080E+03  0.00000000000E+00 0. -1.
</event>
<event>
 8    1  0.7130890E-009  0.1110534E+03  0.7561462E-02  0.1258631E+00
          2   -1    0    0  501    0  0.00000000000E+00  0.00000000000E+00  0.58918941501E+03  0.58918941501E+03  0.00000000000E+00 0. -1.
         -2   -1    0    0    0  501 -0.00000000000E+00 -0.00000000000E+00 -0.34494954996E+02  0.34494954996E+02  0.00000000000E+00 0.  1.
         25    2    1    2    0    0  0.35612566438E+02  0.83200577371E+02  0.25462029298E+03  0.29777397494E+03  0.12508899070E+03 0.  0.
         23    2    1    2    0    0 -0.35612566438E+02 -0.83200577371E+02  0.30007416704E+03  0.32591039507E+03  0.89344775589E+02 0.  0.
          5    1    3    3  502    0  0.46692589031E+02  0.61693727153E+02  0.26112231932E+03  0.27237593853E+03  0.41800000000E+01 0. -1.
         -5    1    3    3    0  502 -0.11080022593E+02  0.21506850217E+02 -0.65020263477E+01  0.25398036411E+02  0.41800000000E+01 0. -1.
        -11    1    4    4    0    0 -0.41965746327E+02 -0.57470629559E+01  0.59075559751E+02  0.72691638841E+02  0.00000000000E+00 0. -1.
         11    1    4    4    0    0  0.63531798891E+01 -0.77453514415E+02  0.24099860729E+03  0.25321875623E+03  0.00000000000E+00 0.  1.
</event>
<event>
 8    1  0.7130890E-009  0.7053356E+02  0.7561462E-02  0.1358288E+00
          1   -1    0    0  501    0  0.00000000000E+00  0.00000000000E+00  0.73874920302E+02  0.73874920302E+02  0.00000000000E+00 0. -1.
         -1   -1    0    0    0  501 -0.00000000000E+00 -0.00000000000E+00 -0.21294329240E+03  0.21294329240E+03  0.00000000000E+00 0.  1.
         25    2    1    2    0    0  0.57799191799E+02  0.27820682672E+02 -0.77198330942E+02  0.16038423591E+03  0.12509509932E+03 0.  0.
         23    2    1    2    0    0 -0.57799191799E+02 -0.27820682672E+02 -0.61870041155E+02  0.12643397679E+03  0.89682281064E+02 0.  0.
          5    1    3    3  502    0  0.59288891548E+02  0.21874444559E+02  0.17253371569E+02  0.65641566223E+02  0.41800000000E+01 0.  1.
         -5    1    3    3    0  502 -0.14896997493E+01  0.59462381129E+01 -0.94451702510E+02  0.94742669691E+02  0.41800000000E+01 0.  1.
        -11    1    4    4    0    0 -0.18063893801E+02  0.50372224213E+01 -0.71554734674E+02  0.73971331766E+02  0.00000000000E+00 0.  1.
         11    1    4    4    0    0 -0.39735297998E+02 -0.32857905093E+02  0.96846935186E+01  0.52462645021E+02  0.00000000000E+00 0. -1.
</event>
<event>
 8    1  0.7130890E-009  0.1482489E+03  0.7561462E-02  0.1202641E+00
         -2   -1    0    0    0  501 -0.00000000000E+00  0.00000000000E+00  0.45241637321E+02  0.45241637321E+02  0.00000000000E+00 0.  1.
          2   -1    0    0  501    0  0.00000000000E+00 -0.00000000000E+00 -0.66225429420E+03  0.66225429420E+03  0.00000000000E+00 0. -1.
         25    2    1    2    0    0 -0.12114160434E+03  0.28286488731E+02 -0.43212753491E+03  0.46675173723E+03  0.12509022357E+03 0.  0.
         23    2    1    2    0    0  0.12114160434E+03 -0.28286488731E+02 -0.18488512197E+03  0.24074419430E+03  0.91103485196E+02 0.  0.
          5    1    3    3  502    0 -0.18252642965E+02  0.39903739877E+02 -0.34878544552E+02  0.56209009077E+02  0.41800000000E+01 0. -1.
         -5    1    3    3    0  502 -0.10288896137E+03 -0.11617251147E+02 -0.39724899036E+03  0.41054272815E+03  0.41800000000E+01 0. -1.
        -11    1    4    4    0    0  0.44137698279E+01  0.21457504239E+02 -0.85803193897E+01  0.23527170104E+02  0.00000000000E+00 0.  1.
         11    1    4    4    0    0  0.11672783451E+03 -0.49743992970E+02 -0.17630480258E+03  0.21721702419E+03  0.00000000000E+00 0. -1.
</event>
<event>
 8    1  0.7130890E-009  0.1175939E+03  0.7561462E-02  0.1247120E+00
          1   -1    0    0  501    0  0.00000000000E+00  0.00000000000E+00  0.18233021562E+03  0.18233021562E+03  0.00000000000E+00 0. -1.
         -1   -1    0    0    0  501 -0.00000000000E+00 -0.00000000000E+00 -0.19089520619E+03  0.19089520619E+03  0.00000000000E+00 0.  1.
         25    2    1    2    0    0 -0.29153282591E+02 -0.87749279489E+02 -0.12414309570E+03  0.19901614253E+03  0.12508423898E+03 0.  0.
         23    2    1    2    0    0  0.29153282591E+02  0.87749279489E+02  0.11557810513E+03  0.17420927928E+03  0.91873416531E+02 0.  0.
          5    1    3    3  502    0  0.22405333383E+02 -0.26212263105E+02 -0.11255767533E+03  0.11779551934E+03  0.41800000000E+01 0. -1.
         -5    1    3    3    0  502 -0.51558615974E+02 -0.61537016384E+02 -0.11585420372E+02  0.81220623193E+02  0.41800000000E+01 0. -1.
        -11    1    4    4    0    0  0.49678724812E+02  0.28310266023E+02  0.21578177994E+02  0.61115175094E+02  0.00000000000E+00 0.  1.
         11    1    4    4    0    0 -0.20525442221E+02  0.59439013466E+02  0.93999927133E+02  0.11309410418E+03  0.00000000000E+00 0. -1.
</event>
<event>
 8    1  0.7130890E-009  0.1070062E+03  0.7561462E-02  0.1266216E+00
          3   -1    0    0  501    0  0.00000000000E+00  0.00000000000E+00  0.26008143986E+02  0.26008143986E+02  0.00000000000E+00 0. -1.
         -3   -1    0    0    0  501 -0.00000000000E+00 -0.00000000000E+00 -0.49495876973E+03  0.49495876973E+03  0.00000000000E+00 0.  1.
         25    2    1    2    0    0 -0.68209220829E+01  0.28470672043E+02 -0.30439746730E+03  0.33039494052E+03  0.12508354998E+03 0.  0.
         23    2    1    2    0    0  0.68209220829E+01 -0.28470672043E+02 -0.16455315844E+03  0.19057197319E+03  0.91557800710E+02 0.  0.
          5    1    3    3  502    0 -0.44119190739E+02 -0.32413367848E+02 -0.10377545153E+03  0.11740505162E+03  0.41800000000E+01 0.  1.
         -5    1    3    3    0  502  0.37298268656E+02  0.60884039891E+02 -0.20062201578E+03  0.21298988890E+03  0.41800000000E+01 0.  1.
        -11    1    4    4    0    0  0.20765717567E+02 -0.54352872307E+02 -0.67263479140E+02  0.88937199079E+02  0.00000000000E+00 0. -1.
         11    1    4    4    0    0 -0.13944795484E+02  0.25882200265E+02 -0.97289679298E+02  0.10163477412E+03  0.00000000000E+00 0.  1.
</event>
<event>
 8    1  0.7130890E-009  0.9833325E+02  0.7561462E-02  0.1283840E+00
         -2   -1    0    0    0  501 -0.00000000000E+00  0.00000000000E+00  0.84009361098E+02  0.84009361098E+02  0.00000000000E+00 0.  1.
          2   -1    0    0  501    0  0.00000000000E+00 -0.00000000000E+00 -0.23405593206E+03  0.23405593206E+03  0.00000000000E+00 0. -1.
         25    2    1    2    0    0  0.56999391646E+02 -0.13681383646E+02 -0.52057776200E+01  0.13824188110E+03  0.12509039397E+03 0.  0.
         23    2    1    2    0    0 -0.56999391646E+02  0.13681383646E+02 -0.14484079334E+03  0.17982341205E+03  0.89002770754E+02 0.  0.
          5    1    3    3  502    0 -0.39824098131E+02  0.84458309448E+00  0.82465410360E+00  0.40060261693E+02  0.41800000000E+01 0. -1.
         -5    1    3    3    0  502  0.96823489777E+02 -0.14525966740E+02 -0.60304317237E+01  0.98181619406E+02  0.41800000000E+01 0. -1.
        -11    1    4    4    0    0 -0.28412378953E+02  0.68852482464E+01 -0.14745356380E+03  0.15032372866E+03  0.00000000000E+00 0. -1.
         11    1    4    4    0    0 -0.28587012694E+02  0.67961353996E+01  0.26127704582E+01  0.29499683398E+02  0.00000000000E+00 0.  1.
</event>
<event>
 8    1  0.7130890E-009  0.9255487E+02  0.7561462E-02  0.1296780E+00
         -1   -1    0    0    0  501 -0.00000000000E+00  0.00000000000E+00  0.63559099975E+02  0.63559099975E+02  0.00000000000E+00 0.  1.
          1   -1    0    0  501    0  0.00000000000E+00 -0.00000000000E+00 -0.24497920716E+03  0.24497920716E+03  0.00000000000E+00 0. -1.
         25    2    1    2    0    0 -0.31012889718E+02  0.21656665289E+02 -0.51986418759E+02  0.14064885361E+03  0.12509477129E+03 0.  0.
         23    2    1    2    0    0  0.31012889718E+02 -0.21656665289E+02 -0.12943368843E+03  0.16788945353E+03  0.10001489103E+03 0.  0.
          5    1    3    3  502    0  0.12509878913E+02  0.30889524208E+02 -0.80782741113E+02  0.87487047258E+02  0.41800000000E+01 0. -1.
         -5    1    3    3    0  502 -0.43522768630E+02 -0.92328589189E+01  0.28796322354E+02  0.53161806348E+02  0.41800000000E+01 0. -1.
        -11    1    4    4    0    0 -0.17128144155E+02 -0.48695619082E+02 -0.59024825784E+02  0.78412796780E+02  0.00000000000E+00 0. -1.
         11    1    4    4    0    0  0.48141033873E+02  0.27038953793E+02 -0.70408862645E+02  0.89476656753E+02  0.00000000000E+00 0.  1.
</event>
<event>
 8    1  0.7130890E-009  0.1869675E+03  0.7561462E-02  0.1161225E+00
         -2   -1    0    0    0  501 -0.00000000000E+00  0.00000000000E+00  0.32102344391E+02  0.32102344391E+02  0.00000000000E+00 0.  1.
          2   -1    0    0  501    0  0.00000000000E+00 -0.00000000000E+00 -0.14341694204E+04  0.14341694204E+04  0.00000000000E+00 0. -1.
         25    2    1    2    0    0 -0.65514544050E+02  0.15234069882E+03 -0.10019367581E+04  0.10232424287E+04  0.12509179340E+03 0.  0.
         23    2    1    2    0    0  0.65514544050E+02 -0.15234069882E+03 -0.40013031795E+03  0.44302933607E+03  0.93117545504E+02 0.  0.
          5    1    3    3  502    0  0.15705005380E+02  0.10570344338E+03 -0.66337624650E+03  0.67194150189E+03  0.41800000000E+01 0. -1.
         -5    1    3    3    0  502 -0.81219549430E+02  0.46637255436E+02 -0.33856051158E+03  0.35130092685E+03  0.41800000000E+01 0. -1.
        -11    1    4    4    0    0  0.60877003171E+02 -0.78915762522E+02 -0.31561279341E+03  0.33097604513E+03  0.00000000000E+00 0. -1.
         11    1    4    4    0    0  0.46375408783E+01 -0.73424936298E+02 -0.84517524537E+02  0.11205329094E+03  0.00000000000E+00 0.  1.
</event>
<event>
 8    1  0.7130890E-009  0.1320740E+03  0.7561462E-02  0.1224410E+00
         -1   -1    0    0    0  501 -0.00000000000E+00  0.00000000000E+00  0.38690604913E+02  0.38690604913E+02  0.00000000000E+00 0.  1.
          1   -1    0    0  501    0  0.00000000000E+00 -0.00000000000E+00 -0.63827729078E+03  0.63827729078E+03  0.00000000000E+00 0. -1.
         25    2    1    2    0    0  0.56269319765E+02  0.55239969886E+02 -0.14972398267E+03  0.21043356548E+03  0.12508926363E+03 0.  0.
         23    2    1    2    0    0 -0.56269319765E+02 -0.55239969886E+02 -0.44986270319E+03  0.46653433021E+03  0.95184762003E+02 0.  0.
          5    1    3    3  502    0  0.25708283409E+02  0.90339160267E+02 -0.67084545110E+02  0.11549843422E+03  0.41800000000E+01 0.  1.
         -5    1    3    3    0  502  0.30561036356E+02 -0.35099190381E+02 -0.82639437561E+02  0.94935131269E+02  0.41800000000E+01 0.  1.
        -11    1    4    4    0    0 -0.44945168429E+02 -0.82464049361E+02 -0.33063721582E+03  0.34371697090E+03  0.00000000000E+00 0.  1.
         11    1    4    4    0    0 -0.11324151337E+02  0.27224079476E+02 -0.11922548738E+03  0.12281735931E+03  0.00000000000E+00 0. -1.
</event>
<event>
 8    1  0.7130890E-009  0.1196287E+03  0.7561462E-02  0.1243711E+00
          1   -1    0    0  501    0  0.00000000000E+00  0.00000000000E+00  0.40243744974E+03  0.40243744974E+03  0.00000000000E+00 0. -1.
         -1   -1    0    0    0  501 -0.00000000000E+00 -0.00000000000E+00 -0.51618910086E+02  0.51618910086E+02  0.00000000000E+00 0.  1.
         25    2    1    2    0    0  0.57046659284E+01  0.82211208544E+02  0.26240603474E+03  0.30215236909E+03  0.12509157069E+03 0.  0.
         23    2    1    2    0    0 -0.57046659284E+01 -0.82211208544E+02  0.88412504918E+02  0.15190399073E+03  0.92015353890E+02 0.  0.
          5    1    3    3  502    0  0.59080770098E+02  0.12842443201E+02  0.12920660212E+03  0.14271399432E+03  0.41800000000E+01 0. -1.
         -5    1    3    3    0  502 -0.53376104169E+02  0.69368765343E+02  0.13319943262E+03  0.15943837478E+03  0.41800000000E+01 0. -1.
        -11    1    4    4    0    0 -0.22260036125E+02 -0.52262281648E+02 -0.31491128698E+00  0.56806288917E+02  0.00000000000E+00 0.  1.
         11    1    4    4    0    0  0.16555370197E+02 -0.29948926896E+02  0.88727416205E+02  0.95097701818E+02  0.00000000000E+00 0. -1.
</event>
<event>
 8    1  0.7130890E-009  0.1434367E+03  0.7561462E-02  0.1208778E+00
         -2   -1    0    0    0  501 -0.00000000000E+00  0.00000000000E+00  0.11048458833E+03  0.11048458833E+03  0.00000000000E+00 0. -1.
          2   -1    0    0  501    0  0.00000000000E+00 -0.00000000000E+00 -0.20473387203E+03  0.20473387203E+03  0.00000000000E+00 0.  1.
         25    2    1    2    0    0 -0.10287056455E+03 -0.16926569847E+02 -0.46892035987E+02  0.16945636991E+03  0.12509091272E+03 0.  0.
         23    2    1    2    0    0  0.10287056455E+03  0.16926569847E+02 -0.47357247708E+02  0.14576209045E+03  0.90194325124E+02 0.  0.
          5    1    3    3  502    0 -0.18531622932E+02  0.43152157554E+02 -0.45923866518E+02  0.65817958538E+02  0.41800000000E+01 0.  1.
         -5    1    3    3    0  502 -0.84338941617E+02 -0.60078727402E+02 -0.96816946923E+00  0.10363841137E+03  0.41800000000E+01 0.  1.
        -11    1    4    4    0    0 -0.19746381589E+01  0.30328232299E+02 -0.11750595802E+01  0.30415154698E+02  0.00000000000E+00 0. -1.
         11    1    4    4    0    0  0.10484520271E+03 -0.13401662452E+02 -0.46182188128E+02  0.11534693575E+03  0.00000000000E+00 0.  1.
</event>
<event>
 8    1  0.7130890E-009  0.8840703E+02  0.7561462E-02  0.1306756E+00
         -2   -1    0    0    0  501 -0.00000000000E+00  0.00000000000E+00  0.52150046412E+02  0.52150046412E+02  0.00000000000E+00 0.  1.
          2   -1    0    0  501    0  0.00000000000E+00 -0.00000000000E+00 -0.24722979082E+03  0.24722979082E+03  0.00000000000E+00 0. -1.
         25    2    1    2    0    0  0.14218342900E+02 -0.32324545466E+02 -0.12227357670E+03  0.17845188412E+03  0.12508880794E+03 0.  0.
         23    2    1    2    0    0 -0.14218342900E+02  0.32324545466E+02 -0.72806167711E+02  0.12092795312E+03  0.89865423129E+02 0.  0.
          5    1    3    3  502    0 -0.12352023452E+02  0.25671889608E+02 -0.10954632368E+03  0.11326732906E+03  0.41800000000E+01 0.  1.
         -5    1    3    3    0  502  0.26570366351E+02 -0.57996435073E+02 -0.12727253021E+02  0.65184555063E+02  0.41800000000E+01 0.  1.
        -11    1    4    4    0    0  0.26213977572E+02  0.34815848658E+02 -0.77118384696E+01  0.44258201392E+02  0.00000000000E+00 0.  1.
         11    1    4    4    0    0 -0.40432320471E+02 -0.24913031926E+01 -0.65094329241E+02  0.76669751725E+02  0.00000000000E+00 0. -1.
</event>
<event>
 8    1  0.7130890E-009  0.1269926E+03  0.7561462E-02  0.1231988E+00
          3   -1    0    0  501    0  0.00000000000E+00  0.00000000000E+00  0.13493457971E+04  0.13493457971E+04  0.00000000000E+00 0. -1.
         -3   -1    0    0    0  501 -0.00000000000E+00 -0.00000000000E+00 -0.12220781424E+02  0.12220781424E+02  0.00000000000E+00 0.  1.
         25    2    1    2    0    0  0.11086598385E+02 -0.64956440957E+02  0.81995661542E+03  0.83205551252E+03  0.12508106517E+03 0.  0.
         23    2    1    2    0    0 -0.11086598385E+02  0.64956440957E+02  0.51716840022E+03  0.52951106596E+03  0.92609734405E+02 0.  0.
          5    1    3    3  502    0  0.37893067908E+02  0.26204101845E+02  0.27157559875E+03  0.27548741856E+03  0.41800000000E+01 0.  1.
         -5    1    3    3    0  502 -0.26806469523E+02 -0.91160542802E+02  0.54838101667E+03  0.55656809396E+03  0.41800000000E+01 0.  1.
        -11    1    4    4    0    0  0.12720459748E+01  0.87177264211E+02  0.42790907109E+03  0.43670088919E+03  0.00000000000E+00 0. -1.
         11    1    4    4    0    0 -0.12358644360E+02 -0.22220823254E+02  0.89259329131E+02  0.92810176777E+02  0.00000000000E+00 0.  1.
</event>
<event>
 8    1  0.7130890E-009  0.1392806E+03  0.7561462E-02  0.1214300E+00
         -2   -1    0    0    0  501 -0.00000000000E+00  0.00000000000E+00  0.26770240655E+02  0.26770240655E+02  0.00000000000E+00 0.  1.
          2   -1    0    0  501    0  0.00000000000E+00 -0.00000000000E+00 -0.84766249285E+03  0.84766249285E+03  0.00000000000E+00 0. -1.
         25    2    1    2    0    0  0.10277512732E+03  0.45573772648E+01 -0.38660918919E+03  0.41916509947E+03  0.12509683832E+03 0.  0.
         23    2    1    2    0    0 -0.10277512732E+03 -0.45573772648E+01 -0.43428306300E+03  0.45526763404E+03  0.89907415211E+02 0.  0.
          5    1    3    3  502    0  0.26450742959E+02  0.48255956773E+02 -0.25441942603E+03  0.26033631308E+03  0.41800000000E+01 0. -1.
         -5    1    3    3    0  502  0.76324384362E+02 -0.43698579508E+02 -0.13218976317E+03  0.15882878639E+03  0.41800000000E+01 0. -1.
        -11    1    4    4    0    0  0.80221657629E+01  0.20252841658E+02 -0.95926890714E+02  0.98369208093E+02  0.00000000000E+00 0. -1.
         11    1    4    4    0    0 -0.11079729308E+03 -0.24810218923E+02 -0.33835617229E+03  0.35689842595E+03  0.00000000000E+00 0.  1.
</event>
<event>
 8    1  0.7130890E-009  0.1111597E+03  0.7561462E-02  0.1258437E+00
         -2   -1    0    0    0  501 -0.00000000000E+00  0.00000000000E+00  0.99975948502E+02  0.99975948502E+02  0.00000000000E+00 0.  1.
          2   -1    0    0  501    0  0.00000000000E+00 -0.00000000000E+00 -0.27019473820E+03  0.27019473820E+03  0.00000000000E+00 0. -1.
         25    2    1    2    0    0  0.64211109969E+02 -0.78649851189E+02 -0.13494499292E+02  0.16167424753E+03  0.12509034762E+03 0.  0.
         23    2    1    2    0    0 -0.64211109969E+02  0.78649851189E+02 -0.15672429040E+03  0.20849643916E+03  0.92732929464E+02 0.  0.
          5    1    3    3  502    0  0.22873304653E+02 -0.17225981271E+02 -0.65158500860E+02  0.71295337371E+02  0.41800000000E+01 0.  1.
         -5    1    3    3    0  502  0.41337805315E+02 -0.61423869918E+02  0.51664001568E+02  0.90378910162E+02  0.41800000000E+01 0.  1.
        -11    1    4    4    0    0 -0.76353055786E+01  0.58761325669E+02 -0.12994790798E+03  0.14282034195E+03  0.00000000000E+00 0. -1.
         11    1    4    4    0    0 -0.56575804390E+02  0.19888525520E+02 -0.26776382417E+02  0.65676097213E+02  0.00000000000E+00 0.  1.
</event>
<event>
 8    1  0.7130890E-009  0.1111955E+03  0.7561462E-02  0.1258372E+00
          2   -1    0    0  501    0  0.00000000000E+00  0.00000000000E+00  0.52804665112E+03  0.52804665112E+03  0.00000000000E+00 0. -1.
         -2   -1    0    0    0  501 -0.00000000000E+00 -0.00000000000E+00 -0.36685222978E+02  0.36685222978E+02  0.00000000000E+00 0.  1.
         25    2    1    2    0    0 -0.47520835431E+02  0.49412709718E+02  0.37745944897E+03  0.40351252697E+03  0.12508748187E+03 0.  0.
         23    2    1    2    0    0  0.47520835431E+02 -0.49412709718E+02  0.11390197917E+03  0.16121934713E+03  0.91204009495E+02 0.  0.
          5    1    3    3  502    0 -0.77169484032E+02  0.41961927752E+02  0.14928329489E+03  0.17325965248E+03  0.41800000000E+01 0.  1.
         -5    1    3    3    0  502  0.29648648601E+02  0.74507819654E+01  0.22817615408E+03  0.23025287448E+03  0.41800000000E+01 0.  1.
        -11    1    4    4    0    0 -0.17805905583E+02 -0.30956969308E+02  0.74778377691E+02  0.82868510259E+02  0.00000000000E+00 0. -1.
         11    1    4    4    0    0  0.65326741013E+02 -0.18455740410E+02  0.39123601477E+02  0.78350836869E+02  0.00000000000E+00 0.  1.
</event>
<event>
 8    1  0.7130890E-009  0.1128989E+03  0.7561462E-02  0.1255294E+00
          2   -1    0    0  501    0  0.00000000000E+00  0.00000000000E+00  0.11057487725E+04  0.11057487725E+04  0.00000000000E+00 0. -1.
         -2   -1    0    0    0  501 -0.00000000000E+00 -0.00000000000E+00 -0.25829014199E+02  0.25829014199E+02  0.00000000000E+00 0.  1.
         25    2    1    2    0    0 -0.70142388558E+02  0.83199229903E+01  0.93541029026E+03  0.94637696695E+03  0.12509107344E+03 0.  0.
         23    2    1    2    0    0  0.70142388558E+02 -0.83199229903E+01  0.14450946799E+03  0.18520081970E+03  0.91799681307E+02 0.  0.
          5    1    3    3  502    0 -0.29167933892E+02  0.46173254569E+02  0.16326959462E+03  0.17221257426E+03  0.41800000000E+01 0.  1.
         -5    1    3    3    0  502 -0.40974454666E+02 -0.37853331579E+02  0.77214069564E+03  0.77416439269E+03  0.41800000000E+01 0.  1.
        -11    1    4    4    0    0 -0.20535219260E+02  0.95744045934E+01  0.37383028919E+02  0.43713330971E+02  0.00000000000E+00 0. -1.
         11    1    4    4    0    0  0.90677607818E+02 -0.17894327584E+02  0.10712643908E+03  0.14148748873E+03  0.00000000000E+00 0.  1.
</event>
<event>
 8    1  0.7130890E-009  0.8936203E+02  0.7561462E-02  0.1304404E+00
          1   -1    0    0  501    0  0.00000000000E+00  0.00000000000E+00  0.11207925755E+03  0.11207925755E+03  0.00000000000E+00 0. -1.
         -1   -1    0    0    0  501 -0.00000000000E+00 -0.00000000000E+00 -0.12405367828E+03  0.12405367828E+03  0.00000000000E+00 0.  1.
         25    2    1    2    0    0 -0.41147834779E+02 -0.21529661977E+02 -0.13869278616E+02  0.13414686049E+03  0.12508538140E+03 0.  0.
         23    2    1    2    0    0  0.41147834779E+02  0.21529661977E+02  0.18948578874E+01  0.10198607534E+03  0.90779394281E+02 0.  0.
          5    1    3    3  502    0  0.14376326522E+02 -0.16836119740E+02  0.46631629910E+02  0.51789139790E+02  0.41800000000E+01 0. -1.
         -5    1    3    3    0  502 -0.55524161301E+02 -0.46935422377E+01 -0.60500908527E+02  0.82357720703E+02  0.41800000000E+01 0. -1.
        -11    1    4    4    0    0  0.52509637585E+02  0.48230030806E+02 -0.69881726345E+01  0.71639601252E+02  0.00000000000E+00 0.  1.
         11    1    4    4    0    0 -0.11361802806E+02 -0.26700368828E+02  0.88830305219E+01  0.30346474092E+02  0.00000000000E+00 0. -1.
</event>
<event>
 8    1  0.7130890E-009  0.9419584E+02  0.7561462E-02  0.1292998E+00
          2   -1    0    0  501    0  0.00000000000E+00  0.00000000000E+00  0.10541347195E+03  0.10541347195E+03  0.00000000000E+00 0. -1.
         -2   -1    0    0    0  501 -0.00000000000E+00 -0.00000000000E+00 -0.15261011985E+03  0.15261011985E+03  0.00000000000E+00 0.  1.
         25    2    1    2    0    0  0.43038300782E+02 -0.36734737817E+02  0.22746254222E+01  0.13731574063E+03  0.12509477370E+03 0.  0.
         23    2    1    2    0    0 -0.43038300782E+02  0.36734737817E+02 -0.49471273326E+02  0.12070785117E+03  0.94452327413E+02 0.  0.
          5    1    3    3  502    0  0.51130159602E+01 -0.40267285107E+02  0.57250102398E+02  0.70303938771E+02  0.41800000000E+01 0. -1.
         -5    1    3    3    0  502  0.37925284822E+02  0.35325472903E+01 -0.54975476976E+02  0.67011801855E+02  0.41800000000E+01 0. -1.
        -11    1    4    4    0    0 -0.34505746485E+01 -0.30796359014E+02 -0.20896413314E+02  0.37376226178E+02  0.00000000000E+00 0.  1.
         11    1    4    4    0    0 -0.39587726134E+02  0.67531096831E+02 -0.28574860012E+02  0.83331624995E+02  0.00000000000E+00 0. -1.
</event>
<event>
 8    1  0.7130890E-009  0.5784570E+02  0.7561462E-02  0.1407101E+00
          1   -1    0    0  501    0  0.00000000000E+00  0.00000000000E+00  0.45985490063E+02  0.45985490063E+02  0.00000000000E+00 0. -1.
         -1   -1    0    0    0  501 -0.00000000000E+00 -0.00000000000E+00 -0.35786093833E+03  0.35786093833E+03  0.00000000000E+00 0.  1.
         25    2    1    2    0    0  0.17979970092E+02  0.20869906315E+02 -0.28267581270E+03  0.31033824904E+03  0.12508149908E+03 0.  0.
         23    2    1    2    0    0 -0.17979970092E+02 -0.20869906315E+02 -0.29199635560E+02  0.93508179354E+02  0.84453114656E+02 0.  0.
          5    1    3    3  502    0 -0.12677262609E+01 -0.15396099916E+02 -0.26493370593E+03  0.26541663090E+03  0.41800000000E+01 0. -1.
         -5    1    3    3    0  502  0.19247696353E+02  0.36266006231E+02 -0.17742106775E+02  0.44921618132E+02  0.41800000000E+01 0. -1.
        -11    1    4    4    0    0 -0.35898670515E+02 -0.92826662824E+01  0.18363556924E+02  0.41377562288E+02  0.00000000000E+00 0. -1.
         11    1    4    4    0    0  0.17918700423E+02 -0.11587240033E+02 -0.47563192483E+02  0.52130617065E+02  0.00000000000E+00 0.  1.
</event>
<event>
 8    1  0.7130890E-009  0.1122352E+03  0.7561462E-02  0.1256486E+00
          4   -1    0    0  501    0  0.00000000000E+00  0.00000000000E+00  0.12432018124E+03  0.12432018124E+03  0.00000000000E+00 0. -1.
         -4   -1    0    0    0  501 -0.00000000000E+00 -0.00000000000E+00 -0.12553760572E+03  0.12553760572E+03  0.00000000000E+00 0.  1.
         25    2    1    2    0    0 -0.60839552090E+02  0.12935017834E+01 -0.10717487119E+02  0.13952356415E+03  0.12509530838E+03 0.  0.
         23    2    1    2    0    0  0.60839552090E+02 -0.12935017834E+01  0.95000626407E+01  0.11033422281E+03  0.91543788907E+02 0.  0.
          5    1    3    3  502    0 -0.34269746224E+02  0.56049573236E+02  0.23109513889E+02  0.69767415019E+02  0.41800000000E+01 0.  1.
         -5    1    3    3    0  502 -0.26569805866E+02 -0.54756071453E+02 -0.33827001008E+02  0.69756149133E+02  0.41800000000E+01 0.  1.
        -11    1    4    4    0    0 -0.13021165664E+02 -0.17701503639E+02  0.24806775320E+02  0.33140158239E+02  0.00000000000E+00 0. -1.
         11    1    4    4    0    0  0.73860717754E+02  0.16408001856E+02 -0.15306712679E+02  0.77194064571E+02  0.00000000000E+00 0.  1.
</event>
<event>
 8    1  0.7130890E-009  0.1259646E+03  0.7561462E-02  0.1233569E+00
          4   -1    0    0  501    0  0.00000000000E+00  0.00000000000E+00  0.18143422430E+03  0.18143422430E+03  0.00000000000E+00 0. -1.
         -4   -1    0    0    0  501 -0.00000000000E+00 -0.00000000000E+00 -0.90864979824E+02  0.90864979824E+02  0.00000000000E+00 0.  1.
         25    2    1    2    0    0 -0.64727518356E+02 -0.88501387796E+01  0.75685149678E+02  0.16014226675E+03  0.12509727066E+03 0.  0.
         23    2    1    2    0    0  0.64727518356E+02  0.88501387796E+01  0.14884094800E+02  0.11215693738E+03  0.89942569096E+02 0.  0.
          5    1    3    3  502    0 -0.19019494848E+02  0.57157126049E+02  0.26922920537E+02  0.66113495541E+02  0.41800000000E+01 0. -1.
         -5    1    3    3    0  502 -0.45708023509E+02 -0.66007264829E+02  0.48762229141E+02  0.94028771204E+02  0.41800000000E+01 0. -1.
        -11    1    4    4    0    0  0.65268432945E+02 -0.30325629624E+02  0.10543366095E+02  0.72737711813E+02  0.00000000000E+00 0.  1.
         11    1    4    4    0    0 -0.54091458861E+00  0.39175768404E+02  0.43407287043E+01  0.39419225567E+02  0.00000000000E+00 0. -1.
</event>
<event>
 8    1  0.7130890E-009  0.1034749E+03  0.7561462E-02  0.1273154E+00
         -2   -1    0    0    0  501 -0.00000000000E+00  0.00000000000E+00  0.11203920921E+03  0.11203920921E+03  0.00000000000E+00 0.  1.
          2   -1    0    0  501    0  0.00000000000E+00 -0.00000000000E+00 -0.12920630294E+03  0.12920630294E+03  0.00000000000E+00 0. -1.
         25    2    1    2    0    0 -0.36171777216E+02 -0.29622538992E+02 -0.30725008831E+02  0.13702998046E+03  0.12508915658E+03 0.  0.
         23    2    1    2    0    0  0.36171777216E+02  0.29622538992E+02  0.13557915106E+02  0.10421553169E+03  0.92147532252E+02 0.  0.
          5    1    3    3  502    0 -0.20969411671E+02 -0.63648531824E+02 -0.59537093115E+02  0.89738451546E+02  0.41800000000E+01 0.  1.
         -5    1    3    3    0  502 -0.15202365545E+02  0.34025992832E+02  0.28812084284E+02  0.47291528916E+02  0.41800000000E+01 0.  1.
        -11    1    4    4    0    0  0.35807259292E+02 -0.27519811297E+02 -0.12730997740E+01  0.45178762874E+02  0.00000000000E+00 0.  1.
         11    1    4    4    0    0  0.36451792428E+00  0.57142350289E+02  0.14831014880E+02  0.59036768816E+02  0.00000000000E+00 0. -1.
</event>
<event>
 8    1  0.7130890E-009  0.8318098E+02  0.7561462E-02  0.1320259E+00
         -1   -1    0    0    0  501 -0.00000000000E+00  0.00000000000E+00  0.86408234405E+03  0.86408234405E+03  0.00000000000E+00 0.  1.
          1   -1    0    0  501    0  0.00000000000E+00 -0.00000000000E+00 -0.20745201426E+02  0.20745201426E+02  0.00000000000E+00 0. -1.
         25    2    1    2    0    0 -0.37905449789E+02  0.19892096334E+02  0.67872662211E+03  0.69148454881E+03  0.12509410483E+03 0.  0.
         23    2    1    2    0    0  0.37905449789E+02 -0.19892096334E+02  0.16461052052E+03  0.19334299667E+03  0.91936784128E+02 0.  0.
          5    1    3    3  502    0 -0.10237178978E+02 -0.18085322171E+02  0.14727412657E+02  0.25811776286E+02  0.41800000000E+01 0. -1.
         -5    1    3    3    0  502 -0.27668270811E+02  0.37977418505E+02  0.66399920945E+03  0.66567277252E+03  0.41800000000E+01 0. -1.
        -11    1    4    4    0    0  0.31343355592E+01 -0.51143715885E+02  0.60943808128E+02  0.79621928405E+02  0.00000000000E+00 0.  1.
         11    1    4    4    0    0  0.34771114230E+02  0.31251619551E+02  0.10366671239E+03  0.11372106826E+03  0.00000000000E+00 0. -1.
</event>
<event>
 8    1  0.7130890E-009  0.1838623E+03  0.7561462E-02  0.1164117E+00
          2   -1    0    0  501    0  0.00000000000E+00  0.00000000000E+00  0.43506044275E+03  0.43506044275E+03  0.00000000000E+00 0. -1.
         -2   -1    0    0    0  501 -0.00000000000E+00 -0.00000000000E+00 -0.79143661268E+02  0.79143661268E+02  0.00000000000E+00 0.  1.
         25    2    1    2    0    0 -0.63467225340E+02  0.13554485572E+03  0.20093928276E+03  0.28004256973E+03  0.12508696536E+03 0.  0.
         23    2    1    2    0    0  0.63467225340E+02 -0.13554485572E+03  0.15497749873E+03  0.23416153429E+03  0.91722965619E+02 0.  0.
          5    1    3    3  502    0 -0.60892141555E+02  0.15798237272E+03  0.15940490987E+03  0.23258048216E+03  0.41800000000E+01 0. -1.
         -5    1    3    3    0  502 -0.25750837850E+01 -0.22437516993E+02  0.41534372891E+02  0.47462087572E+02  0.41800000000E+01 0. -1.
        -11    1    4    4    0    0 -0.14652147518E+02 -0.75380497577E+02  0.72582353545E+02  0.10566505046E+03  0.00000000000E+00 0. -1.
         11    1    4    4    0    0  0.78119372858E+02 -0.60164358148E+02  0.82395145182E+02  0.12849648383E+03  0.00000000000E+00 0.  1.
</event>
<event>
 8    1  0.7130890E-009  0.1053894E+03  0.7561462E-02  0.1269354E+00
         -1   -1    0    0    0  501 -0.00000000000E+00  0.00000000000E+00  0.80869619359E+03  0.80869619359E+03  0.00000000000E+00 0.  1.
          1   -1    0    0  501    0  0.00000000000E+00 -0.00000000000E+00 -0.28600327756E+02  0.28600327756E+02  0.00000000000E+00 0. -1.
         25    2    1    2    0    0  0.64698328040E+02 -0.23774840032E+02  0.64609249281E+03  0.66168997801E+03  0.12508797331E+03 0.  0.
         23    2    1    2    0    0 -0.64698328040E+02  0.23774840032E+02  0.13400337302E+03  0.17560654333E+03  0.90164501938E+02 0.  0.
          5    1    3    3  502    0 -0.32837266871E+01  0.35115704167E+02  0.36037699840E+03  0.36212283678E+03  0.41800000000E+01 0. -1.
         -5    1    3    3    0  502  0.67982054727E+02 -0.58890544199E+02  0.28571549441E+03  0.29956714123E+03  0.41800000000E+01 0. -1.
        -11    1    4    4    0    0 -0.12646843712E+02 -0.15508856134E+02  0.10015287511E+03  0.10213258867E+03  0.00000000000E+00 0.  1.
         11    1    4    4    0    0 -0.52051484328E+02  0.39283696166E+02  0.33850497906E+02  0.73473954662E+02  0.00000000000E+00 0. -1.
</event>
<event>
 8    1  0.7130890E-009  0.2047494E+03  0.7561462E-02  0.1145793E+00
          2   -1    0    0  501    0  0.00000000000E+00  0.00000000000E+00  0.30106794097E+04  0.30106794097E+04  0.00000000000E+00 0. -1.
         -2   -1    0    0    0  501 -0.00000000000E+00 -0.00000000000E+00 -0.18429214627E+02  0.18429214627E+02  0.00000000000E+00 0.  1.
         25    2    1    2    0    0 -0.29510285764E+02  0.18033511436E+03  0.21827130751E+04  0.21939178538E+04  0.12509024930E+03 0.  0.
         23    2    1    2    0    0  0.29510285764E+02 -0.18033511436E+03  0.80953711998E+03  0.83519077056E+03  0.93817184793E+02 0.  0.
          5    1    3    3  502    0 -0.50824560053E+02  0.17437455369E+03  0.15195298340E+04  0.15303522502E+04  0.41800000000E+01 0.  1.
         -5    1    3    3    0  502  0.21314274289E+02  0.59605606633E+01  0.66318324110E+03  0.66356560357E+03  0.41800000000E+01 0.  1.
        -11    1    4    4    0    0 -0.34226470269E+02 -0.68492239434E+02  0.31543281383E+03  0.32459281903E+03  0.00000000000E+00 0.  1.
         11    1    4    4    0    0  0.63736756033E+02 -0.11184287492E+03  0.49410430615E+03  0.51059795152E+03  0.00000000000E+00 0. -1.
</event>
<event>
 8    1  0.7130890E-009  0.2872827E+03  0.7561462E-02  0.1091776E+00
         -2   -1    0    0    0  501 -0.00000000000E+00  0.00000000000E+00  0.96247299885E+02  0.96247299885E+02  0.00000000000E+00 0.  1.
          2   -1    0    0  501    0  0.00000000000E+00 -0.00000000000E+00 -0.11612468411E+04  0.11612468411E+04  0.00000000000E+00 0. -1.
         25    2    1    2    0    0  0.26344435992E+03 -0.65313491620E+02 -0.23707322953E+03  0.38146959473E+03  0.12508618062E+03 0.  0.
         23    2    1    2    0    0 -0.26344435992E+03  0.65313491620E+02 -0.82792631164E+03  0.87602454620E+03  0.91039799469E+02 0.  0.
          5    1    3    3  502    0  0.23346671675E+03 -0.90528609435E+02 -0.16678202835E+03  0.30089176516E+03  0.41800000000E+01 0.  1.
         -5    1    3    3    0  502  0.29977643174E+02  0.25215117815E+02 -0.70291201178E+02  0.80577829579E+02  0.41800000000E+01 0.  1.
        -11    1    4    4    0    0 -0.64799712771E+02 -0.21039562031E+02 -0.23934316386E+03  0.24885099162E+03  0.00000000000E+00 0. -1.
         11    1    4    4    0    0 -0.19864464715E+03  0.86353053651E+02 -0.58858314778E+03  0.62717355458E+03  0.00000000000E+00 0.  1.
</event>
<event>
 8    1  0.7130890E-009  0.1219746E+03  0.7561462E-02  0.1239875E+00
          1   -1    0    0  501    0  0.00000000000E+00  0.00000000000E+00  0.85555609324E+03  0.85555609324E+03  0.00000000000E+00 0. -1.
         -1   -1    0    0    0  501 -0.00000000000E+00 -0.00000000000E+00 -0.19660935177E+02  0.19660935177E+02  0.00000000000E+00 0.  1.
         25    2    1    2    0    0 -0.62347420306E+02  0.21937848200E+02  0.55746068451E+03  0.57513499743E+03  0.12509748395E+03 0.  0.
         23    2    1    2    0    0  0.62347420306E+02 -0.21937848200E+02  0.27843447355E+03  0.30008203099E+03  0.90305034502E+02 0.  0.
          5    1    3    3  502    0 -0.72235500806E+02  0.60666765900E+02  0.29862110351E+03  0.31319396533E+03  0.41800000000E+01 0.  1.
         -5    1    3    3    0  502  0.98880804992E+01 -0.38728917700E+02  0.25883958100E+03  0.26194103209E+03  0.41800000000E+01 0.  1.
        -11    1    4    4    0    0  0.15899177164E+01 -0.44497053290E+02  0.14601799348E+03  0.15265572380E+03  0.00000000000E+00 0.  1.
         11    1    4    4    0    0  0.60757502590E+02  0.22559205090E+02  0.13241648008E+03  0.14742630719E+03  0.00000000000E+00 0. -1.
</event>
<event>
 8    1  0.7130890E-009  0.1067125E+03  0.7561462E-02  0.1266782E+00
          3   -1    0    0  501    0  0.00000000000E+00  0.00000000000E+00  0.29814631647E+02  0.29814631647E+02  0.00000000000E+00 0. -1.
         -3   -1    0    0    0  501 -0.00000000000E+00 -0.00000000000E+00 -0.64645579758E+03  0.64645579758E+03  0.00000000000E+00 0.  1.
         25    2    1    2    0    0  0.65888198204E+02 -0.19373710915E+02 -0.47408052828E+03  0.49509194246E+03  0.12508832421E+03 0.  0.
         23    2    1    2    0    0 -0.65888198204E+02  0.19373710915E+02 -0.14256063766E+03  0.18117848677E+03  0.88235555889E+02 0.  0.
          5    1    3    3  502    0  0.87033835094E+02  0.20507428192E+02 -0.38339936318E+03  0.39371053726E+03  0.41800000000E+01 0. -1.
         -5    1    3    3    0  502 -0.21145636890E+02 -0.39881139107E+02 -0.90681165101E+02  0.10138140520E+03  0.41800000000E+01 0. -1.
        -11    1    4    4    0    0 -0.39757096940E+02 -0.81936750938E+01 -0.80182087707E+01  0.41376983222E+02  0.00000000000E+00 0. -1.
         11    1    4    4    0    0 -0.26131101264E+02  0.27567386008E+02 -0.13454242888E+03  0.13980150355E+03  0.00000000000E+00 0.  1.
</event>
<event>
 8    1  0.7130890E-009  0.7657996E+02  0.7561462E-02  0.1339047E+00
          1   -1    0    0  501    0  0.00000000000E+00  0.00000000000E+00  0.88054471839E+03  0.88054471839E+03  0.00000000000E+00 0. -1.
         -1   -1    0    0    0  501 -0.00000000000E+00 -0.00000000000E+00 -0.23499754907E+02  0.23499754907E+02  0.00000000000E+00 0.  1.
         25    2    1    2    0    0  0.40503659718E+02  0.34654025197E+02  0.70900977057E+03  0.72193016635E+03  0.12508741904E+03 0.  0.
         23    2    1    2    0    0 -0.40503659718E+02 -0.34654025197E+02  0.14803519291E+03  0.18211430694E+03  0.91704713850E+02 0.  0.
          5    1    3    3  502    0  0.11703113506E+02  0.32575210086E+02  0.43348441706E+02  0.55629731046E+02  0.41800000000E+01 0. -1.
         -5    1    3    3    0  502  0.28800546212E+02  0.20788151110E+01  0.66566132887E+03  0.66630043530E+03  0.41800000000E+01 0. -1.
        -11    1    4    4    0    0 -0.43719373009E+02 -0.54015598144E+02  0.59666730722E+02  0.91592506103E+02  0.00000000000E+00 0.  1.
         11    1    4    4    0    0  0.32157132906E+01  0.19361572947E+02  0.88368462184E+02  0.90521800842E+02  0.00000000000E+00 0. -1.
</event>
<event>
 8    1  0.7130890E-009  0.2372609E+03  0.7561462E-02  0.1121631E+00
         -2   -1    0    0    0  501 -0.00000000000E+00  0.00000000000E+00  0.19318189334E+03  0.19318189334E+03  0.00000000000E+00 0.  1.
          2   -1    0    0  501    0  0.00000000000E+00 -0.00000000000E+00 -0.36695978964E+03  0.36695978964E+03  0.00000000000E+00 0. -1.
         25    2    1    2    0    0 -0.18540176504E+03 -0.10619474664E+03  0.32528189483E+02  0.24971160583E+03  0.12508662712E+03 0.  0.
         23    2    1    2    0    0  0.18540176504E+03  0.10619474664E+03 -0.20630608579E+03  0.31043007714E+03  0.90296694679E+02 0.  0.
          5    1    3    3  502    0 -0.16496891638E+03 -0.29536376181E+02  0.29418572199E+02  0.17020595078E+03  0.41800000000E+01 0.  1.
         -5    1    3    3    0  502 -0.20432848657E+02 -0.76658370464E+02  0.31096172839E+01  0.79505655057E+02  0.41800000000E+01 0.  1.
        -11    1    4    4    0    0  0.31346351284E+02  0.58147596856E+02 -0.89408489191E+02  0.11116480872E+03  0.00000000000E+00 0. -1.
         11    1    4    4    0    0  0.15405541375E+03  0.48047149789E+02 -0.11689759659E+03  0.19926526842E+03  0.00000000000E+00 0.  1.
</event>
<event>
 8    1  0.7130890E-009  0.1692468E+03  0.7561462E-02  0.1178636E+00
          2   -1    0    0  501    0  0.00000000000E+00  0.00000000000E+00  0.27841864823E+03  0.27841864823E+03  0.00000000000E+00 0.  1.
         -2   -1    0    0    0  501 -0.00000000000E+00 -0.00000000000E+00 -0.14463339943E+03  0.14463339943E+03  0.00000000000E+00 0. -1.
         25    2    1    2    0    0  0.16955562617E+02  0.15003525382E+03 -0.85903854817E+01  0.19627445758E+03  0.12510715201E+03 0.  0.
         23    2    1    2    0    0 -0.16955562617E+02 -0.15003525382E+03  0.14237563429E+03  0.22677759008E+03  0.91428582143E+02 0.  0.
          5    1    3    3  502    0  0.11637983391E+02  0.57607656438E+00 -0.41311108308E+02  0.43126031481E+02  0.41800000000E+01 0. -1.
         -5    1    3    3    0  502  0.53175792262E+01  0.14945917725E+03  0.32720722827E+02  0.15314842610E+03  0.41800000000E+01 0. -1.
        -11    1    4    4    0    0 -0.54918492614E+02 -0.92357035797E+02  0.85379371915E+02  0.13724248628E+03  0.00000000000E+00 0.  1.
         11    1    4    4    0    0  0.37962929997E+02 -0.57678218021E+02  0.56996262371E+02  0.89535103799E+02  0.00000000000E+00 0. -1.
</event>
<event>
 8    1  0.7130890E-009  0.1181450E+03  0.7561462E-02  0.1246189E+00
         -3   -1    0    0    0  501 -0.00000000000E+00  0.00000000000E+00  0.44115648046E+03  0.44115648046E+03  0.00000000000E+00 0.  1.
          3   -1    0    0  501    0  0.00000000000E+00 -0.00000000000E+00 -0.35431916174E+02  0.35431916174E+02  0.00000000000E+00 0. -1.
         25    2    1    2    0    0 -0.58864209767E+02  0.14706681249E+02  0.26455293272E+03  0.29885904822E+03  0.12508874780E+03 0.  0.
         23    2    1    2    0    0  0.58864209767E+02 -0.14706681249E+02  0.14117163156E+03  0.17772934842E+03  0.89314108991E+02 0.  0.
          5    1    3    3  502    0 -0.14807493380E+01 -0.49258259127E+02  0.13066582921E+03  0.13971256219E+03  0.41800000000E+01 0. -1.
         -5    1    3    3    0  502 -0.57383460429E+02  0.63964940376E+02  0.13388710351E+03  0.15914648602E+03  0.41800000000E+01 0. -1.
        -11    1    4    4    0    0  0.44235550518E+02  0.30205141679E+02  0.42650031066E+02  0.68470137020E+02  0.00000000000E+00 0. -1.
         11    1    4    4    0    0  0.14628659249E+02 -0.44911822929E+02  0.98521600499E+02  0.10925921140E+03  0.00000000000E+00 0.  1.
</event>
<event>
 8    1  0.7130890E-009  0.1042659E+03  0.7561462E-02  0.1271573E+00
          3   -1    0    0  501    0  0.00000000000E+00  0.00000000000E+00  0.14258808464E+03  0.14258808464E+03  0.00000000000E+00 0. -1.
         -3   -1    0    0    0  501 -0.00000000000E+00 -0.00000000000E+00 -0.14083098763E+03  0.14083098763E+03  0.00000000000E+00 0.  1.
         25    2    1    2    0    0  0.59588955999E+02 -0.58389497115E+02 -0.34307817663E+02  0.15422366401E+03  0.12509090749E+03 0.  0.
         23    2    1    2    0    0 -0.59588955999E+02  0.58389497115E+02  0.36064914670E+02  0.12919540826E+03  0.91818290086E+02 0.  0.
          5    1    3    3  502    0  0.48467104550E+02 -0.31994172656E+02 -0.80717870775E+02  0.99526551080E+02  0.41800000000E+01 0.  1.
         -5    1    3    3    0  502  0.11121851450E+02 -0.26395324459E+02  0.46410053112E+02  0.54697112929E+02  0.41800000000E+01 0.  1.
        -11    1    4    4    0    0 -0.60438904612E+02  0.79704612279E+02  0.39582325810E+02  0.10757530816E+03  0.00000000000E+00 0. -1.
         11    1    4    4    0    0  0.84994861311E+00 -0.21315115164E+02 -0.35174111405E+01  0.21620100097E+02  0.00000000000E+00 0.  1.
</event>
<event>
 8    1  0.7130890E-009  0.2234847E+03  0.7561462E-02  0.1131311E+00
         -1   -1    0    0    0  501 -0.00000000000E+00  0.00000000000E+00  0.35416458571E+02  0.35416458571E+02  0.00000000000E+00 0.  1.
          1   -1    0    0  501    0  0.00000000000E+00 -0.00000000000E+00 -0.17372400315E+04  0.17372400315E+04  0.00000000000E+00 0. -1.
         25    2    1    2    0    0 -0.18132375896E+03  0.12913827604E+03 -0.90890527536E+03  0.94409266786E+03  0.12508863271E+03 0.  0.
         23    2    1    2    0    0  0.18132375896E+03 -0.12913827604E+03 -0.79291829760E+03  0.82856382224E+03  0.90794168070E+02 0.  0.
          5    1    3    3  502    0 -0.15632806368E+03  0.10014493856E+03 -0.49988184793E+03  0.53326054280E+03  0.41800000000E+01 0. -1.
         -5    1    3    3    0  502 -0.24995695281E+02  0.28993337477E+02 -0.40902342742E+03  0.41083212506E+03  0.41800000000E+01 0. -1.
        -11    1    4    4    0    0  0.64822636818E+02 -0.41385124839E+02 -0.14183677244E+03  0.16134550758E+03  0.00000000000E+00 0. -1.
         11    1    4    4    0    0  0.11650112214E+03 -0.87753151202E+02 -0.65108152516E+03  0.66721831465E+03  0.00000000000E+00 0.  1.
</event>
<event>
 8    1  0.7130890E-009  0.1114105E+03  0.7561462E-02  0.1257980E+00
         -2   -1    0    0    0  501 -0.00000000000E+00  0.00000000000E+00  0.23651290625E+02  0.23651290625E+02  0.00000000000E+00 0.  1.
          2   -1    0    0  501    0  0.00000000000E+00 -0.00000000000E+00 -0.74833968811E+03  0.74833968811E+03  0.00000000000E+00 0. -1.
         25    2    1    2    0    0  0.69401606047E+02  0.11240194780E+02 -0.47042871441E+03  0.49183025805E+03  0.12510356703E+03 0.  0.
         23    2    1    2    0    0 -0.69401606047E+02 -0.11240194780E+02 -0.25425968307E+03  0.28016072069E+03  0.94335137044E+02 0.  0.
          5    1    3    3  502    0 -0.15003527688E+02  0.13956443512E+02 -0.30802869318E+03  0.30873781171E+03  0.41800000000E+01 0. -1.
         -5    1    3    3    0  502  0.84405133736E+02 -0.27162487316E+01 -0.16240002124E+03  0.18309244634E+03  0.41800000000E+01 0. -1.
        -11    1    4    4    0    0  0.23671464469E+02 -0.63208714095E+00 -0.59676742428E+02  0.64203203589E+02  0.00000000000E+00 0.  1.
         11    1    4    4    0    0 -0.93073070516E+02 -0.10608107639E+02 -0.19458294064E+03  0.21595751710E+03  0.00000000000E+00 0. -1.
</event>
<event>
 8    1  0.7130890E-009  0.7914179E+02  0.7561462E-02  0.1331505E+00
          2   -1    0    0  501    0  0.00000000000E+00  0.00000000000E+00  0.44603244388E+03  0.44603244388E+03  0.00000000000E+00 0. -1.
         -2   -1    0    0    0  501 -0.00000000000E+00 -0.00000000000E+00 -0.35976384655E+02  0.35976384655E+02  0.00000000000E+00 0.  1.
         25    2    1    2    0    0  0.51894588994E+02 -0.19455648600E+02  0.30125638266E+03  0.33086961131E+03  0.12509085085E+03 0.  0.
         23    2    1    2    0    0 -0.51894588994E+02  0.19455648600E+02  0.10879967657E+03  0.15113921723E+03  0.89073692715E+02 0.  0.
          5    1    3    3  502    0  0.40823307029E+01 -0.20682622117E+02  0.27559472421E+03  0.27643147558E+03  0.41800000000E+01 0. -1.
         -5    1    3    3    0  502  0.47812258291E+02  0.12269735167E+01  0.25661658451E+02  0.54438135726E+02  0.41800000000E+01 0. -1.
        -11    1    4    4    0    0  0.13601016678E+02  0.18897635678E+02  0.72730446371E+02  0.76366393906E+02  0.00000000000E+00 0. -1.
         11    1    4    4    0    0 -0.65495605672E+02  0.55801292204E+00  0.36069230200E+02  0.74772823325E+02  0.00000000000E+00 0.  1.
</event>
<event>
 8    1  0.7130890E-009  0.9974013E+02  0.7561462E-02  0.1280843E+00
         -1   -1    0    0    0  501 -0.00000000000E+00  0.00000000000E+00  0.21776003475E+02  0.21776003475E+02  0.00000000000E+00 0.  1.
          1   -1    0    0  501    0  0.00000000000E+00 -0.00000000000E+00 -0.12643477326E+04  0.12643477326E+04  0.00000000000E+00 0. -1.
         25    2    1    2    0    0  0.71705331415E+02 -0.37914067003E+02 -0.10225081820E+04  0.10333196158E+04  0.12508922805E+03 0.  0.
         23    2    1    2    0    0 -0.71705331415E+02  0.37914067003E+02 -0.22006354707E+03  0.25280412028E+03  0.94354795607E+02 0.  0.
          5    1    3    3  502    0  0.54388002710E+02 -0.52066916752E+02 -0.26634698924E+03  0.27681620209E+03  0.41800000000E+01 0. -1.
         -5    1    3    3    0  502  0.17317328705E+02  0.14152849749E+02 -0.75616119279E+03  0.75650341368E+03  0.41800000000E+01 0. -1.
        -11    1    4    4    0    0 -0.75203268958E+02  0.13192834686E+02 -0.80210271765E+02  0.11073965074E+03  0.00000000000E+00 0. -1.
         11    1    4    4    0    0  0.34979375422E+01  0.24721232316E+02 -0.13985327530E+03  0.14206446954E+03  0.00000000000E+00 0.  1.
</event>
<event>
 8    1  0.7130890E-009  0.2197693E+03  0.7561462E-02  0.1134055E+00
          1   -1    0    0  501    0  0.00000000000E+00  0.00000000000E+00  0.90521037021E+03  0.90521037021E+03  0.00000000000E+00 0. -1.
         -1   -1    0    0    0  501 -0.00000000000E+00 -0.00000000000E+00 -0.81002170873E+02  0.81002170873E+02  0.00000000000E+00 0.  1.
         25    2    1    2    0    0 -0.10268855869E+02  0.20094201358E+03  0.15924322776E+03  0.28546238377E+03  0.12508886736E+03 0.  0.
         23    2    1    2    0    0  0.10268855869E+02 -0.20094201358E+03  0.66496497158E+03  0.70075015732E+03  0.91592725350E+02 0.  0.
          5    1    3    3  502    0  0.52470480470E+02  0.58441248796E+02  0.73578706831E+02  0.10770250406E+03  0.41800000000E+01 0.  1.
         -5    1    3    3    0  502 -0.62739336339E+02  0.14250076478E+03  0.85664520933E+02  0.17775987971E+03  0.41800000000E+01 0.  1.
        -11    1    4    4    0    0  0.18562727948E+02 -0.19214787326E+03  0.66005149043E+03  0.68770149781E+03  0.00000000000E+00 0. -1.
         11    1    4    4    0    0 -0.82938720784E+01 -0.87941403214E+01  0.49134811426E+01  0.13048659509E+02  0.00000000000E+00 0.  1.
</event>
<event>
 8    1  0.7130890E-009  0.5938784E+02  0.7561462E-02  0.1400419E+00
          1   -1    0    0  501    0  0.00000000000E+00  0.00000000000E+00  0.75273811753E+02  0.75273811753E+02  0.00000000000E+00 0. -1.
         -1   -1    0    0    0  501 -0.00000000000E+00 -0.00000000000E+00 -0.17884116374E+03  0.17884116374E+03  0.00000000000E+00 0.  1.
         25    2    1    2    0    0 -0.27942572367E+02  0.97542404069E+01 -0.24413254412E+02  0.13084281240E+03  0.12509157449E+03 0.  0.
         23    2    1    2    0    0  0.27942572367E+02 -0.97542404069E+01 -0.79154097575E+02  0.12327216309E+03  0.89748105688E+02 0.  0.
          5    1    3    3  502    0  0.14935195068E+02  0.85747097451E+01 -0.67568067983E+02  0.69853431626E+02  0.41800000000E+01 0.  1.
         -5    1    3    3    0  502 -0.42877767435E+02  0.11795306618E+01  0.43154813571E+02  0.60989380773E+02  0.41800000000E+01 0.  1.
        -11    1    4    4    0    0  0.31300034802E+02 -0.26417777775E+02 -0.92824163068E+02  0.10145893953E+03  0.00000000000E+00 0.  1.
         11    1    4    4    0    0 -0.33574624358E+01  0.16663537368E+02  0.13670065494E+02  0.21813223564E+02  0.00000000000E+00 0. -1.
</event>
<event>
 8    1  0.7130890E-009  0.8982970E+02  0.7561462E-02  0.1303265E+00
         -1   -1    0    0    0  501 -0.00000000000E+00  0.00000000000E+00  0.15975779617E+03  0.15975779617E+03  0.00000000000E+00 0.  1.
          1   -1    0    0  501    0  0.00000000000E+00 -0.00000000000E+00 -0.88848453514E+02  0.88848453514E+02  0.00000000000E+00 0. -1.
         25    2    1    2    0    0 -0.55368945649E+02 -0.14025550209E+02  0.58532922557E+02  0.14945220152E+03  0.12508965311E+03 0.  0.
         23    2    1    2    0    0  0.55368945649E+02  0.14025550209E+02  0.12376420099E+02  0.99154048167E+02  0.80099396330E+02 0.  0.
          5    1    3    3  502    0 -0.45489822561E+02  0.19680263286E+02 -0.27212379389E+02  0.56697642911E+02  0.41800000000E+01 0.  1.
         -5    1    3    3    0  502 -0.98791230881E+01 -0.33705813495E+02  0.85745301946E+02  0.92754558605E+02  0.41800000000E+01 0.  1.
        -11    1    4    4    0    0  0.67964631034E+01  0.39237262618E+02 -0.82554065997E+01  0.40668248384E+02  0.00000000000E+00 0.  1.
         11    1    4    4    0    0  0.48572482546E+02 -0.25211712410E+02  0.20631826698E+02  0.58485799783E+02  0.00000000000E+00 0. -1.
</event>
<event>
 8    1  0.7130890E-009  0.8808618E+02  0.7561462E-02  0.1307554E+00
         -1   -1    0    0    0  501 -0.00000000000E+00  0.00000000000E+00  0.39063427878E+03  0.39063427878E+03  0.00000000000E+00 0.  1.
          1   -1    0    0  501    0  0.00000000000E+00 -0.00000000000E+00 -0.45330440152E+02  0.45330440152E+02  0.00000000000E+00 0. -1.
         25    2    1    2    0    0 -0.64084007588E+02  0.12278137364E+02  0.12312553105E+03  0.18725808263E+03  0.12509268735E+03 0.  0.
         23    2    1    2    0    0  0.64084007588E+02 -0.12278137364E+02  0.22217830758E+03  0.24870663630E+03  0.90742922013E+02 0.  0.
          5    1    3    3  502    0 -0.32964142164E+02 -0.73592889727E+01 -0.19961938319E+02  0.39455610301E+02  0.41800000000E+01 0.  1.
         -5    1    3    3    0  502 -0.31119865424E+02  0.19637426337E+02  0.14308746937E+03  0.14780247233E+03  0.41800000000E+01 0.  1.
        -11    1    4    4    0    0 -0.12497309132E+02 -0.24548510556E+02  0.26522664313E+02  0.38239558422E+02  0.00000000000E+00 0. -1.
         11    1    4    4    0    0  0.76581316720E+02  0.12270373192E+02  0.19565564326E+03  0.21046707788E+03  0.00000000000E+00 0.  1.
</event>
<event>
 8    1  0.7130890E-009  0.1955611E+03  0.7561462E-02  0.1153539E+00
          2   -1    0    0  501    0  0.00000000000E+00  0.00000000000E+00  0.41975480416E+02  0.41975480416E+02  0.00000000000E+00 0.  1.
         -2   -1    0    0    0  501 -0.00000000000E+00 -0.00000000000E+00 -0.11893561576E+04  0.11893561576E+04  0.00000000000E+00 0. -1.
         25    2    1    2    0    0  0.40861096988E+02 -0.16665806300E+03 -0.84926460674E+03  0.87540999275E+03  0.12509094268E+03 0.  0.
         23    2    1    2    0    0 -0.40861096988E+02  0.16665806300E+03 -0.29811607046E+03  0.35592164528E+03  0.91446634186E+02 0.  0.
          5    1    3    3  502    0 -0.90005023350E+01  0.15298218162E+02 -0.33909413843E+02  0.38501496963E+02  0.41800000000E+01 0.  1.
         -5    1    3    3    0  502  0.49861599323E+02 -0.18195628116E+03 -0.81535519289E+03  0.83690849579E+03  0.41800000000E+01 0.  1.
        -11    1    4    4    0    0  0.16022680008E+02  0.71832264411E+02 -0.66191201991E+02  0.98984219480E+02  0.00000000000E+00 0.  1.
         11    1    4    4    0    0 -0.56883776995E+02  0.94825798586E+02 -0.23192486847E+03  0.25693742580E+03  0.00000000000E+00 0. -1.
</event>
<event>
 8    1  0.7130890E-009  0.2659229E+03  0.7561462E-02  0.1103636E+00
          1   -1    0    0  501    0  0.00000000000E+00  0.00000000000E+00  0.12487558969E+03  0.12487558969E+03  0.00000000000E+00 0. -1.
         -1   -1    0    0    0  501 -0.00000000000E+00 -0.00000000000E+00 -0.63347960009E+03  0.63347960009E+03  0.00000000000E+00 0.  1.
         25    2    1    2    0    0  0.12665191907E+03  0.21788888525E+03 -0.34576079931E+03  0.44577374415E+03  0.12508967067E+03 0.  0.
         23    2    1    2    0    0 -0.12665191907E+03 -0.21788888525E+03 -0.16284321108E+03  0.31258144563E+03  0.87595512634E+02 0.  0.
          5    1    3    3  502    0  0.13827845619E+03  0.12621902239E+03 -0.25308082358E+03  0.31483257253E+03  0.41800000000E+01 0.  1.
         -5    1    3    3    0  502 -0.11626537124E+02  0.91669862866E+02 -0.92679975737E+02  0.13094117162E+03  0.41800000000E+01 0.  1.
        -11    1    4    4    0    0 -0.55004507040E+02 -0.99788630023E+02 -0.12545628620E+03  0.16947727347E+03  0.00000000000E+00 0.  1.
         11    1    4    4    0    0 -0.71647412031E+02 -0.11810025523E+03 -0.37386924883E+02  0.14310417216E+03  0.00000000000E+00 0. -1.
</event>
<event>
 8    1  0.7130890E-009  0.2245487E+03  0.7561462E-02  0.1130537E+00
         -2   -1    0    0    0  501 -0.00000000000E+00  0.00000000000E+00  0.14849880527E+03  0.14849880527E+03  0.00000000000E+00 0.  1.
          2   -1    0    0  501    0  0.00000000000E+00 -0.00000000000E+00 -0.41791202501E+03  0.41791202501E+03  0.00000000000E+00 0. -1.
         25    2    1    2    0    0  0.22039076082E+03  0.25156891953E+02 -0.16508257457E+03  0.30348438020E+03  0.12508219670E+03 0.  0.
         23    2    1    2    0    0 -0.22039076082E+03 -0.25156891953E+02 -0.10433064517E+03  0.26292645008E+03  0.95081428076E+02 0.  0.
          5    1    3    3  502    0  0.21898597790E+02  0.61954901820E-01 -0.85108170429E+02  0.87979687982E+02  0.41800000000E+01 0. -1.
         -5    1    3    3    0  502  0.19849216303E+03  0.25094937051E+02 -0.79974404141E+02  0.21550469222E+03  0.41800000000E+01 0. -1.
        -11    1    4    4    0    0 -0.15185977174E+03 -0.38965634737E+02 -0.27715325965E+02  0.15921008215E+03  0.00000000000E+00 0.  1.
         11    1    4    4    0    0 -0.68530989078E+02  0.13808742784E+02 -0.76615319206E+02  0.10371636794E+03  0.00000000000E+00 0. -1.
</event>
<event>
 8    1  0.7130890E-009  0.9985691E+02  0.7561462E-02  0.1280597E+00
         -2   -1    0    0    0  501 -0.00000000000E+00  0.00000000000E+00  0.26784244039E+02  0.26784244039E+02  0.00000000000E+00 0.  1.
          2   -1    0    0  501    0  0.00000000000E+00 -0.00000000000E+00 -0.53661710456E+03  0.53661710456E+03  0.00000000000E+00 0. -1.
         25    2    1    2    0    0  0.35997762490E+02  0.31928156280E+02 -0.32981993137E+03  0.35600915711E+03  0.12508431856E+03 0.  0.
         23    2    1    2    0    0 -0.35997762490E+02 -0.31928156280E+02 -0.18001292915E+03  0.20739219149E+03  0.91058334933E+02 0.  0.
          5    1    3    3  502    0  0.14644309625E+02  0.65980600309E+02 -0.89050624917E+02  0.11187216642E+03  0.41800000000E+01 0. -1.
         -5    1    3    3    0  502  0.21353452865E+02 -0.34052444029E+02 -0.24076930645E+03  0.24413699069E+03  0.41800000000E+01 0. -1.
        -11    1    4    4    0    0 -0.37842576341E+02 -0.55922252992E+02 -0.16677684334E+03  0.17992741436E+03  0.00000000000E+00 0. -1.
         11    1    4    4    0    0  0.18448138508E+01  0.23994096712E+02 -0.13236085816E+02  0.27464777132E+02  0.00000000000E+00 0.  1.
</event>
<event>
 8    1  0.7130890E-009  0.1239716E+03  0.7561462E-02  0.1236685E+00
          1   -1    0    0  501    0  0.00000000000E+00  0.00000000000E+00  0.57235586851E+02  0.57235586851E+02  0.00000000000E+00 0. -1.
         -1   -1    0    0    0  501 -0.00000000000E+00 -0.00000000000E+00 -0.32946237308E+03  0.32946237308E+03  0.00000000000E+00 0.  1.
         25    2    1    2    0    0  0.97892428295E+01 -0.79250711406E+02 -0.11001589649E+03  0.18473420625E+03  0.12508686959E+03 0.  0.
         23    2    1    2    0    0 -0.97892428295E+01  0.79250711406E+02 -0.16221088973E+03  0.20196375368E+03  0.90002669505E+02 0.  0.
          5    1    3    3  502    0  0.37419360745E+02 -0.90141166374E+02 -0.11849080725E+03  0.15356816804E+03  0.41800000000E+01 0.  1.
         -5    1    3    3    0  502 -0.27630117915E+02  0.10890454968E+02  0.84749107514E+01  0.31166038209E+02  0.41800000000E+01 0.  1.
        -11    1    4    4    0    0 -0.30086255308E+02 -0.76331641193E+01 -0.44640905002E+02  0.54371484735E+02  0.00000000000E+00 0. -1.
         11    1    4    4    0    0  0.20297012479E+02  0.86883875525E+02 -0.11756998473E+03  0.14759226894E+03  0.00000000000E+00 0.  1.
</event>
<event>
 8    1  0.7130890E-009  0.1152616E+03  0.7561462E-02  0.1251125E+00
         -2   -1    0    0    0  501 -0.00000000000E+00  0.00000000000E+00  0.18865988163E+03  0.18865988163E+03  0.00000000000E+00 0.  1.
          2   -1    0    0  501    0  0.00000000000E+00 -0.00000000000E+00 -0.12916120094E+03  0.12916120094E+03  0.00000000000E+00 0. -1.
         25    2    1    2    0    0 -0.22901981467E+02  0.94650456472E+02  0.88096671789E+02  0.18136170645E+03  0.12509130794E+03 0.  0.
         23    2    1    2    0    0  0.22901981467E+02 -0.94650456472E+02 -0.28597991106E+02  0.13645937611E+03  0.91214618174E+02 0.  0.
          5    1    3    3  502    0 -0.18252528318E+02  0.50855617405E+02  0.11670819725E+03  0.12867682121E+03  0.41800000000E+01 0. -1.
         -5    1    3    3    0  502 -0.46494531497E+01  0.43794839067E+02 -0.28611525463E+02  0.52684885241E+02  0.41800000000E+01 0. -1.
        -11    1    4    4    0    0  0.54510357294E+02 -0.35577782902E+02 -0.44594145802E+01  0.65246027212E+02  0.00000000000E+00 0.  1.
         11    1    4    4    0    0 -0.31608375827E+02 -0.59072673570E+02 -0.24138576526E+02  0.71213348902E+02  0.00000000000E+00 0. -1.
</event>
<event>
 8    1  0.7130890E-009  0.1322070E+03  0.7561462E-02  0.1224217E+00
          2   -1    0    0  501    0  0.00000000000E+00  0.00000000000E+00  0.98429822749E+03  0.98429822749E+03  0.00000000000E+00 0.  1.
         -2   -1    0    0    0  501 -0.00000000000E+00 -0.00000000000E+00 -0.24481840326E+02  0.24481840326E+02  0.00000000000E+00 0. -1.
         25    2    1    2    0    0 -0.10883753526E+03  0.93099007964E+01  0.57616521656E+03  0.59962208895E+03  0.12509200392E+03 0.  0.
         23    2    1    2    0    0  0.10883753526E+03 -0.93099007964E+01  0.38365117061E+03  0.40915797887E+03  0.91048051219E+02 0.  0.
          5    1    3    3  502    0 -0.11231025752E+03  0.77278181416E+00  0.57843332384E+03  0.58925102772E+03  0.41800000000E+01 0. -1.
         -5    1    3    3    0  502  0.34727222562E+01  0.85371189822E+01 -0.22681072824E+01  0.10371061230E+02  0.41800000000E+01 0. -1.
        -11    1    4    4    0    0  0.10751803738E+03 -0.37358622193E+02  0.31785636392E+03  0.33762177522E+03  0.00000000000E+00 0.  1.
         11    1    4    4    0    0  0.13194978827E+01  0.28048721397E+02  0.65794806683E+02  0.71536203653E+02  0.00000000000E+00 0. -1.
</event>
<event>
 8    1  0.7130890E-009  0.1150333E+03  0.7561462E-02  0.1251523E+00
         -2   -1    0    0    0  501 -0.00000000000E+00  0.00000000000E+00  0.75968901611E+03  0.75968901611E+03  0.00000000000E+00 0.  1.
          2   -1    0    0  501    0  0.00000000000E+00 -0.00000000000E+00 -0.25010290752E+02  0.25010290752E+02  0.00000000000E+00 0. -1.
         25    2    1    2    0    0 -0.82809018683E+02  0.20632603829E+00  0.45774727611E+03  0.48170312745E+03  0.12509179854E+03 0.  0.
         23    2    1    2    0    0  0.82809018683E+02 -0.20632603829E+00  0.27693144925E+03  0.30299617941E+03  0.90875084656E+02 0.  0.
          5    1    3    3  502    0 -0.95124145801E+02 -0.37577433669E+02  0.38844489459E+03  0.40170583163E+03  0.41800000000E+01 0. -1.
         -5    1    3    3    0  502  0.12315127118E+02  0.37783759708E+02  0.69302381529E+02  0.79997295824E+02  0.41800000000E+01 0. -1.
        -11    1    4    4    0    0  0.41943664605E+02  0.14400720619E+02  0.24534519614E+03  0.24932091173E+03  0.00000000000E+00 0.  1.
         11    1    4    4    0    0  0.40865354077E+02 -0.14607046657E+02  0.31586253107E+02  0.53675267687E+02  0.00000000000E+00 0. -1.
</event>
<event>
 8    1  0.7130890E-009  0.9680394E+02  0.7561462E-02  0.1287164E+00
          1   -1    0    0  501    0  0.00000000000E+00  0.00000000000E+00  0.21453340279E+04  0.21453340279E+04  0.00000000000E+00 0. -1.
         -1   -1    0    0    0  501 -0.00000000000E+00 -0.00000000000E+00 -0.11614114110E+02  0.11614114110E+02  0.00000000000E+00 0.  1.
         25    2    1    2    0    0  0.18437361502E+02 -0.74906942906E+02  0.17196850462E+04  0.17259533900E+04  0.12508980686E+03 0.  0.
         23    2    1    2    0    0 -0.18437361502E+02  0.74906942906E+02  0.41403486756E+03  0.43099475202E+03  0.91545717122E+02 0.  0.
          5    1    3    3  502    0  0.18953375964E+02 -0.40608134617E+02  0.16166786632E+04  0.16173050496E+04  0.41800000000E+01 0.  1.
         -5    1    3    3    0  502 -0.51601446189E+00 -0.34298808289E+02  0.10300638305E+03  0.10864834039E+03  0.41800000000E+01 0.  1.
        -11    1    4    4    0    0  0.30505678263E+02  0.51346245818E+02  0.15044782170E+03  0.16186902242E+03  0.00000000000E+00 0.  1.
         11    1    4    4    0    0 -0.48943039765E+02  0.23560697087E+02  0.26358704586E+03  0.26912572960E+03  0.00000000000E+00 0. -1.
</event>
<event>
 8    1  0.7130890E-009  0.1047290E+03  0.7561462E-02  0.1270654E+00
          2   -1    0    0  501    0  0.00000000000E+00  0.00000000000E+00  0.60661647631E+03  0.60661647631E+03  0.00000000000E+00 0.  1.
         -2   -1    0    0    0  501 -0.00000000000E+00 -0.00000000000E+00 -0.22627680304E+02  0.22627680304E+02  0.00000000000E+00 0. -1.
         25    2    1    2    0    0  0.62899116233E+01  0.42744470493E+02  0.32453152339E+03  0.35047758163E+03  0.12508865976E+03 0.  0.
         23    2    1    2    0    0 -0.62899116233E+01 -0.42744470493E+02  0.25945727261E+03  0.27876657499E+03  0.92336743892E+02 0.  0.
          5    1    3    3  502    0  0.43410670337E+02  0.65782055005E+02  0.13918001095E+03  0.16000097783E+03  0.41800000000E+01 0. -1.
         -5    1    3    3    0  502 -0.37120758713E+02 -0.23037584513E+02  0.18535151244E+03  0.19047660379E+03  0.41800000000E+01 0. -1.
        -11    1    4    4    0    0  0.32741777483E+02 -0.65018747115E+01  0.18025776162E+03  0.18332255451E+03  0.00000000000E+00 0.  1.
         11    1    4    4    0    0 -0.39031689106E+02 -0.36242595781E+02  0.79199510987E+02  0.95444020473E+02  0.00000000000E+00 0. -1.
</event>
<event>
 8    1  0.7130890E-009  0.6936921E+02  0.7561462E-02  0.1362251E+00
         -2   -1    0    0    0  501 -0.00000000000E+00  0.00000000000E+00  0.15080485385E+02  0.15080485385E+02  0.00000000000E+00 0. -1.
          2   -1    0    0  501    0  0.00000000000E+00 -0.00000000000E+00 -0.88314194977E+03  0.88314194977E+03  0.00000000000E+00 0.  1.
         25    2    1    2    0    0 -0.17567208146E+02  0.13679655984E+02 -0.64798604864E+03  0.66032503765E+03  0.12508995292E+03 0.  0.
         23    2    1    2    0    0  0.17567208146E+02 -0.13679655984E+02 -0.22007541575E+03  0.23789739751E+03  0.87557086156E+02 0.  0.
          5    1    3    3  502    0  0.11266735679E+02 -0.58063367167E+01 -0.21260627723E+01  0.13514637318E+02  0.41800000000E+01 0.  1.
         -5    1    3    3    0  502 -0.28833943825E+02  0.19485992700E+02 -0.64585998587E+03  0.64681040033E+03  0.41800000000E+01 0.  1.
        -11    1    4    4    0    0 -0.23722093588E+02  0.24501724472E+02 -0.83961161870E+02  0.90623114760E+02  0.00000000000E+00 0.  1.
         11    1    4    4    0    0  0.41289301733E+02 -0.38181380455E+02 -0.13611425388E+03  0.14727428275E+03  0.00000000000E+00 0. -1.
</event>
<event>
 8    1  0.7130890E-009  0.2404975E+03  0.7561462E-02  0.1119462E+00
          1   -1    0    0  501    0  0.00000000000E+00  0.00000000000E+00  0.17592281549E+04  0.17592281549E+04  0.00000000000E+00 0. -1.
         -1   -1    0    0    0  501 -0.00000000000E+00 -0.00000000000E+00 -0.46792278990E+02  0.46792278990E+02  0.00000000000E+00 0.  1.
         25    2    1    2    0    0 -0.96271608535E+02 -0.20530779071E+03  0.13113984338E+04  0.13367246127E+04  0.12508927361E+03 0.  0.
         23    2    1    2    0    0  0.96271608535E+02  0.20530779071E+03  0.40103744206E+03  0.46929582118E+03  0.89375759088E+02 0.  0.
          5    1    3    3  502    0 -0.89424609160E+02 -0.88459675011E+02  0.90755886622E+03  0.91624365912E+03  0.41800000000E+01 0.  1.
         -5    1    3    3    0  502 -0.68469993753E+01 -0.11684811570E+03  0.40383956760E+03  0.42048095356E+03  0.41800000000E+01 0.  1.
        -11    1    4    4    0    0  0.10619460393E+03  0.16285112980E+03  0.28198351770E+03  0.34250910737E+03  0.00000000000E+00 0.  1.
         11    1    4    4    0    0 -0.99229953941E+01  0.42456660908E+02  0.11905392436E+03  0.12678671381E+03  0.00000000000E+00 0. -1.
</event>
<event>
 8    1  0.7130890E-009  0.2420746E+03  0.7561462E-02  0.1118418E+00
         -2   -1    0    0    0  501 -0.00000000000E+00  0.00000000000E+00  0.13251407990E+03  0.13251407990E+03  0.00000000000E+00 0.  1.
          2   -1    0    0  501    0  0.00000000000E+00 -0.00000000000E+00 -0.79344319895E+03  0.79344319895E+03  0.00000000000E+00 0. -1.
         25    2    1    2    0    0  0.16364817960E+03  0.15607880891E+03 -0.62899428321E+03  0.68001717330E+03  0.12509287107E+03 0.  0.
         23    2    1    2    0    0 -0.16364817960E+03 -0.15607880891E+03 -0.31934835839E+02  0.24594010554E+03  0.91243523049E+02 0.  0.
          5    1    3    3  502    0  0.60498137028E+01 -0.19043821541E+02 -0.80556709105E+02  0.83103087588E+02  0.41800000000E+01 0. -1.
         -5    1    3    3    0  502  0.15759836590E+03  0.17512263045E+03 -0.54843757411E+03  0.59691408571E+03  0.41800000000E+01 0. -1.
        -11    1    4    4    0    0 -0.14300506761E+03 -0.12066262551E+03  0.98970060167E+01  0.18737094034E+03  0.00000000000E+00 0. -1.
         11    1    4    4    0    0 -0.20643111987E+02 -0.35416183402E+02 -0.41831841856E+02  0.58569165201E+02  0.00000000000E+00 0.  1.
</event>
<event>
 8    1  0.7130890E-009  0.1244792E+03  0.7561462E-02  0.1235885E+00
          2   -1    0    0  501    0  0.00000000000E+00  0.00000000000E+00  0.31402933617E+02  0.31402933617E+02  0.00000000000E+00 0. -1.
         -2   -1    0    0    0  501 -0.00000000000E+00 -0.00000000000E+00 -0.54379070257E+03  0.54379070257E+03  0.00000000000E+00 0.  1.
         25    2    1    2    0    0 -0.40322943987E+02 -0.56939687777E+02 -0.32909457183E+03  0.35891300589E+03  0.12508893131E+03 0.  0.
         23    2    1    2    0    0  0.40322943987E+02  0.56939687777E+02 -0.18329319712E+03  0.21628063029E+03  0.91174816000E+02 0.  0.
          5    1    3    3  502    0 -0.52312374451E+01 -0.90791365365E+02 -0.24818320650E+03  0.26435357811E+03  0.41800000000E+01 0. -1.
         -5    1    3    3    0  502 -0.35091706542E+02  0.33851677587E+02 -0.80911365335E+02  0.94559427790E+02  0.41800000000E+01 0. -1.
        -11    1    4    4    0    0  0.19493368192E+02 -0.20796920079E+02 -0.21939148684E+02  0.35969841996E+02  0.00000000000E+00 0. -1.
         11    1    4    4    0    0  0.20829575794E+02  0.77736607856E+02 -0.16135404844E+03  0.18031078829E+03  0.00000000000E+00 0.  1.
</event>
<event>
 8    1  0.7130890E-009  0.1041458E+03  0.7561462E-02  0.1271812E+00
         -1   -1    0    0    0  501 -0.00000000000E+00  0.00000000000E+00  0.52179235654E+03  0.52179235654E+03  0.00000000000E+00 0.  1.
          1   -1    0    0  501    0  0.00000000000E+00 -0.00000000000E+00 -0.35067633891E+02  0.35067633891E+02  0.00000000000E+00 0. -1.
         25    2    1    2    0    0  0.26589705528E+02 -0.74916967120E+02  0.31099289509E+03  0.34450351984E+03  0.12508609028E+03 0.  0.
         23    2    1    2    0    0 -0.26589705528E+02  0.74916967120E+02  0.17573182756E+03  0.21235647059E+03  0.88848359485E+02 0.  0.
          5    1    3    3  502    0 -0.23668779244E+02 -0.63367569743E+02  0.67786048780E+02  0.95854477283E+02  0.41800000000E+01 0.  1.
         -5    1    3    3    0  502  0.50258484772E+02 -0.11549397377E+02  0.24320684631E+03  0.24864904256E+03  0.41800000000E+01 0.  1.
        -11    1    4    4    0    0 -0.34306071552E+02  0.38548428460E+02  0.16612786940E+03  0.17395791696E+03  0.00000000000E+00 0.  1.
         11    1    4    4    0    0  0.77163660239E+01  0.36368538660E+02  0.96039581613E+01  0.38398553635E+02  0.00000000000E+00 0. -1.
</event>
<event>
 8    1  0.7130890E-009  0.9247200E+02  0.7561462E-02  0.1296973E+00
          1   -1    0    0  501    0  0.00000000000E+00  0.00000000000E+00  0.55685512668E+03  0.55685512668E+03  0.00000000000E+00 0. -1.
         -1   -1    0    0    0  501 -0.00000000000E+00 -0.00000000000E+00 -0.40494541821E+02  0.40494541821E+02  0.00000000000E+00 0.  1.
         25    2    1    2    0    0  0.42140448316E+02  0.78853330340E+02  0.17876437055E+03  0.23579181781E+03  0.12508963218E+03 0.  0.
         23    2    1    2    0    0 -0.42140448316E+02 -0.78853330340E+02  0.33759621431E+03  0.36155785069E+03  0.93590653330E+02 0.  0.
          5    1    3    3  502    0  0.32368070443E+02  0.68189113816E+02  0.19766455889E+03  0.21162749695E+03  0.41800000000E+01 0.  1.
         -5    1    3    3    0  502  0.97723778733E+01  0.10664216524E+02 -0.18900188335E+02  0.24164320857E+02  0.41800000000E+01 0.  1.
        -11    1    4    4    0    0 -0.45495267317E+02 -0.60850218484E+02  0.33445638226E+03  0.34297760871E+03  0.00000000000E+00 0. -1.
         11    1    4    4    0    0  0.33548190011E+01 -0.18003111856E+02  0.31398320492E+01  0.18580241987E+02  0.00000000000E+00 0.  1.
</event>
<event>
 8    1  0.7130890E-009  0.3074280E+03  0.7561462E-02  0.1081585E+00
         -2   -1    0    0    0  501 -0.00000000000E+00  0.00000000000E+00  0.46977239481E+03  0.46977239481E+03  0.00000000000E+00 0. -1.
          2   -1    0    0  501    0  0.00000000000E+00 -0.00000000000E+00 -0.36939988298E+03  0.36939988298E+03  0.00000000000E+00 0.  1.
         25    2    1    2    0    0 -0.19785284140E+03  0.20945722581E+03  0.33254794833E+03  0.45744546976E+03  0.12510053383E+03 0.  0.
         23    2    1    2    0    0  0.19785284140E+03 -0.20945722581E+03 -0.23217543650E+03  0.38172680804E+03  0.93764846105E+02 0.  0.
          5    1    3    3  502    0 -0.92426434666E+02  0.17015466852E+02  0.87337686439E+02  0.12836477636E+03  0.41800000000E+01 0. -1.
         -5    1    3    3    0  502 -0.10542640673E+03  0.19244175896E+03  0.24521026189E+03  0.32908069340E+03  0.41800000000E+01 0. -1.
        -11    1    4    4    0    0  0.13035190866E+03 -0.73801682828E+02 -0.13553397156E+03  0.20200932138E+03  0.00000000000E+00 0.  1.
         11    1    4    4    0    0  0.67500932743E+02 -0.13565554298E+03 -0.96641464940E+02  0.17971748665E+03  0.00000000000E+00 0. -1.
</event>
<event>
 8    1  0.7130890E-009  0.1093421E+03  0.7561462E-02  0.1261793E+00
          1   -1    0    0  501    0  0.00000000000E+00  0.00000000000E+00  0.18231823392E+03  0.18231823392E+03  0.00000000000E+00 0. -1.
         -1   -1    0    0    0  501 -0.00000000000E+00 -0.00000000000E+00 -0.86251025485E+02  0.86251025485E+02  0.00000000000E+00 0.  1.
         25    2    1    2    0    0  0.41438440196E+02 -0.83709833268E+00  0.32008886316E+01  0.13182226537E+03  0.12509603870E+03 0.  0.
         23    2    1    2    0    0 -0.41438440196E+02  0.83709833268E+00  0.92866319801E+02  0.13674699404E+03  0.91420686746E+02 0.  0.
          5    1    3    3  502    0 -0.26156603401E+02 -0.44065820321E+02  0.15688656357E-01  0.51414366360E+02  0.41800000000E+01 0. -1.
         -5    1    3    3    0  502  0.67595043596E+02  0.43228721989E+02  0.31851999752E+01  0.80407899005E+02  0.41800000000E+01 0. -1.
        -11    1    4    4    0    0  0.22700374989E+02 -0.14385543532E+01  0.60978160911E+02  0.65082352226E+02  0.00000000000E+00 0. -1.
         11    1    4    4    0    0 -0.64138815184E+02  0.22756526859E+01  0.31888158890E+02  0.71664641810E+02  0.00000000000E+00 0.  1.
</event>
<event>
 8    1  0.7130890E-009  0.1455395E+03  0.7561462E-02  0.1206064E+00
         -3   -1    0    0    0  501 -0.00000000000E+00  0.00000000000E+00  0.98059507899E+02  0.98059507899E+02  0.00000000000E+00 0.  1.
          3   -1    0    0  501    0  0.00000000000E+00 -0.00000000000E+00 -0.23055495668E+03  0.23055495668E+03  0.00000000000E+00 0. -1.
         25    2    1    2    0    0  0.82979446097E+02 -0.62120387838E+02 -0.75563776561E+02  0.17917109884E+03  0.12509143564E+03 0.  0.
         23    2    1    2    0    0 -0.82979446097E+02  0.62120387838E+02 -0.56931672222E+02  0.14944336575E+03  0.91365054608E+02 0.  0.
          5    1    3    3  502    0  0.67119858150E+02  0.20440713625E+02 -0.62367613204E+02  0.93968557019E+02  0.41800000000E+01 0.  1.
         -5    1    3    3    0  502  0.15859587947E+02 -0.82561101463E+02 -0.13196163358E+02  0.85202541817E+02  0.41800000000E+01 0.  1.
        -11    1    4    4    0    0 -0.71773452651E+02 -0.17261938871E+01 -0.18712812427E+02  0.74192840623E+02  0.00000000000E+00 0.  1.
         11    1    4    4    0    0 -0.11205993446E+02  0.63846581726E+02 -0.38218859795E+02  0.75250525122E+02  0.00000000000E+00 0. -1.
</event>
<event>
 8    1  0.7130890E-009  0.1117978E+03  0.7561462E-02  0.1257276E+00
         -2   -1    0    0    0  501 -0.00000000000E+00  0.00000000000E+00  0.82994424371E+03  0.82994424371E+03  0.00000000000E+00 0.  1.
          2   -1    0    0  501    0  0.00000000000E+00 -0.00000000000E+00 -0.15513850792E+02  0.15513850792E+02  0.00000000000E+00 0. -1.
         25    2    1    2    0    0  0.41869952445E+01  0.31554322624E+02  0.53295044321E+03  0.54835763377E+03  0.12508682340E+03 0.  0.
         23    2    1    2    0    0 -0.41869952445E+01 -0.31554322624E+02  0.28147994970E+03  0.29710046073E+03  0.89579659941E+02 0.  0.
          5    1    3    3  502    0  0.60413627636E+02  0.39253394937E+02  0.29688031200E+03  0.30552582128E+03  0.41800000000E+01 0.  1.
         -5    1    3    3    0  502 -0.56226632392E+02 -0.76990723132E+01  0.23607013121E+03  0.24283181249E+03  0.41800000000E+01 0.  1.
        -11    1    4    4    0    0  0.42024352248E+02 -0.84792119533E+01  0.11202078334E+03  0.11994414999E+03  0.00000000000E+00 0. -1.
         11    1    4    4    0    0 -0.46211347492E+02 -0.23075110671E+02  0.16945916636E+03  0.17715631074E+03  0.00000000000E+00 0.  1.
</event>
<event>
 8    1  0.7130890E-009  0.1286642E+03  0.7561462E-02  0.1229451E+00
         -2   -1    0    0    0  501 -0.00000000000E+00  0.00000000000E+00  0.18493818968E+03  0.18493818968E+03  0.00000000000E+00 0.  1.
          2   -1    0    0  501    0  0.00000000000E+00 -0.00000000000E+00 -0.14116976960E+03  0.14116976960E+03  0.00000000000E+00 0. -1.
         25    2    1    2    0    0  0.69964636254E+02  0.43835266989E+02 -0.62505975911E+02  0.16239269108E+03  0.12509119927E+03 0.  0.
         23    2    1    2    0    0 -0.69964636254E+02 -0.43835266989E+02  0.10627439599E+03  0.16371526819E+03  0.93230149839E+02 0.  0.
          5    1    3    3  502    0 -0.18380987772E+02  0.50588134142E+02 -0.48538091611E+02  0.72597787602E+02  0.41800000000E+01 0. -1.
         -5    1    3    3    0  502  0.88345624026E+02 -0.67528671527E+01 -0.13967884299E+02  0.89794903481E+02  0.41800000000E+01 0. -1.
        -11    1    4    4    0    0 -0.78314234879E+02 -0.90129283110E+01  0.10004039221E+03  0.12736731266E+03  0.00000000000E+00 0.  1.
         11    1    4    4    0    0  0.83495986250E+01 -0.34822338678E+02  0.62340037788E+01  0.36347955532E+02  0.00000000000E+00 0. -1.
</event>
<event>
 8    1  0.7130890E-009  0.1008963E+03  0.7561462E-02  0.1278422E+00
          2   -1    0    0  501    0  0.00000000000E+00  0.00000000000E+00  0.29583047765E+03  0.29583047765E+03  0.00000000000E+00 0. -1.
         -2   -1    0    0    0  501 -0.00000000000E+00 -0.00000000000E+00 -0.43417184879E+02  0.43417184879E+02  0.00000000000E+00 0.  1.
         25    2    1    2    0    0 -0.73760294105E+01 -0.33899221108E+02  0.14899949428E+03  0.19761596495E+03  0.12509059640E+03 0.  0.
         23    2    1    2    0    0  0.73760294105E+01  0.33899221108E+02  0.10341379849E+03  0.14163169758E+03  0.90341358409E+02 0.  0.
          5    1    3    3  502    0  0.23397323465E+02  0.38530508237E+02  0.28047899005E+02  0.53255909051E+02  0.41800000000E+01 0. -1.
         -5    1    3    3    0  502 -0.30773352875E+02 -0.72429729344E+02  0.12095159528E+03  0.14436005590E+03  0.41800000000E+01 0. -1.
        -11    1    4    4    0    0 -0.25052640295E+02 -0.65265357679E+01  0.81234215242E+02  0.85259768830E+02  0.00000000000E+00 0. -1.
         11    1    4    4    0    0  0.32428669706E+02  0.40425756875E+02  0.22179583250E+02  0.56371928750E+02  0.00000000000E+00 0.  1.
</event>
<event>
 8    1  0.7130890E-009  0.1622846E+03  0.7561462E-02  0.1186141E+00
          1   -1    0    0  501    0  0.00000000000E+00  0.00000000000E+00  0.20823116790E+03  0.20823116790E+03  0.00000000000E+00 0. -1.
         -1   -1    0    0    0  501 -0.00000000000E+00 -0.00000000000E+00 -0.18176860607E+03  0.18176860607E+03  0.00000000000E+00 0.  1.
         25    2    1    2    0    0 -0.76356027811E+02  0.12769213440E+03  0.74548161400E+02  0.20818466130E+03  0.12509156911E+03 0.  0.
         23    2    1    2    0    0  0.76356027811E+02 -0.12769213440E+03 -0.48085599564E+02  0.18181511267E+03  0.92784622333E+02 0.  0.
          5    1    3    3  502    0 -0.23682279170E+02 -0.61485118528E+01 -0.23404224062E+02  0.34115753672E+02  0.41800000000E+01 0. -1.
         -5    1    3    3    0  502 -0.52673748641E+02  0.13384064625E+03  0.97952385462E+02  0.17406890763E+03  0.41800000000E+01 0. -1.
        -11    1    4    4    0    0  0.25968382400E+02 -0.87878595103E+02  0.13755168473E+02  0.92661799148E+02  0.00000000000E+00 0. -1.
         11    1    4    4    0    0  0.50387645411E+02 -0.39813539293E+02 -0.61840768038E+02  0.89153313526E+02  0.00000000000E+00 0.  1.
</event>
<event>
 8    1  0.7130890E-009  0.1115746E+03  0.7561462E-02  0.1257681E+00
          2   -1    0    0  501    0  0.00000000000E+00  0.00000000000E+00  0.11022494206E+04  0.11022494206E+04  0.00000000000E+00 0. -1.
         -2   -1    0    0    0  501 -0.00000000000E+00 -0.00000000000E+00 -0.29246937306E+02  0.29246937306E+02  0.00000000000E+00 0.  1.
         25    2    1    2    0    0 -0.98641834210E+02  0.92224961049E+01  0.89066846299E+03  0.90484986077E+03  0.12509074174E+03 0.  0.
         23    2    1    2    0    0  0.98641834210E+02 -0.92224961049E+01  0.18233402033E+03  0.22664649717E+03  0.91146441609E+02 0.  0.
          5    1    3    3  502    0 -0.38600807835E+02  0.23151007318E+02  0.80455788210E+02  0.92285414675E+02  0.41800000000E+01 0. -1.
         -5    1    3    3    0  502 -0.60041026375E+02 -0.13928511213E+02  0.81021267478E+03  0.81256444609E+03  0.41800000000E+01 0. -1.
        -11    1    4    4    0    0  0.22165363001E+02  0.24103091320E+02  0.84982375150E+01  0.33830199068E+02  0.00000000000E+00 0.  1.
         11    1    4    4    0    0  0.76476471209E+02 -0.33325587425E+02  0.17383578281E+03  0.19281629810E+03  0.00000000000E+00 0. -1.
</event>
<event>
 8    1  0.7130890E-009  0.9286192E+02  0.7561462E-02  0.1296065E+00
         -2   -1    0    0    0  501 -0.00000000000E+00  0.00000000000E+00  0.21294578707E+03  0.21294578707E+03  0.00000000000E+00 0.  1.
          2   -1    0    0  501    0  0.00000000000E+00 -0.00000000000E+00 -0.11460378685E+03  0.11460378685E+03  0.00000000000E+00 0. -1.
         25    2    1    2    0    0 -0.43084043889E+02 -0.49526352725E+02  0.14789439076E+03  0.20452414572E+03  0.12509308900E+03 0.  0.
         23    2    1    2    0    0  0.43084043889E+02  0.49526352725E+02 -0.49552390535E+02  0.12302542819E+03  0.91491650554E+02 0.  0.
          5    1    3    3  502    0 -0.46563164735E+02 -0.64514909354E+02  0.16370880203E+03  0.18206687261E+03  0.41800000000E+01 0.  1.
         -5    1    3    3    0  502  0.34791208459E+01  0.14988556629E+02 -0.15814411277E+02  0.22457273114E+02  0.41800000000E+01 0.  1.
        -11    1    4    4    0    0  0.59145614804E+02  0.37360168674E+02 -0.45957388789E+00  0.69958538879E+02  0.00000000000E+00 0.  1.
         11    1    4    4    0    0 -0.16061570915E+02  0.12166184052E+02 -0.49092816648E+02  0.53066889310E+02  0.00000000000E+00 0. -1.
</event>
<event>
 8    1  0.7130890E-009  0.1098289E+03  0.7561462E-02  0.1260887E+00
         -1   -1    0    0    0  501 -0.00000000000E+00  0.00000000000E+00  0.15051641144E+03  0.15051641144E+03  0.00000000000E+00 0.  1.
          1   -1    0    0  501    0  0.00000000000E+00 -0.00000000000E+00 -0.87761955688E+02  0.87761955688E+02  0.00000000000E+00 0. -1.
         25    2    1    2    0    0  0.34859445586E+02 -0.12611656323E+02  0.26288580582E+02  0.13309077071E+03  0.12509128250E+03 0.  0.
         23    2    1    2    0    0 -0.34859445586E+02  0.12611656323E+02  0.36465875171E+02  0.10518759642E+03  0.91435417468E+02 0.  0.
          5    1    3    3  502    0 -0.23177613650E+01  0.48834155193E+02 -0.13487871477E+02  0.50887540794E+02  0.41800000000E+01 0.  1.
         -5    1    3    3    0  502  0.37177206951E+02 -0.61445811516E+02  0.39776452059E+02  0.82203229912E+02  0.41800000000E+01 0.  1.
        -11    1    4    4    0    0 -0.86408869498E+01  0.51241235458E+02  0.18357502733E+02  0.55111950112E+02  0.00000000000E+00 0.  1.
         11    1    4    4    0    0 -0.26218558636E+02 -0.38629579135E+02  0.18108372438E+02  0.50075646311E+02  0.00000000000E+00 0. -1.
</event>
<event>
 8    1  0.7130890E-009  0.1204759E+03  0.7561462E-02  0.1242314E+00
         -2   -1    0    0    0  501 -0.00000000000E+00  0.00000000000E+00  0.77636541373E+02  0.77636541373E+02  0.00000000000E+00 0.  1.
          2   -1    0    0  501    0  0.00000000000E+00 -0.00000000000E+00 -0.27266228400E+03  0.27266228400E+03  0.00000000000E+00 0. -1.
         25    2    1    2    0    0  0.61564253567E+02 -0.49973839523E+02 -0.17124144471E+03  0.22640185871E+03  0.12508647923E+03 0.  0.
         23    2    1    2    0    0 -0.61564253567E+02  0.49973839523E+02 -0.23784297909E+02  0.12389696666E+03  0.92180386017E+02 0.  0.
          5    1    3    3  502    0  0.69060347696E+02  0.14842792066E+01 -0.15813118828E+03  0.17261077549E+03  0.41800000000E+01 0. -1.
         -5    1    3    3    0  502 -0.74960941288E+01 -0.51458118729E+02 -0.13110256437E+02  0.53791083222E+02  0.41800000000E+01 0. -1.
        -11    1    4    4    0    0  0.14780608275E+02  0.39929443974E+02 -0.19346011141E+02  0.46766387761E+02  0.00000000000E+00 0. -1.
         11    1    4    4    0    0 -0.76344861842E+02  0.10044395548E+02 -0.44382867682E+01  0.77130578898E+02  0.00000000000E+00 0.  1.
</event>
<event>
 8    1  0.7130890E-009  0.8343259E+02  0.7561462E-02  0.1319583E+00
          1   -1    0    0  501    0  0.00000000000E+00  0.00000000000E+00  0.28479506289E+03  0.28479506289E+03  0.00000000000E+00 0. -1.
         -1   -1    0    0    0  501 -0.00000000000E+00 -0.00000000000E+00 -0.57715691403E+02  0.57715691403E+02  0.00000000000E+00 0.  1.
         25    2    1    2    0    0  0.65100299016E+02 -0.22748931093E+02  0.13142585883E+03  0.19410326731E+03  0.12509100372E+03 0.  0.
         23    2    1    2    0    0 -0.65100299016E+02  0.22748931093E+02  0.95653512662E+02  0.14840748699E+03  0.90108961335E+02 0.  0.
          5    1    3    3  502    0  0.51854390115E+02 -0.27147334911E+02  0.15536609412E+03  0.16607814778E+03  0.41800000000E+01 0. -1.
         -5    1    3    3    0  502  0.13245908901E+02  0.43984038179E+01 -0.23940235291E+02  0.28025119528E+02  0.41800000000E+01 0. -1.
        -11    1    4    4    0    0  0.11066989977E+02 -0.55256432359E+01 -0.94475574915E+01  0.15564939540E+02  0.00000000000E+00 0.  1.
         11    1    4    4    0    0 -0.76167288994E+02  0.28274574329E+02  0.10510107015E+03  0.13284254745E+03  0.00000000000E+00 0. -1.
</event>
<event>
 8    1  0.7130890E-009  0.1496756E+03  0.7561462E-02  0.1200872E+00
          2   -1    0    0  501    0  0.00000000000E+00  0.00000000000E+00  0.14596916273E+03  0.14596916273E+03  0.00000000000E+00 0. -1.
         -2   -1    0    0    0  501 -0.00000000000E+00 -0.00000000000E+00 -0.22529950801E+03  0.22529950801E+03  0.00000000000E+00 0.  1.
         25    2    1    2    0    0 -0.43904030165E+02  0.13102069029E+03  0.21067202630E+01  0.18639970129E+03  0.12508567154E+03 0.  0.
         23    2    1    2    0    0  0.43904030165E+02 -0.13102069029E+03 -0.81437065540E+02  0.18486896945E+03  0.91926900708E+02 0.  0.
          5    1    3    3  502    0 -0.40674127268E+02  0.37807299234E+02 -0.53920711666E+02  0.77515753566E+02  0.41800000000E+01 0.  1.
         -5    1    3    3    0  502 -0.32299028973E+01  0.93213391054E+02  0.56027431929E+02  0.10888394773E+03  0.41800000000E+01 0.  1.
        -11    1    4    4    0    0  0.55372863341E+02 -0.75630262284E+02 -0.87184266968E+02  0.12801244851E+03  0.00000000000E+00 0.  1.
         11    1    4    4    0    0 -0.11468833175E+02 -0.55390428004E+02  0.57472014279E+01  0.56856520937E+02  0.00000000000E+00 0. -1.
</event>
<event>
 8    1  0.7130890E-009  0.2072706E+03  0.7561462E-02  0.1143746E+00
         -1   -1    0    0    0  501 -0.00000000000E+00  0.00000000000E+00  0.47497406275E+02  0.47497406275E+02  0.00000000000E+00 0.  1.
          1   -1    0    0  501    0  0.00000000000E+00 -0.00000000000E+00 -0.12133559485E+04  0.12133559485E+04  0.00000000000E+00 0. -1.
         25    2    1    2    0    0 -0.60912997186E+02 -0.18867649937E+03 -0.80987740675E+03  0.84312454601E+03  0.12509345094E+03 0.  0.
         23    2    1    2    0    0  0.60912997186E+02  0.18867649937E+03 -0.35598113544E+03  0.41772880874E+03  0.92008555142E+02 0.  0.
          5    1    3    3  502    0 -0.69476289417E+02 -0.98771554733E+02 -0.63355837658E+03  0.64497787850E+03  0.41800000000E+01 0. -1.
         -5    1    3    3    0  502  0.85632922309E+01 -0.89904944636E+02 -0.17631903017E+03  0.19814666751E+03  0.41800000000E+01 0. -1.
        -11    1    4    4    0    0  0.15057690582E+02  0.83131278456E+01 -0.98747298526E+02  0.10023408156E+03  0.00000000000E+00 0. -1.
         11    1    4    4    0    0  0.45855306604E+02  0.18036337152E+03 -0.25723383692E+03  0.31749472718E+03  0.00000000000E+00 0.  1.
</event>
<event>
 8    1  0.7130890E-009  0.1013965E+03  0.7561462E-02  0.1277386E+00
         -4   -1    0    0    0  501 -0.00000000000E+00  0.00000000000E+00  0.10878712239E+03  0.10878712239E+03  0.00000000000E+00 0.  1.
          4   -1    0    0  501    0  0.00000000000E+00 -0.00000000000E+00 -0.13141594053E+03  0.13141594053E+03  0.00000000000E+00 0. -1.
         25    2    1    2    0    0 -0.47453261897E+02  0.11179590697E+02  0.35439971952E+01  0.13430044789E+03  0.12508898862E+03 0.  0.
         23    2    1    2    0    0  0.47453261897E+02 -0.11179590697E+02 -0.26172815334E+02  0.10590261504E+03  0.90297022640E+02 0.  0.
          5    1    3    3  502    0  0.27933599649E+02 -0.26503703606E+02  0.26402207813E+02  0.46875166897E+02  0.41800000000E+01 0. -1.
         -5    1    3    3    0  502 -0.75386861546E+02  0.37683294303E+02 -0.22858210618E+02  0.87425280989E+02  0.41800000000E+01 0. -1.
        -11    1    4    4    0    0 -0.60526716328E+01 -0.23920482519E+02  0.21795361665E+02  0.32922061113E+02  0.00000000000E+00 0.  1.
         11    1    4    4    0    0  0.53505933530E+02  0.12740891822E+02 -0.47968176999E+02  0.72980553930E+02  0.00000000000E+00 0. -1.
</event>
<event>
 8    1  0.7130890E-009  0.1001135E+03  0.7561462E-02  0.1280058E+00
          2   -1    0    0  501    0  0.00000000000E+00  0.00000000000E+00  0.25923892341E+03  0.25923892341E+03  0.00000000000E+00 0. -1.
         -2   -1    0    0    0  501 -0.00000000000E+00 -0.00000000000E+00 -0.58524668083E+02  0.58524668083E+02  0.00000000000E+00 0.  1.
         25    2    1    2    0    0  0.11811081960E+02  0.52203581321E+02  0.86382479285E+02  0.16116413522E+03  0.12508888917E+03 0.  0.
         23    2    1    2    0    0 -0.11811081960E+02 -0.52203581321E+02  0.11433177604E+03  0.15659945627E+03  0.92665630803E+02 0.  0.
          5    1    3    3  502    0  0.29144054914E+02  0.72067268445E+02  0.10345892865E+03  0.12947698419E+03  0.41800000000E+01 0.  1.
         -5    1    3    3    0  502 -0.17332972954E+02 -0.19863687124E+02 -0.17076449363E+02  0.31687151031E+02  0.41800000000E+01 0.  1.
        -11    1    4    4    0    0  0.22090886959E+02 -0.57292154055E+02  0.10403578885E+03  0.12080498154E+03  0.00000000000E+00 0.  1.
         11    1    4    4    0    0 -0.33901968919E+02  0.50885727346E+01  0.10295987189E+02  0.35794474731E+02  0.00000000000E+00 0. -1.
</event>
<event>
 8    1  0.7130890E-009  0.2327746E+03  0.7561462E-02  0.1124702E+00
          1   -1    0    0  501    0  0.00000000000E+00  0.00000000000E+00  0.11286740276E+03  0.11286740276E+03  0.00000000000E+00 0. -1.
         -1   -1    0    0    0  501 -0.00000000000E+00 -0.00000000000E+00 -0.60414927816E+03  0.60414927816E+03  0.00000000000E+00 0.  1.
         25    2    1    2    0    0 -0.20739038660E+03  0.53723841457E+02 -0.11260435158E+03  0.27244097009E+03  0.12508924252E+03 0.  0.
         23    2    1    2    0    0  0.20739038660E+03 -0.53723841457E+02 -0.37867752382E+03  0.44457571083E+03  0.91399518723E+02 0.  0.
          5    1    3    3  502    0  0.80645975539E+01 -0.18496194246E+02 -0.64131334374E+01  0.21581186617E+02  0.41800000000E+01 0. -1.
         -5    1    3    3    0  502 -0.21545498415E+03  0.72220035703E+02 -0.10619121814E+03  0.25085978347E+03  0.41800000000E+01 0. -1.
        -11    1    4    4    0    0  0.90962971467E+02 -0.43392523197E+02 -0.25602934771E+03  0.27515123139E+03  0.00000000000E+00 0.  1.
         11    1    4    4    0    0  0.11642741513E+03 -0.10331318260E+02 -0.12264817611E+03  0.16942447944E+03  0.00000000000E+00 0. -1.
</event>
<event>
 8    1  0.7130890E-009  0.1621162E+03  0.7561462E-02  0.1186328E+00
         -1   -1    0    0    0  501 -0.00000000000E+00  0.00000000000E+00  0.13014812421E+03  0.13014812421E+03  0.00000000000E+00 0.  1.
          1   -1    0    0  501    0  0.00000000000E+00 -0.00000000000E+00 -0.30416026140E+03  0.30416026140E+03  0.00000000000E+00 0. -1.
         25    2    1    2    0    0  0.11438985082E+03 -0.46354992052E+02 -0.20923191127E+03  0.27323857259E+03  0.12508997400E+03 0.  0.
         23    2    1    2    0    0 -0.11438985082E+03  0.46354992052E+02  0.35219774090E+02  0.16106981302E+03  0.97309963117E+02 0.  0.
          5    1    3    3  502    0  0.13989347400E+03 -0.28537540067E+02 -0.18418618506E+03  0.23308066936E+03  0.41800000000E+01 0.  1.
         -5    1    3    3    0  502 -0.25503623178E+02 -0.17817451984E+02 -0.25045726209E+02  0.40157903229E+02  0.41800000000E+01 0.  1.
        -11    1    4    4    0    0 -0.10727427874E+03  0.43074126140E+01  0.46438019020E+02  0.11697356237E+03  0.00000000000E+00 0.  1.
         11    1    4    4    0    0 -0.71155720791E+01  0.42047579438E+02 -0.11218244929E+02  0.44096250655E+02  0.00000000000E+00 0. -1.
</event>
<event>
 8    1  0.7130890E-009  0.1097837E+03  0.7561462E-02  0.1260971E+00
          2   -1    0    0  501    0  0.00000000000E+00  0.00000000000E+00  0.41218974639E+03  0.41218974639E+03  0.00000000000E+00 0.  1.
         -2   -1    0    0    0  501 -0.00000000000E+00 -0.00000000000E+00 -0.34955675361E+02  0.34955675361E+02  0.00000000000E+00 0. -1.
         25    2    1    2    0    0  0.11667480778E+02  0.42501313080E+02  0.16567987441E+03  0.21222352975E+03  0.12508602670E+03 0.  0.
         23    2    1    2    0    0 -0.11667480778E+02 -0.42501313080E+02  0.21155419662E+03  0.23492189200E+03  0.92144590248E+02 0.  0.
          5    1    3    3  502    0  0.45721311545E+02 -0.16971272040E+02  0.12042133077E+03  0.12998935229E+03  0.41800000000E+01 0. -1.
         -5    1    3    3    0  502 -0.34053830767E+02  0.59472585120E+02  0.45258543644E+02  0.82234177466E+02  0.41800000000E+01 0. -1.
        -11    1    4    4    0    0  0.50300486460E+01  0.28541319768E+02  0.66637593346E+02  0.72666891845E+02  0.00000000000E+00 0.  1.
         11    1    4    4    0    0 -0.16697529424E+02 -0.71042632847E+02  0.14491660327E+03  0.16225500015E+03  0.00000000000E+00 0. -1.
</event>
<event>
 8    1  0.7130890E-009  0.1586310E+03  0.7561462E-02  0.1190251E+00
         -1   -1    0    0    0  501 -0.00000000000E+00  0.00000000000E+00  0.75925895306E+02  0.75925895306E+02  0.00000000000E+00 0. -1.
          1   -1    0    0  501    0  0.00000000000E+00 -0.00000000000E+00 -0.35858437444E+03  0.35858437444E+03  0.00000000000E+00 0.  1.
         25    2    1    2    0    0  0.12047072097E+03 -0.51168181588E+01 -0.11181868991E+03  0.20661656274E+03  0.12509039990E+03 0.  0.
         23    2    1    2    0    0 -0.12047072097E+03  0.51168181588E+01 -0.17083978923E+03  0.22789370701E+03  0.90608673270E+02 0.  0.
          5    1    3    3  502    0  0.11149781454E+03 -0.48818078099E+02 -0.10595216391E+03  0.16142583695E+03  0.41800000000E+01 0. -1.
         -5    1    3    3    0  502  0.89729064301E+01  0.43701259941E+02 -0.58665259928E+01  0.45190725790E+02  0.41800000000E+01 0. -1.
        -11    1    4    4    0    0 -0.75207363451E+02 -0.41326023830E+02 -0.10253329210E+03  0.13370513735E+03  0.00000000000E+00 0.  1.
         11    1    4    4    0    0 -0.45263357519E+02  0.46442841989E+02 -0.68306497127E+02  0.94188569666E+02  0.00000000000E+00 0. -1.
</event>
<event>
 8    1  0.7130890E-009  0.1484818E+03  0.7561462E-02  0.1202351E+00
          3   -1    0    0  501    0  0.00000000000E+00  0.00000000000E+00  0.75124737819E+03  0.75124737819E+03  0.00000000000E+00 0. -1.
         -3   -1    0    0    0  501 -0.00000000000E+00 -0.00000000000E+00 -0.42110223575E+02  0.42110223575E+02  0.00000000000E+00 0.  1.
         25    2    1    2    0    0 -0.13949716327E+03 -0.46709918039E+01  0.32055687530E+03  0.37132429188E+03  0.12507494839E+03 0.  0.
         23    2    1    2    0    0  0.13949716327E+03  0.46709918039E+01  0.38858027931E+03  0.42203330988E+03  0.87385378956E+02 0.  0.
          5    1    3    3  502    0 -0.14435014292E+03 -0.82063428303E+01  0.32945261499E+03  0.35980662271E+03  0.41800000000E+01 0. -1.
         -5    1    3    3    0  502  0.48529796568E+01  0.35353510264E+01 -0.88957396903E+01  0.11517669168E+02  0.41800000000E+01 0. -1.
        -11    1    4    4    0    0  0.65203649992E+02 -0.17429757064E+02  0.28370763096E+03  0.29162532858E+03  0.00000000000E+00 0. -1.
         11    1    4    4    0    0  0.74293513274E+02  0.22100748868E+02  0.10487264835E+03  0.13040798130E+03  0.00000000000E+00 0.  1.
</event>
<event>
 8    1  0.7130890E-009  0.2191929E+03  0.7561462E-02  0.1134486E+00
          2   -1    0    0  501    0  0.00000000000E+00  0.00000000000E+00  0.70552944811E+03  0.70552944811E+03  0.00000000000E+00 0. -1.
         -2   -1    0    0    0  501 -0.00000000000E+00 -0.00000000000E+00 -0.10429782503E+03  0.10429782503E+03  0.00000000000E+00 0.  1.
         25    2    1    2    0    0  0.33884702913E+02 -0.19540968031E+03  0.53200038420E+03  0.58138147992E+03  0.12508756993E+03 0.  0.
         23    2    1    2    0    0 -0.33884702913E+02  0.19540968031E+03  0.69231238885E+02  0.22844579323E+03  0.89785298090E+02 0.  0.
          5    1    3    3  502    0  0.23883661220E+02 -0.21167828998E+03  0.46310805280E+03  0.50976923082E+03  0.41800000000E+01 0.  1.
         -5    1    3    3    0  502  0.10001041692E+02  0.16268609664E+02  0.68892331398E+02  0.71612249097E+02  0.41800000000E+01 0.  1.
        -11    1    4    4    0    0  0.15229485072E+02  0.40701945836E+02 -0.14489794966E+02  0.45809821748E+02  0.00000000000E+00 0.  1.
         11    1    4    4    0    0 -0.49114187985E+02  0.15470773448E+03  0.83721033850E+02  0.18263597148E+03  0.00000000000E+00 0. -1.
</event>
<event>
 8    1  0.7130890E-009  0.1168577E+03  0.7561462E-02  0.1248373E+00
         -2   -1    0    0    0  501 -0.00000000000E+00  0.00000000000E+00  0.10268738652E+03  0.10268738652E+03  0.00000000000E+00 0.  1.
          2   -1    0    0  501    0  0.00000000000E+00 -0.00000000000E+00 -0.19990571632E+03  0.19990571632E+03  0.00000000000E+00 0. -1.
         25    2    1    2    0    0 -0.33165776382E+02 -0.82989555995E+02 -0.81278894066E+02  0.17390264734E+03  0.12509451228E+03 0.  0.
         23    2    1    2    0    0  0.33165776382E+02  0.82989555995E+02 -0.15939435730E+02  0.12869045551E+03  0.91213664545E+02 0.  0.
          5    1    3    3  502    0 -0.31294980725E+02 -0.81424421816E+01 -0.92501941116E+02  0.98080358347E+02  0.41800000000E+01 0.  1.
         -5    1    3    3    0  502 -0.18707956561E+01 -0.74847113813E+02  0.11223047050E+02  0.75822288990E+02  0.41800000000E+01 0.  1.
        -11    1    4    4    0    0 -0.25611938604E+02  0.55724915168E+02  0.23219225230E+01  0.61372867732E+02  0.00000000000E+00 0.  1.
         11    1    4    4    0    0  0.58777714986E+02  0.27264640827E+02 -0.18261358253E+02  0.67317587774E+02  0.00000000000E+00 0. -1.
</event>
<event>
 8    1  0.7130890E-009  0.1595658E+03  0.7561462E-02  0.1189188E+00
          1   -1    0    0  501    0  0.00000000000E+00  0.00000000000E+00  0.12043201593E+03  0.12043201593E+03  0.00000000000E+00 0. -1.
         -1   -1    0    0    0  501 -0.00000000000E+00 -0.00000000000E+00 -0.47188021410E+03  0.47188021410E+03  0.00000000000E+00 0.  1.
         25    2    1    2    0    0  0.90210602234E+02  0.12469901718E+03 -0.22120399316E+00  0.19833087828E+03  0.12508913105E+03 0.  0.
         23    2    1    2    0    0 -0.90210602234E+02 -0.12469901718E+03 -0.35122699418E+03  0.39398135175E+03  0.90405234617E+02 0.  0.
          5    1    3    3  502    0  0.33452265728E+02  0.95430278016E+02 -0.54020743266E+02  0.11472447493E+03  0.41800000000E+01 0.  1.
         -5    1    3    3    0  502  0.56758336506E+02  0.29268739164E+02  0.53799539273E+02  0.83606403350E+02  0.41800000000E+01 0.  1.
        -11    1    4    4    0    0 -0.45461215964E+02 -0.64736956201E+02 -0.27896278593E+03  0.28996177608E+03  0.00000000000E+00 0.  1.
         11    1    4    4    0    0 -0.44749386269E+02 -0.59962060979E+02 -0.72264208250E+02  0.10401957567E+03  0.00000000000E+00 0. -1.
</event>
<event>
 8    1  0.7130890E-009  0.1270112E+03  0.7561462E-02  0.1231959E+00
         -3   -1    0    0    0  501 -0.00000000000E+00  0.00000000000E+00  0.64852309382E+03  0.64852309382E+03  0.00000000000E+00 0.  1.
          3   -1    0    0  501    0  0.00000000000E+00 -0.00000000000E+00 -0.38454429077E+02  0.38454429077E+02  0.00000000000E+00 0. -1.
         25    2    1    2    0    0  0.23196643104E+02  0.10319447866E+03  0.41102996485E+03  0.44247043061E+03  0.12508902943E+03 0.  0.
         23    2    1    2    0    0 -0.23196643104E+02 -0.10319447866E+03  0.19903869989E+03  0.24450709228E+03  0.94763544907E+02 0.  0.
          5    1    3    3  502    0  0.17556216646E+02  0.21391879957E+01 -0.97076401480E+00  0.18199221164E+02  0.41800000000E+01 0.  1.
         -5    1    3    3    0  502  0.56404264582E+01  0.10105529067E+03  0.41200072886E+03  0.42427120945E+03  0.41800000000E+01 0.  1.
        -11    1    4    4    0    0 -0.47467369153E+02 -0.27055546270E+02  0.44254722157E+02  0.70310981727E+02  0.00000000000E+00 0. -1.
         11    1    4    4    0    0  0.24270726048E+02 -0.76138932394E+02  0.15478397773E+03  0.17419611055E+03  0.00000000000E+00 0.  1.
</event>
<event>
 8    1  0.7130890E-009  0.9719621E+02  0.7561462E-02  0.1286305E+00
          1   -1    0    0  501    0  0.00000000000E+00  0.00000000000E+00  0.52579198006E+03  0.52579198006E+03  0.00000000000E+00 0. -1.
         -1   -1    0    0    0  501 -0.00000000000E+00 -0.00000000000E+00 -0.23262133665E+02  0.23262133665E+02  0.00000000000E+00 0.  1.
         25    2    1    2    0    0  0.92926244525E+01  0.27584903045E+02  0.30152689803E+03  0.32774055489E+03  0.12509245117E+03 0.  0.
         23    2    1    2    0    0 -0.92926244525E+01 -0.27584903045E+02  0.20100294836E+03  0.22131355883E+03  0.87921705665E+02 0.  0.
          5    1    3    3  502    0  0.46127829458E+02 -0.15474336762E+02  0.50056826690E+02  0.69931323790E+02  0.41800000000E+01 0.  1.
         -5    1    3    3    0  502 -0.36835205006E+02  0.43059239807E+02  0.25147007134E+03  0.25780923110E+03  0.41800000000E+01 0.  1.
        -11    1    4    4    0    0  0.49417970924E+01  0.29497979483E+02  0.40340772469E+02  0.50218821924E+02  0.00000000000E+00 0.  1.
         11    1    4    4    0    0 -0.14234421545E+02 -0.57082882529E+02  0.16066217589E+03  0.17109473691E+03  0.00000000000E+00 0. -1.
</event>
<event>
 8    1  0.7130890E-009  0.1215885E+03  0.7561462E-02  0.1240499E+00
         -2   -1    0    0    0  501 -0.00000000000E+00  0.00000000000E+00  0.69055314366E+03  0.69055314366E+03  0.00000000000E+00 0.  1.
          2   -1    0    0  501    0  0.00000000000E+00 -0.00000000000E+00 -0.30089956677E+02  0.30089956677E+02  0.00000000000E+00 0. -1.
         25    2    1    2    0    0 -0.66188545919E+02  0.50614922161E+02  0.45804043024E+03  0.48206913113E+03  0.12508723953E+03 0.  0.
         23    2    1    2    0    0  0.66188545919E+02 -0.50614922161E+02  0.20242275674E+03  0.23857396921E+03  0.94867130145E+02 0.  0.
          5    1    3    3  502    0 -0.98004914636E+02  0.31820303463E+02  0.40044627730E+03  0.41351201724E+03  0.41800000000E+01 0.  1.
         -5    1    3    3    0  502  0.31816368717E+02  0.18794618698E+02  0.57594152944E+02  0.68557113881E+02  0.41800000000E+01 0.  1.
        -11    1    4    4    0    0  0.66499680054E+02 -0.16197847302E+02  0.56811243623E+02  0.88949958440E+02  0.00000000000E+00 0.  1.
         11    1    4    4    0    0 -0.31113413503E+00 -0.34417074858E+02  0.14561151312E+03  0.14962401077E+03  0.00000000000E+00 0. -1.
</event>
<event>
 8    1  0.7130890E-009  0.1252840E+03  0.7561462E-02  0.1234626E+00
          1   -1    0    0  501    0  0.00000000000E+00  0.00000000000E+00  0.87112941952E+02  0.87112941952E+02  0.00000000000E+00 0. -1.
         -1   -1    0    0    0  501 -0.00000000000E+00 -0.00000000000E+00 -0.19431250859E+03  0.19431250859E+03  0.00000000000E+00 0.  1.
         25    2    1    2    0    0  0.49760903530E+02 -0.49569225910E+02 -0.63990175601E+02  0.15708433364E+03  0.12508992615E+03 0.  0.
         23    2    1    2    0    0 -0.49760903530E+02  0.49569225910E+02 -0.43209391041E+02  0.12434111691E+03  0.93061303461E+02 0.  0.
          5    1    3    3  502    0  0.51697696631E+02 -0.89197089943E+02 -0.40914270486E+02  0.11099649824E+03  0.41800000000E+01 0.  1.
         -5    1    3    3    0  502 -0.19367931009E+01  0.39627864032E+02 -0.23075905115E+02  0.46087835404E+02  0.41800000000E+01 0.  1.
        -11    1    4    4    0    0 -0.40335812140E+02 -0.14402642461E+02  0.57776368788E+01  0.43217993229E+02  0.00000000000E+00 0. -1.
         11    1    4    4    0    0 -0.94250913895E+01  0.63971868372E+02 -0.48987027920E+02  0.81123123677E+02  0.00000000000E+00 0.  1.
</event>
<event>
 8    1  0.7130890E-009  0.8414510E+02  0.7561462E-02  0.1317683E+00
         -2   -1    0    0    0  501 -0.00000000000E+00  0.00000000000E+00  0.13800851529E+02  0.13800851529E+02  0.00000000000E+00 0. -1.
          2   -1    0    0  501    0  0.00000000000E+00 -0.00000000000E+00 -0.10206251611E+04  0.10206251611E+04  0.00000000000E+00 0.  1.
         25    2    1    2    0    0 -0.14311375306E+02 -0.29838773135E+02 -0.72876802761E+03  0.74016579063E+03  0.12508953475E+03 0.  0.
         23    2    1    2    0    0  0.14311375306E+02  0.29838773135E+02 -0.27805628200E+03  0.29426022204E+03  0.90435692456E+02 0.  0.
          5    1    3    3  502    0  0.40071267249E+01 -0.50231125187E+02 -0.69331724958E+03  0.69515861784E+03  0.41800000000E+01 0.  1.
         -5    1    3    3    0  502 -0.18318502031E+02  0.20392352052E+02 -0.35450778036E+02  0.45007172786E+02  0.41800000000E+01 0.  1.
        -11    1    4    4    0    0  0.49101504843E+02  0.10564691613E+02 -0.20517541665E+03  0.21123333563E+03  0.00000000000E+00 0.  1.
         11    1    4    4    0    0 -0.34790129537E+02  0.19274081521E+02 -0.72880865355E+02  0.83026886408E+02  0.00000000000E+00 0. -1.
</event>
<event>
 8    1  0.7130890E-009  0.1226412E+03  0.7561462E-02  0.1238802E+00
          2   -1    0    0  501    0  0.00000000000E+00  0.00000000000E+00  0.22412064517E+03  0.22412064517E+03  0.00000000000E+00 0. -1.
         -2   -1    0    0    0  501 -0.00000000000E+00 -0.00000000000E+00 -0.91309054331E+02  0.91309054331E+02  0.00000000000E+00 0.  1.
         25    2    1    2    0    0 -0.52137828089E+02  0.71139092015E+02  0.45226509059E+02  0.15960045328E+03  0.12509094306E+03 0.  0.
         23    2    1    2    0    0  0.52137828089E+02 -0.71139092015E+02  0.87585081781E+02  0.15582924622E+03  0.93981295460E+02 0.  0.
          5    1    3    3  502    0 -0.69761414126E+02  0.35383314854E+02  0.75942696523E+02  0.10910270128E+03  0.41800000000E+01 0. -1.
         -5    1    3    3    0  502  0.17623586037E+02  0.35755777161E+02 -0.30716187464E+02  0.50497752004E+02  0.41800000000E+01 0. -1.
        -11    1    4    4    0    0  0.54180458777E+02  0.14984799413E+01  0.24022957309E+02  0.59286339348E+02  0.00000000000E+00 0.  1.
         11    1    4    4    0    0 -0.20426306883E+01 -0.72637571956E+02  0.63562124472E+02  0.96542906871E+02  0.00000000000E+00 0. -1.
</event>
<event>
 8    1  0.7130890E-009  0.1541064E+03  0.7561462E-02  0.1195516E+00
         -2   -1    0    0    0  501 -0.00000000000E+00  0.00000000000E+00  0.21427906175E+03  0.21427906175E+03  0.00000000000E+00 0.  1.
          2   -1    0    0  501    0  0.00000000000E+00 -0.00000000000E+00 -0.12745504413E+03  0.12745504413E+03  0.00000000000E+00 0. -1.
         25    2    1    2    0    0  0.10969355295E+03 -0.32129276329E+02  0.97077814789E+02  0.19529127117E+03  0.12509841132E+03 0.  0.
         23    2    1    2    0    0 -0.10969355295E+03  0.32129276329E+02 -0.10253797170E+02  0.14644283470E+03  0.90969211949E+02 0.  0.
          5    1    3    3  502    0  0.13394101076E+03 -0.37936277150E+02  0.62997586767E+02  0.15285785497E+03  0.41800000000E+01 0.  1.
         -5    1    3    3    0  502 -0.24247457808E+02  0.58070008204E+01  0.34080228022E+02  0.42433416203E+02  0.41800000000E+01 0.  1.
        -11    1    4    4    0    0  0.14728208384E+02 -0.14119152119E+01  0.71089357271E+01  0.16414950318E+02  0.00000000000E+00 0.  1.
         11    1    4    4    0    0 -0.12442176134E+03  0.33541191541E+02 -0.17362732897E+02  0.13002788438E+03  0.00000000000E+00 0. -1.
</event>
<event>
 8    1  0.7130890E-009  0.1067164E+03  0.7561462E-02  0.1266774E+00
         -1   -1    0    0    0  501 -0.00000000000E+00  0.00000000000E+00  0.41856645904E+03  0.41856645904E+03  0.00000000000E+00 0.  1.
          1   -1    0    0  501    0  0.00000000000E+00 -0.00000000000E+00 -0.28950934604E+02  0.28950934604E+02  0.00000000000E+00 0. -1.
         25    2    1    2    0    0 -0.18314397258E+02 -0.47765077909E+01  0.19863520671E+03  0.23549699039E+03  0.12507859516E+03 0.  0.
         23    2    1    2    0    0  0.18314397258E+02  0.47765077909E+01  0.19098031773E+03  0.21202040325E+03  0.90116244156E+02 0.  0.
          5    1    3    3  502    0  0.30642450390E+02  0.43057191224E+02  0.11983621268E+03  0.13103843616E+03  0.41800000000E+01 0. -1.
         -5    1    3    3    0  502 -0.48956847648E+02 -0.47833699015E+02  0.78798994029E+02  0.10445855424E+03  0.41800000000E+01 0. -1.
        -11    1    4    4    0    0 -0.19826696552E+02  0.36959623512E+02  0.79700623503E+02  0.90062761745E+02  0.00000000000E+00 0. -1.
         11    1    4    4    0    0  0.38141093810E+02 -0.32183115721E+02  0.11127969423E+03  0.12195764151E+03  0.00000000000E+00 0.  1.
</event>
<event>
 8    1  0.7130890E-009  0.1267566E+03  0.7561462E-02  0.1232349E+00
         -2   -1    0    0    0  501 -0.00000000000E+00  0.00000000000E+00  0.10401318752E+03  0.10401318752E+03  0.00000000000E+00 0.  1.
          2   -1    0    0  501    0  0.00000000000E+00 -0.00000000000E+00 -0.15657944621E+03  0.15657944621E+03  0.00000000000E+00 0. -1.
         25    2    1    2    0    0 -0.47597745999E+01 -0.65754364762E+02 -0.34192359784E+02  0.14547379471E+03  0.12508883060E+03 0.  0.
         23    2    1    2    0    0  0.47597745999E+01  0.65754364762E+02 -0.18373898906E+02  0.11511883902E+03  0.92565949450E+02 0.  0.
          5    1    3    3  502    0 -0.62888246003E+02 -0.18270062720E+02 -0.22639057594E+02  0.69417044059E+02  0.41800000000E+01 0.  1.
         -5    1    3    3    0  502  0.58128471403E+02 -0.47484302041E+02 -0.11553302190E+02  0.76056750650E+02  0.41800000000E+01 0.  1.
        -11    1    4    4    0    0  0.47492221227E+02  0.44107182748E+02 -0.17792972321E+02  0.67212681177E+02  0.00000000000E+00 0. -1.
         11    1    4    4    0    0 -0.42732446627E+02  0.21647182014E+02 -0.58092658522E+00  0.47906157846E+02  0.00000000000E+00 0.  1.
</event>
<event>
 8    1  0.7130890E-009  0.8609214E+02  0.7561462E-02  0.1312601E+00
          2   -1    0    0  501    0  0.00000000000E+00  0.00000000000E+00  0.30769315054E+03  0.30769315054E+03  0.00000000000E+00 0. -1.
         -2   -1    0    0    0  501 -0.00000000000E+00 -0.00000000000E+00 -0.45883512955E+02  0.45883512955E+02  0.00000000000E+00 0.  1.
         25    2    1    2    0    0  0.36022253861E+01 -0.47736003627E+02  0.15938003652E+03  0.20818566043E+03  0.12509025180E+03 0.  0.
         23    2    1    2    0    0 -0.36022253861E+01  0.47736003627E+02  0.10242960107E+03  0.14539100307E+03  0.91405790456E+02 0.  0.
          5    1    3    3  502    0 -0.20704292126E+02 -0.76946310474E+01 -0.15361050301E+02  0.27226996267E+02  0.41800000000E+01 0. -1.
         -5    1    3    3    0  502  0.24306517512E+02 -0.40041372580E+02  0.17474108682E+03  0.18095866416E+03  0.41800000000E+01 0. -1.
        -11    1    4    4    0    0 -0.97608248887E+01  0.74538990613E+02  0.68383636782E+02  0.10162507862E+03  0.00000000000E+00 0. -1.
         11    1    4    4    0    0  0.61585995026E+01 -0.26802986986E+02  0.34045964290E+02  0.43765924457E+02  0.00000000000E+00 0.  1.
</event>
<event>
 8    1  0.7130890E-009  0.1926481E+03  0.7561462E-02  0.1156094E+00
          1   -1    0    0  501    0  0.00000000000E+00  0.00000000000E+00  0.62706314135E+02  0.62706314135E+02  0.00000000000E+00 0. -1.
         -1   -1    0    0    0  501 -0.00000000000E+00 -0.00000000000E+00 -0.66732605526E+03  0.66732605526E+03  0.00000000000E+00 0.  1.
         25    2    1    2    0    0  0.13528149949E+03  0.93366631476E+02 -0.41445051551E+03  0.46307161652E+03  0.12509068807E+03 0.  0.
         23    2    1    2    0    0 -0.13528149949E+03 -0.93366631476E+02 -0.19016922562E+03  0.26696075287E+03  0.89918280822E+02 0.  0.
          5    1    3    3  502    0  0.14241483638E+03  0.45773093234E+02 -0.24704053506E+03  0.28883154268E+03  0.41800000000E+01 0. -1.
         -5    1    3    3    0  502 -0.71333368855E+01  0.47593538241E+02 -0.16740998045E+03  0.17424007384E+03  0.41800000000E+01 0. -1.
        -11    1    4    4    0    0 -0.20218196627E+02 -0.66056891635E+02 -0.68330883244E+02  0.97166856552E+02  0.00000000000E+00 0.  1.
         11    1    4    4    0    0 -0.11506330287E+03 -0.27309739841E+02 -0.12183834237E+03  0.16979389632E+03  0.00000000000E+00 0. -1.
</event>
<event>
 8    1  0.7130890E-009  0.1876183E+03  0.7561462E-02  0.1160627E+00
         -2   -1    0    0    0  501 -0.00000000000E+00  0.00000000000E+00  0.28258729320E+02  0.28258729320E+02  0.00000000000E+00 0.  1.
          2   -1    0    0  501    0  0.00000000000E+00 -0.00000000000E+00 -0.12805275246E+04  0.12805275246E+04  0.00000000000E+00 0. -1.
         25    2    1    2    0    0  0.97903023694E+01 -0.15393728742E+03 -0.75985766037E+03  0.78538146813E+03  0.12509135851E+03 0.  0.
         23    2    1    2    0    0 -0.97903023694E+01  0.15393728742E+03 -0.49241113496E+03  0.52340478584E+03  0.87700088562E+02 0.  0.
          5    1    3    3  502    0 -0.23911325897E+02  0.13158680425E+02 -0.88391712923E+02  0.92603831941E+02  0.41800000000E+01 0. -1.
         -5    1    3    3    0  502  0.33701628266E+02 -0.16709596784E+03 -0.67146594745E+03  0.69277763618E+03  0.41800000000E+01 0. -1.
        -11    1    4    4    0    0 -0.48690650851E+02  0.86148553406E+02 -0.29069622577E+03  0.30707759347E+03  0.00000000000E+00 0. -1.
         11    1    4    4    0    0  0.38900348482E+02  0.67788734011E+02 -0.20171490918E+03  0.21632719237E+03  0.00000000000E+00 0.  1.
</event>
<event>
 8    1  0.7130890E-009  0.1208811E+03  0.7561462E-02  0.1241651E+00
          2   -1    0    0  501    0  0.00000000000E+00  0.00000000000E+00  0.94919733107E+03  0.94919733107E+03  0.00000000000E+00 0. -1.
         -2   -1    0    0    0  501 -0.00000000000E+00 -0.00000000000E+00 -0.24198322885E+02  0.24198322885E+02  0.00000000000E+00 0.  1.
         25    2    1    2    0    0  0.64323281129E+02  0.59271332190E+01  0.75785100866E+03  0.77081628667E+03  0.12508789341E+03 0.  0.
         23    2    1    2    0    0 -0.64323281129E+02 -0.59271332190E+01  0.16714799952E+03  0.20257936728E+03  0.94484553753E+02 0.  0.
          5    1    3    3  502    0 -0.31011395095E+02 -0.10668471017E+02  0.88122063551E+02  0.94119569612E+02  0.41800000000E+01 0. -1.
         -5    1    3    3    0  502  0.95334676224E+02  0.16595604236E+02  0.66972894511E+03  0.67669671706E+03  0.41800000000E+01 0. -1.
        -11    1    4    4    0    0 -0.84411247841E+02 -0.20694625946E+02  0.14588572793E+03  0.16981216658E+03  0.00000000000E+00 0.  1.
         11    1    4    4    0    0  0.20087966712E+02  0.14767492727E+02  0.21262271590E+02  0.32767200692E+02  0.00000000000E+00 0. -1.
</event>
<event>
 8    1  0.7130890E-009  0.9699097E+02  0.7561462E-02  0.1286754E+00
         -2   -1    0    0    0  501 -0.00000000000E+00  0.00000000000E+00  0.12997165491E+03  0.12997165491E+03  0.00000000000E+00 0.  1.
          2   -1    0    0  501    0  0.00000000000E+00 -0.00000000000E+00 -0.22236205187E+03  0.22236205187E+03  0.00000000000E+00 0. -1.
         25    2    1    2    0    0  0.13569197100E+02  0.12742921622E+02 -0.18245380984E+03  0.22199795379E+03  0.12508874290E+03 0.  0.
         23    2    1    2    0    0 -0.13569197100E+02 -0.12742921622E+02  0.90063412880E+02  0.13033575299E+03  0.92355211042E+02 0.  0.
          5    1    3    3  502    0  0.55766441122E+02 -0.39911815773E+01 -0.16311133984E+03  0.17247784516E+03  0.41800000000E+01 0. -1.
         -5    1    3    3    0  502 -0.42197244023E+02  0.16734103199E+02 -0.19342469998E+02  0.49520108629E+02  0.41800000000E+01 0. -1.
        -11    1    4    4    0    0  0.38883675020E+02 -0.76698394853E+01  0.26076584463E+02  0.47442121348E+02  0.00000000000E+00 0. -1.
         11    1    4    4    0    0 -0.52452872120E+02 -0.50730821367E+01  0.63986828418E+02  0.82893631643E+02  0.00000000000E+00 0.  1.
</event>
<event>
 8    1  0.7130890E-009  0.1178625E+03  0.7561462E-02  0.1246666E+00
         -1   -1    0    0    0  501 -0.00000000000E+00  0.00000000000E+00  0.12690731805E+02  0.12690731805E+02  0.00000000000E+00 0.  1.
          1   -1    0    0  501    0  0.00000000000E+00 -0.00000000000E+00 -0.12775430592E+04  0.12775430592E+04  0.00000000000E+00 0. -1.
         25    2    1    2    0    0  0.40464325097E+02 -0.35450919992E+02 -0.90595818020E+03  0.91613645079E+03  0.12510652599E+03 0.  0.
         23    2    1    2    0    0 -0.40464325097E+02  0.35450919992E+02 -0.35889414715E+03  0.37409734018E+03  0.90827758624E+02 0.  0.
          5    1    3    3  502    0  0.26634984391E+02 -0.79551931347E+02 -0.69960287607E+03  0.70462726940E+03  0.41800000000E+01 0.  1.
         -5    1    3    3    0  502  0.13829340707E+02  0.44101011355E+02 -0.20635530414E+03  0.21150918139E+03  0.41800000000E+01 0.  1.
        -11    1    4    4    0    0 -0.68972101572E+02  0.33686746650E+02 -0.27247051192E+03  0.28307618685E+03  0.00000000000E+00 0.  1.
         11    1    4    4    0    0  0.28507776475E+02  0.17641733423E+01 -0.86423635229E+02  0.91021153329E+02  0.00000000000E+00 0. -1.
</event>
<event>
 8    1  0.7130890E-009  0.1219441E+03  0.7561462E-02  0.1239924E+00
          4   -1    0    0  501    0  0.00000000000E+00  0.00000000000E+00  0.44756132299E+02  0.44756132299E+02  0.00000000000E+00 0. -1.
         -4   -1    0    0    0  501 -0.00000000000E+00 -0.00000000000E+00 -0.53901432404E+03  0.53901432404E+03  0.00000000000E+00 0.  1.
         25    2    1    2    0    0  0.57231226502E+02  0.62166763120E+02 -0.13163292415E+03  0.20028783954E+03  0.12509145543E+03 0.  0.
         23    2    1    2    0    0 -0.57231226502E+02 -0.62166763120E+02 -0.36262526758E+03  0.38348261679E+03  0.91769891409E+02 0.  0.
          5    1    3    3  502    0 -0.24900746033E+02  0.31733401902E+02 -0.98547204937E+02  0.10656490956E+03  0.41800000000E+01 0. -1.
         -5    1    3    3    0  502  0.82131972534E+02  0.30433361218E+02 -0.33085719215E+02  0.93722929976E+02  0.41800000000E+01 0. -1.
        -11    1    4    4    0    0 -0.22544882289E+01 -0.60605919581E+02 -0.26074158061E+03  0.26770194632E+03  0.00000000000E+00 0.  1.
         11    1    4    4    0    0 -0.54976738273E+02 -0.15608435390E+01 -0.10188368697E+03  0.11578067047E+03  0.00000000000E+00 0. -1.
</event>
<event>
 8    1  0.7130890E-009  0.1332213E+03  0.7561462E-02  0.1222753E+00
          1   -1    0    0  501    0  0.00000000000E+00  0.00000000000E+00  0.35346420186E+03  0.35346420186E+03  0.00000000000E+00 0. -1.
         -1   -1    0    0    0  501 -0.00000000000E+00 -0.00000000000E+00 -0.77802938750E+02  0.77802938750E+02  0.00000000000E+00 0.  1.
         25    2    1    2    0    0  0.13642350861E+02 -0.12136881554E+03  0.11494435862E+03  0.20922431609E+03  0.12508439447E+03 0.  0.
         23    2    1    2    0    0 -0.13642350861E+02  0.12136881554E+03  0.16071690449E+03  0.22204282453E+03  0.92501834634E+02 0.  0.
          5    1    3    3  502    0  0.79887855852E+01 -0.12745472549E+03  0.40263848626E+02  0.13396707675E+03  0.41800000000E+01 0.  1.
         -5    1    3    3    0  502  0.56535652755E+01  0.60859099535E+01  0.74680509992E+02  0.75257239339E+02  0.41800000000E+01 0.  1.
        -11    1    4    4    0    0 -0.28001043578E+02  0.98188382984E+02  0.61604900601E+02  0.11924839945E+03  0.00000000000E+00 0.  1.
         11    1    4    4    0    0  0.14358692717E+02  0.23180432557E+02  0.99112003894E+02  0.10279442507E+03  0.00000000000E+00 0. -1.
</event>
<event>
 8    1  0.7130890E-009  0.2194229E+03  0.7561462E-02  0.1134314E+00
          2   -1    0    0  501    0  0.00000000000E+00  0.00000000000E+00  0.12547843337E+04  0.12547843337E+04  0.00000000000E+00 0. -1.
         -2   -1    0    0    0  501 -0.00000000000E+00 -0.00000000000E+00 -0.41970048272E+02  0.41970048272E+02  0.00000000000E+00 0.  1.
         25    2    1    2    0    0  0.13862867481E+03 -0.13703336087E+03  0.76480935999E+03  0.79910957932E+03  0.12508681448E+03 0.  0.
         23    2    1    2    0    0 -0.13862867481E+03  0.13703336087E+03  0.44800492542E+03  0.49764480264E+03  0.94582688277E+02 0.  0.
          5    1    3    3  502    0  0.51495065709E+02 -0.12756263319E+03  0.37262356226E+03  0.39722759060E+03  0.41800000000E+01 0. -1.
         -5    1    3    3    0  502  0.87133609103E+02 -0.94707276778E+01  0.39218579773E+03  0.40188198873E+03  0.41800000000E+01 0. -1.
        -11    1    4    4    0    0 -0.56951834190E+02  0.36514740370E+01  0.85012081639E+02  0.10239091124E+03  0.00000000000E+00 0.  1.
         11    1    4    4    0    0 -0.81676840622E+02  0.13338188683E+03  0.36299284378E+03  0.39525389140E+03  0.00000000000E+00 0. -1.
</event>
<event>
 8    1  0.7130890E-009  0.1704875E+03  0.7561462E-02  0.1177340E+00
         -1   -1    0    0    0  501 -0.00000000000E+00  0.00000000000E+00  0.34432988957E+02  0.34432988957E+02  0.00000000000E+00 0.  1.
          1   -1    0    0  501    0  0.00000000000E+00 -0.00000000000E+00 -0.11055772524E+04  0.11055772524E+04  0.00000000000E+00 0. -1.
         25    2    1    2    0    0 -0.63469534893E+02  0.11697236116E+03 -0.82823658437E+03  0.84813583986E+03  0.12509055933E+03 0.  0.
         23    2    1    2    0    0  0.63469534893E+02 -0.11697236116E+03 -0.24290767909E+03  0.29187440151E+03  0.92063079263E+02 0.  0.
          5    1    3    3  502    0 -0.91150768338E+02  0.44413447682E+02 -0.38624630961E+03  0.39935535678E+03  0.41800000000E+01 0.  1.
         -5    1    3    3    0  502  0.27681233444E+02  0.72558913477E+02 -0.44199027476E+03  0.44878048308E+03  0.41800000000E+01 0.  1.
        -11    1    4    4    0    0  0.76293221911E+02 -0.44916567825E+02 -0.12782780545E+03  0.15549309188E+03  0.00000000000E+00 0.  1.
         11    1    4    4    0    0 -0.12823687018E+02 -0.72055793334E+02 -0.11507987364E+03  0.13638130964E+03  0.00000000000E+00 0. -1.
</event>
<event>
 8    1  0.7130890E-009  0.7976643E+02  0.7561462E-02  0.1329716E+00
         -3   -1    0    0    0  501 -0.00000000000E+00  0.00000000000E+00  0.31068136366E+03  0.31068136366E+03  0.00000000000E+00 0.  1.
          3   -1    0    0  501    0  0.00000000000E+00 -0.00000000000E+00 -0.40369442606E+02  0.40369442606E+02  0.00000000000E+00 0. -1.
         25    2    1    2    0    0  0.21961344053E+02  0.22795327983E+02  0.16315243188E+03  0.20800897788E+03  0.12508833374E+03 0.  0.
         23    2    1    2    0    0 -0.21961344053E+02 -0.22795327983E+02  0.10715948918E+03  0.14304182839E+03  0.89307787668E+02 0.  0.
          5    1    3    3  502    0 -0.30718836241E+01  0.44089906010E+02  0.16867730598E+03  0.17442150737E+03  0.41800000000E+01 0.  1.
         -5    1    3    3    0  502  0.25033227678E+02 -0.21294578027E+02 -0.55248740995E+01  0.33587470508E+02  0.41800000000E+01 0.  1.
        -11    1    4    4    0    0 -0.47874355089E+02 -0.58179028981E+00  0.95752178819E+02  0.10705499570E+03  0.00000000000E+00 0. -1.
         11    1    4    4    0    0  0.25913011035E+02 -0.22213537693E+02  0.11407310359E+02  0.35986832695E+02  0.00000000000E+00 0.  1.
</event>
<event>
 8    1  0.7130890E-009  0.1042277E+03  0.7561462E-02  0.1271649E+00
          1   -1    0    0  501    0  0.00000000000E+00  0.00000000000E+00  0.57264847750E+02  0.57264847750E+02  0.00000000000E+00 0. -1.
         -1   -1    0    0    0  501 -0.00000000000E+00 -0.00000000000E+00 -0.31119260455E+03  0.31119260455E+03  0.00000000000E+00 0.  1.
         25    2    1    2    0    0 -0.66882405846E+02 -0.17160369474E+02 -0.18907696407E+03  0.23699834303E+03  0.12510148585E+03 0.  0.
         23    2    1    2    0    0  0.66882405846E+02  0.17160369474E+02 -0.64850792731E+02  0.13145910928E+03  0.91148985741E+02 0.  0.
          5    1    3    3  502    0 -0.36815920046E+01 -0.34343123383E+02 -0.16251690035E+03  0.16619933677E+03  0.41800000000E+01 0.  1.
         -5    1    3    3    0  502 -0.63200813841E+02  0.17182753909E+02 -0.26560063722E+02  0.70799006257E+02  0.41800000000E+01 0.  1.
        -11    1    4    4    0    0  0.79295280990E+02  0.34693588223E+02 -0.67570694816E+02  0.10980521595E+03  0.00000000000E+00 0.  1.
         11    1    4    4    0    0 -0.12412875143E+02 -0.17533218748E+02  0.27199020852E+01  0.21653893330E+02  0.00000000000E+00 0. -1.
</event>
<event>
 8    1  0.7130890E-009  0.1279512E+03  0.7561462E-02  0.1230528E+00
         -1   -1    0    0    0  501 -0.00000000000E+00  0.00000000000E+00  0.17480820652E+03  0.17480820652E+03  0.00000000000E+00 0.  1.
          1   -1    0    0  501    0  0.00000000000E+00 -0.00000000000E+00 -0.14354135070E+03  0.14354135070E+03  0.00000000000E+00 0. -1.
         25    2    1    2    0    0 -0.64155344840E+02  0.77311066056E+02  0.74741393832E+02  0.17699336950E+03  0.12508983847E+03 0.  0.
         23    2    1    2    0    0  0.64155344840E+02 -0.77311066056E+02 -0.43474538005E+02  0.14135618772E+03  0.89435044282E+02 0.  0.
          5    1    3    3  502    0 -0.37629942005E+01 -0.12853065271E+02 -0.25561867238E+02  0.29158924344E+02  0.41800000000E+01 0. -1.
         -5    1    3    3    0  502 -0.60392350639E+02  0.90164131327E+02  0.10030326107E+03  0.14783444516E+03  0.41800000000E+01 0. -1.
        -11    1    4    4    0    0  0.85728953919E+02 -0.69379147628E+02 -0.42981808846E+02  0.11836534779E+03  0.00000000000E+00 0. -1.
         11    1    4    4    0    0 -0.21573609080E+02 -0.79319184281E+01 -0.49272915927E+00  0.22990839930E+02  0.00000000000E+00 0.  1.
</event>
<event>
 8    1  0.7130890E-009  0.7566739E+02  0.7561462E-02  0.1341817E+00
         -2   -1    0    0    0  501 -0.00000000000E+00  0.00000000000E+00  0.37503597636E+02  0.37503597636E+02  0.00000000000E+00 0. -1.
          2   -1    0    0  501    0  0.00000000000E+00 -0.00000000000E+00 -0.35796530791E+03  0.35796530791E+03  0.00000000000E+00 0.  1.
         25    2    1    2    0    0  0.14534290791E+02 -0.23000175553E+02 -0.13489436574E+03  0.18596181704E+03  0.12508018950E+03 0.  0.
         23    2    1    2    0    0 -0.14534290791E+02  0.23000175553E+02 -0.18556734454E+03  0.20950708851E+03  0.93368769353E+02 0.  0.
          5    1    3    3  502    0  0.12284321627E+02 -0.42465996349E+02 -0.15278111698E+03  0.15910313482E+03  0.41800000000E+01 0.  1.
         -5    1    3    3    0  502  0.22499691641E+01  0.19465820795E+02  0.17886751245E+02  0.26858682220E+02  0.41800000000E+01 0.  1.
        -11    1    4    4    0    0  0.79656002278E+01  0.50635255202E+02 -0.15253156794E+03  0.16091382500E+03  0.00000000000E+00 0.  1.
         11    1    4    4    0    0 -0.22499891019E+02 -0.27635079648E+02 -0.33035776597E+02  0.48593263509E+02  0.00000000000E+00 0. -1.
</event>
<event>
 8    1  0.7130890E-009  0.2198862E+03  0.7561462E-02  0.1133968E+00
         -3   -1    0    0    0  501 -0.00000000000E+00  0.00000000000E+00  0.10186143420E+04  0.10186143420E+04  0.00000000000E+00 0.  1.
          3   -1    0    0  501    0  0.00000000000E+00 -0.00000000000E+00 -0.55602774777E+02  0.55602774777E+02  0.00000000000E+00 0. -1.
         25    2    1    2    0    0  0.17808167147E+03  0.87317335053E+02  0.66188313035E+03  0.70219271527E+03  0.12509169606E+03 0.  0.
         23    2    1    2    0    0 -0.17808167147E+03 -0.87317335053E+02  0.30112843683E+03  0.37202440146E+03  0.91577404969E+02 0.  0.
          5    1    3    3  502    0 -0.91608574531E+01 -0.14230292714E+02  0.23935427706E+02  0.29610802750E+02  0.41800000000E+01 0.  1.
         -5    1    3    3    0  502  0.18724252892E+03  0.10154762777E+03  0.63794770264E+03  0.67258191252E+03  0.41800000000E+01 0.  1.
        -11    1    4    4    0    0 -0.13249846381E+03 -0.29632924900E+02  0.24277196214E+03  0.27815854966E+03  0.00000000000E+00 0.  1.
         11    1    4    4    0    0 -0.45583207659E+02 -0.57684410153E+02  0.58356474688E+02  0.93865851795E+02  0.00000000000E+00 0. -1.
</event>
<event>
 8    1  0.7130890E-009  0.1114603E+03  0.7561462E-02  0.1257889E+00
          1   -1    0    0  501    0  0.00000000000E+00  0.00000000000E+00  0.28054838071E+03  0.28054838071E+03  0.00000000000E+00 0. -1.
         -1   -1    0    0    0  501 -0.00000000000E+00 -0.00000000000E+00 -0.49742788844E+02  0.49742788844E+02  0.00000000000E+00 0.  1.
         25    2    1    2    0    0 -0.27256455482E+02 -0.38513739435E+02  0.14128557380E+03  0.19452281738E+03  0.12510511831E+03 0.  0.
         23    2    1    2    0    0  0.27256455482E+02  0.38513739435E+02  0.89520018066E+02  0.13576835217E+03  0.90515133130E+02 0.  0.
          5    1    3    3  502    0 -0.72828754686E+02  0.78775814944E+00  0.69529913806E+02  0.10077960799E+03  0.41800000000E+01 0. -1.
         -5    1    3    3    0  502  0.45572299204E+02 -0.39301497584E+02  0.71755659991E+02  0.93743209396E+02  0.41800000000E+01 0. -1.
        -11    1    4    4    0    0 -0.18353690326E+02 -0.11733329673E+02 -0.19541176207E+01  0.21871157936E+02  0.00000000000E+00 0.  1.
         11    1    4    4    0    0  0.45610145808E+02  0.50247069108E+02  0.91474135686E+02  0.11389719423E+03  0.00000000000E+00 0. -1.
</event>
<event>
 8    1  0.7130890E-009  0.1423621E+03  0.7561462E-02  0.1210186E+00
         -2   -1    0    0    0  501 -0.00000000000E+00  0.00000000000E+00  0.48600006960E+02  0.48600006960E+02  0.00000000000E+00 0.  1.
          2   -1    0    0  501    0  0.00000000000E+00 -0.00000000000E+00 -0.18700542168E+04  0.18700542168E+04  0.00000000000E+00 0. -1.
         25    2    1    2    0    0  0.26834139012E+02  0.97067463525E+02 -0.17614169173E+04  0.17687224623E+04  0.12508968244E+03 0.  0.
         23    2    1    2    0    0 -0.26834139012E+02 -0.97067463525E+02 -0.60037292579E+02  0.14993176148E+03  0.93449949758E+02 0.  0.
          5    1    3    3  502    0 -0.36156957555E+02 -0.22268566756E+01 -0.23906501075E+03  0.24183018057E+03  0.41800000000E+01 0.  1.
         -5    1    3    3    0  502  0.62991096567E+02  0.99294320201E+02 -0.15223519066E+04  0.15268922818E+04  0.41800000000E+01 0.  1.
        -11    1    4    4    0    0 -0.53923508383E+02 -0.39092399818E+02 -0.72862404389E+01  0.67000371488E+02  0.00000000000E+00 0. -1.
         11    1    4    4    0    0  0.27089369371E+02 -0.57975063707E+02 -0.52751052140E+02  0.82931389996E+02  0.00000000000E+00 0.  1.
</event>
<event>
 8    1  0.7130890E-009  0.1345138E+03  0.7561462E-02  0.1220908E+00
         -2   -1    0    0    0  501 -0.00000000000E+00  0.00000000000E+00  0.70813609155E+02  0.70813609155E+02  0.00000000000E+00 0.  1.
          2   -1    0    0  501    0  0.00000000000E+00 -0.00000000000E+00 -0.33889331922E+03  0.33889331922E+03  0.00000000000E+00 0. -1.
         25    2    1    2    0    0 -0.78210395205E+02  0.71409593913E+02 -0.10507127704E+03  0.19468935637E+03  0.12509107164E+03 0.  0.
         23    2    1    2    0    0  0.78210395205E+02 -0.71409593913E+02 -0.16300843302E+03  0.21501757200E+03  0.91894564652E+02 0.  0.
          5    1    3    3  502    0  0.13654570999E+02 -0.21782226802E+00 -0.72172250097E+02  0.73571739410E+02  0.41800000000E+01 0.  1.
         -5    1    3    3    0  502 -0.91864966204E+02  0.71627416181E+02 -0.32899026944E+02  0.12111761696E+03  0.41800000000E+01 0.  1.
        -11    1    4    4    0    0  0.98195515657E+02 -0.56956283141E+02 -0.11828531569E+03  0.16394448265E+03  0.00000000000E+00 0.  1.
         11    1    4    4    0    0 -0.19985120453E+02 -0.14453310772E+02 -0.44723117332E+02  0.51073089349E+02  0.00000000000E+00 0. -1.
</event>
<event>
 8    1  0.7130890E-009  0.9122496E+02  0.7561462E-02  0.1299912E+00
         -2   -1    0    0    0  501 -0.00000000000E+00  0.00000000000E+00  0.19220553418E+02  0.19220553418E+02  0.00000000000E+00 0.  1.
          2   -1    0    0  501    0  0.00000000000E+00 -0.00000000000E+00 -0.18044462263E+04  0.18044462263E+04  0.00000000000E+00 0. -1.
         25    2    1    2    0    0  0.57058079661E+02  0.20491031533E+02 -0.16156935274E+04  0.16216624594E+04  0.12509217035E+03 0.  0.
         23    2    1    2    0    0 -0.57058079661E+02 -0.20491031533E+02 -0.16953214548E+03  0.20200432026E+03  0.91591976866E+02 0.  0.
          5    1    3    3  502    0  0.32648489870E+02 -0.10498393870E+02 -0.14770869029E+04  0.14774908904E+04  0.41800000000E+01 0. -1.
         -5    1    3    3    0  502  0.24409589791E+02  0.30989425402E+02 -0.13860662448E+03  0.14417156901E+03  0.41800000000E+01 0. -1.
        -11    1    4    4    0    0 -0.23165894098E+02  0.35731535237E+02 -0.84057171382E+02  0.94228495268E+02  0.00000000000E+00 0. -1.
         11    1    4    4    0    0 -0.33892185563E+02 -0.56222566770E+02 -0.85474974097E+02  0.10777582499E+03  0.00000000000E+00 0.  1.
</event>
<event>
 8    1  0.7130890E-009  0.1361486E+03  0.7561462E-02  0.1218607E+00
         -3   -1    0    0    0  501 -0.00000000000E+00  0.00000000000E+00  0.13249916598E+03  0.13249916598E+03  0.00000000000E+00 0.  1.
          3   -1    0    0  501    0  0.00000000000E+00 -0.00000000000E+00 -0.22730480516E+03  0.22730480516E+03  0.00000000000E+00 0. -1.
         25    2    1    2    0    0 -0.72332566279E+02 -0.63833841945E+02  0.47877244445E+02  0.16505839401E+03  0.12508110719E+03 0.  0.
         23    2    1    2    0    0  0.72332566279E+02  0.63833841945E+02 -0.14268288363E+03  0.19474557713E+03  0.90888255611E+02 0.  0.
          5    1    3    3  502    0  0.21935002164E+02 -0.51044689990E+02 -0.53454404238E+01  0.55970982030E+02  0.41800000000E+01 0.  1.
         -5    1    3    3    0  502 -0.94267568442E+02 -0.12789151956E+02  0.53222684869E+02  0.10908741198E+03  0.41800000000E+01 0.  1.
        -11    1    4    4    0    0 -0.49294416479E+01 -0.12077616843E+02 -0.51605127844E+02  0.53228351875E+02  0.00000000000E+00 0. -1.
         11    1    4    4    0    0  0.77262007926E+02  0.75911458788E+02 -0.91077755786E+02  0.14151722525E+03  0.00000000000E+00 0.  1.
</event>
<event>
 8    1  0.7130890E-009  0.1135592E+03  0.7561462E-02  0.1254117E+00
          2   -1    0    0  501    0  0.00000000000E+00  0.00000000000E+00  0.33118794321E+03  0.33118794321E+03  0.00000000000E+00 0. -1.
         -2   -1    0    0    0  501 -0.00000000000E+00 -0.00000000000E+00 -0.67931563628E+02  0.67931563628E+02  0.00000000000E+00 0.  1.
         25    2    1    2    0    0  0.29485431677E+02  0.71149748075E+02  0.23321675250E+03  0.27562909916E+03  0.12509863837E+03 0.  0.
         23    2    1    2    0    0 -0.29485431677E+02 -0.71149748075E+02  0.30039627082E+02  0.12349040769E+03  0.91737801710E+02 0.  0.
          5    1    3    3  502    0  0.12374400891E+02  0.90759748283E+02  0.23174798208E+03  0.24922892550E+03  0.41800000000E+01 0. -1.
         -5    1    3    3    0  502  0.17111030786E+02 -0.19610000208E+02  0.14687704224E+01  0.26400173659E+02  0.41800000000E+01 0. -1.
        -11    1    4    4    0    0  0.25379679252E+02 -0.11030180889E+02 -0.13930427870E+02  0.30981443317E+02  0.00000000000E+00 0.  1.
         11    1    4    4    0    0 -0.54865110929E+02 -0.60119567186E+02  0.43970054952E+02  0.92508964368E+02  0.00000000000E+00 0. -1.
</event>
<event>
 8    1  0.7130890E-009  0.1175667E+03  0.7561462E-02  0.1247166E+00
         -1   -1    0    0    0  501 -0.00000000000E+00  0.00000000000E+00  0.19135283737E+02  0.19135283737E+02  0.00000000000E+00 0.  1.
          1   -1    0    0  501    0  0.00000000000E+00 -0.00000000000E+00 -0.85186896776E+03  0.85186896776E+03  0.00000000000E+00 0. -1.
         25    2    1    2    0    0  0.25083799581E+02 -0.41687842062E+02 -0.62300367184E+03  0.63729764785E+03  0.12509054179E+03 0.  0.
         23    2    1    2    0    0 -0.25083799581E+02  0.41687842062E+02 -0.20973001218E+03  0.23370660365E+03  0.90912185120E+02 0.  0.
          5    1    3    3  502    0  0.73601219386E+02 -0.79140439776E+01 -0.38062511472E+03  0.38777921804E+03  0.41800000000E+01 0. -1.
         -5    1    3    3    0  502 -0.48517419804E+02 -0.33773798084E+02 -0.24237855712E+03  0.24951842981E+03  0.41800000000E+01 0. -1.
        -11    1    4    4    0    0  0.19880306676E+02  0.51935180160E+02 -0.95383516031E+02  0.11041061843E+03  0.00000000000E+00 0.  1.
         11    1    4    4    0    0 -0.44964106257E+02 -0.10247338098E+02 -0.11434649615E+03  0.12329598522E+03  0.00000000000E+00 0. -1.
</event>
<event>
 8    1  0.7130890E-009  0.2130457E+03  0.7561462E-02  0.1139177E+00
         -2   -1    0    0    0  501 -0.00000000000E+00  0.00000000000E+00  0.30255153836E+03  0.30255153836E+03  0.00000000000E+00 0.  1.
          2   -1    0    0  501    0  0.00000000000E+00 -0.00000000000E+00 -0.17777053881E+03  0.17777053881E+03  0.00000000000E+00 0. -1.
         25    2    1    2    0    0  0.14935784077E+03  0.13559120616E+03  0.98280481196E+02  0.25690441072E+03  0.12509229981E+03 0.  0.
         23    2    1    2    0    0 -0.14935784077E+03 -0.13559120616E+03  0.26500518352E+02  0.22341766645E+03  0.92306210079E+02 0.  0.
          5    1    3    3  502    0  0.35238199350E+02 -0.11816340333E+02  0.53259388881E+02  0.65079885497E+02  0.41800000000E+01 0. -1.
         -5    1    3    3    0  502  0.11411964142E+03  0.14740754650E+03  0.45021092314E+02  0.19182452522E+03  0.41800000000E+01 0. -1.
        -11    1    4    4    0    0 -0.10649136771E+03 -0.10508739493E+03  0.59836017346E+02  0.16113386032E+03  0.00000000000E+00 0.  1.
         11    1    4    4    0    0 -0.42866473061E+02 -0.30503811232E+02 -0.33335498994E+02  0.62283806126E+02  0.00000000000E+00 0. -1.
</event>
<event>
 8    1  0.7130890E-009  0.1091539E+03  0.7561462E-02  0.1262145E+00
         -1   -1    0    0    0  501 -0.00000000000E+00  0.00000000000E+00  0.49971739473E+02  0.49971739473E+02  0.00000000000E+00 0.  1.
          1   -1    0    0  501    0  0.00000000000E+00 -0.00000000000E+00 -0.27838098676E+03  0.27838098676E+03  0.00000000000E+00 0. -1.
         25    2    1    2    0    0 -0.42664957626E+02  0.13393911750E+02 -0.11380070015E+03  0.17492471828E+03  0.12509341401E+03 0.  0.
         23    2    1    2    0    0  0.42664957626E+02 -0.13393911750E+02 -0.11460854714E+03  0.15342800796E+03  0.91680636275E+02 0.  0.
          5    1    3    3  502    0 -0.46686691628E+02 -0.48383428478E+02 -0.39383198532E+02  0.78032762690E+02  0.41800000000E+01 0. -1.
         -5    1    3    3    0  502  0.40217340019E+01  0.61777340228E+02 -0.74417501619E+02  0.96891955585E+02  0.41800000000E+01 0. -1.
        -11    1    4    4    0    0  0.61774525603E+02  0.55020405670E+01 -0.10983177125E+03  0.12613240043E+03  0.00000000000E+00 0. -1.
         11    1    4    4    0    0 -0.19109567977E+02 -0.18895952317E+02 -0.47767758909E+01  0.27295607525E+02  0.00000000000E+00 0.  1.
</event>
<event>
 8    1  0.7130890E-009  0.1261842E+03  0.7561462E-02  0.1233230E+00
         -2   -1    0    0    0  501 -0.00000000000E+00  0.00000000000E+00  0.14189861562E+02  0.14189861562E+02  0.00000000000E+00 0. -1.
          2   -1    0    0  501    0  0.00000000000E+00 -0.00000000000E+00 -0.14967977298E+04  0.14967977298E+04  0.00000000000E+00 0.  1.
         25    2    1    2    0    0  0.36294203163E+02  0.52516815840E+02 -0.11780329811E+04  0.11863753082E+04  0.12509749159E+03 0.  0.
         23    2    1    2    0    0 -0.36294203163E+02 -0.52516815840E+02 -0.30457488716E+03  0.32461228311E+03  0.92368757305E+02 0.  0.
          5    1    3    3  502    0 -0.13594657755E+01 -0.40120122220E+02 -0.33879195835E+03  0.34118753758E+03  0.41800000000E+01 0.  1.
         -5    1    3    3    0  502  0.37653668938E+02  0.92636938060E+02 -0.83924102271E+03  0.84518777066E+03  0.41800000000E+01 0.  1.
        -11    1    4    4    0    0 -0.47207254916E+02  0.10173316655E+02 -0.11871311304E+03  0.12815937147E+03  0.00000000000E+00 0.  1.
         11    1    4    4    0    0  0.10913051753E+02 -0.62690132495E+02 -0.18586177412E+03  0.19645291163E+03  0.00000000000E+00 0. -1.
</event>
<event>
 8    1  0.7130890E-009  0.9366309E+02  0.7561462E-02  0.1294216E+00
         -2   -1    0    0    0  501 -0.00000000000E+00  0.00000000000E+00  0.58561342433E+02  0.58561342433E+02  0.00000000000E+00 0.  1.
          2   -1    0    0  501    0  0.00000000000E+00 -0.00000000000E+00 -0.34349609719E+03  0.34349609719E+03  0.00000000000E+00 0. -1.
         25    2    1    2    0    0 -0.69690808101E+02  0.57008707436E+02 -0.17526569390E+03  0.23339554489E+03  0.12509442618E+03 0.  0.
         23    2    1    2    0    0  0.69690808101E+02 -0.57008707436E+02 -0.10966906086E+03  0.16866189473E+03  0.91174175989E+02 0.  0.
          5    1    3    3  502    0 -0.23824839559E+02  0.28290636693E+02 -0.17520940583E+03  0.17911948916E+03  0.41800000000E+01 0. -1.
         -5    1    3    3    0  502 -0.45865968542E+02  0.28718070744E+02 -0.56288064019E-01  0.54276055733E+02  0.41800000000E+01 0. -1.
        -11    1    4    4    0    0  0.61575612608E+02 -0.31711903991E+02 -0.12128377788E+03  0.13966730362E+03  0.00000000000E+00 0. -1.
         11    1    4    4    0    0  0.81151954930E+01 -0.25296803445E+02  0.11614717020E+02  0.28994591114E+02  0.00000000000E+00 0.  1.
</event>
<event>
 8    1  0.7130890E-009  0.7469688E+02  0.7561462E-02  0.1344812E+00
          2   -1    0    0  501    0  0.00000000000E+00  0.00000000000E+00  0.29555100120E+03  0.29555100120E+03  0.00000000000E+00 0. -1.
         -2   -1    0    0    0  501 -0.00000000000E+00 -0.00000000000E+00 -0.52994622992E+02  0.52994622992E+02  0.00000000000E+00 0.  1.
         25    2    1    2    0    0 -0.97031809637E+01 -0.22413110499E+02  0.58825488235E+02  0.14037347308E+03  0.12509106537E+03 0.  0.
         23    2    1    2    0    0  0.97031809637E+01  0.22413110499E+02  0.18373088997E+03  0.20817215111E+03  0.94773969663E+02 0.  0.
          5    1    3    3  502    0  0.21382938645E+02 -0.50390988852E+02 -0.13669301080E+02  0.56575648601E+02  0.41800000000E+01 0.  1.
         -5    1    3    3    0  502 -0.31086119608E+02  0.27977878353E+02  0.72494789315E+02  0.83797824478E+02  0.41800000000E+01 0.  1.
        -11    1    4    4    0    0  0.16145821300E+02 -0.10280649912E+02 -0.22107220354E+01  0.19268279632E+02  0.00000000000E+00 0.  1.
         11    1    4    4    0    0 -0.64426403362E+01  0.32693760411E+02  0.18594161201E+03  0.18890387148E+03  0.00000000000E+00 0. -1.
</event>
<event>
 8    1  0.7130890E-009  0.9538414E+02  0.7561462E-02  0.1290313E+00
          3   -1    0    0  501    0  0.00000000000E+00  0.00000000000E+00  0.23777153929E+03  0.23777153929E+03  0.00000000000E+00 0. -1.
         -3   -1    0    0    0  501 -0.00000000000E+00 -0.00000000000E+00 -0.88090167814E+02  0.88090167814E+02  0.00000000000E+00 0.  1.
         25    2    1    2    0    0 -0.22811304039E+02 -0.55380102558E+02  0.16337806127E+03  0.21430738314E+03  0.12509177515E+03 0.  0.
         23    2    1    2    0    0  0.22811304039E+02  0.55380102558E+02 -0.13696689796E+02  0.11155432397E+03  0.93109916409E+02 0.  0.
          5    1    3    3  502    0  0.38107014670E+02  0.10976090886E+02  0.88601708634E+02  0.97161485739E+02  0.41800000000E+01 0. -1.
         -5    1    3    3    0  502 -0.60918318709E+02 -0.66356193444E+02  0.74776352639E+02  0.11714589740E+03  0.41800000000E+01 0. -1.
        -11    1    4    4    0    0  0.78316285241E+01  0.32038288869E+02 -0.53614671154E+02  0.62946956415E+02  0.00000000000E+00 0.  1.
         11    1    4    4    0    0  0.14979675515E+02  0.23341813689E+02  0.39917981358E+02  0.48607367555E+02  0.00000000000E+00 0. -1.
</event>
<event>
 8    1  0.7130890E-009  0.2004975E+03  0.7561462E-02  0.1149320E+00
         -2   -1    0    0    0  501 -0.00000000000E+00  0.00000000000E+00  0.91339620029E+02  0.91339620029E+02  0.00000000000E+00 0.  1.
          2   -1    0    0  501    0  0.00000000000E+00 -0.00000000000E+00 -0.54550905908E+03  0.54550905908E+03  0.00000000000E+00 0. -1.
         25    2    1    2    0    0 -0.48094629064E+02 -0.16895034490E+03 -0.35139240861E+03  0.41228812269E+03  0.12509020305E+03 0.  0.
         23    2    1    2    0    0  0.48094629064E+02  0.16895034490E+03 -0.10277703044E+03  0.22456055641E+03  0.94905285016E+02 0.  0.
          5    1    3    3  502    0  0.38132685405E+01 -0.16170263220E+03 -0.28342509599E+03  0.32635799319E+03  0.41800000000E+01 0. -1.
         -5    1    3    3    0  502 -0.51907897604E+02 -0.72477127011E+01 -0.67967312613E+02  0.85930129506E+02  0.41800000000E+01 0. -1.
        -11    1    4    4    0    0 -0.97806232631E+01  0.79339793448E+02 -0.53974034195E+01  0.80122377520E+02  0.00000000000E+00 0.  1.
         11    1    4    4    0    0  0.57875252327E+02  0.89610551452E+02 -0.97379627019E+02  0.14443817889E+03  0.00000000000E+00 0. -1.
</event>
<event>
 8    1  0.7130890E-009  0.1063290E+03  0.7561462E-02  0.1267523E+00
         -3   -1    0    0    0  501 -0.00000000000E+00  0.00000000000E+00  0.39669817247E+03  0.39669817247E+03  0.00000000000E+00 0.  1.
          3   -1    0    0  501    0  0.00000000000E+00 -0.00000000000E+00 -0.40719525662E+02  0.40719525662E+02  0.00000000000E+00 0. -1.
         25    2    1    2    0    0 -0.43192442888E+02 -0.21232641642E+02  0.26721570161E+03  0.29894575507E+03  0.12509165076E+03 0.  0.
         23    2    1    2    0    0  0.43192442888E+02  0.21232641642E+02  0.88762945195E+02  0.13847194307E+03  0.94758674447E+02 0.  0.
          5    1    3    3  502    0 -0.22304825588E+02  0.52087750306E+02  0.13100840450E+03  0.14279815624E+03  0.41800000000E+01 0.  1.
         -5    1    3    3    0  502 -0.20887617300E+02 -0.73320391948E+02  0.13620729711E+03  0.15614759883E+03  0.41800000000E+01 0.  1.
        -11    1    4    4    0    0  0.39904698555E+02  0.42308632892E+02  0.98994404480E+02  0.11481418685E+03  0.00000000000E+00 0.  1.
         11    1    4    4    0    0  0.32877443332E+01 -0.21075991250E+02 -0.10231459285E+02  0.23657756214E+02  0.00000000000E+00 0. -1.
</event>
<event>
 8    1  0.7130890E-009  0.1235916E+03  0.7561462E-02  0.1237287E+00
         -1   -1    0    0    0  501 -0.00000000000E+00  0.00000000000E+00  0.23393469044E+03  0.23393469044E+03  0.00000000000E+00 0.  1.
          1   -1    0    0  501    0  0.00000000000E+00 -0.00000000000E+00 -0.84620907285E+02  0.84620907285E+02  0.00000000000E+00 0. -1.
         25    2    1    2    0    0  0.89040331011E+02  0.37479870145E+01  0.88134851063E+02  0.17708180210E+03  0.12509190505E+03 0.  0.
         23    2    1    2    0    0 -0.89040331011E+02 -0.37479870145E+01  0.61178932091E+02  0.14147379562E+03  0.91267437585E+02 0.  0.
          5    1    3    3  502    0  0.79106475964E+02  0.44009537444E+02  0.98794116859E+02  0.13406126902E+03  0.41800000000E+01 0.  1.
         -5    1    3    3    0  502  0.99338550469E+01 -0.40261550429E+02 -0.10659265795E+02  0.43020533079E+02  0.41800000000E+01 0.  1.
        -11    1    4    4    0    0 -0.36224616959E+02 -0.37551648821E+02 -0.23241929602E+01  0.52227876426E+02  0.00000000000E+00 0. -1.
         11    1    4    4    0    0 -0.52815714052E+02  0.33803661807E+02  0.63503125051E+02  0.89245919198E+02  0.00000000000E+00 0.  1.
</event>
<event>
 8    1  0.7130890E-009  0.7320334E+02  0.7561462E-02  0.1349527E+00
         -2   -1    0    0    0  501 -0.00000000000E+00  0.00000000000E+00  0.60532427941E+02  0.60532427941E+02  0.00000000000E+00 0.  1.
          2   -1    0    0  501    0  0.00000000000E+00 -0.00000000000E+00 -0.34280594722E+03  0.34280594722E+03  0.00000000000E+00 0. -1.
         25    2    1    2    0    0 -0.25500341787E+02 -0.34542495639E+02 -0.36427748561E+02  0.13717778629E+03  0.12508921916E+03 0.  0.
         23    2    1    2    0    0  0.25500341787E+02  0.34542495639E+02 -0.24584577072E+03  0.26616058887E+03  0.92508727445E+02 0.  0.
          5    1    3    3  502    0 -0.13580853038E+02 -0.24893399038E+02  0.45470729330E+02  0.53751097763E+02  0.41800000000E+01 0.  1.
         -5    1    3    3    0  502 -0.11919488749E+02 -0.96490966007E+01 -0.81898477892E+02  0.83426688525E+02  0.41800000000E+01 0.  1.
        -11    1    4    4    0    0  0.47806397734E+02  0.54090402168E+02 -0.16780862058E+03  0.18267719182E+03  0.00000000000E+00 0.  1.
         11    1    4    4    0    0 -0.22306055947E+02 -0.19547906529E+02 -0.78037150144E+02  0.83483397057E+02  0.00000000000E+00 0. -1.
</event>
<event>
 8    1  0.7130890E-009  0.1154444E+03  0.7561462E-02  0.1250807E+00
          2   -1    0    0  501    0  0.00000000000E+00  0.00000000000E+00  0.28355874729E+03  0.28355874729E+03  0.00000000000E+00 0. -1.
         -2   -1    0    0    0  501 -0.00000000000E+00 -0.00000000000E+00 -0.69342089005E+02  0.69342089005E+02  0.00000000000E+00 0.  1.
         25    2    1    2    0    0  0.32562093676E+02 -0.49781658444E+02  0.35560449789E+02  0.14300895120E+03  0.12509400893E+03 0.  0.
         23    2    1    2    0    0 -0.32562093676E+02  0.49781658444E+02  0.17865620849E+03  0.20989188510E+03  0.92725719918E+02 0.  0.
          5    1    3    3  502    0 -0.45676955094E+02 -0.40179555072E+01  0.14303940476E+01  0.46065677247E+02  0.41800000000E+01 0. -1.
         -5    1    3    3    0  502  0.78239048770E+02 -0.45763702936E+02  0.34130055741E+02  0.96943273948E+02  0.41800000000E+01 0. -1.
        -11    1    4    4    0    0 -0.48502139658E+02  0.58458926482E+02  0.17581452239E+03  0.19152193065E+03  0.00000000000E+00 0. -1.
         11    1    4    4    0    0  0.15940045982E+02 -0.86772680384E+01  0.28416861056E+01  0.18369954449E+02  0.00000000000E+00 0.  1.
</event>
<event>
 8    1  0.7130890E-009  0.1055796E+03  0.7561462E-02  0.1268982E+00
          1   -1    0    0  501    0  0.00000000000E+00  0.00000000000E+00  0.28520401546E+03  0.28520401546E+03  0.00000000000E+00 0. -1.
         -1   -1    0    0    0  501 -0.00000000000E+00 -0.00000000000E+00 -0.44328294995E+02  0.44328294995E+02  0.00000000000E+00 0.  1.
         25    2    1    2    0    0  0.27651712753E+02 -0.91911001346E+01  0.12599575753E+03  0.17991042010E+03  0.12507491677E+03 0.  0.
         23    2    1    2    0    0 -0.27651712753E+02  0.91911001346E+01  0.11487996294E+03  0.14962189036E+03  0.91324753768E+02 0.  0.
          5    1    3    3  502    0  0.43100736341E+02 -0.55460457359E+02  0.39956729963E+02  0.80916923279E+02  0.41800000000E+01 0. -1.
         -5    1    3    3    0  502 -0.15449023588E+02  0.46269357224E+02  0.86039027564E+02  0.98993496816E+02  0.41800000000E+01 0. -1.
        -11    1    4    4    0    0 -0.40257034905E+02 -0.30297979489E+02  0.41212542120E+02  0.65092780310E+02  0.00000000000E+00 0.  1.
         11    1    4    4    0    0  0.12605322152E+02  0.39489079624E+02  0.73667420821E+02  0.84529110054E+02  0.00000000000E+00 0. -1.
</event>
<event>
 8    1  0.7130890E-009  0.1269858E+03  0.7561462E-02  0.1231998E+00
         -1   -1    0    0    0  501 -0.00000000000E+00  0.00000000000E+00  0.41174566602E+03  0.41174566602E+03  0.00000000000E+00 0.  1.
          1   -1    0    0  501    0  0.00000000000E+00 -0.00000000000E+00 -0.65742231723E+02  0.65742231723E+02  0.00000000000E+00 0. -1.
         25    2    1    2    0    0  0.12122612966E+03 -0.26632406280E+02  0.20132979285E+03  0.26755232079E+03  0.12508197029E+03 0.  0.
         23    2    1    2    0    0 -0.12122612966E+03  0.26632406280E+02  0.14467364145E+03  0.20993557696E+03  0.87962630518E+02 0.  0.
          5    1    3    3  502    0  0.70051290516E+02 -0.32967430821E+02  0.20140941853E+03  0.21581765700E+03  0.41800000000E+01 0. -1.
         -5    1    3    3    0  502  0.51174839142E+02  0.63350245408E+01 -0.79625679286E-01  0.51734663789E+02  0.41800000000E+01 0. -1.
        -11    1    4    4    0    0 -0.78249776228E+02  0.11237813253E+02  0.14400941160E+03  0.16428032918E+03  0.00000000000E+00 0.  1.
         11    1    4    4    0    0 -0.42976353431E+02  0.15394593027E+02  0.66422984908E+00  0.45655247781E+02  0.00000000000E+00 0. -1.
</event>
<event>
 8    1  0.7130890E-009  0.8391357E+02  0.7561462E-02  0.1318298E+00
          1   -1    0    0  501    0  0.00000000000E+00  0.00000000000E+00  0.32630322933E+02  0.32630322933E+02  0.00000000000E+00 0. -1.
         -1   -1    0    0    0  501 -0.00000000000E+00 -0.00000000000E+00 -0.58607633369E+03  0.58607633369E+03  0.00000000000E+00 0.  1.
         25    2    1    2    0    0  0.54020562769E+02 -0.21699591951E+01 -0.45079389962E+03  0.47094128225E+03  0.12509045314E+03 0.  0.
         23    2    1    2    0    0 -0.54020562769E+02  0.21699591951E+01 -0.10265211114E+03  0.14776537438E+03  0.91510764498E+02 0.  0.
          5    1    3    3  502    0 -0.78457308194E+01 -0.38820205395E+02 -0.31237087694E+03  0.31489935059E+03  0.41800000000E+01 0. -1.
         -5    1    3    3    0  502  0.61866293588E+02  0.36650246200E+02 -0.13842302268E+03  0.15604193166E+03  0.41800000000E+01 0. -1.
        -11    1    4    4    0    0 -0.36709986178E+02  0.82506500364E+01 -0.11799459548E+03  0.12384837857E+03  0.00000000000E+00 0.  1.
         11    1    4    4    0    0 -0.17310576591E+02 -0.60806908413E+01  0.15342484339E+02  0.23916995813E+02  0.00000000000E+00 0. -1.
</event>
<event>
 8    1  0.7130890E-009  0.9368218E+02  0.7561462E-02  0.1294172E+00
          1   -1    0    0  501    0  0.00000000000E+00  0.00000000000E+00  0.85467030109E+03  0.85467030109E+03  0.00000000000E+00 0. -1.
         -1   -1    0    0    0  501 -0.00000000000E+00 -0.00000000000E+00 -0.18614013463E+02  0.18614013463E+02  0.00000000000E+00 0.  1.
         25    2    1    2    0    0 -0.34415320380E+02 -0.52876285209E+01  0.65064826383E+03  0.66347774974E+03  0.12508872004E+03 0.  0.
         23    2    1    2    0    0  0.34415320380E+02  0.52876285209E+01  0.18540802380E+03  0.20980656481E+03  0.91816589234E+02 0.  0.
          5    1    3    3  502    0  0.14376556292E+02 -0.41539270459E+02  0.98085308254E+02  0.10756577735E+03  0.41800000000E+01 0.  1.
         -5    1    3    3    0  502 -0.48791876672E+02  0.36251641938E+02  0.55256295558E+03  0.55591197239E+03  0.41800000000E+01 0.  1.
        -11    1    4    4    0    0  0.52803924811E+02  0.22215428124E+02  0.64177276654E+02  0.86026173697E+02  0.00000000000E+00 0.  1.
         11    1    4    4    0    0 -0.18388604431E+02 -0.16927799603E+02  0.12123074714E+03  0.12378039112E+03  0.00000000000E+00 0. -1.
</event>
<event>
 8    1  0.7130890E-009  0.1212948E+03  0.7561462E-02  0.1240976E+00
         -2   -1    0    0    0  501 -0.00000000000E+00  0.00000000000E+00  0.21585243071E+02  0.21585243071E+02  0.00000000000E+00 0.  1.
          2   -1    0    0  501    0  0.00000000000E+00 -0.00000000000E+00 -0.11768587463E+04  0.11768587463E+04  0.00000000000E+00 0. -1.
         25    2    1    2    0    0 -0.12926850290E+02  0.86237919486E+02 -0.90441773405E+03  0.91718223627E+03  0.12509090553E+03 0.  0.
         23    2    1    2    0    0  0.12926850290E+02 -0.86237919486E+02 -0.25085576914E+03  0.28126175306E+03  0.92603858504E+02 0.  0.
          5    1    3    3  502    0 -0.33476386047E+02  0.66421292885E+01 -0.62366210208E+03  0.62460921885E+03  0.41800000000E+01 0.  1.
         -5    1    3    3    0  502  0.20549535757E+02  0.79595790198E+02 -0.28075563197E+03  0.29257301742E+03  0.41800000000E+01 0.  1.
        -11    1    4    4    0    0  0.90703300916E+01  0.18753304208E+02 -0.58280013126E+02  0.61891172527E+02  0.00000000000E+00 0. -1.
         11    1    4    4    0    0  0.38565201983E+01 -0.10499122369E+03 -0.19257575601E+03  0.21937058053E+03  0.00000000000E+00 0.  1.
</event>
<event>
 8    1  0.7130890E-009  0.1168840E+03  0.7561462E-02  0.1248328E+00
         -1   -1    0    0    0  501 -0.00000000000E+00  0.00000000000E+00  0.32584157863E+02  0.32584157863E+02  0.00000000000E+00 0.  1.
          1   -1    0    0  501    0  0.00000000000E+00 -0.00000000000E+00 -0.47241960430E+03  0.47241960430E+03  0.00000000000E+00 0. -1.
         25    2    1    2    0    0  0.46520460352E+02 -0.65738766298E+01 -0.31230435333E+03  0.33968991837E+03  0.12509141637E+03 0.  0.
         23    2    1    2    0    0 -0.46520460352E+02  0.65738766298E+01 -0.12753109310E+03  0.16531384379E+03  0.94112263571E+02 0.  0.
          5    1    3    3  502    0 -0.96477168690E+01  0.48729350102E+02 -0.79194141027E+02  0.93577841261E+02  0.41800000000E+01 0.  1.
         -5    1    3    3    0  502  0.56168177221E+02 -0.55303226732E+02 -0.23311021230E+03  0.24611207711E+03  0.41800000000E+01 0.  1.
        -11    1    4    4    0    0 -0.73591600608E+02 -0.83598001800E+01 -0.85155892661E+02  0.11285892076E+03  0.00000000000E+00 0. -1.
         11    1    4    4    0    0  0.27071140256E+02  0.14933676810E+02 -0.42375200443E+02  0.52454923033E+02  0.00000000000E+00 0.  1.
</event>
<event>
 8    1  0.7130890E-009  0.2312536E+03  0.7561462E-02  0.1125761E+00
         -2   -1    0    0    0  501 -0.00000000000E+00  0.00000000000E+00  0.67322146829E+02  0.67322146829E+02  0.00000000000E+00 0.  1.
          2   -1    0    0  501    0  0.00000000000E+00 -0.00000000000E+00 -0.84854331342E+03  0.84854331342E+03  0.00000000000E+00 0. -1.
         25    2    1    2    0    0 -0.20955587744E+03  0.26644873652E+02 -0.44750283922E+03  0.51041908160E+03  0.12508090458E+03 0.  0.
         23    2    1    2    0    0  0.20955587744E+03 -0.26644873652E+02 -0.33371832738E+03  0.40544637865E+03  0.91625481566E+02 0.  0.
          5    1    3    3  502    0  0.15923519890E+02 -0.18794619417E+01 -0.17957916461E+02  0.24434607149E+02  0.41800000000E+01 0. -1.
         -5    1    3    3    0  502 -0.22547939733E+03  0.28524335594E+02 -0.42954492276E+03  0.48598447445E+03  0.41800000000E+01 0. -1.
        -11    1    4    4    0    0  0.93902022090E+02  0.16196560147E+02 -0.84407917654E+02  0.12729734827E+03  0.00000000000E+00 0. -1.
         11    1    4    4    0    0  0.11565385535E+03 -0.42841433799E+02 -0.24931040972E+03  0.27814903039E+03  0.00000000000E+00 0.  1.
</event>
<event>
 8    1  0.7130890E-009  0.9531697E+02  0.7561462E-02  0.1290464E+00
          2   -1    0    0  501    0  0.00000000000E+00  0.00000000000E+00  0.22854700217E+03  0.22854700217E+03  0.00000000000E+00 0. -1.
         -2   -1    0    0    0  501 -0.00000000000E+00 -0.00000000000E+00 -0.50855197700E+02  0.50855197700E+02  0.00000000000E+00 0.  1.
         25    2    1    2    0    0 -0.82915520166E+01 -0.78865314319E+01  0.98412038657E+02  0.15956971800E+03  0.12508644346E+03 0.  0.
         23    2    1    2    0    0  0.82915520166E+01  0.78865314319E+01  0.79279765818E+02  0.11983248187E+03  0.89126849100E+02 0.  0.
          5    1    3    3  502    0 -0.26157961589E+02 -0.59073697335E+02  0.78286436839E+02  0.10158828311E+03  0.41800000000E+01 0. -1.
         -5    1    3    3    0  502  0.17866409573E+02  0.51187165904E+02  0.20125601818E+02  0.57981434898E+02  0.41800000000E+01 0. -1.
        -11    1    4    4    0    0  0.30576434692E+02  0.28027482640E+02  0.76749787918E+01  0.42182501598E+02  0.00000000000E+00 0.  1.
         11    1    4    4    0    0 -0.22284882676E+02 -0.20140951208E+02  0.71604787026E+02  0.77649980274E+02  0.00000000000E+00 0. -1.
</event>
<event>
 8    1  0.7130890E-009  0.9671645E+02  0.7561462E-02  0.1287356E+00
          2   -1    0    0  501    0  0.00000000000E+00  0.00000000000E+00  0.17281931514E+03  0.17281931514E+03  0.00000000000E+00 0. -1.
         -2   -1    0    0    0  501 -0.00000000000E+00 -0.00000000000E+00 -0.23597960431E+03  0.23597960431E+03  0.00000000000E+00 0.  1.
         25    2    1    2    0    0  0.63376922770E+02  0.55686416193E+01 -0.19178580509E+03  0.23764730448E+03  0.12508717832E+03 0.  0.
         23    2    1    2    0    0 -0.63376922770E+02 -0.55686416193E+01  0.12862551593E+03  0.17115161497E+03  0.93277584933E+02 0.  0.
          5    1    3    3  502    0 -0.16946867135E+02  0.14877748988E+02 -0.13925336362E+03  0.14112942783E+03  0.41800000000E+01 0.  1.
         -5    1    3    3    0  502  0.80323789905E+02 -0.93091073690E+01 -0.52532441477E+02  0.96517876645E+02  0.41800000000E+01 0.  1.
        -11    1    4    4    0    0 -0.75954789942E+02 -0.90125614674E+01  0.49837106149E+02  0.91291256584E+02  0.00000000000E+00 0.  1.
         11    1    4    4    0    0  0.12577867172E+02  0.34439198481E+01  0.78788409779E+02  0.79860358389E+02  0.00000000000E+00 0. -1.
</event>
<event>
 8    1  0.7130890E-009  0.1527437E+03  0.7561462E-02  0.1197141E+00
          2   -1    0    0  501    0  0.00000000000E+00  0.00000000000E+00  0.12222388071E+04  0.12222388071E+04  0.00000000000E+00 0. -1.
         -2   -1    0    0    0  501 -0.00000000000E+00 -0.00000000000E+00 -0.25982101890E+02  0.25982101890E+02  0.00000000000E+00 0.  1.
         25    2    1    2    0    0 -0.77654011322E+02 -0.10538876651E+03  0.81701882837E+03  0.83684203025E+03  0.12509148696E+03 0.  0.
         23    2    1    2    0    0  0.77654011322E+02  0.10538876651E+03  0.37923787681E+03  0.41137887870E+03  0.90963053247E+02 0.  0.
          5    1    3    3  502    0 -0.76607571594E+02 -0.12115114063E+03  0.80176484487E+03  0.81448797276E+03  0.41800000000E+01 0. -1.
         -5    1    3    3    0  502 -0.10464397279E+01  0.15762374118E+02  0.15253983501E+02  0.22354057497E+02  0.41800000000E+01 0. -1.
        -11    1    4    4    0    0 -0.52345838549E+01  0.39539407327E+02  0.42019178751E+02  0.57934247064E+02  0.00000000000E+00 0.  1.
         11    1    4    4    0    0  0.82888595177E+02  0.65849359181E+02  0.33721869806E+03  0.35344463164E+03  0.00000000000E+00 0. -1.
</event>
<event>
 8    1  0.7130890E-009  0.1172888E+03  0.7561462E-02  0.1247638E+00
          2   -1    0    0  501    0  0.00000000000E+00  0.00000000000E+00  0.84895040642E+02  0.84895040642E+02  0.00000000000E+00 0. -1.
         -2   -1    0    0    0  501 -0.00000000000E+00 -0.00000000000E+00 -0.28876957750E+03  0.28876957750E+03  0.00000000000E+00 0.  1.
         25    2    1    2    0    0 -0.88993051259E+02 -0.40113417282E+02 -0.17759611171E+03  0.23815451027E+03  0.12509333495E+03 0.  0.
         23    2    1    2    0    0  0.88993051259E+02  0.40113417282E+02 -0.26278425148E+02  0.13551010787E+03  0.90241810089E+02 0.  0.
          5    1    3    3  502    0 -0.17480514891E+02 -0.21073724785E+02 -0.15945830143E+03  0.16184589142E+03  0.41800000000E+01 0. -1.
         -5    1    3    3    0  502 -0.71512536368E+02 -0.19039692497E+02 -0.18137810280E+02  0.76308618845E+02  0.41800000000E+01 0. -1.
        -11    1    4    4    0    0  0.24344583871E+02  0.60302351379E+02 -0.16388921307E+02  0.67064365256E+02  0.00000000000E+00 0.  1.
         11    1    4    4    0    0  0.64648467389E+02 -0.20188934097E+02 -0.98895038411E+01  0.68445742613E+02  0.00000000000E+00 0. -1.
</event>
<event>
 8    1  0.7130890E-009  0.2152930E+03  0.7561462E-02  0.1137442E+00
          1   -1    0    0  501    0  0.00000000000E+00  0.00000000000E+00  0.38086149762E+03  0.38086149762E+03  0.00000000000E+00 0. -1.
         -1   -1    0    0    0  501 -0.00000000000E+00 -0.00000000000E+00 -0.16657931426E+03  0.16657931426E+03  0.00000000000E+00 0.  1.
         25    2    1    2    0    0 -0.13791574537E+02  0.20900429548E+03  0.15028058733E+02  0.24443111615E+03  0.12509086670E+03 0.  0.
         23    2    1    2    0    0  0.13791574537E+02 -0.20900429548E+03  0.19925412462E+03  0.30300969573E+03  0.90772608603E+02 0.  0.
          5    1    3    3  502    0 -0.12618397638E+02  0.19515672739E+03 -0.29297138752E+02  0.19779071501E+03  0.41800000000E+01 0.  1.
         -5    1    3    3    0  502 -0.11731768986E+01  0.13847568091E+02  0.44325197485E+02  0.46640401136E+02  0.41800000000E+01 0.  1.
        -11    1    4    4    0    0  0.41961300050E+02 -0.12798081923E+03  0.81843710059E+02  0.15760150275E+03  0.00000000000E+00 0.  1.
         11    1    4    4    0    0 -0.28169725513E+02 -0.81023476249E+02  0.11741041456E+03  0.14540819298E+03  0.00000000000E+00 0. -1.
</event>
<event>
 8    1  0.7130890E-009  0.2373506E+03  0.7561462E-02  0.1121570E+00
         -2   -1    0    0    0  501 -0.00000000000E+00  0.00000000000E+00  0.13480173666E+03  0.13480173666E+03  0.00000000000E+00 0.  1.
          2   -1    0    0  501    0  0.00000000000E+00 -0.00000000000E+00 -0.81276022970E+03  0.81276022970E+03  0.00000000000E+00 0. -1.
         25    2    1    2    0    0  0.21210958341E+03  0.59751740072E+01 -0.67296608660E+03  0.71662913230E+03  0.12509109272E+03 0.  0.
         23    2    1    2    0    0 -0.21210958341E+03 -0.59751740072E+01 -0.49924064408E+01  0.23093283406E+03  0.90988305010E+02 0.  0.
          5    1    3    3  502    0 -0.65132625123E+01 -0.24305967768E+02 -0.64905881613E+02  0.69738429331E+02  0.41800000000E+01 0.  1.
         -5    1    3    3    0  502  0.21862284592E+03  0.30281141775E+02 -0.60806020498E+03  0.64689070297E+03  0.41800000000E+01 0.  1.
        -11    1    4    4    0    0 -0.10319188849E+03 -0.45228138980E+02  0.14262774979E+02  0.11356750044E+03  0.00000000000E+00 0. -1.
         11    1    4    4    0    0 -0.10891769492E+03  0.39252964973E+02 -0.19255181420E+02  0.11736533363E+03  0.00000000000E+00 0.  1.
</event>
<event>
 8    1  0.7130890E-009  0.9555997E+02  0.7561462E-02  0.1289920E+00
          1   -1    0    0  501    0  0.00000000000E+00  0.00000000000E+00  0.24488610410E+03  0.24488610410E+03  0.00000000000E+00 0. -1.
         -1   -1    0    0    0  501 -0.00000000000E+00 -0.00000000000E+00 -0.66558215254E+02  0.66558215254E+02  0.00000000000E+00 0.  1.
         25    2    1    2    0    0  0.40672989656E+02 -0.28324007080E+02  0.15409777226E+03  0.20457190297E+03  0.12508796346E+03 0.  0.
         23    2    1    2    0    0 -0.40672989656E+02  0.28324007080E+02  0.24230116587E+02  0.10687241639E+03  0.91531816165E+02 0.  0.
          5    1    3    3  502    0 -0.26741656126E+02  0.26219125509E+02  0.87123268702E+02  0.94923627533E+02  0.41800000000E+01 0.  1.
         -5    1    3    3    0  502  0.67414645782E+02 -0.54543132588E+02  0.66974503559E+02  0.10964827543E+03  0.41800000000E+01 0.  1.
        -11    1    4    4    0    0 -0.20344692736E+02 -0.10426551609E+02 -0.29663637550E+02  0.37450646105E+02  0.00000000000E+00 0.  1.
         11    1    4    4    0    0 -0.20328296920E+02  0.38750558689E+02  0.53893754137E+02  0.69421770284E+02  0.00000000000E+00 0. -1.
</event>
<event>
 8    1  0.7130890E-009  0.2528844E+03  0.7561462E-02  0.1111495E+00
         -2   -1    0    0    0  501 -0.00000000000E+00  0.00000000000E+00  0.97951464274E+02  0.97951464274E+02  0.00000000000E+00 0.  1.
          2   -1    0    0  501    0  0.00000000000E+00 -0.00000000000E+00 -0.81685876452E+03  0.81685876452E+03  0.00000000000E+00 0. -1.
         25    2    1    2    0    0  0.14185206731E+03  0.20071669938E+03 -0.22674057520E+03  0.35702665597E+03  0.12509013640E+03 0.  0.
         23    2    1    2    0    0 -0.14185206731E+03 -0.20071669938E+03 -0.49216672505E+03  0.55778357282E+03  0.92115288913E+02 0.  0.
          5    1    3    3  502    0  0.37375208618E+02  0.17520897119E+02  0.71149468851E+01  0.42094927536E+02  0.41800000000E+01 0.  1.
         -5    1    3    3    0  502  0.10447685869E+03  0.18319580226E+03 -0.23385552208E+03  0.31493172844E+03  0.41800000000E+01 0.  1.
        -11    1    4    4    0    0 -0.76740387373E+02 -0.15748564859E+03 -0.26612631115E+03  0.31861266461E+03  0.00000000000E+00 0.  1.
         11    1    4    4    0    0 -0.65111679938E+02 -0.43231050794E+02 -0.22604041391E+03  0.23917090821E+03  0.00000000000E+00 0. -1.
</event>
<event>
 8    1  0.7130890E-009  0.1451578E+03  0.7561462E-02  0.1206553E+00
          2   -1    0    0  501    0  0.00000000000E+00  0.00000000000E+00  0.60586402964E+03  0.60586402964E+03  0.00000000000E+00 0. -1.
         -2   -1    0    0    0  501 -0.00000000000E+00 -0.00000000000E+00 -0.44047139835E+02  0.44047139835E+02  0.00000000000E+00 0.  1.
         25    2    1    2    0    0  0.11370464736E+03 -0.30609147722E+02  0.23546278222E+03  0.29147238392E+03  0.12509101495E+03 0.  0.
         23    2    1    2    0    0 -0.11370464736E+03  0.30609147722E+02  0.32635410758E+03  0.35843878556E+03  0.90031620557E+02 0.  0.
          5    1    3    3  502    0  0.87574415466E+02 -0.60655868750E+02  0.86696456375E+02  0.13741237428E+03  0.41800000000E+01 0. -1.
         -5    1    3    3    0  502  0.26130231890E+02  0.30046721028E+02  0.14876632585E+03  0.15406000964E+03  0.41800000000E+01 0. -1.
        -11    1    4    4    0    0 -0.11615623765E+03  0.32542007213E+01  0.29319553328E+03  0.31538307199E+03  0.00000000000E+00 0.  1.
         11    1    4    4    0    0  0.24515902921E+01  0.27354947001E+02  0.33158574308E+02  0.43055713564E+02  0.00000000000E+00 0. -1.
</event>
<event>
 8    1  0.7130890E-009  0.9975369E+02  0.7561462E-02  0.1280815E+00
         -2   -1    0    0    0  501 -0.00000000000E+00  0.00000000000E+00  0.78529808182E+02  0.78529808182E+02  0.00000000000E+00 0.  1.
          2   -1    0    0  501    0  0.00000000000E+00 -0.00000000000E+00 -0.26578921050E+03  0.26578921050E+03  0.00000000000E+00 0. -1.
         25    2    1    2    0    0  0.35902593889E+02  0.40118403195E+02 -0.19396826385E+03  0.23700305351E+03  0.12509307522E+03 0.  0.
         23    2    1    2    0    0 -0.35902593889E+02 -0.40118403195E+02  0.67088615300E+01  0.10731596518E+03  0.92591711484E+02 0.  0.
          5    1    3    3  502    0  0.14467823026E+01  0.79924877865E+02 -0.14140914326E+03  0.16249337672E+03  0.41800000000E+01 0.  1.
         -5    1    3    3    0  502  0.34455811587E+02 -0.39806474670E+02 -0.52559120590E+02  0.74509676787E+02  0.41800000000E+01 0.  1.
        -11    1    4    4    0    0 -0.19716695160E+02  0.35873769127E+01  0.43528445063E+02  0.47920171856E+02  0.00000000000E+00 0.  1.
         11    1    4    4    0    0 -0.16185898729E+02 -0.43705780108E+02 -0.36819583533E+02  0.59395793319E+02  0.00000000000E+00 0. -1.
</event>
<event>
 8    1  0.7130890E-009  0.8724975E+02  0.7561462E-02  0.1309652E+00
          3   -1    0    0  501    0  0.00000000000E+00  0.00000000000E+00  0.10678228769E+03  0.10678228769E+03  0.00000000000E+00 0. -1.
         -3   -1    0    0    0  501 -0.00000000000E+00 -0.00000000000E+00 -0.12728942149E+03  0.12728942149E+03  0.00000000000E+00 0.  1.
         25    2    1    2    0    0  0.34125505826E+02 -0.22571600856E+02  0.58962575706E+01  0.13173277525E+03  0.12507889874E+03 0.  0.
         23    2    1    2    0    0 -0.34125505826E+02  0.22571600856E+02 -0.26403391369E+02  0.10233893392E+03  0.90011615955E+02 0.  0.
          5    1    3    3  502    0  0.65493561320E+02 -0.54162947193E+02  0.14157661486E+02  0.86260901930E+02  0.41800000000E+01 0. -1.
         -5    1    3    3    0  502 -0.31368055494E+02  0.31591346336E+02 -0.82614039151E+01  0.45471873323E+02  0.41800000000E+01 0. -1.
        -11    1    4    4    0    0 -0.11900980283E+02 -0.14249735954E+01 -0.56581024834E+02  0.57836634175E+02  0.00000000000E+00 0.  1.
         11    1    4    4    0    0 -0.22224525544E+02  0.23996574452E+02  0.30177633464E+02  0.44502299745E+02  0.00000000000E+00 0. -1.
</event>
<event>
 8    1  0.7130890E-009  0.1500568E+03  0.7561462E-02  0.1200403E+00
         -1   -1    0    0    0  501 -0.00000000000E+00  0.00000000000E+00  0.12535823392E+04  0.12535823392E+04  0.00000000000E+00 0.  1.
          1   -1    0    0  501    0  0.00000000000E+00 -0.00000000000E+00 -0.22997631238E+02  0.22997631238E+02  0.00000000000E+00 0. -1.
         25    2    1    2    0    0 -0.10187604764E+03  0.55956216558E+02  0.83935839631E+03  0.85655099451E+03  0.12508901422E+03 0.  0.
         23    2    1    2    0    0  0.10187604764E+03 -0.55956216558E+02  0.39122631161E+03  0.42002897589E+03  0.99279839028E+02 0.  0.
          5    1    3    3  502    0 -0.45614392573E+02 -0.22622601363E+02  0.52913654940E+03  0.53159704214E+03  0.41800000000E+01 0.  1.
         -5    1    3    3    0  502 -0.56261655068E+02  0.78578817921E+02  0.31022184691E+03  0.32495395236E+03  0.41800000000E+01 0.  1.
        -11    1    4    4    0    0  0.23233375386E+02 -0.68791367835E+02  0.16851875302E+03  0.18349553711E+03  0.00000000000E+00 0. -1.
         11    1    4    4    0    0  0.78642672254E+02  0.12835151276E+02  0.22270755859E+03  0.23653343878E+03  0.00000000000E+00 0.  1.
</event>
<event>
 8    1  0.7130890E-009  0.1043281E+03  0.7561462E-02  0.1271449E+00
         -1   -1    0    0    0  501 -0.00000000000E+00  0.00000000000E+00  0.45770865726E+02  0.45770865726E+02  0.00000000000E+00 0.  1.
          1   -1    0    0  501    0  0.00000000000E+00 -0.00000000000E+00 -0.36125057391E+03  0.36125057391E+03  0.00000000000E+00 0. -1.
         25    2    1    2    0    0  0.28644182818E+02 -0.42945605637E+02 -0.11359329010E+03  0.17668142477E+03  0.12509227015E+03 0.  0.
         23    2    1    2    0    0 -0.28644182818E+02  0.42945605637E+02 -0.20188641809E+03  0.23034001487E+03  0.98150814498E+02 0.  0.
          5    1    3    3  502    0 -0.18706773123E+02  0.13892005907E+02  0.15173540310E+02  0.28118319906E+02  0.41800000000E+01 0.  1.
         -5    1    3    3    0  502  0.47350955942E+02 -0.56837611544E+02 -0.12876683041E+03  0.14856310487E+03  0.41800000000E+01 0.  1.
        -11    1    4    4    0    0  0.16450447971E+02 -0.24647672238E+02 -0.52594026493E+02  0.60367678504E+02  0.00000000000E+00 0.  1.
         11    1    4    4    0    0 -0.45094630789E+02  0.67593277875E+02 -0.14929239160E+03  0.16997233637E+03  0.00000000000E+00 0. -1.
</event>
<event>
 8    1  0.7130890E-009  0.1607937E+03  0.7561462E-02  0.1187804E+00
         -1   -1    0    0    0  501 -0.00000000000E+00  0.00000000000E+00  0.63356011387E+02  0.63356011387E+02  0.00000000000E+00 0.  1.
          1   -1    0    0  501    0  0.00000000000E+00 -0.00000000000E+00 -0.53223958717E+03  0.53223958717E+03  0.00000000000E+00 0. -1.
         25    2    1    2    0    0 -0.13471081411E+03  0.47303185776E+02 -0.30801652154E+03  0.36180977920E+03  0.12509014332E+03 0.  0.
         23    2    1    2    0    0  0.13471081411E+03 -0.47303185776E+02 -0.16086705424E+03  0.23378581936E+03  0.91613347123E+02 0.  0.
          5    1    3    3  502    0 -0.13801213138E+03  0.49185619737E+02 -0.31810363719E+03  0.35024844038E+03  0.41800000000E+01 0.  1.
         -5    1    3    3    0  502  0.33013172674E+01 -0.18824339616E+01  0.10087115641E+02  0.11561338819E+02  0.41800000000E+01 0.  1.
        -11    1    4    4    0    0  0.63311518347E+02  0.24702630698E+02 -0.58068577220E+02  0.89389753211E+02  0.00000000000E+00 0.  1.
         11    1    4    4    0    0  0.71399295767E+02 -0.72005816474E+02 -0.10279847702E+03  0.14439606615E+03  0.00000000000E+00 0. -1.
</event>
<event>
 8    1  0.7130890E-009  0.8025034E+02  0.7561462E-02  0.1328342E+00
         -1   -1    0    0    0  501 -0.00000000000E+00  0.00000000000E+00  0.22665129444E+02  0.22665129444E+02  0.00000000000E+00 0.  1.
          1   -1    0    0  501    0  0.00000000000E+00 -0.00000000000E+00 -0.59967519305E+03  0.59967519305E+03  0.00000000000E+00 0. -1.
         25    2    1    2    0    0  0.28230150373E+02 -0.29550851569E+02 -0.29074207941E+03  0.31913805151E+03  0.12509174619E+03 0.  0.
         23    2    1    2    0    0 -0.28230150373E+02  0.29550851569E+02 -0.28626798420E+03  0.30320227099E+03  0.91170522295E+02 0.  0.
          5    1    3    3  502    0  0.29085120089E+02 -0.51585523981E+02 -0.50761575350E+02  0.78110309352E+02  0.41800000000E+01 0. -1.
         -5    1    3    3    0  502 -0.85496971620E+00  0.22034672412E+02 -0.23998050406E+03  0.24102774216E+03  0.41800000000E+01 0. -1.
        -11    1    4    4    0    0  0.16564034646E+01 -0.20407121945E+02 -0.14055563271E+02  0.24834515445E+02  0.00000000000E+00 0.  1.
         11    1    4    4    0    0 -0.29886553837E+02  0.49957973514E+02 -0.27221242093E+03  0.27836775554E+03  0.00000000000E+00 0. -1.
</event>
<event>
 8    1  0.7130890E-009  0.1206736E+03  0.7561462E-02  0.1241990E+00
          1   -1    0    0  501    0  0.00000000000E+00  0.00000000000E+00  0.18799129329E+02  0.18799129329E+02  0.00000000000E+00 0. -1.
         -1   -1    0    0    0  501 -0.00000000000E+00 -0.00000000000E+00 -0.93035384246E+03  0.93035384246E+03  0.00000000000E+00 0.  1.
         25    2    1    2    0    0  0.62428000108E+02  0.35729765191E+02 -0.58672124716E+03  0.60420491341E+03  0.12509150333E+03 0.  0.
         23    2    1    2    0    0 -0.62428000108E+02 -0.35729765191E+02 -0.32483346597E+03  0.34494805838E+03  0.91096163725E+02 0.  0.
          5    1    3    3  502    0 -0.19939071237E+02 -0.21668476622E+02 -0.50145488075E+02  0.58302073850E+02  0.41800000000E+01 0. -1.
         -5    1    3    3    0  502  0.82367071345E+02  0.57398241813E+02 -0.53657575909E+03  0.54590283956E+03  0.41800000000E+01 0. -1.
        -11    1    4    4    0    0 -0.68506071038E+02  0.61730692082E+01 -0.14934105783E+03  0.16442001127E+03  0.00000000000E+00 0.  1.
         11    1    4    4    0    0  0.60780709299E+01 -0.41902834399E+02 -0.17549240814E+03  0.18052804711E+03  0.00000000000E+00 0. -1.
</event>
<event>
 8    1  0.7130890E-009  0.8311255E+02  0.7561462E-02  0.1320444E+00
          4   -1    0    0  501    0  0.00000000000E+00  0.00000000000E+00  0.14538779786E+03  0.14538779786E+03  0.00000000000E+00 0. -1.
         -4   -1    0    0    0  501 -0.00000000000E+00 -0.00000000000E+00 -0.12128424050E+03  0.12128424050E+03  0.00000000000E+00 0.  1.
         25    2    1    2    0    0 -0.84822550436E+01  0.44613018959E+02  0.76610882107E+02  0.15355359661E+03  0.12508880710E+03 0.  0.
         23    2    1    2    0    0  0.84822550436E+01 -0.44613018959E+02 -0.52507324745E+02  0.11311844175E+03  0.89311212071E+02 0.  0.
          5    1    3    3  502    0  0.11613319172E+02 -0.23140948877E+02  0.78467471300E+02  0.82734449593E+02  0.41800000000E+01 0. -1.
         -5    1    3    3    0  502 -0.20095574215E+02  0.67753967836E+02 -0.18565891939E+01  0.70819147015E+02  0.41800000000E+01 0. -1.
        -11    1    4    4    0    0 -0.19892670492E+02 -0.33025209211E+02  0.13088878592E+02  0.40714880886E+02  0.00000000000E+00 0. -1.
         11    1    4    4    0    0  0.28374925536E+02 -0.11587809747E+02 -0.65596203337E+02  0.72403560867E+02  0.00000000000E+00 0.  1.
</event>
<event>
 8    1  0.7130890E-009  0.1213159E+03  0.7561462E-02  0.1240942E+00
          2   -1    0    0  501    0  0.00000000000E+00  0.00000000000E+00  0.13256230928E+03  0.13256230928E+03  0.00000000000E+00 0. -1.
         -2   -1    0    0    0  501 -0.00000000000E+00 -0.00000000000E+00 -0.15771598612E+03  0.15771598612E+03  0.00000000000E+00 0.  1.
         25    2    1    2    0    0 -0.32416021489E+01  0.59626785783E+02  0.60340604771E+02  0.15117672200E+03  0.12509017197E+03 0.  0.
         23    2    1    2    0    0  0.32416021489E+01 -0.59626785783E+02 -0.85494281614E+02  0.13910157340E+03  0.92054950795E+02 0.  0.
          5    1    3    3  502    0  0.59230161224E+02  0.16615438128E+02  0.36060171621E+02  0.71428937834E+02  0.41800000000E+01 0. -1.
         -5    1    3    3    0  502 -0.62471763373E+02  0.43011347655E+02  0.24280433151E+02  0.79747784170E+02  0.41800000000E+01 0. -1.
        -11    1    4    4    0    0 -0.35083736079E+02 -0.56568368194E+02 -0.72726032785E+02  0.98589678273E+02  0.00000000000E+00 0. -1.
         11    1    4    4    0    0  0.38325338228E+02 -0.30584175890E+01 -0.12768248829E+02  0.40511895125E+02  0.00000000000E+00 0.  1.
</event>
<event>
 8    1  0.7130890E-009  0.1844465E+03  0.7561462E-02  0.1163568E+00
          1   -1    0    0  501    0  0.00000000000E+00  0.00000000000E+00  0.86090488543E+02  0.86090488543E+02  0.00000000000E+00 0. -1.
         -1   -1    0    0    0  501 -0.00000000000E+00 -0.00000000000E+00 -0.43475847075E+03  0.43475847075E+03  0.00000000000E+00 0.  1.
         25    2    1    2    0    0 -0.56120323670E+02  0.14309285026E+03 -0.23495229792E+03  0.30736835668E+03  0.12509064659E+03 0.  0.
         23    2    1    2    0    0  0.56120323670E+02 -0.14309285026E+03 -0.11371568428E+03  0.21348060261E+03  0.94961341154E+02 0.  0.
          5    1    3    3  502    0  0.29395747491E+02  0.63867801972E+01 -0.71705806164E+02  0.77872305536E+02  0.41800000000E+01 0. -1.
         -5    1    3    3    0  502 -0.85516071161E+02  0.13670607007E+03 -0.16324649176E+03  0.22949605115E+03  0.41800000000E+01 0. -1.
        -11    1    4    4    0    0  0.77878916093E+02 -0.13079447545E+03 -0.11088103925E+03  0.18832664507E+03  0.00000000000E+00 0.  1.
         11    1    4    4    0    0 -0.21758592423E+02 -0.12298374811E+02 -0.28346450366E+01  0.25153957536E+02  0.00000000000E+00 0. -1.
</event>
<event>
 8    1  0.7130890E-009  0.2179108E+03  0.7561462E-02  0.1135450E+00
          2   -1    0    0  501    0  0.00000000000E+00  0.00000000000E+00  0.19773180740E+03  0.19773180740E+03  0.00000000000E+00 0. -1.
         -2   -1    0    0    0  501 -0.00000000000E+00 -0.00000000000E+00 -0.30774725750E+03  0.30774725750E+03  0.00000000000E+00 0.  1.
         25    2    1    2    0    0  0.11567856703E+03  0.15850683382E+03 -0.16116513459E+03  0.28306284980E+03  0.12507769222E+03 0.  0.
         23    2    1    2    0    0 -0.11567856703E+03 -0.15850683382E+03  0.51149684495E+02  0.22241621509E+03  0.91360468883E+02 0.  0.
          5    1    3    3  502    0 -0.57912579973E+01  0.71373328211E+02 -0.13678207578E+02  0.73022300783E+02  0.41800000000E+01 0.  1.
         -5    1    3    3    0  502  0.12146982503E+03  0.87133505610E+02 -0.14748692701E+03  0.21004054902E+03  0.41800000000E+01 0.  1.
        -11    1    4    4    0    0 -0.49097640220E+02 -0.77062510989E+01  0.24576039545E+02  0.55443180833E+02  0.00000000000E+00 0.  1.
         11    1    4    4    0    0 -0.66580926810E+02 -0.15080058272E+03  0.26573644950E+02  0.16697303426E+03  0.00000000000E+00 0. -1.
</event>
<event>
 8    1  0.7130890E-009  0.1351997E+03  0.7561462E-02  0.1219938E+00
         -2   -1    0    0    0  501 -0.00000000000E+00  0.00000000000E+00  0.75161842365E+02  0.75161842365E+02  0.00000000000E+00 0.  1.
          2   -1    0    0  501    0  0.00000000000E+00 -0.00000000000E+00 -0.25735933326E+03  0.25735933326E+03  0.00000000000E+00 0. -1.
         25    2    1    2    0    0  0.51626607073E+02  0.68414564604E+02 -0.98747751187E+02  0.18095546412E+03  0.12509157614E+03 0.  0.
         23    2    1    2    0    0 -0.51626607073E+02 -0.68414564604E+02 -0.83449739707E+02  0.15156571151E+03  0.93072265685E+02 0.  0.
          5    1    3    3  502    0  0.86613701061E+02  0.18262375512E+02 -0.44774317550E+02  0.99285746625E+02  0.41800000000E+01 0. -1.
         -5    1    3    3    0  502 -0.34987093987E+02  0.50152189092E+02 -0.53973433637E+02  0.81669717491E+02  0.41800000000E+01 0. -1.
        -11    1    4    4    0    0  0.10039808769E+02 -0.56873479464E+02 -0.17053585949E+02  0.60218063903E+02  0.00000000000E+00 0.  1.
         11    1    4    4    0    0 -0.61666415843E+02 -0.11541085140E+02 -0.66396153758E+02  0.91347647605E+02  0.00000000000E+00 0. -1.
</event>
<event>
 8    1  0.7130890E-009  0.1181864E+03  0.7561462E-02  0.1246119E+00
          2   -1    0    0  501    0  0.00000000000E+00  0.00000000000E+00  0.70663705519E+03  0.70663705519E+03  0.00000000000E+00 0. -1.
         -2   -1    0    0    0  501 -0.00000000000E+00 -0.00000000000E+00 -0.29888225536E+02  0.29888225536E+02  0.00000000000E+00 0.  1.
         25    2    1    2    0    0 -0.15902795225E+02 -0.45985171157E+02  0.15672402600E+03  0.20634369949E+03  0.12509103538E+03 0.  0.
         23    2    1    2    0    0  0.15902795225E+02  0.45985171157E+02  0.52002480365E+03  0.53018158123E+03  0.91099823273E+02 0.  0.
          5    1    3    3  502    0 -0.43102024154E+02  0.30081984678E+02  0.71534799553E+02  0.88867374415E+02  0.41800000000E+01 0.  1.
         -5    1    3    3    0  502  0.27199228930E+02 -0.76067155836E+02  0.85189226448E+02  0.11747632508E+03  0.41800000000E+01 0.  1.
        -11    1    4    4    0    0 -0.37976328385E+02  0.20388774578E+02  0.19218573405E+03  0.19696004675E+03  0.00000000000E+00 0. -1.
         11    1    4    4    0    0  0.53879123610E+02  0.25596396579E+02  0.32783906961E+03  0.33322153448E+03  0.00000000000E+00 0.  1.
</event>
<event>
 8    1  0.7130890E-009  0.2662627E+03  0.7561462E-02  0.1103438E+00
          1   -1    0    0  501    0  0.00000000000E+00  0.00000000000E+00  0.30684076816E+03  0.30684076816E+03  0.00000000000E+00 0. -1.
         -1   -1    0    0    0  501 -0.00000000000E+00 -0.00000000000E+00 -0.32625699147E+03  0.32625699147E+03  0.00000000000E+00 0.  1.
         25    2    1    2    0    0 -0.11164731826E+03  0.23342662003E+03 -0.15539120442E+03  0.32672274677E+03  0.12509283045E+03 0.  0.
         23    2    1    2    0    0  0.11164731826E+03 -0.23342662003E+03  0.13597498111E+03  0.30637501286E+03  0.91778768805E+02 0.  0.
          5    1    3    3  502    0 -0.51054048394E+02  0.15998485212E+03 -0.15906919815E+03  0.23134854866E+03  0.41800000000E+01 0.  1.
         -5    1    3    3    0  502 -0.60593269870E+02  0.73441767912E+02  0.36779937288E+01  0.95374198112E+02  0.41800000000E+01 0.  1.
        -11    1    4    4    0    0  0.75887528577E+02 -0.74529237170E+02  0.83608810638E+02  0.13529211878E+03  0.00000000000E+00 0.  1.
         11    1    4    4    0    0  0.35759789687E+02 -0.15889738286E+03  0.52366170469E+02  0.17108289408E+03  0.00000000000E+00 0. -1.
</event>
<event>
 8    1  0.7130890E-009  0.3236163E+03  0.7561462E-02  0.1073997E+00
         -2   -1    0    0    0  501 -0.00000000000E+00  0.00000000000E+00  0.11107039517E+03  0.11107039517E+03  0.00000000000E+00 0.  1.
          2   -1    0    0  501    0  0.00000000000E+00 -0.00000000000E+00 -0.95813994940E+03  0.95813994940E+03  0.00000000000E+00 0. -1.
         25    2    1    2    0    0  0.28376153064E+03  0.11411225663E+03 -0.45355606094E+03  0.56116184895E+03  0.12508919583E+03 0.  0.
         23    2    1    2    0    0 -0.28376153064E+03 -0.11411225663E+03 -0.39351349329E+03  0.50804849562E+03  0.98580886144E+02 0.  0.
          5    1    3    3  502    0  0.99773913046E+02 -0.18768991151E+02 -0.11389032707E+03  0.15262892174E+03  0.41800000000E+01 0.  1.
         -5    1    3    3    0  502  0.18398761759E+03  0.13288124779E+03 -0.33966573387E+03  0.40853292720E+03  0.41800000000E+01 0.  1.
        -11    1    4    4    0    0 -0.38302401075E+02  0.15178805034E+02 -0.75666903534E+02  0.86156545548E+02  0.00000000000E+00 0. -1.
         11    1    4    4    0    0 -0.24545912956E+03 -0.12929106167E+03 -0.31784658976E+03  0.42189195007E+03  0.00000000000E+00 0.  1.
</event>
<event>
 8    1  0.7130890E-009  0.9953844E+02  0.7561462E-02  0.1281270E+00
          3   -1    0    0  501    0  0.00000000000E+00  0.00000000000E+00  0.34482249672E+03  0.34482249672E+03  0.00000000000E+00 0. -1.
         -3   -1    0    0    0  501 -0.00000000000E+00 -0.00000000000E+00 -0.56893552467E+02  0.56893552467E+02  0.00000000000E+00 0.  1.
         25    2    1    2    0    0 -0.86140075669E+01  0.78619072303E+02  0.98765714838E+02  0.17791283445E+03  0.12507258124E+03 0.  0.
         23    2    1    2    0    0  0.86140075669E+01 -0.78619072303E+02  0.18916322941E+03  0.22380321474E+03  0.89721747133E+02 0.  0.
          5    1    3    3  502    0 -0.12454242739E+02  0.49971674733E+02  0.12711298541E+03  0.13721319142E+03  0.41800000000E+01 0. -1.
         -5    1    3    3    0  502  0.38402351724E+01  0.28647397570E+02 -0.28347270576E+02  0.40699643030E+02  0.41800000000E+01 0. -1.
        -11    1    4    4    0    0 -0.27733443027E+02  0.39257211488E+01  0.31394980199E+02  0.42073743955E+02  0.00000000000E+00 0.  1.
         11    1    4    4    0    0  0.36347450594E+02 -0.82544793452E+02  0.15776824921E+03  0.18172947078E+03  0.00000000000E+00 0. -1.
</event>
<event>
 8    1  0.7130890E-009  0.8194881E+02  0.7561462E-02  0.1323610E+00
         -1   -1    0    0    0  501 -0.00000000000E+00  0.00000000000E+00  0.41108298530E+02  0.41108298530E+02  0.00000000000E+00 0.  1.
          1   -1    0    0  501    0  0.00000000000E+00 -0.00000000000E+00 -0.31248958240E+03  0.31248958240E+03  0.00000000000E+00 0. -1.
         25    2    1    2    0    0 -0.13665867857E+02  0.90552320072E+01 -0.19023843014E+03  0.22826656616E+03  0.12508481825E+03 0.  0.
         23    2    1    2    0    0  0.13665867857E+02 -0.90552320072E+01 -0.81142853729E+02  0.12533131476E+03  0.94101129527E+02 0.  0.
          5    1    3    3  502    0  0.86948404016E+01 -0.47208228350E+02 -0.29607179069E+02  0.56553289259E+02  0.41800000000E+01 0.  1.
         -5    1    3    3    0  502 -0.22360708259E+02  0.56263460357E+02 -0.16063125107E+03  0.17171327691E+03  0.41800000000E+01 0.  1.
        -11    1    4    4    0    0  0.28843153754E+02  0.10123330891E+02 -0.93184511742E+02  0.98070192084E+02  0.00000000000E+00 0. -1.
         11    1    4    4    0    0 -0.15177285897E+02 -0.19178562898E+02  0.12041658014E+02  0.27261122680E+02  0.00000000000E+00 0.  1.
</event>
<event>
 8    1  0.7130890E-009  0.2817420E+03  0.7561462E-02  0.1094741E+00
         -2   -1    0    0    0  501 -0.00000000000E+00  0.00000000000E+00  0.62359423149E+03  0.62359423149E+03  0.00000000000E+00 0.  1.
          2   -1    0    0  501    0  0.00000000000E+00 -0.00000000000E+00 -0.13985850285E+03  0.13985850285E+03  0.00000000000E+00 0. -1.
         25    2    1    2    0    0  0.21098599591E+03  0.16997843472E+03  0.19059683527E+03  0.35409444263E+03  0.12509181406E+03 0.  0.
         23    2    1    2    0    0 -0.21098599591E+03 -0.16997843472E+03  0.29313889336E+03  0.40935829171E+03  0.90752638793E+02 0.  0.
          5    1    3    3  502    0  0.93836684132E+02  0.12375098944E+02  0.27121196734E+02  0.98546933362E+02  0.41800000000E+01 0. -1.
         -5    1    3    3    0  502  0.11714931178E+03  0.15760333578E+03  0.16347563854E+03  0.25554750927E+03  0.41800000000E+01 0. -1.
        -11    1    4    4    0    0 -0.86675840798E+02 -0.52801571077E+02  0.52555555023E+02  0.11429257916E+03  0.00000000000E+00 0. -1.
         11    1    4    4    0    0 -0.12431015511E+03 -0.11717686365E+03  0.24058333834E+03  0.29506571256E+03  0.00000000000E+00 0.  1.
</event>
<event>
 8    1  0.7130890E-009  0.6365667E+02  0.7561462E-02  0.1383097E+00
          1   -1    0    0  501    0  0.00000000000E+00  0.00000000000E+00  0.15832262638E+03  0.15832262638E+03  0.00000000000E+00 0. -1.
         -1   -1    0    0    0  501 -0.00000000000E+00 -0.00000000000E+00 -0.13706864289E+03  0.13706864289E+03  0.00000000000E+00 0.  1.
         25    2    1    2    0    0 -0.23911440757E+02  0.20515007023E+02  0.10622365501E+03  0.16710379926E+03  0.12509033668E+03 0.  0.
         23    2    1    2    0    0  0.23911440757E+02 -0.20515007023E+02 -0.84969671521E+02  0.12828747001E+03  0.90803124228E+02 0.  0.
          5    1    3    3  502    0 -0.17182946881E+02  0.14697339139E+02  0.13487119009E+03  0.13681730796E+03  0.41800000000E+01 0.  1.
         -5    1    3    3    0  502 -0.67284938753E+01  0.58176678836E+01 -0.28647535076E+02  0.30286491302E+02  0.41800000000E+01 0.  1.
        -11    1    4    4    0    0  0.37772132853E+02 -0.49557114350E+02 -0.66723604567E+02  0.91294474145E+02  0.00000000000E+00 0.  1.
         11    1    4    4    0    0 -0.13860692096E+02  0.29042107327E+02 -0.18246066954E+02  0.36992995860E+02  0.00000000000E+00 0. -1.
</event>
<event>
 8    1  0.7130890E-009  0.1385194E+03  0.7561462E-02  0.1215335E+00
          1   -1    0    0  501    0  0.00000000000E+00  0.00000000000E+00  0.20794022143E+02  0.20794022143E+02  0.00000000000E+00 0. -1.
         -1   -1    0    0    0  501 -0.00000000000E+00 -0.00000000000E+00 -0.14243048671E+04  0.14243048671E+04  0.00000000000E+00 0.  1.
         25    2    1    2    0    0 -0.12971221496E+03 -0.23489828901E+02 -0.79666160597E+03  0.81712521792E+03  0.12508747565E+03 0.  0.
         23    2    1    2    0    0  0.12971221496E+03  0.23489828901E+02 -0.60684923904E+03  0.62797367138E+03  0.93316141398E+02 0.  0.
          5    1    3    3  502    0 -0.57748533496E+02  0.81573062538E+01 -0.63105999515E+03  0.63376306665E+03  0.41800000000E+01 0. -1.
         -5    1    3    3    0  502 -0.71963681466E+02 -0.31647135155E+02 -0.16560161081E+03  0.18336215127E+03  0.41800000000E+01 0. -1.
        -11    1    4    4    0    0  0.79591340228E+02  0.37234165601E+02 -0.51498098261E+03  0.52242375231E+03  0.00000000000E+00 0.  1.
         11    1    4    4    0    0  0.50120874734E+02 -0.13744336700E+02 -0.91868256433E+02  0.10554991907E+03  0.00000000000E+00 0. -1.
</event>
<event>
 8    1  0.7130890E-009  0.1054324E+03  0.7561462E-02  0.1269270E+00
         -4   -1    0    0    0  501 -0.00000000000E+00  0.00000000000E+00  0.46636115040E+02  0.46636115040E+02  0.00000000000E+00 0.  1.
          4   -1    0    0  501    0  0.00000000000E+00 -0.00000000000E+00 -0.39102192471E+03  0.39102192471E+03  0.00000000000E+00 0. -1.
         25    2    1    2    0    0  0.39895226321E+02 -0.33566017483E+02 -0.28870214732E+03  0.31892848465E+03  0.12509253313E+03 0.  0.
         23    2    1    2    0    0 -0.39895226321E+02  0.33566017483E+02 -0.55683662355E+02  0.11872955510E+03  0.90982033327E+02 0.  0.
          5    1    3    3  502    0  0.34141614389E+02  0.44949939514E+02 -0.11511109196E+03  0.12827385855E+03  0.41800000000E+01 0.  1.
         -5    1    3    3    0  502  0.57536119318E+01 -0.78515956997E+02 -0.17359105536E+03  0.19065462610E+03  0.41800000000E+01 0.  1.
        -11    1    4    4    0    0  0.13476739356E+02  0.26097921989E+01 -0.55352215966E+02  0.57028951694E+02  0.00000000000E+00 0. -1.
         11    1    4    4    0    0 -0.53371965677E+02  0.30956225284E+02 -0.33144638876E+00  0.61700603407E+02  0.00000000000E+00 0.  1.
</event>
<event>
 8    1  0.7130890E-009  0.1536095E+03  0.7561462E-02  0.1196107E+00
          1   -1    0    0  501    0  0.00000000000E+00  0.00000000000E+00  0.10161085471E+03  0.10161085471E+03  0.00000000000E+00 0. -1.
         -1   -1    0    0    0  501 -0.00000000000E+00 -0.00000000000E+00 -0.26563620170E+03  0.26563620170E+03  0.00000000000E+00 0.  1.
         25    2    1    2    0    0  0.77047813384E+01 -0.11752181587E+03 -0.13058130042E+03  0.21580576536E+03  0.12509960624E+03 0.  0.
         23    2    1    2    0    0 -0.77047813384E+01  0.11752181587E+03 -0.33444046569E+02  0.15144129105E+03  0.89135960890E+02 0.  0.
          5    1    3    3  502    0 -0.55162423770E+02 -0.31949871760E+02 -0.63870616072E+02  0.90336123999E+02  0.41800000000E+01 0.  1.
         -5    1    3    3    0  502  0.62867205109E+02 -0.85571944113E+02 -0.66710684346E+02  0.12546964136E+03  0.41800000000E+01 0.  1.
        -11    1    4    4    0    0 -0.39036190974E+02  0.60321119812E+02 -0.45599681684E+02  0.85098723086E+02  0.00000000000E+00 0.  1.
         11    1    4    4    0    0  0.31331409636E+02  0.57200696060E+02  0.12155635115E+02  0.66342567968E+02  0.00000000000E+00 0. -1.
</event>
<event>
 8    1  0.7130890E-009  0.7659134E+02  0.7561462E-02  0.1339013E+00
         -2   -1    0    0    0  501 -0.00000000000E+00  0.00000000000E+00  0.23677087213E+02  0.23677087213E+02  0.00000000000E+00 0. -1.
          2   -1    0    0  501    0  0.00000000000E+00 -0.00000000000E+00 -0.51149104865E+03  0.51149104865E+03  0.00000000000E+00 0.  1.
         25    2    1    2    0    0 -0.25069576606E+01  0.68333562871E+01 -0.24866692192E+03  0.27844942787E+03  0.12508343705E+03 0.  0.
         23    2    1    2    0    0  0.25069576606E+01 -0.68333562871E+01 -0.23914703952E+03  0.25671870800E+03  0.93060243572E+02 0.  0.
          5    1    3    3  502    0 -0.18605657050E+02  0.37681827182E+02 -0.19322495357E+02  0.46442672197E+02  0.41800000000E+01 0.  1.
         -5    1    3    3    0  502  0.16098699389E+02 -0.30848470894E+02 -0.22934442657E+03  0.23200675567E+03  0.41800000000E+01 0.  1.
        -11    1    4    4    0    0 -0.34821755001E+02 -0.14628782483E+02 -0.44483983217E+02  0.58355639497E+02  0.00000000000E+00 0.  1.
         11    1    4    4    0    0  0.37328712662E+02  0.77954261960E+01 -0.19466305630E+03  0.19836306850E+03  0.00000000000E+00 0. -1.
</event>
<event>
 8    1  0.7130890E-009  0.1844428E+03  0.7561462E-02  0.1163571E+00
          1   -1    0    0  501    0  0.00000000000E+00  0.00000000000E+00  0.75967834054E+03  0.75967834054E+03  0.00000000000E+00 0. -1.
         -1   -1    0    0    0  501 -0.00000000000E+00 -0.00000000000E+00 -0.59900430221E+02  0.59900430221E+02  0.00000000000E+00 0.  1.
         25    2    1    2    0    0  0.11508316460E+03 -0.11673773326E+03  0.51801733264E+03  0.55754928273E+03  0.12508961831E+03 0.  0.
         23    2    1    2    0    0 -0.11508316460E+03  0.11673773326E+03  0.18176057768E+03  0.26202948804E+03  0.93545239655E+02 0.  0.
          5    1    3    3  502    0 -0.16932967326E+02  0.58501875496E+01  0.10974276740E+03  0.11127397483E+03  0.41800000000E+01 0.  1.
         -5    1    3    3    0  502  0.13201613193E+03 -0.12258792081E+03  0.40827456524E+03  0.44627530790E+03  0.41800000000E+01 0.  1.
        -11    1    4    4    0    0 -0.55410960674E+02  0.88148272084E+02  0.16271561211E+03  0.19317573051E+03  0.00000000000E+00 0. -1.
         11    1    4    4    0    0 -0.59672203927E+02  0.28589461177E+02  0.19044965565E+02  0.68853757525E+02  0.00000000000E+00 0.  1.
</event>
<event>
 8    1  0.7130890E-009  0.1752350E+03  0.7561462E-02  0.1172496E+00
          2   -1    0    0  501    0  0.00000000000E+00  0.00000000000E+00  0.14197769197E+04  0.14197769197E+04  0.00000000000E+00 0. -1.
         -2   -1    0    0    0  501 -0.00000000000E+00 -0.00000000000E+00 -0.27528010196E+02  0.27528010196E+02  0.00000000000E+00 0.  1.
         25    2    1    2    0    0 -0.67981320329E+02  0.14011711709E+03  0.93686624416E+03  0.95792467559E+03  0.12508820183E+03 0.  0.
         23    2    1    2    0    0  0.67981320329E+02 -0.14011711709E+03  0.45538266535E+03  0.48938025432E+03  0.88687062172E+02 0.  0.
          5    1    3    3  502    0 -0.68779625938E+02  0.36576888001E+02  0.21616567202E+03  0.22981204460E+03  0.41800000000E+01 0.  1.
         -5    1    3    3    0  502  0.79830560908E+00  0.10354022909E+03  0.72070057214E+03  0.72811263099E+03  0.41800000000E+01 0.  1.
        -11    1    4    4    0    0  0.68633116669E+02 -0.67682173324E+02  0.17499360789E+03  0.19978524493E+03  0.00000000000E+00 0.  1.
         11    1    4    4    0    0 -0.65179634075E+00 -0.72434943764E+02  0.28038905746E+03  0.28959500939E+03  0.00000000000E+00 0. -1.
</event>
<event>
 8    1  0.7130890E-009  0.1246101E+03  0.7561462E-02  0.1235680E+00
          1   -1    0    0  501    0  0.00000000000E+00  0.00000000000E+00  0.24631947561E+03  0.24631947561E+03  0.00000000000E+00 0. -1.
         -1   -1    0    0    0  501 -0.00000000000E+00 -0.00000000000E+00 -0.77520043875E+02  0.77520043875E+02  0.00000000000E+00 0.  1.
         25    2    1    2    0    0 -0.23019966028E+02  0.79016701408E+02  0.55533373215E+02  0.15970305161E+03  0.12509017234E+03 0.  0.
         23    2    1    2    0    0  0.23019966028E+02 -0.79016701408E+02  0.11326605852E+03  0.16413646787E+03  0.85662256189E+02 0.  0.
          5    1    3    3  502    0 -0.53155257924E+02  0.55949066944E+01  0.59547816440E+02  0.80126145974E+02  0.41800000000E+01 0. -1.
         -5    1    3    3    0  502  0.30135291897E+02  0.73421794714E+02 -0.40144432255E+01  0.79576905639E+02  0.41800000000E+01 0. -1.
        -11    1    4    4    0    0 -0.13051198900E+01 -0.89596736656E+02  0.71399618667E+02  0.11457392418E+03  0.00000000000E+00 0.  1.
         11    1    4    4    0    0  0.24325085918E+02  0.10580035248E+02  0.41866439856E+02  0.49562543689E+02  0.00000000000E+00 0. -1.
</event>
<event>
 8    1  0.7130890E-009  0.1424487E+03  0.7561462E-02  0.1210072E+00
          1   -1    0    0  501    0  0.00000000000E+00  0.00000000000E+00  0.88009808483E+03  0.88009808483E+03  0.00000000000E+00 0.  1.
         -1   -1    0    0    0  501 -0.00000000000E+00 -0.00000000000E+00 -0.24189746468E+02  0.24189746468E+02  0.00000000000E+00 0. -1.
         25    2    1    2    0    0  0.83852662522E+02 -0.37251837752E+02  0.47036484754E+03  0.49528742335E+03  0.12509026142E+03 0.  0.
         23    2    1    2    0    0 -0.83852662522E+02  0.37251837752E+02  0.38554349082E+03  0.40900040794E+03  0.10108700192E+03 0.  0.
          5    1    3    3  502    0  0.78341963174E+02  0.30808976678E+02  0.21538100473E+03  0.23128576661E+03  0.41800000000E+01 0. -1.
         -5    1    3    3    0  502  0.55106993478E+01 -0.68060814430E+02  0.25498384281E+03  0.26400165674E+03  0.41800000000E+01 0. -1.
        -11    1    4    4    0    0 -0.80349328058E+01  0.53966723947E+02  0.11091722701E+03  0.12361067384E+03  0.00000000000E+00 0.  1.
         11    1    4    4    0    0 -0.75817729716E+02 -0.16714886195E+02  0.27462626381E+03  0.28538973411E+03  0.00000000000E+00 0. -1.
</event>
<event>
 8    1  0.7130890E-009  0.6429886E+02  0.7561462E-02  0.1380628E+00
          2   -1    0    0  501    0  0.00000000000E+00  0.00000000000E+00  0.11263061944E+03  0.11263061944E+03  0.00000000000E+00 0. -1.
         -2   -1    0    0    0  501 -0.00000000000E+00 -0.00000000000E+00 -0.11185443746E+03  0.11185443746E+03  0.00000000000E+00 0.  1.
         25    2    1    2    0    0  0.14502124388E+02 -0.57793935884E+01 -0.31364582777E+02  0.12990287046E+03  0.12508919097E+03 0.  0.
         23    2    1    2    0    0 -0.14502124388E+02  0.57793935884E+01  0.32140764754E+02  0.94582186442E+02  0.87573102212E+02 0.  0.
          5    1    3    3  502    0 -0.36917906836E+01 -0.19628869506E+02  0.45357854152E+02  0.49736597892E+02  0.41800000000E+01 0.  1.
         -5    1    3    3    0  502  0.18193915072E+02  0.13849475918E+02 -0.76722436929E+02  0.80166272566E+02  0.41800000000E+01 0.  1.
        -11    1    4    4    0    0 -0.13438403775E+02 -0.38436999379E+02  0.29485939344E+02  0.50273394915E+02  0.00000000000E+00 0. -1.
         11    1    4    4    0    0 -0.10637206128E+01  0.44216392967E+02  0.26548254097E+01  0.44308791526E+02  0.00000000000E+00 0.  1.
</event>
<event>
 8    1  0.7130890E-009  0.9691950E+02  0.7561462E-02  0.1286910E+00
         -1   -1    0    0    0  501 -0.00000000000E+00  0.00000000000E+00  0.59197613959E+02  0.59197613959E+02  0.00000000000E+00 0.  1.
          1   -1    0    0  501    0  0.00000000000E+00 -0.00000000000E+00 -0.31866482038E+03  0.31866482038E+03  0.00000000000E+00 0. -1.
         25    2    1    2    0    0  0.39507429470E+02  0.80235677812E+02 -0.13409079167E+03  0.20402454578E+03  0.12508826441E+03 0.  0.
         23    2    1    2    0    0 -0.39507429470E+02 -0.80235677812E+02 -0.12537641475E+03  0.17383788856E+03  0.80633523711E+02 0.  0.
          5    1    3    3  502    0  0.36185063347E+01  0.26109644957E+02 -0.13632064611E+03  0.13890859622E+03  0.41800000000E+01 0. -1.
         -5    1    3    3    0  502  0.35888923135E+02  0.54126032855E+02  0.22298544379E+01  0.65115949561E+02  0.41800000000E+01 0. -1.
        -11    1    4    4    0    0  0.87873695367E+01 -0.34346686352E+02 -0.43918204191E+01  0.35723952935E+02  0.00000000000E+00 0.  1.
         11    1    4    4    0    0 -0.48294799006E+02 -0.45888991461E+02 -0.12098459433E+03  0.13811393562E+03  0.00000000000E+00 0. -1.
</event>
<event>
 8    1  0.7130890E-009  0.2681438E+03  0.7561462E-02  0.1102347E+00
          1   -1    0    0  501    0  0.00000000000E+00  0.00000000000E+00  0.31893027657E+03  0.31893027657E+03  0.00000000000E+00 0. -1.
         -1   -1    0    0    0  501 -0.00000000000E+00 -0.00000000000E+00 -0.33227682906E+03  0.33227682906E+03  0.00000000000E+00 0.  1.
         25    2    1    2    0    0 -0.13118259098E+03 -0.21747797990E+03  0.16496599776E+03  0.32766815007E+03  0.12508833774E+03 0.  0.
         23    2    1    2    0    0  0.13118259098E+03  0.21747797990E+03 -0.17831255025E+03  0.32353895556E+03  0.91523473879E+02 0.  0.
          5    1    3    3  502    0 -0.15387248391E+03 -0.19141685621E+03  0.15832113110E+03  0.29223313826E+03  0.41800000000E+01 0.  1.
         -5    1    3    3    0  502  0.22689892931E+02 -0.26061123691E+02  0.66448666604E+01  0.35435011813E+02  0.41800000000E+01 0.  1.
        -11    1    4    4    0    0  0.10151581776E+02  0.49931400929E+01 -0.42164360017E+02  0.43655690536E+02  0.00000000000E+00 0.  1.
         11    1    4    4    0    0  0.12103100920E+03  0.21248483981E+03 -0.13614819023E+03  0.27988326502E+03  0.00000000000E+00 0. -1.
</event>
<event>
 8    1  0.7130890E-009  0.1038937E+03  0.7561462E-02  0.1272315E+00
          1   -1    0    0  501    0  0.00000000000E+00  0.00000000000E+00  0.38251461559E+03  0.38251461559E+03  0.00000000000E+00 0. -1.
         -1   -1    0    0    0  501 -0.00000000000E+00 -0.00000000000E+00 -0.38666525568E+02  0.38666525568E+02  0.00000000000E+00 0.  1.
         25    2    1    2    0    0 -0.19338599774E+02  0.49353992063E+02  0.23711974499E+03  0.27328211118E+03  0.12509013091E+03 0.  0.
         23    2    1    2    0    0  0.19338599774E+02 -0.49353992063E+02  0.10672834504E+03  0.14789902998E+03  0.87597862203E+02 0.  0.
          5    1    3    3  502    0 -0.28198892644E+02  0.74939785344E+02  0.23192961837E+03  0.24539757385E+03  0.41800000000E+01 0. -1.
         -5    1    3    3    0  502  0.88602928707E+01 -0.25585793281E+02  0.51901266187E+01  0.27884537326E+02  0.41800000000E+01 0. -1.
        -11    1    4    4    0    0  0.34224114719E+01  0.24461398942E+02  0.14278402906E+02  0.28529734104E+02  0.00000000000E+00 0.  1.
         11    1    4    4    0    0  0.15916188302E+02 -0.73815391005E+02  0.92449942129E+02  0.11936929588E+03  0.00000000000E+00 0. -1.
</event>
<event>
 8    1  0.7130890E-009  0.4463368E+03  0.7561462E-02  0.1028820E+00
         -2   -1    0    0    0  501 -0.00000000000E+00  0.00000000000E+00  0.16390583824E+03  0.16390583824E+03  0.00000000000E+00 0.  1.
          2   -1    0    0  501    0  0.00000000000E+00 -0.00000000000E+00 -0.13911557488E+04  0.13911557488E+04  0.00000000000E+00 0. -1.
         25    2    1    2    0    0  0.34196439200E+03 -0.28215429176E+03 -0.84675556483E+03  0.96394700103E+03  0.12509254359E+03 0.  0.
         23    2    1    2    0    0 -0.34196439200E+03  0.28215429176E+03 -0.38049434570E+03  0.59111458598E+03  0.89943409397E+02 0.  0.
          5    1    3    3  502    0  0.79136314913E+01 -0.28004975790E+02 -0.16755124099E+02  0.33839486048E+02  0.41800000000E+01 0. -1.
         -5    1    3    3    0  502  0.33405076051E+03 -0.25414931597E+03 -0.83000044074E+03  0.93010751498E+03  0.41800000000E+01 0. -1.
        -11    1    4    4    0    0 -0.22359687081E+03  0.19204711477E+03 -0.30553440378E+03  0.42453377583E+03  0.00000000000E+00 0. -1.
         11    1    4    4    0    0 -0.11836752119E+03  0.90107176991E+02 -0.74959941925E+02  0.16658081015E+03  0.00000000000E+00 0.  1.
</event>
<event>
 8    1  0.7130890E-009  0.1170818E+03  0.7561462E-02  0.1247990E+00
          1   -1    0    0  501    0  0.00000000000E+00  0.00000000000E+00  0.15679621584E+04  0.15679621584E+04  0.00000000000E+00 0. -1.
         -1   -1    0    0    0  501 -0.00000000000E+00 -0.00000000000E+00 -0.16199893425E+02  0.16199893425E+02  0.00000000000E+00 0.  1.
         25    2    1    2    0    0  0.78369786852E+02  0.20068955338E+02  0.12492904962E+04  0.12581408420E+04  0.12508816064E+03 0.  0.
         23    2    1    2    0    0 -0.78369786852E+02 -0.20068955338E+02  0.30247176872E+03  0.32602120978E+03  0.90862929147E+02 0.  0.
          5    1    3    3  502    0  0.10311679650E+03  0.66906229236E+01  0.64998872947E+03  0.65816461390E+03  0.41800000000E+01 0. -1.
         -5    1    3    3    0  502 -0.24747009652E+02  0.13378332414E+02  0.59930176677E+03  0.59997622813E+03  0.41800000000E+01 0. -1.
        -11    1    4    4    0    0 -0.10677330928E+02 -0.31852503437E+02  0.30067246740E+02  0.45084661443E+02  0.00000000000E+00 0.  1.
         11    1    4    4    0    0 -0.67692455925E+02  0.11783548100E+02  0.27240452198E+03  0.28093654834E+03  0.00000000000E+00 0. -1.
</event>
<event>
 8    1  0.7130890E-009  0.1119615E+03  0.7561462E-02  0.1256980E+00
          3   -1    0    0  501    0  0.00000000000E+00  0.00000000000E+00  0.19669482783E+02  0.19669482783E+02  0.00000000000E+00 0. -1.
         -3   -1    0    0    0  501 -0.00000000000E+00 -0.00000000000E+00 -0.75641259509E+03  0.75641259509E+03  0.00000000000E+00 0.  1.
         25    2    1    2    0    0 -0.46870363754E+01 -0.47375194367E+02 -0.51408811426E+03  0.53122578940E+03  0.12509145755E+03 0.  0.
         23    2    1    2    0    0  0.46870363754E+01  0.47375194367E+02 -0.22265499805E+03  0.24485628848E+03  0.90072062800E+02 0.  0.
          5    1    3    3  502    0 -0.82943234165E+01  0.42555412841E+02 -0.15462627250E+03  0.16064406466E+03  0.41800000000E+01 0.  1.
         -5    1    3    3    0  502  0.36072870411E+01 -0.89930607208E+02 -0.35946184176E+03  0.37058172474E+03  0.41800000000E+01 0.  1.
        -11    1    4    4    0    0 -0.34296278979E+02  0.35853242539E+02 -0.63461430536E+02  0.80554595884E+02  0.00000000000E+00 0. -1.
         11    1    4    4    0    0  0.38983315354E+02  0.11521951828E+02 -0.15919356752E+03  0.16430169259E+03  0.00000000000E+00 0.  1.
</event>
<event>
 8    1  0.7130890E-009  0.1063506E+03  0.7561462E-02  0.1267481E+00
         -2   -1    0    0    0  501 -0.00000000000E+00  0.00000000000E+00  0.65996784453E+02  0.65996784453E+02  0.00000000000E+00 0.  1.
          2   -1    0    0  501    0  0.00000000000E+00 -0.00000000000E+00 -0.26217300903E+03  0.26217300903E+03  0.00000000000E+00 0. -1.
         25    2    1    2    0    0 -0.69887745443E+01  0.41446186367E+02 -0.18604267465E+03  0.22809257907E+03  0.12509084101E+03 0.  0.
         23    2    1    2    0    0  0.69887745443E+01 -0.41446186367E+02 -0.10133549931E+02  0.10007721441E+03  0.90255917681E+02 0.  0.
          5    1    3    3  502    0  0.22862245053E+02  0.73230675560E+02 -0.15906311877E+03  0.17664643286E+03  0.41800000000E+01 0.  1.
         -5    1    3    3    0  502 -0.29851019597E+02 -0.31784489193E+02 -0.26979555882E+02  0.51446146210E+02  0.41800000000E+01 0.  1.
        -11    1    4    4    0    0  0.21238395587E+01  0.25176906491E+02 -0.20423867143E+02  0.32488792899E+02  0.00000000000E+00 0.  1.
         11    1    4    4    0    0  0.48649349856E+01 -0.66623092858E+02  0.10290317212E+02  0.67588421514E+02  0.00000000000E+00 0. -1.
</event>
<event>
 8    1  0.7130890E-009  0.1098742E+03  0.7561462E-02  0.1260803E+00
         -2   -1    0    0    0  501 -0.00000000000E+00  0.00000000000E+00  0.14191867874E+02  0.14191867874E+02  0.00000000000E+00 0.  1.
          2   -1    0    0  501    0  0.00000000000E+00 -0.00000000000E+00 -0.13147179242E+04  0.13147179242E+04  0.00000000000E+00 0. -1.
         25    2    1    2    0    0  0.65163255461E+02 -0.38278698344E+02 -0.93720449652E+03  0.94853130370E+03  0.12509139534E+03 0.  0.
         23    2    1    2    0    0 -0.65163255461E+02  0.38278698344E+02 -0.36332155977E+03  0.38037848834E+03  0.83508861742E+02 0.  0.
          5    1    3    3  502    0  0.79525233771E+02 -0.10226087414E+02 -0.87497910991E+03  0.87865508070E+03  0.41800000000E+01 0.  1.
         -5    1    3    3    0  502 -0.14361978309E+02 -0.28052610930E+02 -0.62225386612E+02  0.69876222994E+02  0.41800000000E+01 0.  1.
        -11    1    4    4    0    0 -0.37755273495E+02 -0.20392776945E+02 -0.93213766766E+02  0.10261643310E+03  0.00000000000E+00 0.  1.
         11    1    4    4    0    0 -0.27407981966E+02  0.58671475289E+02 -0.27010779300E+03  0.27776205524E+03  0.00000000000E+00 0. -1.
</event>
<event>
 8    1  0.7130890E-009  0.9708844E+02  0.7561462E-02  0.1286540E+00
          1   -1    0    0  501    0  0.00000000000E+00  0.00000000000E+00  0.33734512438E+03  0.33734512438E+03  0.00000000000E+00 0. -1.
         -1   -1    0    0    0  501 -0.00000000000E+00 -0.00000000000E+00 -0.39999308387E+02  0.39999308387E+02  0.00000000000E+00 0.  1.
         25    2    1    2    0    0  0.33973585531E+02 -0.19748238277E+02  0.20896049762E+03  0.24668880244E+03  0.12508668296E+03 0.  0.
         23    2    1    2    0    0 -0.33973585531E+02  0.19748238277E+02  0.88385318372E+02  0.13065563033E+03  0.87833546000E+02 0.  0.
          5    1    3    3  502    0  0.60772214359E+02  0.13649954428E+02  0.18940774987E+03  0.19943006645E+03  0.41800000000E+01 0. -1.
         -5    1    3    3    0  502 -0.26798628828E+02 -0.33398192704E+02  0.19552747755E+02  0.47258735994E+02  0.41800000000E+01 0. -1.
        -11    1    4    4    0    0 -0.20364654733E+02  0.50850657535E+02  0.77694215374E+02  0.95062609036E+02  0.00000000000E+00 0. -1.
         11    1    4    4    0    0 -0.13608930798E+02 -0.31102419258E+02  0.10691102999E+02  0.35593021289E+02  0.00000000000E+00 0.  1.
</event>
<event>
 8    1  0.7130890E-009  0.7575961E+02  0.7561462E-02  0.1341535E+00
         -2   -1    0    0    0  501 -0.00000000000E+00  0.00000000000E+00  0.17316125205E+02  0.17316125205E+02  0.00000000000E+00 0. -1.
          2   -1    0    0  501    0  0.00000000000E+00 -0.00000000000E+00 -0.68564594988E+03  0.68564594988E+03  0.00000000000E+00 0.  1.
         25    2    1    2    0    0  0.85326309145E+01  0.78705723577E+01 -0.36255323019E+03  0.38370285145E+03  0.12509309252E+03 0.  0.
         23    2    1    2    0    0 -0.85326309145E+01 -0.78705723577E+01 -0.30577659448E+03  0.31925922363E+03  0.91062475458E+02 0.  0.
          5    1    3    3  502    0 -0.25712454485E+02  0.10537921740E+02 -0.34261876296E+03  0.34376920636E+03  0.41800000000E+01 0.  1.
         -5    1    3    3    0  502  0.34245085399E+02 -0.26673493825E+01 -0.19934467225E+02  0.39933645091E+02  0.41800000000E+01 0.  1.
        -11    1    4    4    0    0 -0.10779540837E+02  0.39728131170E+02 -0.18269752894E+03  0.18727762810E+03  0.00000000000E+00 0. -1.
         11    1    4    4    0    0  0.22469099222E+01 -0.47598703528E+02 -0.12307906554E+03  0.13198159552E+03  0.00000000000E+00 0.  1.
</event>
<event>
 8    1  0.7130890E-009  0.1116096E+03  0.7561462E-02  0.1257618E+00
          2   -1    0    0  501    0  0.00000000000E+00  0.00000000000E+00  0.97128041648E+03  0.97128041648E+03  0.00000000000E+00 0. -1.
         -2   -1    0    0    0  501 -0.00000000000E+00 -0.00000000000E+00 -0.14193055187E+02  0.14193055187E+02  0.00000000000E+00 0.  1.
         25    2    1    2    0    0 -0.35419058962E+02 -0.25310754830E+02  0.60335651633E+03  0.61772318480E+03  0.12509077981E+03 0.  0.
         23    2    1    2    0    0  0.35419058962E+02  0.25310754830E+02  0.35373084496E+03  0.36775028686E+03  0.90662113167E+02 0.  0.
          5    1    3    3  502    0  0.42395985777E+02 -0.33330547555E+02  0.24121122185E+03  0.24720168073E+03  0.41800000000E+01 0.  1.
         -5    1    3    3    0  502 -0.77815044739E+02  0.80197927250E+01  0.36214529448E+03  0.37052150407E+03  0.41800000000E+01 0.  1.
        -11    1    4    4    0    0  0.56040791817E+02  0.36934710904E+02  0.31717900959E+03  0.32420250977E+03  0.00000000000E+00 0. -1.
         11    1    4    4    0    0 -0.20621732855E+02 -0.11623956074E+02  0.36551835367E+02  0.43547777089E+02  0.00000000000E+00 0.  1.
</event>
<event>
 8    1  0.7130890E-009  0.1040067E+03  0.7561462E-02  0.1272089E+00
         -1   -1    0    0    0  501 -0.00000000000E+00  0.00000000000E+00  0.93446557880E+03  0.93446557880E+03  0.00000000000E+00 0.  1.
          1   -1    0    0  501    0  0.00000000000E+00 -0.00000000000E+00 -0.19746866752E+02  0.19746866752E+02  0.00000000000E+00 0. -1.
         25    2    1    2    0    0 -0.60121749185E+02  0.33524937189E+01  0.70181149359E+03  0.71541032231E+03  0.12508674104E+03 0.  0.
         23    2    1    2    0    0  0.60121749185E+02 -0.33524937189E+01  0.21290721846E+03  0.23880212325E+03  0.89839336914E+02 0.  0.
          5    1    3    3  502    0  0.48259714846E+01  0.29166928169E+02  0.51571868591E+03  0.51658226363E+03  0.41800000000E+01 0. -1.
         -5    1    3    3    0  502 -0.64947720670E+02 -0.25814434450E+02  0.18609280768E+03  0.19882805868E+03  0.41800000000E+01 0. -1.
        -11    1    4    4    0    0  0.83880825883E+02  0.14876763032E+01  0.16660563290E+03  0.18653590283E+03  0.00000000000E+00 0. -1.
         11    1    4    4    0    0 -0.23759076698E+02 -0.48401700221E+01  0.46301585557E+02  0.52266220415E+02  0.00000000000E+00 0.  1.
</event>
<event>
 8    1  0.7130890E-009  0.1071086E+03  0.7561462E-02  0.1266020E+00
          2   -1    0    0  501    0  0.00000000000E+00  0.00000000000E+00  0.21537006694E+03  0.21537006694E+03  0.00000000000E+00 0. -1.
         -2   -1    0    0    0  501 -0.00000000000E+00 -0.00000000000E+00 -0.93987423032E+02  0.93987423032E+02  0.00000000000E+00 0.  1.
         25    2    1    2    0    0 -0.56253302966E+01 -0.28099557130E+02 -0.29457779373E+02  0.13167761729E+03  0.12509997873E+03 0.  0.
         23    2    1    2    0    0  0.56253302966E+01  0.28099557130E+02  0.15084042328E+03  0.17767987268E+03  0.89420771680E+02 0.  0.
          5    1    3    3  502    0  0.18291471782E+02  0.42087168614E+02  0.10617456727E+02  0.47287529955E+02  0.41800000000E+01 0. -1.
         -5    1    3    3    0  502 -0.23916802079E+02 -0.70186725744E+02 -0.40075236100E+02  0.84390087338E+02  0.41800000000E+01 0. -1.
        -11    1    4    4    0    0  0.45162357634E+02  0.30113338887E+02  0.89471821991E+02  0.10465017275E+03  0.00000000000E+00 0. -1.
         11    1    4    4    0    0 -0.39537027337E+02 -0.20137817568E+01  0.61368601293E+02  0.73029699933E+02  0.00000000000E+00 0.  1.
</event>
<event>
 8    1  0.7130890E-009  0.1275646E+03  0.7561462E-02  0.1231115E+00
          2   -1    0    0  501    0  0.00000000000E+00  0.00000000000E+00  0.49777711494E+03  0.49777711494E+03  0.00000000000E+00 0. -1.
         -2   -1    0    0    0  501 -0.00000000000E+00 -0.00000000000E+00 -0.65851619297E+02  0.65851619297E+02  0.00000000000E+00 0.  1.
         25    2    1    2    0    0 -0.64202019544E+02 -0.96168408509E+02  0.36021216559E+03  0.39846399728E+03  0.12510192157E+03 0.  0.
         23    2    1    2    0    0  0.64202019544E+02  0.96168408509E+02  0.71713330049E+02  0.16516473695E+03  0.93628662905E+02 0.  0.
          5    1    3    3  502    0 -0.51151948933E+02 -0.10565524368E+03  0.36303101172E+03  0.38156066394E+03  0.41800000000E+01 0. -1.
         -5    1    3    3    0  502 -0.13050070612E+02  0.94868351721E+01 -0.28188461268E+01  0.16903333341E+02  0.41800000000E+01 0. -1.
        -11    1    4    4    0    0  0.68629112629E+02  0.86914074352E+02  0.20113145819E+02  0.11255465364E+03  0.00000000000E+00 0.  1.
         11    1    4    4    0    0 -0.44270930847E+01  0.92543341568E+01  0.51600184231E+02  0.52610083316E+02  0.00000000000E+00 0. -1.
</event>
<event>
 8    1  0.7130890E-009  0.1572469E+03  0.7561462E-02  0.1191840E+00
          2   -1    0    0  501    0  0.00000000000E+00  0.00000000000E+00  0.33507358437E+03  0.33507358437E+03  0.00000000000E+00 0. -1.
         -2   -1    0    0    0  501 -0.00000000000E+00 -0.00000000000E+00 -0.10377448361E+03  0.10377448361E+03  0.00000000000E+00 0.  1.
         25    2    1    2    0    0 -0.11574313662E+03 -0.30595372567E+02  0.13335280903E+02  0.17365413283E+03  0.12508148398E+03 0.  0.
         23    2    1    2    0    0  0.11574313662E+03  0.30595372567E+02  0.21796381986E+03  0.26519393514E+03  0.92125164706E+02 0.  0.
          5    1    3    3  502    0 -0.70016757125E+01  0.41608334569E+02  0.22133405440E+00  0.42400452323E+02  0.41800000000E+01 0. -1.
         -5    1    3    3    0  502 -0.10874146091E+03 -0.72203707137E+02  0.13113946848E+02  0.13125368051E+03  0.41800000000E+01 0. -1.
        -11    1    4    4    0    0  0.10581731374E+03 -0.36117539263E+01  0.11535750891E+03  0.15658130002E+03  0.00000000000E+00 0.  1.
         11    1    4    4    0    0  0.99258228855E+01  0.34207126494E+02  0.10260631095E+03  0.10861263513E+03  0.00000000000E+00 0. -1.
</event>
<event>
 8    1  0.7130890E-009  0.1588924E+03  0.7561462E-02  0.1189953E+00
          1   -1    0    0  501    0  0.00000000000E+00  0.00000000000E+00  0.37858660730E+03  0.37858660730E+03  0.00000000000E+00 0. -1.
         -1   -1    0    0    0  501 -0.00000000000E+00 -0.00000000000E+00 -0.96238980023E+02  0.96238980023E+02  0.00000000000E+00 0.  1.
         25    2    1    2    0    0 -0.11732062125E+03  0.13534283828E+02  0.27648499064E+03  0.32563562948E+03  0.12508920068E+03 0.  0.
         23    2    1    2    0    0  0.11732062125E+03 -0.13534283828E+02  0.58626366346E+01  0.14918995784E+03  0.90972347462E+02 0.  0.
          5    1    3    3  502    0 -0.10934753540E+03  0.57740796864E+02  0.22800441406E+03  0.25941158099E+03  0.41800000000E+01 0. -1.
         -5    1    3    3    0  502 -0.79730858538E+01 -0.44206513036E+02  0.48480576588E+02  0.66224048496E+02  0.41800000000E+01 0. -1.
        -11    1    4    4    0    0  0.70670730817E+02 -0.52600030270E+02  0.65362342181E+01  0.88339332895E+02  0.00000000000E+00 0. -1.
         11    1    4    4    0    0  0.46649890437E+02  0.39065746442E+02 -0.67359758347E+00  0.60850624948E+02  0.00000000000E+00 0.  1.
</event>
<event>
 8    1  0.7130890E-009  0.9744406E+02  0.7561462E-02  0.1285764E+00
          1   -1    0    0  501    0  0.00000000000E+00  0.00000000000E+00  0.38525620555E+03  0.38525620555E+03  0.00000000000E+00 0. -1.
         -1   -1    0    0    0  501 -0.00000000000E+00 -0.00000000000E+00 -0.34315992970E+02  0.34315992970E+02  0.00000000000E+00 0.  1.
         25    2    1    2    0    0  0.25671436685E+02  0.15618070982E+02  0.27015625575E+03  0.29922348152E+03  0.12508933835E+03 0.  0.
         23    2    1    2    0    0 -0.25671436685E+02 -0.15618070982E+02  0.80783956829E+02  0.12034871700E+03  0.83992971133E+02 0.  0.
          5    1    3    3  502    0  0.67242202476E+02  0.22054943295E+01  0.82659442326E+02  0.10666036661E+03  0.41800000000E+01 0. -1.
         -5    1    3    3    0  502 -0.41570765791E+02  0.13412576653E+02  0.18749681343E+03  0.19256311492E+03  0.41800000000E+01 0. -1.
        -11    1    4    4    0    0 -0.53691112951E+02 -0.62419742239E+01  0.30601750678E+02  0.62114128801E+02  0.00000000000E+00 0.  1.
         11    1    4    4    0    0  0.28019676266E+02 -0.93760967582E+01  0.50182206152E+02  0.58234588199E+02  0.00000000000E+00 0. -1.
</event>
<event>
 8    1  0.7130890E-009  0.1246061E+03  0.7561462E-02  0.1235686E+00
          2   -1    0    0  501    0  0.00000000000E+00  0.00000000000E+00  0.90335428284E+02  0.90335428284E+02  0.00000000000E+00 0. -1.
         -2   -1    0    0    0  501 -0.00000000000E+00 -0.00000000000E+00 -0.22758891782E+03  0.22758891782E+03  0.00000000000E+00 0.  1.
         25    2    1    2    0    0  0.90355917777E+02 -0.19652560699E+02 -0.92850003811E+02  0.18115866170E+03  0.12508765919E+03 0.  0.
         23    2    1    2    0    0 -0.90355917777E+02  0.19652560699E+02 -0.44403485724E+02  0.13676568440E+03  0.90458652803E+02 0.  0.
          5    1    3    3  502    0  0.86669897730E+02  0.39838195744E+02 -0.62759376465E+02  0.11425832463E+03  0.41800000000E+01 0.  1.
         -5    1    3    3    0  502  0.36860200461E+01 -0.59490756443E+02 -0.30090627346E+02  0.66900337070E+02  0.41800000000E+01 0.  1.
        -11    1    4    4    0    0 -0.58904874325E+02  0.45148837841E+01  0.20944185674E+02  0.62680358234E+02  0.00000000000E+00 0. -1.
         11    1    4    4    0    0 -0.31451043451E+02  0.15137676915E+02 -0.65347671398E+02  0.74085326170E+02  0.00000000000E+00 0.  1.
</event>
<event>
 8    1  0.7130890E-009  0.1690223E+03  0.7561462E-02  0.1178871E+00
          1   -1    0    0  501    0  0.00000000000E+00  0.00000000000E+00  0.27401605548E+02  0.27401605548E+02  0.00000000000E+00 0. -1.
         -1   -1    0    0    0  501 -0.00000000000E+00 -0.00000000000E+00 -0.10711618026E+04  0.10711618026E+04  0.00000000000E+00 0.  1.
         25    2    1    2    0    0 -0.12487988207E+03  0.40767860258E+02 -0.50063438078E+03  0.53248550293E+03  0.12509606002E+03 0.  0.
         23    2    1    2    0    0  0.12487988207E+03 -0.40767860258E+02 -0.54312581631E+03  0.56607790526E+03  0.90562349282E+02 0.  0.
          5    1    3    3  502    0  0.23082019857E+02  0.16187094948E+02 -0.50322153148E+02  0.57832457850E+02  0.41800000000E+01 0.  1.
         -5    1    3    3    0  502 -0.14796190192E+03  0.24580765310E+02 -0.45031222763E+03  0.47465304508E+03  0.41800000000E+01 0.  1.
        -11    1    4    4    0    0  0.62088851564E+02 -0.67089449721E+02 -0.31900748647E+03  0.33184604288E+03  0.00000000000E+00 0. -1.
         11    1    4    4    0    0  0.62791030504E+02  0.26321589463E+02 -0.22411832983E+03  0.23423186237E+03  0.00000000000E+00 0.  1.
</event>
<event>
 8    1  0.7130890E-009  0.1110745E+03  0.7561462E-02  0.1258593E+00
         -3   -1    0    0    0  501 -0.00000000000E+00  0.00000000000E+00  0.50993306667E+02  0.50993306667E+02  0.00000000000E+00 0.  1.
          3   -1    0    0  501    0  0.00000000000E+00 -0.00000000000E+00 -0.34029279998E+03  0.34029279998E+03  0.00000000000E+00 0. -1.
         25    2    1    2    0    0 -0.25840364019E+02  0.17842772454E+02 -0.58509408597E+02  0.14161875438E+03  0.12508569765E+03 0.  0.
         23    2    1    2    0    0  0.25840364019E+02 -0.17842772454E+02 -0.23079008471E+03  0.24966735227E+03  0.89909035391E+02 0.  0.
          5    1    3    3  502    0  0.49911952321E+02  0.17413469079E+02 -0.21764608254E+02  0.57320175003E+02  0.41800000000E+01 0.  1.
         -5    1    3    3    0  502 -0.75752316340E+02  0.42930337485E+00 -0.36744800343E+02  0.84298579375E+02  0.41800000000E+01 0.  1.
        -11    1    4    4    0    0  0.52523180102E+02  0.11315712190E+02 -0.15730096568E+03  0.16622371550E+03  0.00000000000E+00 0. -1.
         11    1    4    4    0    0 -0.26682816083E+02 -0.29158484645E+02 -0.73489119037E+02  0.83443636772E+02  0.00000000000E+00 0.  1.
</event>
<event>
 8    1  0.7130890E-009  0.2684678E+03  0.7561462E-02  0.1102160E+00
          3   -1    0    0  501    0  0.00000000000E+00  0.00000000000E+00  0.77072379271E+03  0.77072379271E+03  0.00000000000E+00 0. -1.
         -3   -1    0    0    0  501 -0.00000000000E+00 -0.00000000000E+00 -0.10892382562E+03  0.10892382562E+03  0.00000000000E+00 0.  1.
         25    2    1    2    0    0 -0.29568331166E+02  0.24945881266E+03  0.19577824671E+03  0.34217037344E+03  0.12508979636E+03 0.  0.
         23    2    1    2    0    0  0.29568331166E+02 -0.24945881266E+03  0.46602172038E+03  0.53747724489E+03  0.92744592772E+02 0.  0.
          5    1    3    3  502    0 -0.69052960061E+02  0.85223557974E+02  0.96770290328E+02  0.14633293415E+03  0.41800000000E+01 0. -1.
         -5    1    3    3    0  502  0.39484628896E+02  0.16423525469E+03  0.99007956380E+02  0.19583743929E+03  0.41800000000E+01 0. -1.
        -11    1    4    4    0    0  0.46348092354E+02 -0.14021146243E+03  0.19363647762E+03  0.24352101619E+03  0.00000000000E+00 0.  1.
         11    1    4    4    0    0 -0.16779761188E+02 -0.10924735023E+03  0.27238524276E+03  0.29395622870E+03  0.00000000000E+00 0. -1.
</event>
<event>
 8    1  0.7130890E-009  0.9176988E+02  0.7561462E-02  0.1298621E+00
          1   -1    0    0  501    0  0.00000000000E+00  0.00000000000E+00  0.61535618118E+02  0.61535618118E+02  0.00000000000E+00 0. -1.
         -1   -1    0    0    0  501 -0.00000000000E+00 -0.00000000000E+00 -0.19665713276E+03  0.19665713276E+03  0.00000000000E+00 0.  1.
         25    2    1    2    0    0 -0.13243094963E+02 -0.89677462909E+01 -0.93980264382E+02  0.15727353417E+03  0.12508746708E+03 0.  0.
         23    2    1    2    0    0  0.13243094963E+02  0.89677462909E+01 -0.41141250263E+02  0.10091921671E+03  0.90753984982E+02 0.  0.
          5    1    3    3  502    0  0.40994413095E+02  0.84532214453E+01  0.56379515991E+01  0.42441227079E+02  0.41800000000E+01 0. -1.
         -5    1    3    3    0  502 -0.54237508057E+02 -0.17420967736E+02 -0.99618215981E+02  0.11483230709E+03  0.41800000000E+01 0. -1.
        -11    1    4    4    0    0 -0.34840247007E+02 -0.24773254468E+01 -0.37669248103E+02  0.51370732967E+02  0.00000000000E+00 0. -1.
         11    1    4    4    0    0  0.48083341970E+02  0.11445071738E+02 -0.34720021595E+01  0.49548483741E+02  0.00000000000E+00 0.  1.
</event>
<event>
 8    1  0.7130890E-009  0.8612181E+02  0.7561462E-02  0.1312525E+00
         -1   -1    0    0    0  501 -0.00000000000E+00  0.00000000000E+00  0.28988240087E+04  0.28988240087E+04  0.00000000000E+00 0.  1.
          1   -1    0    0  501    0  0.00000000000E+00 -0.00000000000E+00 -0.11630298426E+02  0.11630298426E+02  0.00000000000E+00 0. -1.
         25    2    1    2    0    0  0.46943701523E+02 -0.13526257920E+02  0.26334506629E+04  0.26368723538E+04  0.12508695194E+03 0.  0.
         23    2    1    2    0    0 -0.46943701523E+02  0.13526257920E+02  0.25374304740E+03  0.27358195336E+03  0.89860337912E+02 0.  0.
          5    1    3    3  502    0 -0.19745740827E+02  0.23500308644E+01  0.81405210407E+02  0.83902905833E+02  0.41800000000E+01 0.  1.
         -5    1    3    3    0  502  0.66689442349E+02 -0.15876288784E+02  0.25520454525E+04  0.25529694479E+04  0.41800000000E+01 0.  1.
        -11    1    4    4    0    0 -0.10202380797E+02 -0.26807907893E+02  0.23851437363E+02  0.37304739160E+02  0.00000000000E+00 0. -1.
         11    1    4    4    0    0 -0.36741320725E+02  0.40334165813E+02  0.22989161004E+03  0.23627721420E+03  0.00000000000E+00 0.  1.
</event>
<event>
 8    1  0.7130890E-009  0.1256290E+03  0.7561462E-02  0.1234090E+00
          1   -1    0    0  501    0  0.00000000000E+00  0.00000000000E+00  0.17009955999E+02  0.17009955999E+02  0.00000000000E+00 0. -1.
         -1   -1    0    0    0  501 -0.00000000000E+00 -0.00000000000E+00 -0.99099669140E+03  0.99099669140E+03  0.00000000000E+00 0.  1.
         25    2    1    2    0    0 -0.30647147263E+02 -0.56280159911E+02 -0.42310554060E+03  0.44583817103E+03  0.12508665886E+03 0.  0.
         23    2    1    2    0    0  0.30647147263E+02  0.56280159911E+02 -0.55088119480E+03  0.56216847637E+03  0.91959779275E+02 0.  0.
          5    1    3    3  502    0 -0.72936688097E+02 -0.57824859558E+01 -0.25219448614E+03  0.26262659586E+03  0.41800000000E+01 0. -1.
         -5    1    3    3    0  502  0.42289540834E+02 -0.50497673956E+02 -0.17091105446E+03  0.18321157517E+03  0.41800000000E+01 0. -1.
        -11    1    4    4    0    0  0.62458195752E+02  0.24746451046E+02 -0.31808238585E+03  0.32509970354E+03  0.00000000000E+00 0. -1.
         11    1    4    4    0    0 -0.31811048489E+02  0.31533708865E+02 -0.23279880895E+03  0.23706877283E+03  0.00000000000E+00 0.  1.
</event>
<event>
 8    1  0.7130890E-009  0.9985748E+02  0.7561462E-02  0.1280596E+00
          1   -1    0    0  501    0  0.00000000000E+00  0.00000000000E+00  0.17693842459E+03  0.17693842459E+03  0.00000000000E+00 0. -1.
         -1   -1    0    0    0  501 -0.00000000000E+00 -0.00000000000E+00 -0.10107351090E+03  0.10107351090E+03  0.00000000000E+00 0.  1.
         25    2    1    2    0    0 -0.32238745107E+02 -0.44542426656E+02  0.88590800053E+02  0.16284668238E+03  0.12508935865E+03 0.  0.
         23    2    1    2    0    0  0.32238745107E+02  0.44542426656E+02 -0.12725886361E+02  0.11516525311E+03  0.10038786222E+03 0.  0.
          5    1    3    3  502    0  0.40853461712E+02 -0.33389240636E+02  0.82251870312E+01  0.53562793297E+02  0.41800000000E+01 0.  1.
         -5    1    3    3    0  502 -0.73092206819E+02 -0.11153186020E+02  0.80365613022E+02  0.10928388908E+03  0.41800000000E+01 0.  1.
        -11    1    4    4    0    0 -0.94277774567E+01  0.24981938846E+02 -0.49504691310E+02  0.56246730731E+02  0.00000000000E+00 0.  1.
         11    1    4    4    0    0  0.41666522564E+02  0.19560487810E+02  0.36778804949E+02  0.58918522380E+02  0.00000000000E+00 0. -1.
</event>
<event>
 8    1  0.7130890E-009  0.1216431E+03  0.7561462E-02  0.1240411E+00
          3   -1    0    0  501    0  0.00000000000E+00  0.00000000000E+00  0.10067410320E+03  0.10067410320E+03  0.00000000000E+00 0. -1.
         -3   -1    0    0    0  501 -0.00000000000E+00 -0.00000000000E+00 -0.15144439042E+03  0.15144439042E+03  0.00000000000E+00 0.  1.
         25    2    1    2    0    0  0.52224470030E+02  0.67527186293E+01 -0.46493011192E+02  0.14346528430E+03  0.12509073999E+03 0.  0.
         23    2    1    2    0    0 -0.52224470030E+02 -0.67527186293E+01 -0.42772760315E+01  0.10865320932E+03  0.94943300582E+02 0.  0.
          5    1    3    3  502    0  0.70800640264E+02 -0.42335106619E+02 -0.34195850209E+02  0.89396982531E+02  0.41800000000E+01 0.  1.
         -5    1    3    3    0  502 -0.18576170234E+02  0.49087825248E+02 -0.12297160983E+02  0.54068301771E+02  0.41800000000E+01 0.  1.
        -11    1    4    4    0    0 -0.36067675038E+02 -0.50125058827E+02 -0.77602603525E+01  0.62238415354E+02  0.00000000000E+00 0.  1.
         11    1    4    4    0    0 -0.16156794992E+02  0.43372340198E+02  0.34829843210E+01  0.46414793961E+02  0.00000000000E+00 0. -1.
</event>
<event>
 8    1  0.7130890E-009  0.7677882E+02  0.7561462E-02  0.1338449E+00
         -1   -1    0    0    0  501 -0.00000000000E+00  0.00000000000E+00  0.29892763480E+03  0.29892763480E+03  0.00000000000E+00 0.  1.
          1   -1    0    0  501    0  0.00000000000E+00 -0.00000000000E+00 -0.45253770205E+02  0.45253770205E+02  0.00000000000E+00 0. -1.
         25    2    1    2    0    0 -0.78340053214E+01  0.38395493749E+02  0.14390637525E+03  0.19465868468E+03  0.12508946040E+03 0.  0.
         23    2    1    2    0    0  0.78340053214E+01 -0.38395493749E+02  0.10976748934E+03  0.14952272033E+03  0.93661927148E+02 0.  0.
          5    1    3    3  502    0  0.40521927637E+02  0.27787605695E+02  0.13559897469E+03  0.14428697789E+03  0.41800000000E+01 0. -1.
         -5    1    3    3    0  502 -0.48355932958E+02  0.10607888053E+02  0.83074005575E+01  0.50371706793E+02  0.41800000000E+01 0. -1.
        -11    1    4    4    0    0  0.18227122238E+02 -0.40382193135E+01  0.11201261208E+03  0.11355774067E+03  0.00000000000E+00 0.  1.
         11    1    4    4    0    0 -0.10393116917E+02 -0.34357274435E+02 -0.22451227347E+01  0.35964979660E+02  0.00000000000E+00 0. -1.
</event>
<event>
 8    1  0.7130890E-009  0.1254976E+03  0.7561462E-02  0.1234294E+00
         -1   -1    0    0    0  501 -0.00000000000E+00  0.00000000000E+00  0.11633182710E+02  0.11633182710E+02  0.00000000000E+00 0.  1.
          1   -1    0    0  501    0  0.00000000000E+00 -0.00000000000E+00 -0.20546074818E+04  0.20546074818E+04  0.00000000000E+00 0. -1.
         25    2    1    2    0    0  0.12932839409E+02  0.83565540645E+02 -0.15708422135E+04  0.15780815677E+04  0.12508283827E+03 0.  0.
         23    2    1    2    0    0 -0.12932839409E+02 -0.83565540645E+02 -0.47213208551E+03  0.48815909681E+03  0.90775215295E+02 0.  0.
          5    1    3    3  502    0 -0.22632562451E+01 -0.22105225019E+02 -0.72708266430E+02  0.76142811278E+02  0.41800000000E+01 0. -1.
         -5    1    3    3    0  502  0.15196095654E+02  0.10567076566E+03 -0.14981339471E+04  0.15019387564E+04  0.41800000000E+01 0. -1.
        -11    1    4    4    0    0  0.37615281418E+02 -0.32841892361E+02 -0.14752255064E+03  0.15574467001E+03  0.00000000000E+00 0. -1.
         11    1    4    4    0    0 -0.50548120828E+02 -0.50723648284E+02 -0.32460953487E+03  0.33241442680E+03  0.00000000000E+00 0.  1.
</event>
<event>
 8    1  0.7130890E-009  0.1687972E+03  0.7561462E-02  0.1179108E+00
         -2   -1    0    0    0  501 -0.00000000000E+00  0.00000000000E+00  0.10749420960E+03  0.10749420960E+03  0.00000000000E+00 0.  1.
          2   -1    0    0  501    0  0.00000000000E+00 -0.00000000000E+00 -0.28872278391E+03  0.28872278391E+03  0.00000000000E+00 0. -1.
         25    2    1    2    0    0  0.11206356431E+03 -0.75810072584E+02 -0.62838169998E+02  0.19468062401E+03  0.12508597126E+03 0.  0.
         23    2    1    2    0    0 -0.11206356431E+03  0.75810072584E+02 -0.11839040431E+03  0.20153636949E+03  0.91078048093E+02 0.  0.
          5    1    3    3  502    0  0.13156484009E+03 -0.81352682203E+02 -0.32766227254E+02  0.15817289306E+03  0.41800000000E+01 0.  1.
         -5    1    3    3    0  502 -0.19501275785E+02  0.55426096191E+01 -0.30071942745E+02  0.36507730949E+02  0.41800000000E+01 0.  1.
        -11    1    4    4    0    0 -0.12366608412E+03  0.82594807336E+02 -0.11405666979E+03  0.18741431771E+03  0.00000000000E+00 0. -1.
         11    1    4    4    0    0  0.11602519810E+02 -0.67847347521E+01 -0.43337345252E+01  0.14122051782E+02  0.00000000000E+00 0.  1.
</event>
<event>
 8    1  0.7130890E-009  0.1112624E+03  0.7561462E-02  0.1258250E+00
         -1   -1    0    0    0  501 -0.00000000000E+00  0.00000000000E+00  0.39234219156E+03  0.39234219156E+03  0.00000000000E+00 0.  1.
          1   -1    0    0  501    0  0.00000000000E+00 -0.00000000000E+00 -0.38067861514E+02  0.38067861514E+02  0.00000000000E+00 0. -1.
         25    2    1    2    0    0 -0.51073756275E+02 -0.13783966966E+02  0.16824792272E+03  0.21622498358E+03  0.12508938283E+03 0.  0.
         23    2    1    2    0    0  0.51073756275E+02  0.13783966966E+02  0.18602640733E+03  0.21418506950E+03  0.92037456770E+02 0.  0.
          5    1    3    3  502    0  0.30496094249E+02  0.90758118287E+01  0.10672507628E+03  0.11144548637E+03  0.41800000000E+01 0. -1.
         -5    1    3    3    0  502 -0.81569850524E+02 -0.22859778795E+02  0.61522846442E+02  0.10477949721E+03  0.41800000000E+01 0. -1.
        -11    1    4    4    0    0  0.67238775493E+02 -0.18306143140E+02  0.11221291419E+03  0.13209052168E+03  0.00000000000E+00 0.  1.
         11    1    4    4    0    0 -0.16165019218E+02  0.32090110107E+02  0.73813493137E+02  0.82094547822E+02  0.00000000000E+00 0. -1.
</event>
<event>
 8    1  0.7130890E-009  0.1328746E+03  0.7561462E-02  0.1223252E+00
         -1   -1    0    0    0  501 -0.00000000000E+00  0.00000000000E+00  0.42188772515E+02  0.42188772515E+02  0.00000000000E+00 0.  1.
          1   -1    0    0  501    0  0.00000000000E+00 -0.00000000000E+00 -0.50066679947E+03  0.50066679947E+03  0.00000000000E+00 0. -1.
         25    2    1    2    0    0  0.75047046438E+02 -0.40666697089E+02 -0.33436658603E+03  0.36706250123E+03  0.12509207219E+03 0.  0.
         23    2    1    2    0    0 -0.75047046438E+02  0.40666697089E+02 -0.12411144092E+03  0.17579307075E+03  0.90629545545E+02 0.  0.
          5    1    3    3  502    0  0.58795613822E+02 -0.84733497794E+02 -0.24884125566E+03  0.26939957827E+03  0.41800000000E+01 0. -1.
         -5    1    3    3    0  502  0.16251432617E+02  0.44066800705E+02 -0.85525330369E+02  0.97662922960E+02  0.41800000000E+01 0. -1.
        -11    1    4    4    0    0 -0.16005706167E+02 -0.23337980864E+02 -0.57933039291E+01  0.28886092694E+02  0.00000000000E+00 0.  1.
         11    1    4    4    0    0 -0.59041340272E+02  0.64004677953E+02 -0.11831813699E+03  0.14690697806E+03  0.00000000000E+00 0. -1.
</event>
<event>
 8    1  0.7130890E-009  0.5974745E+02  0.7561462E-02  0.1398895E+00
          1   -1    0    0  501    0  0.00000000000E+00  0.00000000000E+00  0.99365120988E+02  0.99365120988E+02  0.00000000000E+00 0. -1.
         -1   -1    0    0    0  501 -0.00000000000E+00 -0.00000000000E+00 -0.14416222954E+03  0.14416222954E+03  0.00000000000E+00 0.  1.
         25    2    1    2    0    0  0.25434345742E+02 -0.83988383242E+01 -0.67779381134E+02  0.14477034088E+03  0.12508781180E+03 0.  0.
         23    2    1    2    0    0 -0.25434345742E+02  0.83988383242E+01  0.22982272583E+02  0.98757009651E+02  0.92235110850E+02 0.  0.
          5    1    3    3  502    0  0.30513644619E+02  0.93171808336E+00 -0.10312338536E+03  0.10762832162E+03  0.41800000000E+01 0. -1.
         -5    1    3    3    0  502 -0.50792988776E+01 -0.93305564076E+01  0.35344004224E+02  0.37142019258E+02  0.41800000000E+01 0. -1.
        -11    1    4    4    0    0  0.16679245319E+02  0.26592496918E+02 -0.18897979299E+02  0.36640029180E+02  0.00000000000E+00 0.  1.
         11    1    4    4    0    0 -0.42113591060E+02 -0.18193658594E+02  0.41880251882E+02  0.62116980470E+02  0.00000000000E+00 0. -1.
</event>
<event>
 8    1  0.7130890E-009  0.9100075E+02  0.7561462E-02  0.1300446E+00
         -1   -1    0    0    0  501 -0.00000000000E+00  0.00000000000E+00  0.50908619085E+02  0.50908619085E+02  0.00000000000E+00 0.  1.
          1   -1    0    0  501    0  0.00000000000E+00 -0.00000000000E+00 -0.29997467977E+03  0.29997467977E+03  0.00000000000E+00 0. -1.
         25    2    1    2    0    0 -0.10741741867E+02 -0.49436169177E+02 -0.17549285187E+03  0.22137062532E+03  0.12509153791E+03 0.  0.
         23    2    1    2    0    0  0.10741741867E+02  0.49436169177E+02 -0.73573208815E+02  0.12951267353E+03  0.93814688132E+02 0.  0.
          5    1    3    3  502    0  0.23553040653E+02 -0.26802995295E+02 -0.17643740822E+03  0.18005770658E+03  0.41800000000E+01 0.  1.
         -5    1    3    3    0  502 -0.34294782520E+02 -0.22633173882E+02  0.94455634789E+00  0.41312918740E+02  0.41800000000E+01 0.  1.
        -11    1    4    4    0    0  0.50754336964E+02  0.37217273505E+02 -0.32292543109E+02  0.70738507959E+02  0.00000000000E+00 0.  1.
         11    1    4    4    0    0 -0.40012595097E+02  0.12218895671E+02 -0.41280665706E+02  0.58774165574E+02  0.00000000000E+00 0. -1.
</event>
<event>
 8    1  0.7130890E-009  0.1127319E+03  0.7561462E-02  0.1255593E+00
         -2   -1    0    0    0  501 -0.00000000000E+00  0.00000000000E+00  0.27998571047E+03  0.27998571047E+03  0.00000000000E+00 0.  1.
          2   -1    0    0  501    0  0.00000000000E+00 -0.00000000000E+00 -0.58548899698E+02  0.58548899698E+02  0.00000000000E+00 0. -1.
         25    2    1    2    0    0 -0.27284299428E+02 -0.41845913270E+02  0.75794956036E+02  0.15455679410E+03  0.12508962303E+03 0.  0.
         23    2    1    2    0    0  0.27284299428E+02  0.41845913270E+02  0.14564185474E+03  0.18397781607E+03  0.10070140765E+03 0.  0.
          5    1    3    3  502    0  0.45263680739E+02 -0.40404274984E+02  0.44822066144E+02  0.75549958600E+02  0.41800000000E+01 0.  1.
         -5    1    3    3    0  502 -0.72547980167E+02 -0.14416382860E+01  0.30972889892E+02  0.79006835499E+02  0.41800000000E+01 0.  1.
        -11    1    4    4    0    0  0.24481929534E+02  0.64576196122E+02  0.14551886323E+03  0.16107510526E+03  0.00000000000E+00 0.  1.
         11    1    4    4    0    0  0.28023698935E+01 -0.22730282852E+02  0.12299150797E+00  0.22902710811E+02  0.00000000000E+00 0. -1.
</event>
<event>
 8    1  0.7130890E-009  0.3303532E+03  0.7561462E-02  0.1070981E+00
         -2   -1    0    0    0  501 -0.00000000000E+00  0.00000000000E+00  0.37368877440E+02  0.37368877440E+02  0.00000000000E+00 0.  1.
          2   -1    0    0  501    0  0.00000000000E+00 -0.00000000000E+00 -0.29896037565E+04  0.29896037565E+04  0.00000000000E+00 0. -1.
         25    2    1    2    0    0  0.20860604876E+03 -0.23547106413E+03 -0.13858995295E+04  0.14266500955E+04  0.12509949469E+03 0.  0.
         23    2    1    2    0    0 -0.20860604876E+03  0.23547106413E+03 -0.15663353496E+04  0.16003225385E+04  0.93073594836E+02 0.  0.
          5    1    3    3  502    0  0.33329315560E+01 -0.69415898376E+02 -0.20206878056E+03  0.21372631999E+03  0.41800000000E+01 0. -1.
         -5    1    3    3    0  502  0.20527311720E+03 -0.16605516575E+03 -0.11838307489E+04  0.12129237755E+04  0.41800000000E+01 0. -1.
        -11    1    4    4    0    0 -0.86764447122E+02  0.16460215791E+03 -0.82744540134E+03  0.84810838451E+03  0.00000000000E+00 0.  1.
         11    1    4    4    0    0 -0.12184160164E+03  0.70868906223E+02 -0.73888994828E+03  0.75221415396E+03  0.00000000000E+00 0. -1.
</event>
<event>
 8    1  0.7130890E-009  0.1640961E+03  0.7561462E-02  0.1184148E+00
         -2   -1    0    0    0  501 -0.00000000000E+00  0.00000000000E+00  0.34249030026E+02  0.34249030026E+02  0.00000000000E+00 0.  1.
          2   -1    0    0  501    0  0.00000000000E+00 -0.00000000000E+00 -0.13587487810E+04  0.13587487810E+04  0.00000000000E+00 0. -1.
         25    2    1    2    0    0 -0.13260067968E+03  0.82275908976E+02 -0.10007607635E+04  0.10205501917E+04  0.12509325504E+03 0.  0.
         23    2    1    2    0    0  0.13260067968E+03 -0.82275908976E+02 -0.32373898743E+03  0.37244761934E+03  0.97765186632E+02 0.  0.
          5    1    3    3  502    0 -0.60279190475E+02  0.21026256561E+02 -0.74535298605E+03  0.74809373109E+03  0.41800000000E+01 0. -1.
         -5    1    3    3    0  502 -0.72321489207E+02  0.61249652416E+02 -0.25540777748E+03  0.27245646059E+03  0.41800000000E+01 0. -1.
        -11    1    4    4    0    0  0.60025966120E+02 -0.52004792608E+00 -0.51549287534E+02  0.79124687069E+02  0.00000000000E+00 0.  1.
         11    1    4    4    0    0  0.72574713563E+02 -0.81755861050E+02 -0.27218969990E+03  0.29332293227E+03  0.00000000000E+00 0. -1.
</event>
<event>
 8    1  0.7130890E-009  0.1115375E+03  0.7561462E-02  0.1257749E+00
         -1   -1    0    0    0  501 -0.00000000000E+00  0.00000000000E+00  0.59517784815E+02  0.59517784815E+02  0.00000000000E+00 0.  1.
          1   -1    0    0  501    0  0.00000000000E+00 -0.00000000000E+00 -0.32953556159E+03  0.32953556159E+03  0.00000000000E+00 0. -1.
         25    2    1    2    0    0 -0.37412777399E+02  0.32210188739E+02 -0.24850337270E+03  0.28255816125E+03  0.12509187054E+03 0.  0.
         23    2    1    2    0    0  0.37412777399E+02 -0.32210188739E+02 -0.21514404077E+02  0.10649518516E+03  0.91875691601E+02 0.  0.
          5    1    3    3  502    0 -0.71200492277E+02 -0.11462649125E+01 -0.20839479794E+03  0.22026504088E+03  0.41800000000E+01 0. -1.
         -5    1    3    3    0  502  0.33787714878E+02  0.33356453652E+02 -0.40108574759E+02  0.62293120375E+02  0.41800000000E+01 0. -1.
        -11    1    4    4    0    0  0.33408605384E+02 -0.63916883416E+02 -0.18076358714E+02  0.74352253790E+02  0.00000000000E+00 0.  1.
         11    1    4    4    0    0  0.40041720148E+01  0.31706694676E+02 -0.34380453629E+01  0.32142931365E+02  0.00000000000E+00 0. -1.
</event>
<event>
 8    1  0.7130890E-009  0.1122763E+03  0.7561462E-02  0.1256412E+00
         -1   -1    0    0    0  501 -0.00000000000E+00  0.00000000000E+00  0.11509759864E+03  0.11509759864E+03  0.00000000000E+00 0.  1.
          1   -1    0    0  501    0  0.00000000000E+00 -0.00000000000E+00 -0.17612055367E+03  0.17612055367E+03  0.00000000000E+00 0. -1.
         25    2    1    2    0    0 -0.37941961028E+02 -0.40289954226E+02  0.35892446898E+02  0.14141504518E+03  0.12508826660E+03 0.  0.
         23    2    1    2    0    0  0.37941961028E+02  0.40289954226E+02 -0.96915401919E+02  0.14980310713E+03  0.99927488506E+02 0.  0.
          5    1    3    3  502    0 -0.62175160562E+02  0.22372493001E+02  0.24614239292E+01  0.66255641584E+02  0.41800000000E+01 0.  1.
         -5    1    3    3    0  502  0.24233199533E+02 -0.62662447227E+02  0.33431022968E+02  0.75159403595E+02  0.41800000000E+01 0.  1.
        -11    1    4    4    0    0  0.58019565853E+02  0.40824596225E+02 -0.10616823600E+03  0.12768951411E+03  0.00000000000E+00 0. -1.
         11    1    4    4    0    0 -0.20077604824E+02 -0.53464199964E+00  0.92528340845E+01  0.22113593018E+02  0.00000000000E+00 0.  1.
</event>
<event>
 8    1  0.7130890E-009  0.1308688E+03  0.7561462E-02  0.1226172E+00
          2   -1    0    0  501    0  0.00000000000E+00  0.00000000000E+00  0.54488988477E+03  0.54488988477E+03  0.00000000000E+00 0.  1.
         -2   -1    0    0    0  501 -0.00000000000E+00 -0.00000000000E+00 -0.45091128381E+02  0.45091128381E+02  0.00000000000E+00 0. -1.
         25    2    1    2    0    0 -0.34520712135E+02  0.72716293155E+02  0.11903579919E+03  0.19051767145E+03  0.12509245697E+03 0.  0.
         23    2    1    2    0    0  0.34520712135E+02 -0.72716293155E+02  0.38076295720E+03  0.39946334170E+03  0.90062161487E+02 0.  0.
          5    1    3    3  502    0  0.37447533779E+02  0.66439118498E+02  0.62253417557E+02  0.98536463558E+02  0.41800000000E+01 0.  1.
         -5    1    3    3    0  502 -0.71968245913E+02  0.62771746568E+01  0.56782381637E+02  0.91981207896E+02  0.41800000000E+01 0.  1.
        -11    1    4    4    0    0  0.28541870253E+02  0.98641765791E+01  0.49281725696E+02  0.57798173195E+02  0.00000000000E+00 0. -1.
         11    1    4    4    0    0  0.59788418821E+01 -0.82580469734E+02  0.33148123150E+03  0.34166516850E+03  0.00000000000E+00 0.  1.
</event>
<event>
 8    1  0.7130890E-009  0.9839015E+02  0.7561462E-02  0.1283718E+00
         -1   -1    0    0    0  501 -0.00000000000E+00  0.00000000000E+00  0.11694234761E+03  0.11694234761E+03  0.00000000000E+00 0.  1.
          1   -1    0    0  501    0  0.00000000000E+00 -0.00000000000E+00 -0.12863812201E+03  0.12863812201E+03  0.00000000000E+00 0. -1.
         25    2    1    2    0    0  0.48315810563E+02  0.31551377508E+02  0.21676779477E+01  0.13777763641E+03  0.12509225113E+03 0.  0.
         23    2    1    2    0    0 -0.48315810563E+02 -0.31551377508E+02 -0.13863452353E+02  0.10780283321E+03  0.89996380839E+02 0.  0.
          5    1    3    3  502    0  0.58632616144E+02  0.20346011191E+01 -0.49744628398E+02  0.77031965651E+02  0.41800000000E+01 0.  1.
         -5    1    3    3    0  502 -0.10316805582E+02  0.29516776389E+02  0.51912306345E+02  0.60745670758E+02  0.41800000000E+01 0.  1.
        -11    1    4    4    0    0  0.25876853772E+02 -0.21235147900E+00  0.10262940151E+01  0.25898068146E+02  0.00000000000E+00 0.  1.
         11    1    4    4    0    0 -0.74192664335E+02 -0.31339026029E+02 -0.14889746368E+02  0.81904765065E+02  0.00000000000E+00 0. -1.
</event>
<event>
 8    1  0.7130890E-009  0.1474215E+03  0.7561462E-02  0.1203678E+00
          2   -1    0    0  501    0  0.00000000000E+00  0.00000000000E+00  0.41292105625E+03  0.41292105625E+03  0.00000000000E+00 0. -1.
         -2   -1    0    0    0  501 -0.00000000000E+00 -0.00000000000E+00 -0.64062722192E+02  0.64062722192E+02  0.00000000000E+00 0.  1.
         25    2    1    2    0    0 -0.11916639562E+03  0.16464643632E+01  0.21367369527E+03  0.27478553326E+03  0.12508917039E+03 0.  0.
         23    2    1    2    0    0  0.11916639562E+03 -0.16464643632E+01  0.13518463879E+03  0.20219824518E+03  0.91683712299E+02 0.  0.
          5    1    3    3  502    0 -0.36085169587E+02  0.58593252321E+02  0.62329141405E+02  0.92939243326E+02  0.41800000000E+01 0.  1.
         -5    1    3    3    0  502 -0.83081226033E+02 -0.56946787958E+02  0.15134455386E+03  0.18184628993E+03  0.41800000000E+01 0.  1.
        -11    1    4    4    0    0  0.75479832126E+02  0.17358306688E+02  0.13372513995E+03  0.15453455576E+03  0.00000000000E+00 0. -1.
         11    1    4    4    0    0  0.43686563494E+02 -0.19004771051E+02  0.14594988370E+01  0.47663689424E+02  0.00000000000E+00 0.  1.
</event>
<event>
 8    1  0.7130890E-009  0.1016603E+03  0.7561462E-02  0.1276843E+00
         -2   -1    0    0    0  501 -0.00000000000E+00  0.00000000000E+00  0.84292688854E+02  0.84292688854E+02  0.00000000000E+00 0.  1.
          2   -1    0    0  501    0  0.00000000000E+00 -0.00000000000E+00 -0.20298668665E+03  0.20298668665E+03  0.00000000000E+00 0. -1.
         25    2    1    2    0    0 -0.68651900189E+02  0.16963176658E+02 -0.45127444610E+02  0.15061381729E+03  0.12508878023E+03 0.  0.
         23    2    1    2    0    0  0.68651900189E+02 -0.16963176658E+02 -0.73566553189E+02  0.13666555822E+03  0.90909869063E+02 0.  0.
          5    1    3    3  502    0 -0.23925588477E+01 -0.41000529723E+02  0.15000165886E+02  0.43923173292E+02  0.41800000000E+01 0. -1.
         -5    1    3    3    0  502 -0.66259341341E+02  0.57963706381E+02 -0.60127610496E+02  0.10669064400E+03  0.41800000000E+01 0. -1.
        -11    1    4    4    0    0  0.54255338662E+02 -0.22149018321E+02 -0.94222012563E+02  0.11095949007E+03  0.00000000000E+00 0. -1.
         11    1    4    4    0    0  0.14396561527E+02  0.51858416631E+01  0.20655459374E+02  0.25706068145E+02  0.00000000000E+00 0.  1.
</event>
<event>
 8    1  0.7130890E-009  0.8680078E+02  0.7561462E-02  0.1310789E+00
          2   -1    0    0  501    0  0.00000000000E+00  0.00000000000E+00  0.96396034730E+02  0.96396034730E+02  0.00000000000E+00 0.  1.
         -2   -1    0    0    0  501 -0.00000000000E+00 -0.00000000000E+00 -0.16394671245E+03  0.16394671245E+03  0.00000000000E+00 0. -1.
         25    2    1    2    0    0  0.57093058619E+02  0.28118910887E+02 -0.43709168974E+02  0.14699667015E+03  0.12508892473E+03 0.  0.
         23    2    1    2    0    0 -0.57093058619E+02 -0.28118910887E+02 -0.23841508746E+02  0.11334607703E+03  0.90711769617E+02 0.  0.
          5    1    3    3  502    0  0.14712101155E+02  0.43122161256E+02  0.34080930090E+02  0.57052159535E+02  0.41800000000E+01 0.  1.
         -5    1    3    3    0  502  0.42380957464E+02 -0.15003250368E+02 -0.77790099064E+02  0.89944510614E+02  0.41800000000E+01 0.  1.
        -11    1    4    4    0    0 -0.12578820846E+02  0.15777430192E+02  0.26339648541E+02  0.33180282135E+02  0.00000000000E+00 0.  1.
         11    1    4    4    0    0 -0.44514237773E+02 -0.43896341079E+02 -0.50181157286E+02  0.80165794896E+02  0.00000000000E+00 0. -1.
</event>
<event>
 8    1  0.7130890E-009  0.7468953E+02  0.7561462E-02  0.1344835E+00
          1   -1    0    0  501    0  0.00000000000E+00  0.00000000000E+00  0.30110276850E+03  0.30110276850E+03  0.00000000000E+00 0. -1.
         -1   -1    0    0    0  501 -0.00000000000E+00 -0.00000000000E+00 -0.40392469944E+02  0.40392469944E+02  0.00000000000E+00 0.  1.
         25    2    1    2    0    0 -0.16436656424E+02 -0.82651611363E+01  0.14897467626E+03  0.19539545591E+03  0.12508978160E+03 0.  0.
         23    2    1    2    0    0  0.16436656424E+02  0.82651611363E+01  0.11173562230E+03  0.14609978253E+03  0.92313707557E+02 0.  0.
          5    1    3    3  502    0  0.10159050790E+02 -0.30078241295E+02  0.15666364729E+03  0.15990271322E+03  0.41800000000E+01 0. -1.
         -5    1    3    3    0  502 -0.26595707215E+02  0.21813080159E+02 -0.76889710322E+01  0.35492742692E+02  0.41800000000E+01 0. -1.
        -11    1    4    4    0    0 -0.32877774469E+02  0.12971517205E+01  0.81364448845E+02  0.87765620789E+02  0.00000000000E+00 0. -1.
         11    1    4    4    0    0  0.49314430893E+02  0.69680094158E+01  0.30371173455E+02  0.58334161746E+02  0.00000000000E+00 0.  1.
</event>
<event>
 8    1  0.7130890E-009  0.1430399E+03  0.7561462E-02  0.1209296E+00
         -4   -1    0    0    0  501 -0.00000000000E+00  0.00000000000E+00  0.15110503751E+03  0.15110503751E+03  0.00000000000E+00 0.  1.
          4   -1    0    0  501    0  0.00000000000E+00 -0.00000000000E+00 -0.14426463708E+03  0.14426463708E+03  0.00000000000E+00 0. -1.
         25    2    1    2    0    0  0.95723200761E+02 -0.28673852124E+02  0.36052318612E+01  0.16014311810E+03  0.12509076552E+03 0.  0.
         23    2    1    2    0    0 -0.95723200761E+02  0.28673852124E+02  0.32351685646E+01  0.13522655649E+03  0.91052920359E+02 0.  0.
          5    1    3    3  502    0  0.54073531609E+02  0.44795461641E+02 -0.18519429678E+02  0.72739410775E+02  0.41800000000E+01 0.  1.
         -5    1    3    3    0  502  0.41649669152E+02 -0.73469313765E+02  0.22124661540E+02  0.87403707323E+02  0.41800000000E+01 0.  1.
        -11    1    4    4    0    0 -0.82497109479E+02  0.56758944366E+02 -0.11625771719E+02  0.10080927242E+03  0.00000000000E+00 0.  1.
         11    1    4    4    0    0 -0.13226091282E+02 -0.28085092242E+02  0.14860940284E+02  0.34417284072E+02  0.00000000000E+00 0. -1.
</event>
<event>
 8    1  0.7130890E-009  0.9872171E+02  0.7561462E-02  0.1283007E+00
          2   -1    0    0  501    0  0.00000000000E+00  0.00000000000E+00  0.59739898943E+03  0.59739898943E+03  0.00000000000E+00 0. -1.
         -2   -1    0    0    0  501 -0.00000000000E+00 -0.00000000000E+00 -0.25481977559E+02  0.25481977559E+02  0.00000000000E+00 0.  1.
         25    2    1    2    0    0  0.11597789534E+02  0.27522454708E+02  0.45125426004E+03  0.46922219013E+03  0.12508821797E+03 0.  0.
         23    2    1    2    0    0 -0.11597789534E+02 -0.27522454708E+02  0.12066275183E+03  0.15365877685E+03  0.90330093489E+02 0.  0.
          5    1    3    3  502    0  0.22665187923E+02  0.61923804479E+02  0.40510747668E+03  0.41046048332E+03  0.41800000000E+01 0. -1.
         -5    1    3    3    0  502 -0.11067398389E+02 -0.34401349771E+02  0.46146783354E+02  0.58761706809E+02  0.41800000000E+01 0. -1.
        -11    1    4    4    0    0  0.35195538010E+02  0.81789977114E+01  0.50111198087E+02  0.61779884049E+02  0.00000000000E+00 0. -1.
         11    1    4    4    0    0 -0.46793327544E+02 -0.35701452419E+02  0.70551553743E+02  0.91878892804E+02  0.00000000000E+00 0.  1.
</event>
<event>
 8    1  0.7130890E-009  0.7946522E+02  0.7561462E-02  0.1330576E+00
         -1   -1    0    0    0  501 -0.00000000000E+00  0.00000000000E+00  0.33828873414E+03  0.33828873414E+03  0.00000000000E+00 0.  1.
          1   -1    0    0  501    0  0.00000000000E+00 -0.00000000000E+00 -0.67819973662E+02  0.67819973662E+02  0.00000000000E+00 0. -1.
         25    2    1    2    0    0 -0.69161576346E+02 -0.26154342715E+02  0.24564195039E+03  0.28539988648E+03  0.12508298896E+03 0.  0.
         23    2    1    2    0    0  0.69161576346E+02  0.26154342715E+02  0.24826810093E+02  0.12070882132E+03  0.92124240894E+02 0.  0.
          5    1    3    3  502    0 -0.54382384489E+02 -0.25444120017E+02  0.25846452221E+03  0.26537940506E+03  0.41800000000E+01 0. -1.
         -5    1    3    3    0  502 -0.14779191857E+02 -0.71022269862E+00 -0.12822571825E+02  0.20020481424E+02  0.41800000000E+01 0. -1.
        -11    1    4    4    0    0  0.60982377536E+02  0.55898881924E+01  0.55661142919E+02  0.82754214702E+02  0.00000000000E+00 0.  1.
         11    1    4    4    0    0  0.81791988105E+01  0.20564454523E+02 -0.30834332825E+02  0.37954606621E+02  0.00000000000E+00 0. -1.
</event>
<event>
 8    1  0.7130890E-009  0.1099201E+03  0.7561462E-02  0.1260718E+00
         -1   -1    0    0    0  501 -0.00000000000E+00  0.00000000000E+00  0.96119555109E+02  0.96119555109E+02  0.00000000000E+00 0.  1.
          1   -1    0    0  501    0  0.00000000000E+00 -0.00000000000E+00 -0.20061623200E+03  0.20061623200E+03  0.00000000000E+00 0. -1.
         25    2    1    2    0    0 -0.11053580601E+02  0.86466476555E+02 -0.57836000441E+02  0.16306657512E+03  0.12508825589E+03 0.  0.
         23    2    1    2    0    0  0.11053580601E+02 -0.86466476555E+02 -0.46660676454E+02  0.13366921199E+03  0.89953356223E+02 0.  0.
          5    1    3    3  502    0 -0.43730066398E+02  0.64286244286E+01  0.18080754009E+02  0.47937792865E+02  0.41800000000E+01 0.  1.
         -5    1    3    3    0  502  0.32676485797E+02  0.80037852127E+02 -0.75916754451E+02  0.11512878225E+03  0.41800000000E+01 0.  1.
        -11    1    4    4    0    0  0.24723501696E+01 -0.72200436268E+02  0.11518241384E+02  0.73155214422E+02  0.00000000000E+00 0.  1.
         11    1    4    4    0    0  0.85812304314E+01 -0.14266040288E+02 -0.58178917838E+02  0.60513997571E+02  0.00000000000E+00 0. -1.
</event>
<event>
 8    1  0.7130890E-009  0.1705951E+03  0.7561462E-02  0.1177229E+00
          1   -1    0    0  501    0  0.00000000000E+00  0.00000000000E+00  0.12242208681E+03  0.12242208681E+03  0.00000000000E+00 0. -1.
         -1   -1    0    0    0  501 -0.00000000000E+00 -0.00000000000E+00 -0.26929672552E+03  0.26929672552E+03  0.00000000000E+00 0.  1.
         25    2    1    2    0    0 -0.11052803327E+03 -0.87203348320E+02 -0.38499807754E+02  0.19222551809E+03  0.12509014555E+03 0.  0.
         23    2    1    2    0    0  0.11052803327E+03  0.87203348320E+02 -0.10837483096E+03  0.19949329424E+03  0.90728167426E+02 0.  0.
          5    1    3    3  502    0  0.17993301416E+02  0.59012560979E+01  0.15192967980E+02  0.24634983163E+02  0.41800000000E+01 0.  1.
         -5    1    3    3    0  502 -0.12852133468E+03 -0.93104604417E+02 -0.53692775734E+02  0.16759053493E+03  0.41800000000E+01 0.  1.
        -11    1    4    4    0    0  0.68551206392E+02  0.98095327894E+02 -0.57893520129E+02  0.13294217136E+03  0.00000000000E+00 0.  1.
         11    1    4    4    0    0  0.41976826873E+02 -0.10891979575E+02 -0.50481310827E+02  0.66551122877E+02  0.00000000000E+00 0. -1.
</event>
<event>
 8    1  0.7130890E-009  0.1026426E+03  0.7561462E-02  0.1274835E+00
         -2   -1    0    0    0  501 -0.00000000000E+00  0.00000000000E+00  0.43815251720E+02  0.43815251720E+02  0.00000000000E+00 0.  1.
          2   -1    0    0  501    0  0.00000000000E+00 -0.00000000000E+00 -0.53785225810E+03  0.53785225810E+03  0.00000000000E+00 0. -1.
         25    2    1    2    0    0 -0.26123596476E+02 -0.41567555148E+02 -0.45333597320E+03  0.47283300246E+03  0.12508892707E+03 0.  0.
         23    2    1    2    0    0  0.26123596476E+02  0.41567555148E+02 -0.40701033174E+02  0.10883450736E+03  0.88193378195E+02 0.  0.
          5    1    3    3  502    0  0.38697230433E+02 -0.19972454722E+01 -0.55656862203E+02  0.67945738225E+02  0.41800000000E+01 0. -1.
         -5    1    3    3    0  502 -0.64820826909E+02 -0.39570309676E+02 -0.39767911100E+03  0.40488726423E+03  0.41800000000E+01 0. -1.
        -11    1    4    4    0    0  0.12289055685E+02 -0.21998473025E+02  0.92215955580E+01  0.26832657895E+02  0.00000000000E+00 0.  1.
         11    1    4    4    0    0  0.13834540791E+02  0.63566028173E+02 -0.49922628732E+02  0.82001849468E+02  0.00000000000E+00 0. -1.
</event>
<event>
 8    1  0.7130890E-009  0.1256064E+03  0.7561462E-02  0.1234125E+00
         -2   -1    0    0    0  501 -0.00000000000E+00  0.00000000000E+00  0.32789899432E+03  0.32789899432E+03  0.00000000000E+00 0.  1.
          2   -1    0    0  501    0  0.00000000000E+00 -0.00000000000E+00 -0.62301486784E+02  0.62301486784E+02  0.00000000000E+00 0. -1.
         25    2    1    2    0    0 -0.20436166908E+02  0.89949217368E+02  0.14623801315E+03  0.21339436095E+03  0.12507237174E+03 0.  0.
         23    2    1    2    0    0  0.20436166908E+02 -0.89949217368E+02  0.11935949438E+03  0.17680612015E+03  0.92223731225E+02 0.  0.
          5    1    3    3  502    0  0.84734988997E+01  0.11352703386E+03  0.87326935702E+02  0.14353972865E+03  0.41800000000E+01 0.  1.
         -5    1    3    3    0  502 -0.28909665808E+02 -0.23577816496E+02  0.58911077450E+02  0.69854632302E+02  0.41800000000E+01 0.  1.
        -11    1    4    4    0    0 -0.94347330162E+00 -0.71525854614E+02  0.21107802921E+02  0.74581347295E+02  0.00000000000E+00 0. -1.
         11    1    4    4    0    0  0.21379640210E+02 -0.18423362754E+02  0.98251691463E+02  0.10222477286E+03  0.00000000000E+00 0.  1.
</event>
<event>
 8    1  0.7130890E-009  0.2300486E+03  0.7561462E-02  0.1126606E+00
          2   -1    0    0  501    0  0.00000000000E+00  0.00000000000E+00  0.31911034271E+03  0.31911034271E+03  0.00000000000E+00 0. -1.
         -2   -1    0    0    0  501 -0.00000000000E+00 -0.00000000000E+00 -0.17503715948E+03  0.17503715948E+03  0.00000000000E+00 0.  1.
         25    2    1    2    0    0 -0.20376473114E+03  0.40931286359E+02  0.41383439462E+02  0.24608003211E+03  0.12508939716E+03 0.  0.
         23    2    1    2    0    0  0.20376473114E+03 -0.40931286359E+02  0.10268974377E+03  0.24806747009E+03  0.88299775669E+02 0.  0.
          5    1    3    3  502    0 -0.94273018255E+02  0.82537930235E+02  0.21791723091E+02  0.12724882512E+03  0.41800000000E+01 0.  1.
         -5    1    3    3    0  502 -0.10949171288E+03 -0.41606643877E+02  0.19591716371E+02  0.11883120699E+03  0.41800000000E+01 0.  1.
        -11    1    4    4    0    0  0.91269170929E+02  0.13993092043E+02  0.77097135333E+02  0.12029063332E+03  0.00000000000E+00 0. -1.
         11    1    4    4    0    0  0.11249556021E+03 -0.54924378402E+02  0.25592608434E+02  0.12777683677E+03  0.00000000000E+00 0.  1.
</event>
<event>
 8    1  0.7130890E-009  0.1527410E+03  0.7561462E-02  0.1197145E+00
         -1   -1    0    0    0  501 -0.00000000000E+00  0.00000000000E+00  0.84890888316E+03  0.84890888316E+03  0.00000000000E+00 0.  1.
          1   -1    0    0  501    0  0.00000000000E+00 -0.00000000000E+00 -0.35127381602E+02  0.35127381602E+02  0.00000000000E+00 0. -1.
         25    2    1    2    0    0  0.13448296648E+03 -0.94364672999E+01  0.38720611800E+03  0.42866116145E+03  0.12508836209E+03 0.  0.
         23    2    1    2    0    0 -0.13448296648E+03  0.94364672999E+01  0.42657538356E+03  0.45537510331E+03  0.85001245094E+02 0.  0.
          5    1    3    3  502    0  0.13281879244E+03 -0.28207619114E+02  0.20808004358E+03  0.24849804493E+03  0.41800000000E+01 0. -1.
         -5    1    3    3    0  502  0.16641740488E+01  0.18771151814E+02  0.17912607442E+03  0.18016311652E+03  0.41800000000E+01 0. -1.
        -11    1    4    4    0    0 -0.82836726742E+02  0.38197348768E+02  0.17977354377E+03  0.20159238029E+03  0.00000000000E+00 0.  1.
         11    1    4    4    0    0 -0.51646239743E+02 -0.28760881468E+02  0.24680183979E+03  0.25378272302E+03  0.00000000000E+00 0. -1.
</event>
<event>
 8    1  0.7130890E-009  0.1061821E+03  0.7561462E-02  0.1267808E+00
          1   -1    0    0  501    0  0.00000000000E+00  0.00000000000E+00  0.90191970696E+03  0.90191970696E+03  0.00000000000E+00 0. -1.
         -1   -1    0    0    0  501 -0.00000000000E+00 -0.00000000000E+00 -0.18814428320E+02  0.18814428320E+02  0.00000000000E+00 0.  1.
         25    2    1    2    0    0  0.69192931477E+02 -0.12711447348E+01  0.41563683450E+03  0.43953366307E+03  0.12508631100E+03 0.  0.
         23    2    1    2    0    0 -0.69192931477E+02  0.12711447348E+01  0.46746844414E+03  0.48120047221E+03  0.90762716009E+02 0.  0.
          5    1    3    3  502    0  0.16147708833E+02 -0.39942761749E+02  0.32317774433E+03  0.32606364340E+03  0.41800000000E+01 0. -1.
         -5    1    3    3    0  502  0.53045222644E+02  0.38671617014E+02  0.92459090169E+02  0.11347001966E+03  0.41800000000E+01 0. -1.
        -11    1    4    4    0    0 -0.78588930611E+02  0.21087955258E+02  0.43125078583E+03  0.43886007127E+03  0.00000000000E+00 0. -1.
         11    1    4    4    0    0  0.93959991341E+01 -0.19816810523E+02  0.36217658303E+02  0.42340400943E+02  0.00000000000E+00 0.  1.
</event>
<event>
 8    1  0.7130890E-009  0.1276006E+03  0.7561462E-02  0.1231060E+00
          2   -1    0    0  501    0  0.00000000000E+00  0.00000000000E+00  0.14207758362E+03  0.14207758362E+03  0.00000000000E+00 0. -1.
         -2   -1    0    0    0  501 -0.00000000000E+00 -0.00000000000E+00 -0.15282131780E+03  0.15282131780E+03  0.00000000000E+00 0.  1.
         25    2    1    2    0    0  0.83202848652E+02  0.41310203172E+01  0.48532644439E+02  0.15793294383E+03  0.12509043855E+03 0.  0.
         23    2    1    2    0    0 -0.83202848652E+02 -0.41310203172E+01 -0.59276378626E+02  0.13696595759E+03  0.91138384468E+02 0.  0.
          5    1    3    3  502    0  0.99026527438E+02 -0.28008166733E+02  0.74500201284E+01  0.10326512354E+03  0.41800000000E+01 0. -1.
         -5    1    3    3    0  502 -0.15823678787E+02  0.32139187050E+02  0.41082624311E+02  0.54667820286E+02  0.41800000000E+01 0. -1.
        -11    1    4    4    0    0 -0.26766037018E+02  0.37454463145E+02 -0.47011837371E+02  0.65797951337E+02  0.00000000000E+00 0.  1.
         11    1    4    4    0    0 -0.56436811633E+02 -0.41585483462E+02 -0.12264541255E+02  0.71168006255E+02  0.00000000000E+00 0. -1.
</event>
<event>
 8    1  0.7130890E-009  0.1644170E+03  0.7561462E-02  0.1183798E+00
         -2   -1    0    0    0  501 -0.00000000000E+00  0.00000000000E+00  0.33229928703E+03  0.33229928703E+03  0.00000000000E+00 0.  1.
          2   -1    0    0  501    0  0.00000000000E+00 -0.00000000000E+00 -0.87844263980E+02  0.87844263980E+02  0.00000000000E+00 0. -1.
         25    2    1    2    0    0 -0.10366520141E+03  0.80309635528E+02  0.13138372382E+03  0.22384265023E+03  0.12509091749E+03 0.  0.
         23    2    1    2    0    0  0.10366520141E+03 -0.80309635528E+02  0.11307129923E+03  0.19630090077E+03  0.92481421887E+02 0.  0.
          5    1    3    3  502    0 -0.78100438991E+02 -0.10952551396E+02  0.28661658300E+02  0.84015474820E+02  0.41800000000E+01 0.  1.
         -5    1    3    3    0  502 -0.25564762415E+02  0.91262186924E+02  0.10272206552E+03  0.13982717541E+03  0.41800000000E+01 0.  1.
        -11    1    4    4    0    0  0.39186629615E+02  0.13249203624E+02  0.92518094704E+01  0.42387843961E+02  0.00000000000E+00 0. -1.
         11    1    4    4    0    0  0.64478571792E+02 -0.93558839152E+02  0.10381948976E+03  0.15391305681E+03  0.00000000000E+00 0.  1.
</event>
<event>
 8    1  0.7130890E-009  0.1025198E+03  0.7561462E-02  0.1275085E+00
         -2   -1    0    0    0  501 -0.00000000000E+00  0.00000000000E+00  0.46517378777E+02  0.46517378777E+02  0.00000000000E+00 0.  1.
          2   -1    0    0  501    0  0.00000000000E+00 -0.00000000000E+00 -0.37931049859E+03  0.37931049859E+03  0.00000000000E+00 0. -1.
         25    2    1    2    0    0  0.56724303596E+02  0.33593160225E+02 -0.24295377907E+03  0.28110826837E+03  0.12509665364E+03 0.  0.
         23    2    1    2    0    0 -0.56724303596E+02 -0.33593160225E+02 -0.89839340745E+02  0.14471960900E+03  0.92339108994E+02 0.  0.
          5    1    3    3  502    0  0.50328845674E+02  0.60286651760E+02 -0.68003267609E+02  0.10396821578E+03  0.41800000000E+01 0.  1.
         -5    1    3    3    0  502  0.63954579216E+01 -0.26693491534E+02 -0.17495051146E+03  0.17714005259E+03  0.41800000000E+01 0.  1.
        -11    1    4    4    0    0  0.17039647440E+02 -0.14651867020E+02 -0.57951232153E+02  0.62156030279E+02  0.00000000000E+00 0. -1.
         11    1    4    4    0    0 -0.73763951036E+02 -0.18941293205E+02 -0.31888108593E+02  0.82563578716E+02  0.00000000000E+00 0.  1.
</event>
<event>
 8    1  0.7130890E-009  0.1183920E+03  0.7561462E-02  0.1245774E+00
          2   -1    0    0  501    0  0.00000000000E+00  0.00000000000E+00  0.24079933190E+03  0.24079933190E+03  0.00000000000E+00 0. -1.
         -2   -1    0    0    0  501 -0.00000000000E+00 -0.00000000000E+00 -0.97271386305E+02  0.97271386305E+02  0.00000000000E+00 0.  1.
         25    2    1    2    0    0  0.92314147743E+01 -0.10348316508E+03  0.71631896167E+02  0.17768432749E+03  0.12508639900E+03 0.  0.
         23    2    1    2    0    0 -0.92314147743E+01  0.10348316508E+03  0.71896049431E+02  0.16038639071E+03  0.98796598770E+02 0.  0.
          5    1    3    3  502    0  0.21449856607E+02 -0.25055842248E+02 -0.32627735510E+02  0.46582540760E+02  0.41800000000E+01 0.  1.
         -5    1    3    3    0  502 -0.12218441832E+02 -0.78427322833E+02  0.10425963168E+03  0.13110178673E+03  0.41800000000E+01 0.  1.
        -11    1    4    4    0    0 -0.14154517965E+02 -0.53332254862E+01  0.45999602867E+02  0.48422692375E+02  0.00000000000E+00 0. -1.
         11    1    4    4    0    0  0.49231031911E+01  0.10881639057E+03  0.25896446564E+02  0.11196369834E+03  0.00000000000E+00 0.  1.
</event>
<event>
 8    1  0.7130890E-009  0.7699511E+02  0.7561462E-02  0.1337802E+00
          2   -1    0    0  501    0  0.00000000000E+00  0.00000000000E+00  0.47899106405E+02  0.47899106405E+02  0.00000000000E+00 0. -1.
         -2   -1    0    0    0  501 -0.00000000000E+00 -0.00000000000E+00 -0.35077860736E+03  0.35077860736E+03  0.00000000000E+00 0.  1.
         25    2    1    2    0    0  0.54673419299E+02 -0.63426570507E+01 -0.25601650436E+03  0.29020714964E+03  0.12508527939E+03 0.  0.
         23    2    1    2    0    0 -0.54673419299E+02  0.63426570507E+01 -0.46862996593E+02  0.10847056413E+03  0.80872187777E+02 0.  0.
          5    1    3    3  502    0  0.44986681214E+02 -0.11644583794E+01 -0.26895616046E+03  0.27272705421E+03  0.41800000000E+01 0.  1.
         -5    1    3    3    0  502  0.96867380846E+01 -0.51781986712E+01  0.12939656098E+02  0.17480095427E+02  0.41800000000E+01 0.  1.
        -11    1    4    4    0    0  0.11984157780E+02 -0.21650021695E+02 -0.18116276131E+02  0.30668272497E+02  0.00000000000E+00 0. -1.
         11    1    4    4    0    0 -0.66657577079E+02  0.27992678746E+02 -0.28746720462E+02  0.77802291629E+02  0.00000000000E+00 0.  1.
</event>
<event>
 8    1  0.7130890E-009  0.9251528E+02  0.7561462E-02  0.1296872E+00
          2   -1    0    0  501    0  0.00000000000E+00  0.00000000000E+00  0.93059095036E+03  0.93059095036E+03  0.00000000000E+00 0. -1.
         -2   -1    0    0    0  501 -0.00000000000E+00 -0.00000000000E+00 -0.14378802089E+02  0.14378802089E+02  0.00000000000E+00 0.  1.
         25    2    1    2    0    0  0.17230503240E+02 -0.32914754809E+02  0.59641842105E+03  0.61052638256E+03  0.12508900636E+03 0.  0.
         23    2    1    2    0    0 -0.17230503240E+02  0.32914754809E+02  0.31979372722E+03  0.33444336988E+03  0.90576312376E+02 0.  0.
          5    1    3    3  502    0  0.29204329153E+02  0.20735649089E+02  0.48376459965E+03  0.48510671018E+03  0.41800000000E+01 0.  1.
         -5    1    3    3    0  502 -0.11973825914E+02 -0.53650403898E+02  0.11265382140E+03  0.12541967238E+03  0.41800000000E+01 0.  1.
        -11    1    4    4    0    0  0.29383241937E+02  0.36770431239E+02  0.20800661752E+03  0.21326554445E+03  0.00000000000E+00 0. -1.
         11    1    4    4    0    0 -0.46613745177E+02 -0.38556764295E+01  0.11178710970E+03  0.12117782543E+03  0.00000000000E+00 0.  1.
</event>
<event>
 8    1  0.7130890E-009  0.1290455E+03  0.7561462E-02  0.1228879E+00
          2   -1    0    0  501    0  0.00000000000E+00  0.00000000000E+00  0.12934250335E+04  0.12934250335E+04  0.00000000000E+00 0. -1.
         -2   -1    0    0    0  501 -0.00000000000E+00 -0.00000000000E+00 -0.13937307666E+02  0.13937307666E+02  0.00000000000E+00 0.  1.
         25    2    1    2    0    0 -0.63122616638E+02 -0.28997003521E+02  0.88228198722E+03  0.89380874031E+03  0.12508904166E+03 0.  0.
         23    2    1    2    0    0  0.63122616638E+02  0.28997003521E+02  0.39720573863E+03  0.41355360086E+03  0.91808992183E+02 0.  0.
          5    1    3    3  502    0 -0.37336202482E+02 -0.78532310254E+02  0.52876417157E+03  0.53588276452E+03  0.41800000000E+01 0. -1.
         -5    1    3    3    0  502 -0.25786414157E+02  0.49535306733E+02  0.35351781565E+03  0.35792597579E+03  0.41800000000E+01 0. -1.
        -11    1    4    4    0    0 -0.22922128145E+02  0.16137527641E+02  0.89804609230E+02  0.94078220625E+02  0.00000000000E+00 0.  1.
         11    1    4    4    0    0  0.86044744783E+02  0.12859475880E+02  0.30740112940E+03  0.31947538024E+03  0.00000000000E+00 0. -1.
</event>
<event>
 8    1  0.7130890E-009  0.1300324E+03  0.7561462E-02  0.1227408E+00
          1   -1    0    0  501    0  0.00000000000E+00  0.00000000000E+00  0.10375267388E+04  0.10375267388E+04  0.00000000000E+00 0. -1.
         -1   -1    0    0    0  501 -0.00000000000E+00 -0.00000000000E+00 -0.25608936828E+02  0.25608936828E+02  0.00000000000E+00 0.  1.
         25    2    1    2    0    0 -0.63770988563E+02  0.47470074189E+02  0.83904172732E+03  0.85203056946E+03  0.12507967134E+03 0.  0.
         23    2    1    2    0    0  0.63770988563E+02 -0.47470074189E+02  0.17287607462E+03  0.21110510614E+03  0.91428013952E+02 0.  0.
          5    1    3    3  502    0  0.22295443427E+02 -0.24039798927E+02  0.27517778114E+03  0.27715570057E+03  0.41800000000E+01 0. -1.
         -5    1    3    3    0  502 -0.86066431989E+02  0.71509873116E+02  0.56386394619E+03  0.57487486889E+03  0.41800000000E+01 0. -1.
        -11    1    4    4    0    0  0.16470470322E+02 -0.63105021771E+02  0.64013228286E+02  0.91384974481E+02  0.00000000000E+00 0.  1.
         11    1    4    4    0    0  0.47300518241E+02  0.15634947582E+02  0.10886284633E+03  0.11972013166E+03  0.00000000000E+00 0. -1.
</event>
<event>
 8    1  0.7130890E-009  0.1297452E+03  0.7561462E-02  0.1227834E+00
          2   -1    0    0  501    0  0.00000000000E+00  0.00000000000E+00  0.70019247788E+03  0.70019247788E+03  0.00000000000E+00 0. -1.
         -2   -1    0    0    0  501 -0.00000000000E+00 -0.00000000000E+00 -0.36955099717E+02  0.36955099717E+02  0.00000000000E+00 0.  1.
         25    2    1    2    0    0  0.10528672059E+03  0.13349878154E+01  0.48310959607E+03  0.51002926869E+03  0.12509155598E+03 0.  0.
         23    2    1    2    0    0 -0.10528672059E+03 -0.13349878154E+01  0.18012778210E+03  0.22711830891E+03  0.89719744958E+02 0.  0.
          5    1    3    3  502    0  0.90626157615E+02 -0.33890906922E+02  0.44686091265E+03  0.45723499611E+03  0.41800000000E+01 0.  1.
         -5    1    3    3    0  502  0.14660562978E+02  0.35225894738E+02  0.36248683420E+02  0.52794272574E+02  0.41800000000E+01 0.  1.
        -11    1    4    4    0    0 -0.79798025884E+02  0.28760229692E+02  0.16374847990E+03  0.18441377502E+03  0.00000000000E+00 0. -1.
         11    1    4    4    0    0 -0.25488694709E+02 -0.30095217507E+02  0.16379302195E+02  0.42704533895E+02  0.00000000000E+00 0.  1.
</event>
<event>
 8    1  0.7130890E-009  0.1179979E+03  0.7561462E-02  0.1246437E+00
          2   -1    0    0  501    0  0.00000000000E+00  0.00000000000E+00  0.23458720786E+03  0.23458720786E+03  0.00000000000E+00 0. -1.
         -2   -1    0    0    0  501 -0.00000000000E+00 -0.00000000000E+00 -0.76845932029E+02  0.76845932029E+02  0.00000000000E+00 0.  1.
         25    2    1    2    0    0 -0.28235061724E+02 -0.65302797600E+02  0.11535744706E+03  0.18443181352E+03  0.12508428823E+03 0.  0.
         23    2    1    2    0    0  0.28235061724E+02  0.65302797600E+02  0.42383828778E+02  0.12700132637E+03  0.96287454392E+02 0.  0.
          5    1    3    3  502    0  0.38708785124E+02 -0.66207225360E+02  0.60245475551E+02  0.97615349510E+02  0.41800000000E+01 0.  1.
         -5    1    3    3    0  502 -0.66943846847E+02  0.90442776019E+00  0.55111971506E+02  0.86816464012E+02  0.41800000000E+01 0.  1.
        -11    1    4    4    0    0  0.33951717052E+02  0.74162731326E+02  0.63520084331E+02  0.10338099884E+03  0.00000000000E+00 0. -1.
         11    1    4    4    0    0 -0.57166553280E+01 -0.88599337257E+01 -0.21136255552E+02  0.23620327528E+02  0.00000000000E+00 0.  1.
</event>
<event>
 8    1  0.7130890E-009  0.8416412E+02  0.7561462E-02  0.1317633E+00
         -1   -1    0    0    0  501 -0.00000000000E+00  0.00000000000E+00  0.55037895130E+02  0.55037895130E+02  0.00000000000E+00 0.  1.
          1   -1    0    0  501    0  0.00000000000E+00 -0.00000000000E+00 -0.24215690660E+03  0.24215690660E+03  0.00000000000E+00 0. -1.
         25    2    1    2    0    0 -0.13259642475E+02 -0.36073383812E+02 -0.10977103570E+03  0.17080476867E+03  0.12508989401E+03 0.  0.
         23    2    1    2    0    0  0.13259642475E+02  0.36073383812E+02 -0.77347975769E+02  0.12639003306E+03  0.92274720063E+02 0.  0.
          5    1    3    3  502    0 -0.34175577233E+02  0.32525279946E+02 -0.80151469699E+02  0.93099916271E+02  0.41800000000E+01 0. -1.
         -5    1    3    3    0  502  0.20915934758E+02 -0.68598663758E+02 -0.29619565999E+02  0.77704852398E+02  0.41800000000E+01 0. -1.
        -11    1    4    4    0    0  0.16674000650E+02  0.43668745332E+01  0.18554125134E+02  0.25324838605E+02  0.00000000000E+00 0.  1.
         11    1    4    4    0    0 -0.34143581748E+01  0.31706509279E+02 -0.95902100903E+02  0.10106519445E+03  0.00000000000E+00 0. -1.
</event>
<event>
 8    1  0.7130890E-009  0.1070734E+03  0.7561462E-02  0.1266087E+00
          2   -1    0    0  501    0  0.00000000000E+00  0.00000000000E+00  0.26477459657E+02  0.26477459657E+02  0.00000000000E+00 0. -1.
         -2   -1    0    0    0  501 -0.00000000000E+00 -0.00000000000E+00 -0.55820792858E+03  0.55820792858E+03  0.00000000000E+00 0.  1.
         25    2    1    2    0    0  0.10356479311E+02 -0.16906429265E+02 -0.41610973441E+03  0.43495771185E+03  0.12509123078E+03 0.  0.
         23    2    1    2    0    0 -0.10356479311E+02  0.16906429265E+02 -0.11562073452E+03  0.14972767639E+03  0.93043746759E+02 0.  0.
          5    1    3    3  502    0  0.39989557561E+02 -0.61158506075E+02 -0.23513535110E+03  0.24626334139E+03  0.41800000000E+01 0.  1.
         -5    1    3    3    0  502 -0.29633078250E+02  0.44252076811E+02 -0.18097438331E+03  0.18869437046E+03  0.41800000000E+01 0.  1.
        -11    1    4    4    0    0  0.29760484742E+02  0.32884917807E+02 -0.87780767043E+02  0.98349211151E+02  0.00000000000E+00 0.  1.
         11    1    4    4    0    0 -0.40116964053E+02 -0.15978488542E+02 -0.27839967478E+02  0.51378465237E+02  0.00000000000E+00 0. -1.
</event>
<event>
 8    1  0.7130890E-009  0.1265370E+03  0.7561462E-02  0.1232687E+00
         -1   -1    0    0    0  501 -0.00000000000E+00  0.00000000000E+00  0.25123629671E+02  0.25123629671E+02  0.00000000000E+00 0.  1.
          1   -1    0    0  501    0  0.00000000000E+00 -0.00000000000E+00 -0.91028890621E+03  0.91028890621E+03  0.00000000000E+00 0. -1.
         25    2    1    2    0    0  0.55771718080E+02  0.49568344380E+02 -0.70197727577E+03  0.71692835699E+03  0.12508664217E+03 0.  0.
         23    2    1    2    0    0 -0.55771718080E+02 -0.49568344380E+02 -0.18318800077E+03  0.21848417890E+03  0.92790018320E+02 0.  0.
          5    1    3    3  502    0 -0.35878406206E+02 -0.66818561767E+01 -0.13994765756E+03  0.14468837718E+03  0.41800000000E+01 0. -1.
         -5    1    3    3    0  502  0.91650124286E+02  0.56250200557E+02 -0.56202961821E+03  0.57223997981E+03  0.41800000000E+01 0. -1.
        -11    1    4    4    0    0 -0.58726508476E+02  0.34033601843E+00 -0.53307957440E+02  0.79313661829E+02  0.00000000000E+00 0.  1.
         11    1    4    4    0    0  0.29547903958E+01 -0.49908680399E+02 -0.12988004333E+03  0.13917051707E+03  0.00000000000E+00 0. -1.
</event>
<event>
 8    1  0.7130890E-009  0.8166993E+02  0.7561462E-02  0.1324378E+00
         -1   -1    0    0    0  501 -0.00000000000E+00  0.00000000000E+00  0.35431235215E+02  0.35431235215E+02  0.00000000000E+00 0.  1.
          1   -1    0    0  501    0  0.00000000000E+00 -0.00000000000E+00 -0.35101026211E+03  0.35101026211E+03  0.00000000000E+00 0. -1.
         25    2    1    2    0    0  0.12213320186E+02 -0.25244561551E+02 -0.16660503843E+03  0.21021879358E+03  0.12509296250E+03 0.  0.
         23    2    1    2    0    0 -0.12213320186E+02  0.25244561551E+02 -0.14897398847E+03  0.17622270374E+03  0.89859551507E+02 0.  0.
          5    1    3    3  502    0  0.11839274731E+02 -0.46322145048E+02 -0.62138332076E+01  0.48394149141E+02  0.41800000000E+01 0. -1.
         -5    1    3    3    0  502  0.37404545514E+00  0.21077583497E+02 -0.16039120522E+03  0.16182464444E+03  0.41800000000E+01 0. -1.
        -11    1    4    4    0    0  0.36535754238E+02  0.26427045068E+02 -0.78362775776E+02  0.90410036368E+02  0.00000000000E+00 0.  1.
         11    1    4    4    0    0 -0.48749074424E+02 -0.11824835174E+01 -0.70611212690E+02  0.85812667375E+02  0.00000000000E+00 0. -1.
</event>
<event>
 8    1  0.7130890E-009  0.1252731E+03  0.7561462E-02  0.1234643E+00
         -2   -1    0    0    0  501 -0.00000000000E+00  0.00000000000E+00  0.20412447223E+03  0.20412447223E+03  0.00000000000E+00 0.  1.
          2   -1    0    0  501    0  0.00000000000E+00 -0.00000000000E+00 -0.89289300904E+02  0.89289300904E+02  0.00000000000E+00 0. -1.
         25    2    1    2    0    0  0.69657629010E+02  0.21306271420E+02  0.26602793732E+02  0.14717789070E+03  0.12508988926E+03 0.  0.
         23    2    1    2    0    0 -0.69657629010E+02 -0.21306271420E+02  0.88232377595E+02  0.14623588244E+03  0.91070513208E+02 0.  0.
          5    1    3    3  502    0  0.23303023743E+02 -0.48272607309E+02 -0.11853182627E+02  0.55056751361E+02  0.41800000000E+01 0.  1.
         -5    1    3    3    0  502  0.46354605267E+02  0.69578878729E+02  0.38455976360E+02  0.92121139335E+02  0.41800000000E+01 0.  1.
        -11    1    4    4    0    0 -0.46591283571E+02  0.30960242846E+02  0.61579487646E+02  0.83194456790E+02  0.00000000000E+00 0.  1.
         11    1    4    4    0    0 -0.23066345439E+02 -0.52266514266E+02  0.26652889950E+02  0.63041425651E+02  0.00000000000E+00 0. -1.
</event>
<event>
 8    1  0.7130890E-009  0.1094937E+03  0.7561462E-02  0.1261510E+00
         -2   -1    0    0    0  501 -0.00000000000E+00  0.00000000000E+00  0.15483928075E+03  0.15483928075E+03  0.00000000000E+00 0.  1.
          2   -1    0    0  501    0  0.00000000000E+00 -0.00000000000E+00 -0.12793552714E+03  0.12793552714E+03  0.00000000000E+00 0. -1.
         25    2    1    2    0    0  0.67594493604E+02  0.14722578032E+02  0.72138953345E+02  0.16011558789E+03  0.12508878058E+03 0.  0.
         23    2    1    2    0    0 -0.67594493604E+02 -0.14722578032E+02 -0.45235199734E+02  0.12265921999E+03  0.90627209407E+02 0.  0.
          5    1    3    3  502    0 -0.30417220447E+02  0.16482033394E+02  0.47572698047E+02  0.58970320704E+02  0.41800000000E+01 0. -1.
         -5    1    3    3    0  502  0.98011714052E+02 -0.17594553616E+01  0.24566255298E+02  0.10114526718E+03  0.41800000000E+01 0. -1.
        -11    1    4    4    0    0  0.96557510847E+00  0.12294412596E+02  0.20490756400E+02  0.23915601899E+02  0.00000000000E+00 0.  1.
         11    1    4    4    0    0 -0.68560068713E+02 -0.27016990628E+02 -0.65725956135E+02  0.98743618094E+02  0.00000000000E+00 0. -1.
</event>
<event>
 8    1  0.7130890E-009  0.9803474E+02  0.7561462E-02  0.1284484E+00
          2   -1    0    0  501    0  0.00000000000E+00  0.00000000000E+00  0.82061269919E+03  0.82061269919E+03  0.00000000000E+00 0. -1.
         -2   -1    0    0    0  501 -0.00000000000E+00 -0.00000000000E+00 -0.22966772237E+02  0.22966772237E+02  0.00000000000E+00 0.  1.
         25    2    1    2    0    0 -0.11829382100E+01 -0.75412846140E+02  0.32804013189E+03  0.35909251058E+03  0.12509438963E+03 0.  0.
         23    2    1    2    0    0  0.11829382100E+01  0.75412846140E+02  0.46960579506E+03  0.48448696085E+03  0.92247036653E+02 0.  0.
          5    1    3    3  502    0 -0.91635073050E+01 -0.47207667716E+02  0.32584642784E+03  0.32940233863E+03  0.41800000000E+01 0. -1.
         -5    1    3    3    0  502  0.79805690950E+01 -0.28205178424E+02  0.21937040527E+01  0.29690171951E+02  0.41800000000E+01 0. -1.
        -11    1    4    4    0    0 -0.22904484561E+02  0.88056193219E+02  0.38546143929E+03  0.39605432677E+03  0.00000000000E+00 0.  1.
         11    1    4    4    0    0  0.24087422771E+02 -0.12643347079E+02  0.84144355770E+02  0.88432634072E+02  0.00000000000E+00 0. -1.
</event>
<event>
 8    1  0.7130890E-009  0.1814256E+03  0.7561462E-02  0.1166430E+00
         -2   -1    0    0    0  501 -0.00000000000E+00  0.00000000000E+00  0.13354599022E+03  0.13354599022E+03  0.00000000000E+00 0.  1.
          2   -1    0    0  501    0  0.00000000000E+00 -0.00000000000E+00 -0.39769973949E+03  0.39769973949E+03  0.00000000000E+00 0. -1.
         25    2    1    2    0    0  0.16420798079E+03 -0.45805406620E+02 -0.26275699094E+03  0.33727164981E+03  0.12509409758E+03 0.  0.
         23    2    1    2    0    0 -0.16420798079E+03  0.45805406620E+02 -0.13967583374E+01  0.19397407991E+03  0.92528895551E+02 0.  0.
          5    1    3    3  502    0  0.14369542440E+03 -0.68327648792E+01 -0.11863331996E+03  0.18651112212E+03  0.41800000000E+01 0.  1.
         -5    1    3    3    0  502  0.20512556390E+02 -0.38972641741E+02 -0.14412367098E+03  0.15076052769E+03  0.41800000000E+01 0.  1.
        -11    1    4    4    0    0 -0.97544495741E+02  0.75568501407E+01 -0.42669176856E+02  0.10673656022E+03  0.00000000000E+00 0. -1.
         11    1    4    4    0    0 -0.66663485047E+02  0.38248556480E+02  0.41272418518E+02  0.87237519690E+02  0.00000000000E+00 0.  1.
</event>
<event>
 8    1  0.7130890E-009  0.8967224E+02  0.7561462E-02  0.1303647E+00
          2   -1    0    0  501    0  0.00000000000E+00  0.00000000000E+00  0.32796301518E+03  0.32796301518E+03  0.00000000000E+00 0. -1.
         -2   -1    0    0    0  501 -0.00000000000E+00 -0.00000000000E+00 -0.39974087426E+02  0.39974087426E+02  0.00000000000E+00 0.  1.
         25    2    1    2    0    0  0.29912617270E+02 -0.10634061158E+02  0.13548944436E+03  0.18711706402E+03  0.12509020020E+03 0.  0.
         23    2    1    2    0    0 -0.29912617270E+02  0.10634061158E+02  0.15249948340E+03  0.18082003859E+03  0.91825628176E+02 0.  0.
          5    1    3    3  502    0 -0.14862837445E+02  0.50226555957E+02  0.45215906314E+02  0.69322156949E+02  0.41800000000E+01 0.  1.
         -5    1    3    3    0  502  0.44775454715E+02 -0.60860617115E+02  0.90273538045E+02  0.11779490707E+03  0.41800000000E+01 0.  1.
        -11    1    4    4    0    0 -0.22674689409E+02  0.25783944843E+02  0.15911209543E+03  0.16277472858E+03  0.00000000000E+00 0. -1.
         11    1    4    4    0    0 -0.72379278617E+01 -0.15149883685E+02 -0.66126120344E+01  0.18045310009E+02  0.00000000000E+00 0.  1.
</event>
<event>
 8    1  0.7130890E-009  0.9605512E+02  0.7561462E-02  0.1288817E+00
         -3   -1    0    0    0  501 -0.00000000000E+00  0.00000000000E+00  0.68109231752E+02  0.68109231752E+02  0.00000000000E+00 0.  1.
          3   -1    0    0  501    0  0.00000000000E+00 -0.00000000000E+00 -0.29108254449E+03  0.29108254449E+03  0.00000000000E+00 0. -1.
         25    2    1    2    0    0 -0.32261926490E+01  0.24158085960E+02 -0.23208713240E+03  0.26477507694E+03  0.12508949959E+03 0.  0.
         23    2    1    2    0    0  0.32261926490E+01 -0.24158085960E+02  0.91138196652E+01  0.94416699297E+02  0.90760288458E+02 0.  0.
          5    1    3    3  502    0 -0.45667326040E+01  0.72051287629E+02 -0.17945780002E+03  0.19348079358E+03  0.41800000000E+01 0. -1.
         -5    1    3    3    0  502  0.13405399550E+01 -0.47893201669E+02 -0.52629332381E+02  0.71294283364E+02  0.41800000000E+01 0. -1.
        -11    1    4    4    0    0  0.90924272644E+01 -0.47125571065E+02  0.34936314595E+02  0.59363606353E+02  0.00000000000E+00 0.  1.
         11    1    4    4    0    0 -0.58662346155E+01  0.22967485104E+02 -0.25822494929E+02  0.35053092944E+02  0.00000000000E+00 0. -1.
</event>
<event>
 8    1  0.7130890E-009  0.1155798E+03  0.7561462E-02  0.1250572E+00
          2   -1    0    0  501    0  0.00000000000E+00  0.00000000000E+00  0.35667915201E+02  0.35667915201E+02  0.00000000000E+00 0. -1.
         -2   -1    0    0    0  501 -0.00000000000E+00 -0.00000000000E+00 -0.43321390637E+03  0.43321390637E+03  0.00000000000E+00 0.  1.
         25    2    1    2    0    0  0.46299810180E+02 -0.23830389520E+02 -0.27745634604E+03  0.30877292542E+03  0.12508851118E+03 0.  0.
         23    2    1    2    0    0 -0.46299810180E+02  0.23830389520E+02 -0.12008964513E+03  0.16010889615E+03  0.92205075080E+02 0.  0.
          5    1    3    3  502    0  0.30515534195E+02 -0.74151686645E+02 -0.13857981535E+03  0.16016088188E+03  0.41800000000E+01 0. -1.
         -5    1    3    3    0  502  0.15784275985E+02  0.50321297125E+02 -0.13887653068E+03  0.14861204355E+03  0.41800000000E+01 0. -1.
        -11    1    4    4    0    0 -0.66077537207E+02 -0.11649498420E+01 -0.10676081805E+03  0.12556062401E+03  0.00000000000E+00 0.  1.
         11    1    4    4    0    0  0.19777727027E+02  0.24995339362E+02 -0.13328827080E+02  0.34548272135E+02  0.00000000000E+00 0. -1.
</event>
<event>
 8    1  0.7130890E-009  0.1499373E+03  0.7561462E-02  0.1200550E+00
          1   -1    0    0  501    0  0.00000000000E+00  0.00000000000E+00  0.58360357361E+03  0.58360357361E+03  0.00000000000E+00 0. -1.
         -1   -1    0    0    0  501 -0.00000000000E+00 -0.00000000000E+00 -0.57930903257E+02  0.57930903257E+02  0.00000000000E+00 0.  1.
         25    2    1    2    0    0 -0.12929198979E+03  0.62592858592E+01  0.15022767692E+03  0.23446025372E+03  0.12509060069E+03 0.  0.
         23    2    1    2    0    0  0.12929198979E+03 -0.62592858592E+01  0.37544499343E+03  0.40707422315E+03  0.89414108363E+02 0.  0.
          5    1    3    3  502    0 -0.67441600411E+02 -0.35052829620E+02  0.11485925129E+02  0.76983564521E+02  0.41800000000E+01 0.  1.
         -5    1    3    3    0  502 -0.61850389375E+02  0.41312115479E+02  0.13874175179E+03  0.15747668920E+03  0.41800000000E+01 0.  1.
        -11    1    4    4    0    0  0.61956420575E+02 -0.40195407233E+02  0.12163426447E+03  0.14229955413E+03  0.00000000000E+00 0. -1.
         11    1    4    4    0    0  0.67335569211E+02  0.33936121373E+02  0.25381072897E+03  0.26477466902E+03  0.00000000000E+00 0.  1.
</event>
<event>
 8    1  0.7130890E-009  0.1036744E+03  0.7561462E-02  0.1272754E+00
          1   -1    0    0  501    0  0.00000000000E+00  0.00000000000E+00  0.59791009930E+03  0.59791009930E+03  0.00000000000E+00 0. -1.
         -1   -1    0    0    0  501 -0.00000000000E+00 -0.00000000000E+00 -0.24728822246E+02  0.24728822246E+02  0.00000000000E+00 0.  1.
         25    2    1    2    0    0  0.17627956775E+02  0.32295496495E+02  0.42823231855E+03  0.44764335830E+03  0.12509162091E+03 0.  0.
         23    2    1    2    0    0 -0.17627956775E+02 -0.32295496495E+02  0.14494895850E+03  0.17499556325E+03  0.90881805838E+02 0.  0.
          5    1    3    3  502    0 -0.31192744456E+02 -0.34705999798E+02  0.13555992189E+03  0.14342753763E+03  0.41800000000E+01 0. -1.
         -5    1    3    3    0  502  0.48820701231E+02  0.67001496293E+02  0.29267239666E+03  0.30421582066E+03  0.41800000000E+01 0. -1.
        -11    1    4    4    0    0 -0.10039197471E+02  0.21201847370E+02  0.10554581001E+03  0.10812132920E+03  0.00000000000E+00 0. -1.
         11    1    4    4    0    0 -0.75887593049E+01 -0.53497343865E+02  0.39403148492E+02  0.66874234048E+02  0.00000000000E+00 0.  1.
</event>
<event>
 8    1  0.7130890E-009  0.2987193E+03  0.7561462E-02  0.1085883E+00
          1   -1    0    0  501    0  0.00000000000E+00  0.00000000000E+00  0.90963207173E+03  0.90963207173E+03  0.00000000000E+00 0. -1.
         -1   -1    0    0    0  501 -0.00000000000E+00 -0.00000000000E+00 -0.14454079298E+03  0.14454079298E+03  0.00000000000E+00 0.  1.
         25    2    1    2    0    0  0.12320924219E+03  0.25814866966E+03  0.66932348385E+03  0.73855442356E+03  0.12508979779E+03 0.  0.
         23    2    1    2    0    0 -0.12320924219E+03 -0.25814866966E+03  0.95767794904E+02  0.31561844115E+03  0.92856215970E+02 0.  0.
          5    1    3    3  502    0 -0.11611355144E+01  0.85425719504E+02  0.30325065475E+03  0.31508305857E+03  0.41800000000E+01 0. -1.
         -5    1    3    3    0  502  0.12437037771E+03  0.17272295016E+03  0.36607282910E+03  0.42347136499E+03  0.41800000000E+01 0. -1.
        -11    1    4    4    0    0 -0.79411843564E+02 -0.70056150192E+02  0.50191317364E+02  0.11718904990E+03  0.00000000000E+00 0. -1.
         11    1    4    4    0    0 -0.43797398628E+02 -0.18809251947E+03  0.45576477540E+02  0.19842939125E+03  0.00000000000E+00 0.  1.
</event>
<event>
 8    1  0.7130890E-009  0.1262049E+03  0.7561462E-02  0.1233198E+00
         -1   -1    0    0    0  501 -0.00000000000E+00  0.00000000000E+00  0.28433404128E+02  0.28433404128E+02  0.00000000000E+00 0.  1.
          1   -1    0    0  501    0  0.00000000000E+00 -0.00000000000E+00 -0.92939583105E+03  0.92939583105E+03  0.00000000000E+00 0. -1.
         25    2    1    2    0    0  0.12029493045E+03  0.56797773505E+01 -0.47674611274E+03  0.50738124877E+03  0.12508295418E+03 0.  0.
         23    2    1    2    0    0 -0.12029493045E+03 -0.56797773505E+01 -0.42421631418E+03  0.45044798640E+03  0.91873701777E+02 0.  0.
          5    1    3    3  502    0  0.15661146809E+02  0.13919437093E+02 -0.23493045212E+01  0.21494508138E+02  0.41800000000E+01 0.  1.
         -5    1    3    3    0  502  0.10463378365E+03 -0.82396597424E+01 -0.47439680822E+03  0.48588674063E+03  0.41800000000E+01 0.  1.
        -11    1    4    4    0    0 -0.10790655950E+03  0.71823067541E+01 -0.41764489073E+03  0.43141936195E+03  0.00000000000E+00 0. -1.
         11    1    4    4    0    0 -0.12388370953E+02 -0.12862084105E+02 -0.65714234436E+01  0.19028624450E+02  0.00000000000E+00 0.  1.
</event>
<event>
 8    1  0.7130890E-009  0.1117444E+03  0.7561462E-02  0.1257373E+00
          2   -1    0    0  501    0  0.00000000000E+00  0.00000000000E+00  0.16714091411E+03  0.16714091411E+03  0.00000000000E+00 0.  1.
         -2   -1    0    0    0  501 -0.00000000000E+00 -0.00000000000E+00 -0.10023863509E+03  0.10023863509E+03  0.00000000000E+00 0. -1.
         25    2    1    2    0    0  0.50542319694E+02 -0.47310738514E+02  0.39036719586E+02  0.14820107898E+03  0.12508741854E+03 0.  0.
         23    2    1    2    0    0 -0.50542319694E+02  0.47310738514E+02  0.27865559434E+02  0.11917847021E+03  0.92920322326E+02 0.  0.
          5    1    3    3  502    0 -0.30392114235E+02 -0.23090739918E+02  0.49855661299E+02  0.62927913053E+02  0.41800000000E+01 0. -1.
         -5    1    3    3    0  502  0.80934433929E+02 -0.24219998596E+02 -0.10818941713E+02  0.85273165927E+02  0.41800000000E+01 0. -1.
        -11    1    4    4    0    0 -0.14560277826E+02  0.60467454671E+02  0.45441254950E+02  0.77027413407E+02  0.00000000000E+00 0.  1.
         11    1    4    4    0    0 -0.35982041868E+02 -0.13156716157E+02 -0.17575695516E+02  0.42151056807E+02  0.00000000000E+00 0. -1.
</event>
<event>
 8    1  0.7130890E-009  0.1293440E+03  0.7561462E-02  0.1228432E+00
          1   -1    0    0  501    0  0.00000000000E+00  0.00000000000E+00  0.74163283747E+02  0.74163283747E+02  0.00000000000E+00 0.  1.
         -1   -1    0    0    0  501 -0.00000000000E+00 -0.00000000000E+00 -0.28831263532E+03  0.28831263532E+03  0.00000000000E+00 0. -1.
         25    2    1    2    0    0  0.76777227693E+02 -0.40832758439E+02 -0.16976182347E+03  0.22809484810E+03  0.12508447613E+03 0.  0.
         23    2    1    2    0    0 -0.76777227693E+02  0.40832758439E+02 -0.44387528104E+02  0.13438107096E+03  0.92336139882E+02 0.  0.
          5    1    3    3  502    0  0.54659310332E+02  0.38515148097E+02 -0.54509358052E+02  0.86370129988E+02  0.41800000000E+01 0. -1.
         -5    1    3    3    0  502  0.22117917361E+02 -0.79347906536E+02 -0.11525246542E+03  0.14172471812E+03  0.41800000000E+01 0. -1.
        -11    1    4    4    0    0 -0.87450836712E+02  0.44245640072E+02 -0.60186173224E+02  0.11501174268E+03  0.00000000000E+00 0. -1.
         11    1    4    4    0    0  0.10673609019E+02 -0.34128816326E+01  0.15798645120E+02  0.19369328284E+02  0.00000000000E+00 0.  1.
</event>
<event>
 8    1  0.7130890E-009  0.1228683E+03  0.7561462E-02  0.1238439E+00
         -1   -1    0    0    0  501 -0.00000000000E+00  0.00000000000E+00  0.31892746333E+02  0.31892746333E+02  0.00000000000E+00 0.  1.
          1   -1    0    0  501    0  0.00000000000E+00 -0.00000000000E+00 -0.63480997153E+03  0.63480997153E+03  0.00000000000E+00 0. -1.
         25    2    1    2    0    0  0.35215204013E+02 -0.79806248014E+02 -0.38998325085E+03  0.41874199502E+03  0.12509506242E+03 0.  0.
         23    2    1    2    0    0 -0.35215204013E+02  0.79806248014E+02 -0.21293397435E+03  0.24796072284E+03  0.92382329598E+02 0.  0.
          5    1    3    3  502    0 -0.11882941391E+02  0.27399193299E+02 -0.13194866470E+03  0.13535081310E+03  0.41800000000E+01 0.  1.
         -5    1    3    3    0  502  0.47098145404E+02 -0.10720544131E+03 -0.25803458614E+03  0.28339118193E+03  0.41800000000E+01 0.  1.
        -11    1    4    4    0    0 -0.10619005492E+02  0.71746170048E+02 -0.20968553771E+03  0.22187451615E+03  0.00000000000E+00 0. -1.
         11    1    4    4    0    0 -0.24596198521E+02  0.80600779656E+01 -0.32484366403E+01  0.26086206683E+02  0.00000000000E+00 0.  1.
</event>
<event>
 8    1  0.7130890E-009  0.1091161E+03  0.7561462E-02  0.1262216E+00
          1   -1    0    0  501    0  0.00000000000E+00  0.00000000000E+00  0.38816389879E+03  0.38816389879E+03  0.00000000000E+00 0. -1.
         -1   -1    0    0    0  501 -0.00000000000E+00 -0.00000000000E+00 -0.32690609292E+02  0.32690609292E+02  0.00000000000E+00 0.  1.
         25    2    1    2    0    0 -0.17983243657E+02 -0.40876561052E+01  0.17672288083E+03  0.21729644472E+03  0.12508661916E+03 0.  0.
         23    2    1    2    0    0  0.17983243657E+02  0.40876561052E+01  0.17875040867E+03  0.20355806336E+03  0.95624633730E+02 0.  0.
          5    1    3    3  502    0  0.50429815713E+01  0.58379848105E+02  0.96351661800E+02  0.11284836489E+03  0.41800000000E+01 0.  1.
         -5    1    3    3    0  502 -0.23026225229E+02 -0.62467504210E+02  0.80371219028E+02  0.10444807982E+03  0.41800000000E+01 0.  1.
        -11    1    4    4    0    0  0.13539703942E+02  0.47370939163E+02  0.63525603479E+02  0.80391739360E+02  0.00000000000E+00 0.  1.
         11    1    4    4    0    0  0.44435397150E+01 -0.43283283057E+02  0.11522480519E+03  0.12316632400E+03  0.00000000000E+00 0. -1.
</event>
<event>
 8    1  0.7130890E-009  0.1101415E+03  0.7561462E-02  0.1260308E+00
         -1   -1    0    0    0  501 -0.00000000000E+00  0.00000000000E+00  0.33732416526E+02  0.33732416526E+02  0.00000000000E+00 0.  1.
          1   -1    0    0  501    0  0.00000000000E+00 -0.00000000000E+00 -0.46059756726E+03  0.46059756726E+03  0.00000000000E+00 0. -1.
         25    2    1    2    0    0  0.12043306597E+02 -0.47031110925E+02 -0.16396884781E+03  0.21187532033E+03  0.12509357171E+03 0.  0.
         23    2    1    2    0    0 -0.12043306597E+02  0.47031110925E+02 -0.26289630292E+03  0.28245466346E+03  0.91154836355E+02 0.  0.
          5    1    3    3  502    0 -0.48137521758E+02 -0.15505171861E+02 -0.23791227845E+02  0.56045751648E+02  0.41800000000E+01 0.  1.
         -5    1    3    3    0  502  0.60180828355E+02 -0.31525939064E+02 -0.14017761997E+03  0.15582956868E+03  0.41800000000E+01 0.  1.
        -11    1    4    4    0    0  0.35506594890E+02  0.13484682211E+01 -0.11855742458E+03  0.12376752228E+03  0.00000000000E+00 0. -1.
         11    1    4    4    0    0 -0.47549901487E+02  0.45682642704E+02 -0.14433887834E+03  0.15868714118E+03  0.00000000000E+00 0.  1.
</event>
<event>
 8    1  0.7130890E-009  0.1225233E+03  0.7561462E-02  0.1238992E+00
         -2   -1    0    0    0  501 -0.00000000000E+00  0.00000000000E+00  0.37666847221E+02  0.37666847221E+02  0.00000000000E+00 0.  1.
          2   -1    0    0  501    0  0.00000000000E+00 -0.00000000000E+00 -0.93058765145E+03  0.93058765145E+03  0.00000000000E+00 0. -1.
         25    2    1    2    0    0 -0.11217987955E+03  0.36734803477E+02 -0.73058594293E+03  0.75055776071E+03  0.12508941198E+03 0.  0.
         23    2    1    2    0    0  0.11217987955E+03 -0.36734803477E+02 -0.16233486130E+03  0.21769673796E+03  0.84294076683E+02 0.  0.
          5    1    3    3  502    0 -0.10945398823E+03  0.32592792019E+02 -0.73426269843E+03  0.74310271722E+03  0.41800000000E+01 0. -1.
         -5    1    3    3    0  502 -0.27258913260E+01  0.41420114580E+01  0.36767555002E+01  0.74550434907E+01  0.41800000000E+01 0. -1.
        -11    1    4    4    0    0  0.52397037268E+02 -0.37600227829E+02 -0.13951657241E+03  0.15370133580E+03  0.00000000000E+00 0.  1.
         11    1    4    4    0    0  0.59782842285E+02  0.86542435219E+00 -0.22818288885E+02  0.63995402168E+02  0.00000000000E+00 0. -1.
</event>
<event>
 8    1  0.7130890E-009  0.1004711E+03  0.7561462E-02  0.1279308E+00
         -2   -1    0    0    0  501 -0.00000000000E+00  0.00000000000E+00  0.18992753580E+02  0.18992753580E+02  0.00000000000E+00 0.  1.
          2   -1    0    0  501    0  0.00000000000E+00 -0.00000000000E+00 -0.76088836848E+03  0.76088836848E+03  0.00000000000E+00 0. -1.
         25    2    1    2    0    0 -0.36369231711E+02 -0.60752249353E+00 -0.29672540695E+03  0.32406162131E+03  0.12508747810E+03 0.  0.
         23    2    1    2    0    0  0.36369231711E+02  0.60752249353E+00 -0.44517020795E+03  0.45581950075E+03  0.90949508616E+02 0.  0.
          5    1    3    3  502    0  0.14495280275E+02  0.38904968930E+02 -0.21942699341E+03  0.22335932395E+03  0.41800000000E+01 0. -1.
         -5    1    3    3    0  502 -0.50864511986E+02 -0.39512491424E+02 -0.77298413538E+02  0.10070229736E+03  0.41800000000E+01 0. -1.
        -11    1    4    4    0    0  0.56731858007E+02  0.25762404941E+02 -0.34405378548E+03  0.34965012874E+03  0.00000000000E+00 0.  1.
         11    1    4    4    0    0 -0.20362626296E+02 -0.25154882447E+02 -0.10111642247E+03  0.10616937201E+03  0.00000000000E+00 0. -1.
</event>
<event>
 8    1  0.7130890E-009  0.2709010E+03  0.7561462E-02  0.1100765E+00
          2   -1    0    0  501    0  0.00000000000E+00  0.00000000000E+00  0.45870117506E+02  0.45870117506E+02  0.00000000000E+00 0.  1.
         -2   -1    0    0    0  501 -0.00000000000E+00 -0.00000000000E+00 -0.16805303746E+04  0.16805303746E+04  0.00000000000E+00 0. -1.
         25    2    1    2    0    0 -0.24425568885E+03  0.73078250311E+02 -0.79826077816E+03  0.84727194906E+03  0.12509281960E+03 0.  0.
         23    2    1    2    0    0  0.24425568885E+03 -0.73078250311E+02 -0.83639947894E+03  0.87912854304E+03  0.91113306516E+02 0.  0.
          5    1    3    3  502    0 -0.25571101077E+03  0.79993928563E+02 -0.73101484420E+03  0.77858032629E+03  0.41800000000E+01 0. -1.
         -5    1    3    3    0  502  0.11455321917E+02 -0.69156782520E+01 -0.67245933954E+02  0.68691622774E+02  0.41800000000E+01 0. -1.
        -11    1    4    4    0    0  0.13830009753E+03 -0.67039638404E+02 -0.61039162990E+03  0.62944354151E+03  0.00000000000E+00 0.  1.
         11    1    4    4    0    0  0.10595559132E+03 -0.60386119070E+01 -0.22600784904E+03  0.24968500153E+03  0.00000000000E+00 0. -1.
</event>
<event>
 8    1  0.7130890E-009  0.7556004E+02  0.7561462E-02  0.1342145E+00
          1   -1    0    0  501    0  0.00000000000E+00  0.00000000000E+00  0.11127498157E+03  0.11127498157E+03  0.00000000000E+00 0. -1.
         -1   -1    0    0    0  501 -0.00000000000E+00 -0.00000000000E+00 -0.12618043542E+03  0.12618043542E+03  0.00000000000E+00 0.  1.
         25    2    1    2    0    0  0.16272678424E+02  0.36524390439E+02 -0.30846382839E+02  0.13489926733E+03  0.12508989500E+03 0.  0.
         23    2    1    2    0    0 -0.16272678424E+02 -0.36524390439E+02  0.15940928996E+02  0.10255614966E+03  0.93085011987E+02 0.  0.
          5    1    3    3  502    0  0.16900642819E+02  0.72529041401E+02  0.15374859652E+02  0.76157417784E+02  0.41800000000E+01 0. -1.
         -5    1    3    3    0  502 -0.62796439486E+00 -0.36004650961E+02 -0.46221242491E+02  0.58741849541E+02  0.41800000000E+01 0. -1.
        -11    1    4    4    0    0 -0.11659935064E+02 -0.20287978431E+02 -0.38779055624E+02  0.45292066740E+02  0.00000000000E+00 0.  1.
         11    1    4    4    0    0 -0.46127433598E+01 -0.16236412009E+02  0.54719984620E+02  0.57264082924E+02  0.00000000000E+00 0. -1.
</event>
<event>
 8    1  0.7130890E-009  0.3756684E+03  0.7561462E-02  0.1052546E+00
          2   -1    0    0  501    0  0.00000000000E+00  0.00000000000E+00  0.10398322284E+04  0.10398322284E+04  0.00000000000E+00 0.  1.
         -2   -1    0    0    0  501 -0.00000000000E+00 -0.00000000000E+00 -0.14709120013E+03  0.14709120013E+03  0.00000000000E+00 0. -1.
         25    2    1    2    0    0 -0.28722707533E+03 -0.23983074997E+03  0.40342707289E+03  0.56428492598E+03  0.12508354453E+03 0.  0.
         23    2    1    2    0    0  0.28722707533E+03  0.23983074997E+03  0.48931395536E+03  0.62263850253E+03  0.90732444444E+02 0.  0.
          5    1    3    3  502    0 -0.89814641745E+02 -0.48766231429E+02  0.19216717309E+03  0.21769361500E+03  0.41800000000E+01 0. -1.
         -5    1    3    3    0  502 -0.19741243359E+03 -0.19106451855E+03  0.21125989980E+03  0.34659131098E+03  0.41800000000E+01 0. -1.
        -11    1    4    4    0    0  0.84016888883E+02  0.75281325710E+02  0.22019616970E+03  0.24741153725E+03  0.00000000000E+00 0. -1.
         11    1    4    4    0    0  0.20321018645E+03  0.16454942426E+03  0.26911778567E+03  0.37522696527E+03  0.00000000000E+00 0.  1.
</event>
<event>
 8    1  0.7130890E-009  0.9754518E+02  0.7561462E-02  0.1285544E+00
          1   -1    0    0  501    0  0.00000000000E+00  0.00000000000E+00  0.15710066931E+03  0.15710066931E+03  0.00000000000E+00 0. -1.
         -1   -1    0    0    0  501 -0.00000000000E+00 -0.00000000000E+00 -0.76801564918E+02  0.76801564918E+02  0.00000000000E+00 0.  1.
         25    2    1    2    0    0 -0.13532273460E+02 -0.25477173423E+02  0.67742521811E+02  0.14514612899E+03  0.12508453425E+03 0.  0.
         23    2    1    2    0    0  0.13532273460E+02  0.25477173423E+02  0.12556582577E+02  0.88756105238E+02  0.82992587985E+02 0.  0.
          5    1    3    3  502    0 -0.53369075211E+02 -0.50643812096E+02  0.16714125214E+02  0.75563802672E+02  0.41800000000E+01 0. -1.
         -5    1    3    3    0  502  0.39836801751E+02  0.25166638673E+02  0.51028396598E+02  0.69582326313E+02  0.41800000000E+01 0. -1.
        -11    1    4    4    0    0  0.41507504032E+02  0.17082399969E+02  0.30692749804E+02  0.54375786616E+02  0.00000000000E+00 0. -1.
         11    1    4    4    0    0 -0.27975230572E+02  0.83947734546E+01 -0.18136167226E+02  0.34380318622E+02  0.00000000000E+00 0.  1.
</event>
<event>
 8    1  0.7130890E-009  0.9398441E+02  0.7561462E-02  0.1293480E+00
          1   -1    0    0  501    0  0.00000000000E+00  0.00000000000E+00  0.69083149706E+03  0.69083149706E+03  0.00000000000E+00 0. -1.
         -1   -1    0    0    0  501 -0.00000000000E+00 -0.00000000000E+00 -0.25025038772E+02  0.25025038772E+02  0.00000000000E+00 0.  1.
         25    2    1    2    0    0 -0.73896005953E+02  0.58793540170E+01  0.37839421801E+03  0.40537019415E+03  0.12509046160E+03 0.  0.
         23    2    1    2    0    0  0.73896005953E+02 -0.58793540170E+01  0.28741224028E+03  0.31048634168E+03  0.91108649473E+02 0.  0.
          5    1    3    3  502    0  0.77647636438E+01  0.12071753874E+02 -0.30106276864E+01  0.15249756559E+02  0.41800000000E+01 0. -1.
         -5    1    3    3    0  502 -0.81660769596E+02 -0.61923998571E+01  0.38140484569E+03  0.39012043759E+03  0.41800000000E+01 0. -1.
        -11    1    4    4    0    0  0.23475758672E+02  0.23039334384E+02  0.23948919703E+02  0.40687503352E+02  0.00000000000E+00 0.  1.
         11    1    4    4    0    0  0.50420247280E+02 -0.28918688401E+02  0.26346332057E+03  0.26979883833E+03  0.00000000000E+00 0. -1.
</event>
<event>
 8    1  0.7130890E-009  0.1032277E+03  0.7561462E-02  0.1273651E+00
         -2   -1    0    0    0  501 -0.00000000000E+00  0.00000000000E+00  0.10365219375E+03  0.10365219375E+03  0.00000000000E+00 0.  1.
          2   -1    0    0  501    0  0.00000000000E+00 -0.00000000000E+00 -0.13109593224E+03  0.13109593224E+03  0.00000000000E+00 0. -1.
         25    2    1    2    0    0 -0.32859165756E+02 -0.29045648960E+02 -0.11389473910E+02  0.13304501897E+03  0.12509149635E+03 0.  0.
         23    2    1    2    0    0  0.32859165756E+02  0.29045648960E+02 -0.16054264581E+02  0.10170310701E+03  0.90346046219E+02 0.  0.
          5    1    3    3  502    0 -0.78484380904E+02 -0.13885795603E+02  0.96592811341E+01  0.80395195612E+02  0.41800000000E+01 0. -1.
         -5    1    3    3    0  502  0.45625215148E+02 -0.15159853358E+02 -0.21048755044E+02  0.52649823362E+02  0.41800000000E+01 0. -1.
        -11    1    4    4    0    0  0.43831327607E+02  0.42479220957E+02  0.17871277702E+02  0.63600723735E+02  0.00000000000E+00 0.  1.
         11    1    4    4    0    0 -0.10972161851E+02 -0.13433571997E+02 -0.33925542284E+02  0.38102383279E+02  0.00000000000E+00 0. -1.
</event>
<event>
 8    1  0.7130890E-009  0.1630510E+03  0.7561462E-02  0.1185295E+00
         -1   -1    0    0    0  501 -0.00000000000E+00  0.00000000000E+00  0.10346054143E+03  0.10346054143E+03  0.00000000000E+00 0.  1.
          1   -1    0    0  501    0  0.00000000000E+00 -0.00000000000E+00 -0.34888293997E+03  0.34888293997E+03  0.00000000000E+00 0. -1.
         25    2    1    2    0    0 -0.22349748920E+02 -0.13787554311E+03 -0.20744162744E+03  0.27962297654E+03  0.12509118094E+03 0.  0.
         23    2    1    2    0    0  0.22349748920E+02  0.13787554311E+03 -0.37980771110E+02  0.17272050487E+03  0.94237238727E+02 0.  0.
          5    1    3    3  502    0  0.26755034617E+02  0.79104506366E+01 -0.60922038673E+02  0.67136981633E+02  0.41800000000E+01 0. -1.
         -5    1    3    3    0  502 -0.49104783537E+02 -0.14578599374E+03 -0.14651958876E+03  0.21248599490E+03  0.41800000000E+01 0. -1.
        -11    1    4    4    0    0  0.91355065257E+00  0.10339670034E+03  0.16569859686E+02  0.10471997167E+03  0.00000000000E+00 0.  1.
         11    1    4    4    0    0  0.21436198268E+02  0.34478842765E+02 -0.54550630796E+02  0.68000533195E+02  0.00000000000E+00 0. -1.
</event>
<event>
 8    1  0.7130890E-009  0.7924336E+02  0.7561462E-02  0.1331212E+00
          2   -1    0    0  501    0  0.00000000000E+00  0.00000000000E+00  0.49900064889E+03  0.49900064889E+03  0.00000000000E+00 0. -1.
         -2   -1    0    0    0  501 -0.00000000000E+00 -0.00000000000E+00 -0.27282393832E+02  0.27282393832E+02  0.00000000000E+00 0.  1.
         25    2    1    2    0    0  0.12001452123E+02 -0.92899374029E+01  0.18794903237E+03  0.22628820800E+03  0.12510466226E+03 0.  0.
         23    2    1    2    0    0 -0.12001452123E+02  0.92899374029E+01  0.28376922269E+03  0.29999483472E+03  0.96133195755E+02 0.  0.
          5    1    3    3  502    0 -0.34460626291E+02  0.65424717497E+01  0.36427240336E+01  0.35511695811E+02  0.41800000000E+01 0. -1.
         -5    1    3    3    0  502  0.46462078414E+02 -0.15832409153E+02  0.18430630833E+03  0.19077651219E+03  0.41800000000E+01 0. -1.
        -11    1    4    4    0    0 -0.19361622775E+02  0.38865678875E+02  0.25295300868E+03  0.25665275769E+03  0.00000000000E+00 0. -1.
         11    1    4    4    0    0  0.73601706516E+01 -0.29575741472E+02  0.30816214010E+02  0.43342077034E+02  0.00000000000E+00 0.  1.
</event>
<event>
 8    1  0.7130890E-009  0.1879575E+03  0.7561462E-02  0.1160316E+00
          1   -1    0    0  501    0  0.00000000000E+00  0.00000000000E+00  0.86511162455E+03  0.86511162455E+03  0.00000000000E+00 0. -1.
         -1   -1    0    0    0  501 -0.00000000000E+00 -0.00000000000E+00 -0.47148635400E+02  0.47148635400E+02  0.00000000000E+00 0.  1.
         25    2    1    2    0    0 -0.97929344576E+02 -0.13162618323E+03  0.32068373519E+03  0.38131538185E+03  0.12509098199E+03 0.  0.
         23    2    1    2    0    0  0.97929344576E+02  0.13162618323E+03  0.49727925395E+03  0.53094487810E+03  0.87750775076E+02 0.  0.
          5    1    3    3  502    0  0.28228987398E+02 -0.35211159841E+02  0.50120905319E+02  0.67574248474E+02  0.41800000000E+01 0. -1.
         -5    1    3    3    0  502 -0.12615833197E+03 -0.96415023387E+02  0.27056282987E+03  0.31374113337E+03  0.41800000000E+01 0. -1.
        -11    1    4    4    0    0  0.17075453890E+02  0.64334887405E+02  0.30081665983E+03  0.30809286212E+03  0.00000000000E+00 0. -1.
         11    1    4    4    0    0  0.80853890686E+02  0.67291295823E+02  0.19646259413E+03  0.22285201598E+03  0.00000000000E+00 0.  1.
</event>
<event>
 8    1  0.7130890E-009  0.1168734E+03  0.7561462E-02  0.1248346E+00
          2   -1    0    0  501    0  0.00000000000E+00  0.00000000000E+00  0.24487433809E+03  0.24487433809E+03  0.00000000000E+00 0. -1.
         -2   -1    0    0    0  501 -0.00000000000E+00 -0.00000000000E+00 -0.57974393094E+02  0.57974393094E+02  0.00000000000E+00 0.  1.
         25    2    1    2    0    0  0.43507589613E+02  0.25964278074E+02  0.91583404234E+02  0.16310162703E+03  0.12509023431E+03 0.  0.
         23    2    1    2    0    0 -0.43507589613E+02 -0.25964278074E+02  0.95316540758E+02  0.13974710415E+03  0.88752217354E+02 0.  0.
          5    1    3    3  502    0  0.81417853275E+01  0.72933487935E+02  0.35068830329E+02  0.81442480263E+02  0.41800000000E+01 0. -1.
         -5    1    3    3    0  502  0.35365804285E+02 -0.46969209861E+02  0.56514573905E+02  0.81659146771E+02  0.41800000000E+01 0. -1.
        -11    1    4    4    0    0 -0.13175521298E+02 -0.56643575145E+02  0.63740266296E+02  0.86283894871E+02  0.00000000000E+00 0. -1.
         11    1    4    4    0    0 -0.30332068315E+02  0.30679297071E+02  0.31576274462E+02  0.53463209275E+02  0.00000000000E+00 0.  1.
</event>
<event>
 8    1  0.7130890E-009  0.1637913E+03  0.7561462E-02  0.1184482E+00
         -1   -1    0    0    0  501 -0.00000000000E+00  0.00000000000E+00  0.33700096041E+03  0.33700096041E+03  0.00000000000E+00 0.  1.
          1   -1    0    0  501    0  0.00000000000E+00 -0.00000000000E+00 -0.89419765672E+02  0.89419765672E+02  0.00000000000E+00 0. -1.
         25    2    1    2    0    0 -0.12393795968E+03  0.56119737286E+02  0.12763739071E+03  0.22461375931E+03  0.12509993846E+03 0.  0.
         23    2    1    2    0    0  0.12393795968E+03 -0.56119737286E+02  0.11994380402E+03  0.20180696677E+03  0.88484422082E+02 0.  0.
          5    1    3    3  502    0  0.20004583799E+02  0.42738689188E+01  0.47422436951E+02  0.51815145034E+02  0.41800000000E+01 0.  1.
         -5    1    3    3    0  502 -0.14394254347E+03  0.51845868367E+02  0.80214953758E+02  0.17279861427E+03  0.41800000000E+01 0.  1.
        -11    1    4    4    0    0  0.84598346289E+02  0.62923802928E+00  0.33072305612E+02  0.90835309951E+02  0.00000000000E+00 0. -1.
         11    1    4    4    0    0  0.39339613386E+02 -0.56748975316E+02  0.86871498411E+02  0.11097165682E+03  0.00000000000E+00 0.  1.
</event>
<event>
 8    1  0.7130890E-009  0.3758993E+03  0.7561462E-02  0.1052460E+00
         -1   -1    0    0    0  501 -0.00000000000E+00  0.00000000000E+00  0.51263469888E+03  0.51263469888E+03  0.00000000000E+00 0.  1.
          1   -1    0    0  501    0  0.00000000000E+00 -0.00000000000E+00 -0.29089342537E+03  0.29089342537E+03  0.00000000000E+00 0. -1.
         25    2    1    2    0    0 -0.12672627095E+03  0.34760923092E+03  0.11895110960E+03  0.40827511324E+03  0.12508987350E+03 0.  0.
         23    2    1    2    0    0  0.12672627095E+03 -0.34760923092E+03  0.10279016391E+03  0.39525301100E+03  0.93634394008E+02 0.  0.
          5    1    3    3  502    0 -0.61439885253E+02  0.15834202517E+03  0.12002852210E+03  0.20801772749E+03  0.41800000000E+01 0.  1.
         -5    1    3    3    0  502 -0.65286385692E+02  0.18926720575E+03 -0.10774125035E+01  0.20025738575E+03  0.41800000000E+01 0.  1.
        -11    1    4    4    0    0  0.39485061145E+02 -0.23948001414E+03  0.66320542890E+02  0.25161113178E+03  0.00000000000E+00 0. -1.
         11    1    4    4    0    0  0.87241209801E+02 -0.10812921677E+03  0.36469621025E+02  0.14364187922E+03  0.00000000000E+00 0.  1.
</event>
<event>
 8    1  0.7130890E-009  0.8860465E+02  0.7561462E-02  0.1306266E+00
          2   -1    0    0  501    0  0.00000000000E+00  0.00000000000E+00  0.71905687616E+02  0.71905687616E+02  0.00000000000E+00 0. -1.
         -2   -1    0    0    0  501 -0.00000000000E+00 -0.00000000000E+00 -0.20015782579E+03  0.20015782579E+03  0.00000000000E+00 0.  1.
         25    2    1    2    0    0 -0.43102969181E+02 -0.27714973520E+01 -0.36784856524E+02  0.13735182976E+03  0.12508737873E+03 0.  0.
         23    2    1    2    0    0  0.43102969181E+02  0.27714973520E+01 -0.91467281655E+02  0.13471168365E+03  0.88968685219E+02 0.  0.
          5    1    3    3  502    0 -0.23312051311E+02 -0.61758125455E+02 -0.25024357486E+01  0.66191029458E+02  0.41800000000E+01 0. -1.
         -5    1    3    3    0  502 -0.19790917870E+02  0.58986628103E+02 -0.34282420775E+02  0.71160800300E+02  0.41800000000E+01 0. -1.
        -11    1    4    4    0    0  0.16971515294E+02  0.12227355993E+02 -0.10264766907E+03  0.10475726482E+03  0.00000000000E+00 0.  1.
         11    1    4    4    0    0  0.26131453886E+02 -0.94558586411E+01  0.11180387420E+02  0.29954418834E+02  0.00000000000E+00 0. -1.
</event>
<event>
 8    1  0.7130890E-009  0.1062349E+03  0.7561462E-02  0.1267705E+00
          1   -1    0    0  501    0  0.00000000000E+00  0.00000000000E+00  0.86128314120E+02  0.86128314120E+02  0.00000000000E+00 0. -1.
         -1   -1    0    0    0  501 -0.00000000000E+00 -0.00000000000E+00 -0.14857559497E+03  0.14857559497E+03  0.00000000000E+00 0.  1.
         25    2    1    2    0    0  0.26026726343E+01 -0.18738410487E+02 -0.27575995693E+02  0.12948471893E+03  0.12509178616E+03 0.  0.
         23    2    1    2    0    0 -0.26026726343E+01  0.18738410487E+02 -0.34871285155E+02  0.10521919016E+03  0.97453422298E+02 0.  0.
          5    1    3    3  502    0 -0.49679725053E+02 -0.40418350236E+02 -0.33544514468E+02  0.72418402137E+02  0.41800000000E+01 0. -1.
         -5    1    3    3    0  502  0.52282397688E+02  0.21679939748E+02  0.59685187746E+01  0.57066316789E+02  0.41800000000E+01 0. -1.
        -11    1    4    4    0    0 -0.45931234956E+02  0.56744967930E+01  0.27593661460E+01  0.46362618131E+02  0.00000000000E+00 0.  1.
         11    1    4    4    0    0  0.43328562322E+02  0.13063913694E+02 -0.37630651301E+02  0.58856572031E+02  0.00000000000E+00 0. -1.
</event>
<event>
 8    1  0.7130890E-009  0.3586404E+03  0.7561462E-02  0.1059123E+00
         -1   -1    0    0    0  501 -0.00000000000E+00  0.00000000000E+00  0.16916932224E+03  0.16916932224E+03  0.00000000000E+00 0.  1.
          1   -1    0    0  501    0  0.00000000000E+00 -0.00000000000E+00 -0.97738987833E+03  0.97738987833E+03  0.00000000000E+00 0. -1.
         25    2    1    2    0    0  0.70222228285E+01  0.34971668887E+03 -0.65862729317E+03  0.75616771934E+03  0.12509450177E+03 0.  0.
         23    2    1    2    0    0 -0.70222228285E+01 -0.34971668887E+03 -0.14959326293E+03  0.39039148123E+03  0.87614440666E+02 0.  0.
          5    1    3    3  502    0 -0.32760914137E+02  0.29084259243E+03 -0.58273494496E+03  0.65211975859E+03  0.41800000000E+01 0. -1.
         -5    1    3    3    0  502  0.39783136966E+02  0.58874096447E+02 -0.75892348200E+02  0.10404796074E+03  0.41800000000E+01 0. -1.
        -11    1    4    4    0    0  0.21631402049E+02 -0.17644849815E+03 -0.11405011362E+03  0.21120941852E+03  0.00000000000E+00 0.  1.
         11    1    4    4    0    0 -0.28653624877E+02 -0.17326819073E+03 -0.35543149312E+02  0.17918206272E+03  0.00000000000E+00 0. -1.
</event>
<event>
 8    1  0.7130890E-009  0.9803556E+02  0.7561462E-02  0.1284482E+00
          1   -1    0    0  501    0  0.00000000000E+00  0.00000000000E+00  0.95761415127E+03  0.95761415127E+03  0.00000000000E+00 0. -1.
         -1   -1    0    0    0  501 -0.00000000000E+00 -0.00000000000E+00 -0.27270376239E+02  0.27270376239E+02  0.00000000000E+00 0.  1.
         25    2    1    2    0    0 -0.85021031664E+02 -0.20916737235E+02  0.74176450807E+03  0.75731666878E+03  0.12509142917E+03 0.  0.
         23    2    1    2    0    0  0.85021031664E+02  0.20916737235E+02  0.18857926696E+03  0.22756785873E+03  0.92514348505E+02 0.  0.
          5    1    3    3  502    0 -0.66949172298E+02  0.62992423230E+01  0.14771415236E+03  0.16235398157E+03  0.41800000000E+01 0.  1.
         -5    1    3    3    0  502 -0.18071859365E+02 -0.27215979558E+02  0.59405035571E+03  0.59496268720E+03  0.41800000000E+01 0.  1.
        -11    1    4    4    0    0  0.15109150413E+02 -0.11216671871E+02 -0.48198477620E+01  0.19425011880E+02  0.00000000000E+00 0.  1.
         11    1    4    4    0    0  0.69911881250E+02  0.32133409106E+02  0.19339911472E+03  0.20814284685E+03  0.00000000000E+00 0. -1.
</event>
<event>
 8    1  0.7130890E-009  0.1964473E+03  0.7561462E-02  0.1152772E+00
          1   -1    0    0  501    0  0.00000000000E+00  0.00000000000E+00  0.55306359413E+02  0.55306359413E+02  0.00000000000E+00 0. -1.
         -1   -1    0    0    0  501 -0.00000000000E+00 -0.00000000000E+00 -0.88700799776E+03  0.88700799776E+03  0.00000000000E+00 0.  1.
         25    2    1    2    0    0  0.75017729968E+02  0.16275962736E+03 -0.28272213625E+03  0.35734745170E+03  0.12508812413E+03 0.  0.
         23    2    1    2    0    0 -0.75017729968E+02 -0.16275962736E+03 -0.54897950209E+03  0.58496690547E+03  0.93217115768E+02 0.  0.
          5    1    3    3  502    0  0.66597748010E+01  0.13414938354E+03 -0.12725627875E+03  0.18507307364E+03  0.41800000000E+01 0.  1.
         -5    1    3    3    0  502  0.68357955167E+02  0.28610243820E+02 -0.15546585750E+03  0.17227437806E+03  0.41800000000E+01 0.  1.
        -11    1    4    4    0    0 -0.68153640619E+02 -0.99151209925E+02 -0.45935346484E+03  0.47484890946E+03  0.00000000000E+00 0.  1.
         11    1    4    4    0    0 -0.68640893487E+01 -0.63608417437E+02 -0.89626037258E+02  0.11011799601E+03  0.00000000000E+00 0. -1.
</event>
<event>
 8    1  0.7130890E-009  0.1067739E+03  0.7561462E-02  0.1266663E+00
         -1   -1    0    0    0  501 -0.00000000000E+00  0.00000000000E+00  0.10945350064E+03  0.10945350064E+03  0.00000000000E+00 0.  1.
          1   -1    0    0  501    0  0.00000000000E+00 -0.00000000000E+00 -0.19509362230E+03  0.19509362230E+03  0.00000000000E+00 0. -1.
         25    2    1    2    0    0  0.29600136446E+02 -0.77658038429E+02  0.98181208248E+01  0.15050085637E+03  0.12508866160E+03 0.  0.
         23    2    1    2    0    0 -0.29600136446E+02  0.77658038429E+02 -0.95458242483E+02  0.15404626657E+03  0.87812511504E+02 0.  0.
          5    1    3    3  502    0  0.63622767728E+02 -0.60649812599E+02 -0.32167409353E+02  0.93693494791E+02  0.41800000000E+01 0. -1.
         -5    1    3    3    0  502 -0.34022631282E+02 -0.17008225830E+02  0.41985530178E+02  0.56807361579E+02  0.41800000000E+01 0. -1.
        -11    1    4    4    0    0 -0.16905561384E+02  0.12826547551E+02  0.14547361520E+02  0.25728273455E+02  0.00000000000E+00 0.  1.
         11    1    4    4    0    0 -0.12694575062E+02  0.64831490878E+02 -0.11000560400E+03  0.12831799312E+03  0.00000000000E+00 0. -1.
</event>
<event>
 8    1  0.7130890E-009  0.1018613E+03  0.7561462E-02  0.1276430E+00
         -2   -1    0    0    0  501 -0.00000000000E+00  0.00000000000E+00  0.27685646767E+02  0.27685646767E+02  0.00000000000E+00 0.  1.
          2   -1    0    0  501    0  0.00000000000E+00 -0.00000000000E+00 -0.45759784455E+03  0.45759784455E+03  0.00000000000E+00 0. -1.
         25    2    1    2    0    0 -0.22828159274E+02  0.10193437968E+02 -0.22956736374E+03  0.26262831381E+03  0.12508967058E+03 0.  0.
         23    2    1    2    0    0  0.22828159274E+02 -0.10193437968E+02 -0.20034483404E+03  0.22265517751E+03  0.93873555972E+02 0.  0.
          5    1    3    3  502    0  0.34319264353E+02 -0.22279994039E+02 -0.16626678714E+03  0.17127850696E+03  0.41800000000E+01 0. -1.
         -5    1    3    3    0  502 -0.57147423627E+02  0.32473432007E+02 -0.63300576606E+02  0.91349806854E+02  0.41800000000E+01 0. -1.
        -11    1    4    4    0    0 -0.19341858447E+02 -0.40444888759E+02 -0.10317140413E+03  0.11249104473E+03  0.00000000000E+00 0. -1.
         11    1    4    4    0    0  0.42170017721E+02  0.30251450790E+02 -0.97173429913E+02  0.11016413278E+03  0.00000000000E+00 0.  1.
</event>
<event>
 8    1  0.7130890E-009  0.1007209E+03  0.7561462E-02  0.1278787E+00
         -2   -1    0    0    0  501 -0.00000000000E+00  0.00000000000E+00  0.35773977553E+03  0.35773977553E+03  0.00000000000E+00 0.  1.
          2   -1    0    0  501    0  0.00000000000E+00 -0.00000000000E+00 -0.65138700028E+02  0.65138700028E+02  0.00000000000E+00 0. -1.
         25    2    1    2    0    0 -0.46409965702E+02 -0.84745426843E+02  0.93305395474E+02  0.18354540106E+03  0.12508934862E+03 0.  0.
         23    2    1    2    0    0  0.46409965702E+02  0.84745426843E+02  0.19929568003E+03  0.23933307450E+03  0.90696638223E+02 0.  0.
          5    1    3    3  502    0 -0.45772471022E+02 -0.69975242860E+02 -0.51688089270E+01  0.83879930272E+02  0.41800000000E+01 0.  1.
         -5    1    3    3    0  502 -0.63749468049E+00 -0.14770183983E+02  0.98474204401E+02  0.99665470785E+02  0.41800000000E+01 0.  1.
        -11    1    4    4    0    0  0.37384230662E+02  0.33107036226E+02  0.22212756324E+02  0.54654030898E+02  0.00000000000E+00 0. -1.
         11    1    4    4    0    0  0.90257350398E+01  0.51638390617E+02  0.17708292370E+03  0.18467904360E+03  0.00000000000E+00 0.  1.
</event>
<event>
 8    1  0.7130890E-009  0.1422323E+03  0.7561462E-02  0.1210356E+00
          2   -1    0    0  501    0  0.00000000000E+00  0.00000000000E+00  0.41441102905E+03  0.41441102905E+03  0.00000000000E+00 0.  1.
         -2   -1    0    0    0  501 -0.00000000000E+00 -0.00000000000E+00 -0.66193477316E+02  0.66193477316E+02  0.00000000000E+00 0. -1.
         25    2    1    2    0    0 -0.19051452424E+02  0.12311732182E+03  0.19627922507E+03  0.26399883167E+03  0.12509602774E+03 0.  0.
         23    2    1    2    0    0  0.19051452424E+02 -0.12311732182E+03  0.15193832666E+03  0.21660567470E+03  0.91169789020E+02 0.  0.
          5    1    3    3  502    0  0.13492190161E+02 -0.81738304035E+01  0.91241911325E+02  0.92689856409E+02  0.41800000000E+01 0.  1.
         -5    1    3    3    0  502 -0.32543642585E+02  0.13129115223E+03  0.10503731374E+03  0.17130897526E+03  0.41800000000E+01 0.  1.
        -11    1    4    4    0    0  0.34045644244E+02 -0.73893490362E+02  0.14278964351E+03  0.16434182701E+03  0.00000000000E+00 0.  1.
         11    1    4    4    0    0 -0.14994191820E+02 -0.49223831461E+02  0.91486831511E+01  0.52263847690E+02  0.00000000000E+00 0. -1.
</event>
<event>
 8    1  0.7130890E-009  0.8885739E+02  0.7561462E-02  0.1305643E+00
          4   -1    0    0  501    0  0.00000000000E+00  0.00000000000E+00  0.20978147163E+02  0.20978147163E+02  0.00000000000E+00 0. -1.
         -4   -1    0    0    0  501 -0.00000000000E+00 -0.00000000000E+00 -0.79728082000E+03  0.79728082000E+03  0.00000000000E+00 0.  1.
         25    2    1    2    0    0  0.49329377834E+02  0.43097657042E+02 -0.49588480597E+03  0.51559421295E+03  0.12507939910E+03 0.  0.
         23    2    1    2    0    0 -0.49329377834E+02 -0.43097657042E+02 -0.28041786687E+03  0.30266475421E+03  0.93171765151E+02 0.  0.
          5    1    3    3  502    0  0.40452442553E+02  0.22350597293E+02 -0.48960651127E+03  0.49180072955E+03  0.41800000000E+01 0. -1.
         -5    1    3    3    0  502  0.88769352814E+01  0.20747059748E+02 -0.62782947004E+01  0.23793483405E+02  0.41800000000E+01 0. -1.
        -11    1    4    4    0    0 -0.63033119303E+02 -0.59710095946E+02 -0.17849503595E+03  0.19849168130E+03  0.00000000000E+00 0. -1.
         11    1    4    4    0    0  0.13703741469E+02  0.16612438905E+02 -0.10192283092E+03  0.10417307291E+03  0.00000000000E+00 0.  1.
</event>
<event>
 8    1  0.7130890E-009  0.2721136E+03  0.7561462E-02  0.1100076E+00
         -2   -1    0    0    0  501 -0.00000000000E+00  0.00000000000E+00  0.16869085195E+03  0.16869085195E+03  0.00000000000E+00 0.  1.
          2   -1    0    0  501    0  0.00000000000E+00 -0.00000000000E+00 -0.48380608733E+03  0.48380608733E+03  0.00000000000E+00 0. -1.
         25    2    1    2    0    0  0.14275262705E+03  0.21857078001E+03 -0.20488354778E+03  0.35464824615E+03  0.12508641791E+03 0.  0.
         23    2    1    2    0    0 -0.14275262705E+03 -0.21857078001E+03 -0.11023168760E+03  0.29784869313E+03  0.91713252287E+02 0.  0.
          5    1    3    3  502    0  0.13078507300E+03  0.15550322134E+03 -0.88492104695E+02  0.22166260885E+03  0.41800000000E+01 0.  1.
         -5    1    3    3    0  502  0.11967554045E+02  0.63067558670E+02 -0.11639144308E+03  0.13298563730E+03  0.41800000000E+01 0.  1.
        -11    1    4    4    0    0 -0.70942807407E+02 -0.18352667193E+03 -0.76266357668E+02  0.21102482922E+03  0.00000000000E+00 0.  1.
         11    1    4    4    0    0 -0.71809819641E+02 -0.35044108080E+02 -0.33965329937E+02  0.86823863918E+02  0.00000000000E+00 0. -1.
</event>
<event>
 8    1  0.7130890E-009  0.1690906E+03  0.7561462E-02  0.1178800E+00
          2   -1    0    0  501    0  0.00000000000E+00  0.00000000000E+00  0.41797967568E+03  0.41797967568E+03  0.00000000000E+00 0. -1.
         -2   -1    0    0    0  501 -0.00000000000E+00 -0.00000000000E+00 -0.89369106902E+02  0.89369106902E+02  0.00000000000E+00 0.  1.
         25    2    1    2    0    0 -0.60953911349E+02  0.13629360694E+03  0.98207457540E+02  0.21814030074E+03  0.12509660063E+03 0.  0.
         23    2    1    2    0    0  0.60953911349E+02 -0.13629360694E+03  0.23040311123E+03  0.28920848184E+03  0.90909986797E+02 0.  0.
          5    1    3    3  502    0 -0.91308045061E+02  0.12276903998E+03  0.10273887677E+03  0.18434246790E+03  0.41800000000E+01 0.  1.
         -5    1    3    3    0  502  0.30354133712E+02  0.13524566960E+02 -0.45314192286E+01  0.33797832846E+02  0.41800000000E+01 0.  1.
        -11    1    4    4    0    0  0.33357435363E+02 -0.10364619202E+03  0.86408644027E+02  0.13900253730E+03  0.00000000000E+00 0.  1.
         11    1    4    4    0    0  0.27596475986E+02 -0.32647414921E+02  0.14399446721E+03  0.15020594454E+03  0.00000000000E+00 0. -1.
</event>
<event>
 8    1  0.7130890E-009  0.1063928E+03  0.7561462E-02  0.1267399E+00
         -2   -1    0    0    0  501 -0.00000000000E+00  0.00000000000E+00  0.49917601580E+02  0.49917601580E+02  0.00000000000E+00 0.  1.
          2   -1    0    0  501    0  0.00000000000E+00 -0.00000000000E+00 -0.39942124106E+03  0.39942124106E+03  0.00000000000E+00 0. -1.
         25    2    1    2    0    0 -0.62303726021E+02  0.65909479486E+01 -0.87593192867E+02  0.16505959161E+03  0.12508759521E+03 0.  0.
         23    2    1    2    0    0  0.62303726021E+02 -0.65909479486E+01 -0.26191044661E+03  0.28427925103E+03  0.91062701755E+02 0.  0.
          5    1    3    3  502    0  0.19397797615E+02  0.13161700933E+02  0.19048322777E+02  0.30492883176E+02  0.41800000000E+01 0. -1.
         -5    1    3    3    0  502 -0.81701523636E+02 -0.65707529848E+01 -0.10664151564E+03  0.13456670843E+03  0.41800000000E+01 0. -1.
        -11    1    4    4    0    0 -0.22197548543E+02 -0.14749235359E+01 -0.89265154672E+02  0.91995512930E+02  0.00000000000E+00 0.  1.
         11    1    4    4    0    0  0.84501274564E+02 -0.51160244127E+01 -0.17264529194E+03  0.19228373810E+03  0.00000000000E+00 0. -1.
</event>
<event>
 8    1  0.7130890E-009  0.1913797E+03  0.7561462E-02  0.1157223E+00
         -1   -1    0    0    0  501 -0.00000000000E+00  0.00000000000E+00  0.65363619361E+02  0.65363619361E+02  0.00000000000E+00 0.  1.
          1   -1    0    0  501    0  0.00000000000E+00 -0.00000000000E+00 -0.56547913149E+03  0.56547913149E+03  0.00000000000E+00 0. -1.
         25    2    1    2    0    0 -0.64996756300E+02  0.14434493059E+03 -0.27427975014E+03  0.34049537170E+03  0.12509068510E+03 0.  0.
         23    2    1    2    0    0  0.64996756300E+02 -0.14434493059E+03 -0.22583576199E+03  0.29034737915E+03  0.90773189139E+02 0.  0.
          5    1    3    3  502    0 -0.87126253364E+02  0.43958580369E+02 -0.15218031996E+03  0.18083048138E+03  0.41800000000E+01 0. -1.
         -5    1    3    3    0  502  0.22129497065E+02  0.10038635023E+03 -0.12209943018E+03  0.15966489033E+03  0.41800000000E+01 0. -1.
        -11    1    4    4    0    0 -0.19024201120E+02 -0.60826036749E+02 -0.86789703124E+02  0.10767627196E+03  0.00000000000E+00 0.  1.
         11    1    4    4    0    0  0.84020957420E+02 -0.83518893845E+02 -0.13904605887E+03  0.18267110719E+03  0.00000000000E+00 0. -1.
</event>
<event>
 8    1  0.7130890E-009  0.1003041E+03  0.7561462E-02  0.1279658E+00
          2   -1    0    0  501    0  0.00000000000E+00  0.00000000000E+00  0.18743323191E+02  0.18743323191E+02  0.00000000000E+00 0. -1.
         -2   -1    0    0    0  501 -0.00000000000E+00 -0.00000000000E+00 -0.75771723218E+03  0.75771723218E+03  0.00000000000E+00 0.  1.
         25    2    1    2    0    0 -0.23191382966E+01  0.26714485414E+02 -0.52006951249E+03  0.53557336369E+03  0.12508991941E+03 0.  0.
         23    2    1    2    0    0  0.23191382966E+01 -0.26714485414E+02 -0.21890439650E+03  0.24088719168E+03  0.96894077094E+02 0.  0.
          5    1    3    3  502    0 -0.56608083727E+02 -0.73810220377E+01 -0.16270016143E+03  0.17247541726E+03  0.41800000000E+01 0. -1.
         -5    1    3    3    0  502  0.54288945430E+02  0.34095507452E+02 -0.35736935106E+03  0.36309794643E+03  0.41800000000E+01 0. -1.
        -11    1    4    4    0    0  0.32675703458E+02  0.73543964485E+01 -0.17281273097E+03  0.17602848840E+03  0.00000000000E+00 0.  1.
         11    1    4    4    0    0 -0.30356565162E+02 -0.34068881863E+02 -0.46091665527E+02  0.64858703278E+02  0.00000000000E+00 0. -1.
</event>
<event>
 8    1  0.7130890E-009  0.6958378E+02  0.7561462E-02  0.1361514E+00
         -1   -1    0    0    0  501 -0.00000000000E+00  0.00000000000E+00  0.98999080875E+02  0.98999080875E+02  0.00000000000E+00 0.  1.
          1   -1    0    0  501    0  0.00000000000E+00 -0.00000000000E+00 -0.16066520798E+03  0.16066520798E+03  0.00000000000E+00 0. -1.
         25    2    1    2    0    0  0.26123904749E+02 -0.43011253679E+02 -0.74348750767E+02  0.15397280318E+03  0.12508981188E+03 0.  0.
         23    2    1    2    0    0 -0.26123904749E+02  0.43011253679E+02  0.12682623663E+02  0.10569148568E+03  0.92072877979E+02 0.  0.
          5    1    3    3  502    0  0.23340454946E+02 -0.39348613839E+02  0.26431027449E+02  0.53001526960E+02  0.41800000000E+01 0. -1.
         -5    1    3    3    0  502  0.27834498032E+01 -0.36626398400E+01 -0.10077977822E+03  0.10097127622E+03  0.41800000000E+01 0. -1.
        -11    1    4    4    0    0  0.16506962466E+02  0.41152423311E+02  0.35955781182E+02  0.57086074962E+02  0.00000000000E+00 0.  1.
         11    1    4    4    0    0 -0.42630867216E+02  0.18588303682E+01 -0.23273157519E+02  0.48605410715E+02  0.00000000000E+00 0. -1.
</event>
<event>
 8    1  0.7130890E-009  0.2572372E+03  0.7561462E-02  0.1108815E+00
         -1   -1    0    0    0  501 -0.00000000000E+00  0.00000000000E+00  0.96961035109E+02  0.96961035109E+02  0.00000000000E+00 0.  1.
          1   -1    0    0  501    0  0.00000000000E+00 -0.00000000000E+00 -0.78624653498E+03  0.78624653498E+03  0.00000000000E+00 0. -1.
         25    2    1    2    0    0 -0.14559882170E+03  0.19838678768E+03 -0.25435211146E+03  0.37536476917E+03  0.12508948369E+03 0.  0.
         23    2    1    2    0    0  0.14559882170E+03 -0.19838678768E+03 -0.43493338842E+03  0.50784280092E+03  0.90448458673E+02 0.  0.
          5    1    3    3  502    0 -0.86289443974E+02  0.47263156113E+02 -0.15905111379E+03  0.18706791084E+03  0.41800000000E+01 0.  1.
         -5    1    3    3    0  502 -0.59309377729E+02  0.15112363156E+03 -0.95300997667E+02  0.18829685834E+03  0.41800000000E+01 0.  1.
        -11    1    4    4    0    0  0.31851494786E+02 -0.97265948887E+01 -0.11258659518E+03  0.11740896806E+03  0.00000000000E+00 0.  1.
         11    1    4    4    0    0  0.11374732692E+03 -0.18866019279E+03 -0.32234679324E+03  0.39043383285E+03  0.00000000000E+00 0. -1.
</event>
<event>
 8    1  0.7130890E-009  0.1043459E+03  0.7561462E-02  0.1271414E+00
          2   -1    0    0  501    0  0.00000000000E+00  0.00000000000E+00  0.21676727273E+03  0.21676727273E+03  0.00000000000E+00 0. -1.
         -2   -1    0    0    0  501 -0.00000000000E+00 -0.00000000000E+00 -0.70808554098E+02  0.70808554098E+02  0.00000000000E+00 0.  1.
         25    2    1    2    0    0 -0.34853444077E+02 -0.29241044235E+02  0.36981664467E+02  0.13814626014E+03  0.12508774701E+03 0.  0.
         23    2    1    2    0    0  0.34853444077E+02  0.29241044235E+02  0.10897705417E+03  0.14942956669E+03  0.91560885939E+02 0.  0.
          5    1    3    3  502    0 -0.28283472839E+02 -0.66755396283E+02  0.59343812909E+02  0.93783784842E+02  0.41800000000E+01 0.  1.
         -5    1    3    3    0  502 -0.65699712382E+01  0.37514352048E+02 -0.22362148442E+02  0.44362475299E+02  0.41800000000E+01 0.  1.
        -11    1    4    4    0    0  0.60556790655E+02  0.24148886052E+01  0.87738608702E+02  0.10663498506E+03  0.00000000000E+00 0.  1.
         11    1    4    4    0    0 -0.25703346578E+02  0.26826155630E+02  0.21238445465E+02  0.42794581631E+02  0.00000000000E+00 0. -1.
</event>
<event>
 8    1  0.7130890E-009  0.1390441E+03  0.7561462E-02  0.1214621E+00
          2   -1    0    0  501    0  0.00000000000E+00  0.00000000000E+00  0.41482837245E+02  0.41482837245E+02  0.00000000000E+00 0. -1.
         -2   -1    0    0    0  501 -0.00000000000E+00 -0.00000000000E+00 -0.51010749180E+03  0.51010749180E+03  0.00000000000E+00 0.  1.
         25    2    1    2    0    0 -0.50563662453E+01 -0.96074132715E+02 -0.24774876245E+03  0.29374018696E+03  0.12509213533E+03 0.  0.
         23    2    1    2    0    0  0.50563662453E+01  0.96074132715E+02 -0.22087589210E+03  0.25785014209E+03  0.91895213398E+02 0.  0.
          5    1    3    3  502    0 -0.64108144074E+02 -0.59364182780E+02 -0.15132363529E+03  0.17478637056E+03  0.41800000000E+01 0.  1.
         -5    1    3    3    0  502  0.59051777829E+02 -0.36709949935E+02 -0.96425127160E+02  0.11895381640E+03  0.41800000000E+01 0.  1.
        -11    1    4    4    0    0  0.30366108135E+02  0.89922557451E+02 -0.11647128370E+03  0.15024555497E+03  0.00000000000E+00 0. -1.
         11    1    4    4    0    0 -0.25309741890E+02  0.61515752646E+01 -0.10440460840E+03  0.10760458712E+03  0.00000000000E+00 0.  1.
</event>
<event>
 8    1  0.7130890E-009  0.1131790E+03  0.7561462E-02  0.1254794E+00
         -2   -1    0    0    0  501 -0.00000000000E+00  0.00000000000E+00  0.14676288484E+03  0.14676288484E+03  0.00000000000E+00 0.  1.
          2   -1    0    0  501    0  0.00000000000E+00 -0.00000000000E+00 -0.17939124433E+03  0.17939124433E+03  0.00000000000E+00 0. -1.
         25    2    1    2    0    0  0.70196718179E+02 -0.47451388423E+02 -0.98985265285E+02  0.18062352781E+03  0.12509021764E+03 0.  0.
         23    2    1    2    0    0 -0.70196718179E+02  0.47451388423E+02  0.66356905799E+02  0.14553060135E+03  0.97962765765E+02 0.  0.
          5    1    3    3  502    0  0.69626866426E+02  0.15357278899E+02 -0.10739208407E+02  0.72225684771E+02  0.41800000000E+01 0.  1.
         -5    1    3    3    0  502  0.56985175355E+00 -0.62808667322E+02 -0.88246056878E+02  0.10839784304E+03  0.41800000000E+01 0.  1.
        -11    1    4    4    0    0 -0.45898904637E+02  0.49616635153E+02 -0.72577729707E+01  0.67979373337E+02  0.00000000000E+00 0. -1.
         11    1    4    4    0    0 -0.24297813542E+02 -0.21652467300E+01  0.73614678769E+02  0.77551228015E+02  0.00000000000E+00 0.  1.
</event>
<event>
 8    1  0.7130890E-009  0.8144613E+02  0.7561462E-02  0.1324997E+00
         -1   -1    0    0    0  501 -0.00000000000E+00  0.00000000000E+00  0.20655306914E+02  0.20655306914E+02  0.00000000000E+00 0.  1.
          1   -1    0    0  501    0  0.00000000000E+00 -0.00000000000E+00 -0.10543659240E+04  0.10543659240E+04  0.00000000000E+00 0. -1.
         25    2    1    2    0    0 -0.35852632323E+02 -0.31021836731E+02 -0.87948836815E+03  0.88960382898E+03  0.12508963679E+03 0.  0.
         23    2    1    2    0    0  0.35852632323E+02  0.31021836731E+02 -0.15422224890E+03  0.18541740190E+03  0.91363807227E+02 0.  0.
          5    1    3    3  502    0 -0.28752349238E+02  0.36934005886E+02 -0.15705632208E+03  0.16393589931E+03  0.41800000000E+01 0. -1.
         -5    1    3    3    0  502 -0.71002830846E+01 -0.67955842617E+02 -0.72243204607E+03  0.72566792967E+03  0.41800000000E+01 0. -1.
        -11    1    4    4    0    0  0.11833366450E+02  0.91092221878E+01  0.10022915272E+02  0.17985141672E+02  0.00000000000E+00 0.  1.
         11    1    4    4    0    0  0.24019265872E+02  0.21912614543E+02 -0.16424516417E+03  0.16743226022E+03  0.00000000000E+00 0. -1.
</event>
<event>
 8    1  0.7130890E-009  0.1099574E+03  0.7561462E-02  0.1260649E+00
          1   -1    0    0  501    0  0.00000000000E+00  0.00000000000E+00  0.11098679816E+04  0.11098679816E+04  0.00000000000E+00 0. -1.
         -1   -1    0    0    0  501 -0.00000000000E+00 -0.00000000000E+00 -0.17585871009E+02  0.17585871009E+02  0.00000000000E+00 0.  1.
         25    2    1    2    0    0 -0.75265121850E+02 -0.13126829410E+02  0.77219851964E+03  0.78598711539E+03  0.12509212452E+03 0.  0.
         23    2    1    2    0    0  0.75265121850E+02  0.13126829410E+02  0.32008359096E+03  0.34146673722E+03  0.91153031822E+02 0.  0.
          5    1    3    3  502    0 -0.57231502830E+02 -0.42831659018E+02  0.19505661441E+03  0.20778486748E+03  0.41800000000E+01 0.  1.
         -5    1    3    3    0  502 -0.18033619020E+02  0.29704829608E+02  0.57714190523E+03  0.57820224791E+03  0.41800000000E+01 0.  1.
        -11    1    4    4    0    0  0.73721694479E+02 -0.22939515434E+02  0.16403371351E+03  0.18129580462E+03  0.00000000000E+00 0.  1.
         11    1    4    4    0    0  0.15434273705E+01  0.36066344844E+02  0.15604987745E+03  0.16017093260E+03  0.00000000000E+00 0. -1.
</event>
<event>
 8    1  0.7130890E-009  0.2020222E+03  0.7561462E-02  0.1148044E+00
         -2   -1    0    0    0  501 -0.00000000000E+00  0.00000000000E+00  0.47792448921E+02  0.47792448921E+02  0.00000000000E+00 0.  1.
          2   -1    0    0  501    0  0.00000000000E+00 -0.00000000000E+00 -0.10595473089E+04  0.10595473089E+04  0.00000000000E+00 0. -1.
         25    2    1    2    0    0 -0.11629172300E+03  0.12398248526E+03 -0.28061222903E+03  0.35112043770E+03  0.12508763808E+03 0.  0.
         23    2    1    2    0    0  0.11629172300E+03 -0.12398248526E+03 -0.73114263091E+03  0.75621932009E+03  0.91666197939E+02 0.  0.
          5    1    3    3  502    0 -0.14259780053E+03  0.94155218004E+02 -0.22243224285E+03  0.28052257102E+03  0.41800000000E+01 0.  1.
         -5    1    3    3    0  502  0.26306077535E+02  0.29827267256E+02 -0.58179986182E+02  0.70597866677E+02  0.41800000000E+01 0.  1.
        -11    1    4    4    0    0  0.67828888898E+02 -0.12762117140E+03 -0.54840517131E+03  0.56712975012E+03  0.00000000000E+00 0.  1.
         11    1    4    4    0    0  0.48462834099E+02  0.36386861378E+01 -0.18273745961E+03  0.18908956996E+03  0.00000000000E+00 0. -1.
</event>
<event>
 8    1  0.7130890E-009  0.1243159E+03  0.7561462E-02  0.1236142E+00
          2   -1    0    0  501    0  0.00000000000E+00  0.00000000000E+00  0.47547517172E+03  0.47547517172E+03  0.00000000000E+00 0. -1.
         -2   -1    0    0    0  501 -0.00000000000E+00 -0.00000000000E+00 -0.34913777294E+02  0.34913777294E+02  0.00000000000E+00 0.  1.
         25    2    1    2    0    0  0.28945370351E+01  0.67094188336E+02  0.24907526637E+03  0.28670217804E+03  0.12509852966E+03 0.  0.
         23    2    1    2    0    0 -0.28945370351E+01 -0.67094188336E+02  0.19148612806E+03  0.22368677097E+03  0.94121335611E+02 0.  0.
          5    1    3    3  502    0 -0.49775779381E+02  0.31117091059E+01  0.48729095135E+02  0.69852044058E+02  0.41800000000E+01 0.  1.
         -5    1    3    3    0  502  0.52670316416E+02  0.63982479230E+02  0.20034617123E+03  0.21685013398E+03  0.41800000000E+01 0.  1.
        -11    1    4    4    0    0  0.30792529054E+02  0.92564652539E+01  0.51506851729E+02  0.60719171351E+02  0.00000000000E+00 0.  1.
         11    1    4    4    0    0 -0.33687066089E+02 -0.76350653589E+02  0.13997927633E+03  0.16296759962E+03  0.00000000000E+00 0. -1.
</event>
<event>
 8    1  0.7130890E-009  0.1662170E+03  0.7561462E-02  0.1181851E+00
          2   -1    0    0  501    0  0.00000000000E+00  0.00000000000E+00  0.11741934028E+04  0.11741934028E+04  0.00000000000E+00 0. -1.
         -2   -1    0    0    0  501 -0.00000000000E+00 -0.00000000000E+00 -0.34014140392E+02  0.34014140392E+02  0.00000000000E+00 0.  1.
         25    2    1    2    0    0 -0.86966542540E+02  0.11325240935E+03  0.86289458527E+03  0.88352929043E+03  0.12509058323E+03 0.  0.
         23    2    1    2    0    0  0.86966542540E+02 -0.11325240935E+03  0.27728467710E+03  0.32467825272E+03  0.90221327268E+02 0.  0.
          5    1    3    3  502    0  0.94204874681E+01 -0.20327322626E+02  0.15777124362E+03  0.15940885591E+03  0.41800000000E+01 0.  1.
         -5    1    3    3    0  502 -0.96387030008E+02  0.13357973197E+03  0.70512334164E+03  0.72412043451E+03  0.41800000000E+01 0.  1.
        -11    1    4    4    0    0  0.29905466768E+02 -0.58922982647E+02  0.46456956562E+02  0.80774399655E+02  0.00000000000E+00 0.  1.
         11    1    4    4    0    0  0.57061075772E+02 -0.54329426699E+02  0.23082772054E+03  0.24390385307E+03  0.00000000000E+00 0. -1.
</event>
<event>
 8    1  0.7130890E-009  0.5101453E+02  0.7561462E-02  0.1439945E+00
          3   -1    0    0  501    0  0.00000000000E+00  0.00000000000E+00  0.21299425590E+03  0.21299425590E+03  0.00000000000E+00 0. -1.
         -3   -1    0    0    0  501 -0.00000000000E+00 -0.00000000000E+00 -0.64039222572E+02  0.64039222572E+02  0.00000000000E+00 0.  1.
         25    2    1    2    0    0  0.31916319542E+02 -0.65543598319E+00  0.52464010295E+02  0.13935167432E+03  0.12508931093E+03 0.  0.
         23    2    1    2    0    0 -0.31916319542E+02  0.65543598319E+00  0.96491023037E+02  0.13768180416E+03  0.92879925821E+02 0.  0.
          5    1    3    3  502    0  0.27611527601E+02  0.31346314918E+01  0.93538505327E+02  0.97668555583E+02  0.41800000000E+01 0.  1.
         -5    1    3    3    0  502  0.43047919415E+01 -0.37900674750E+01 -0.41074495032E+02  0.41683118732E+02  0.41800000000E+01 0.  1.
        -11    1    4    4    0    0 -0.23620250795E+02  0.28939305398E+02  0.59681394890E+00  0.37359815731E+02  0.00000000000E+00 0.  1.
         11    1    4    4    0    0 -0.82960687470E+01 -0.28283869415E+02  0.95894209088E+02  0.10032198843E+03  0.00000000000E+00 0. -1.
</event>
<event>
 8    1  0.7130890E-009  0.1141931E+03  0.7561462E-02  0.1252996E+00
         -1   -1    0    0    0  501 -0.00000000000E+00  0.00000000000E+00  0.12550054880E+03  0.12550054880E+03  0.00000000000E+00 0.  1.
          1   -1    0    0  501    0  0.00000000000E+00 -0.00000000000E+00 -0.12806456522E+03  0.12806456522E+03  0.00000000000E+00 0. -1.
         25    2    1    2    0    0  0.44196865981E+02 -0.38313187417E+02 -0.27876852505E+02  0.14087497540E+03  0.12508947397E+03 0.  0.
         23    2    1    2    0    0 -0.44196865981E+02  0.38313187417E+02  0.25312836083E+02  0.11269013862E+03  0.92935807840E+02 0.  0.
          5    1    3    3  502    0  0.83948868179E+02 -0.44909945764E+02 -0.76790540089E+01  0.95607300807E+02  0.41800000000E+01 0.  1.
         -5    1    3    3    0  502 -0.39752002198E+02  0.65967583478E+01 -0.20197798496E+02  0.45267674598E+02  0.41800000000E+01 0.  1.
        -11    1    4    4    0    0 -0.46545245006E+02 -0.71160649430E+01  0.43112424259E+02  0.63841830632E+02  0.00000000000E+00 0.  1.
         11    1    4    4    0    0  0.23483790254E+01  0.45429252360E+02 -0.17799588176E+02  0.48848307987E+02  0.00000000000E+00 0. -1.
</event>
<event>
 8    1  0.7130890E-009  0.2343158E+03  0.7561462E-02  0.1123638E+00
          2   -1    0    0  501    0  0.00000000000E+00  0.00000000000E+00  0.15220892229E+03  0.15220892229E+03  0.00000000000E+00 0. -1.
         -2   -1    0    0    0  501 -0.00000000000E+00 -0.00000000000E+00 -0.39039626213E+03  0.39039626213E+03  0.00000000000E+00 0.  1.
         25    2    1    2    0    0  0.15759878932E+03 -0.13852663100E+03 -0.18954981803E+03  0.30919837768E+03  0.12508995702E+03 0.  0.
         23    2    1    2    0    0 -0.15759878932E+03  0.13852663100E+03 -0.48637521805E+02  0.23340680674E+03  0.89922872576E+02 0.  0.
          5    1    3    3  502    0  0.88747042620E+02 -0.23087785121E+01 -0.92505918340E+02  0.12828166416E+03  0.41800000000E+01 0. -1.
         -5    1    3    3    0  502  0.68851746703E+02 -0.13621785249E+03 -0.97043899693E+02  0.18091671352E+03  0.41800000000E+01 0. -1.
        -11    1    4    4    0    0 -0.30107033637E+02  0.82477669610E+02 -0.30574823401E+02  0.92972142520E+02  0.00000000000E+00 0.  1.
         11    1    4    4    0    0 -0.12749175569E+03  0.56048961394E+02 -0.18062698404E+02  0.14043466422E+03  0.00000000000E+00 0. -1.
</event>
<event>
 8    1  0.7130890E-009  0.1401829E+03  0.7561462E-02  0.1213083E+00
         -1   -1    0    0    0  501 -0.00000000000E+00  0.00000000000E+00  0.56477627366E+02  0.56477627366E+02  0.00000000000E+00 0.  1.
          1   -1    0    0  501    0  0.00000000000E+00 -0.00000000000E+00 -0.63502492899E+03  0.63502492899E+03  0.00000000000E+00 0. -1.
         25    2    1    2    0    0 -0.13529310825E+03  0.35328754753E+02 -0.42336902364E+03  0.46307807028E+03  0.12509045904E+03 0.  0.
         23    2    1    2    0    0  0.13529310825E+03 -0.35328754753E+02 -0.15517827798E+03  0.22842448607E+03  0.92439719969E+02 0.  0.
          5    1    3    3  502    0 -0.11241836479E+03  0.31272590593E+02 -0.42367653283E+03  0.43947143313E+03  0.41800000000E+01 0. -1.
         -5    1    3    3    0  502 -0.22874743458E+02  0.40561641599E+01  0.30750918464E+00  0.23606637157E+02  0.41800000000E+01 0. -1.
        -11    1    4    4    0    0  0.71108289650E+02 -0.22121085017E+02 -0.14376589335E+03  0.16190850302E+03  0.00000000000E+00 0. -1.
         11    1    4    4    0    0  0.64184818599E+02 -0.13207669736E+02 -0.11412384630E+02  0.66515983052E+02  0.00000000000E+00 0.  1.
</event>
<event>
 8    1  0.7130890E-009  0.3565312E+03  0.7561462E-02  0.1059966E+00
         -2   -1    0    0    0  501 -0.00000000000E+00  0.00000000000E+00  0.10955433809E+03  0.10955433809E+03  0.00000000000E+00 0.  1.
          2   -1    0    0  501    0  0.00000000000E+00 -0.00000000000E+00 -0.17504750807E+04  0.17504750807E+04  0.00000000000E+00 0. -1.
         25    2    1    2    0    0  0.75395665147E+02  0.34280005707E+03 -0.32279763235E+03  0.49299342868E+03  0.12509126194E+03 0.  0.
         23    2    1    2    0    0 -0.75395665147E+02 -0.34280005707E+03 -0.13181231102E+04  0.13670359901E+04  0.90235685992E+02 0.  0.
          5    1    3    3  502    0  0.11645922023E+02  0.24457513703E+02 -0.88358789988E+02  0.92512408056E+02  0.41800000000E+01 0.  1.
         -5    1    3    3    0  502  0.63749743123E+02  0.31834254337E+03 -0.23443884236E+03  0.40048102062E+03  0.41800000000E+01 0.  1.
        -11    1    4    4    0    0  0.10814978475E+02 -0.14235183545E+03 -0.46280088822E+03  0.48431980235E+03  0.00000000000E+00 0.  1.
         11    1    4    4    0    0 -0.86210643622E+02 -0.20044822162E+03 -0.85532222202E+03  0.88271618775E+03  0.00000000000E+00 0. -1.
</event>
<event>
 8    1  0.7130890E-009  0.9982913E+02  0.7561462E-02  0.1280656E+00
          3   -1    0    0  501    0  0.00000000000E+00  0.00000000000E+00  0.26736791927E+03  0.26736791927E+03  0.00000000000E+00 0. -1.
         -3   -1    0    0    0  501 -0.00000000000E+00 -0.00000000000E+00 -0.59631582803E+02  0.59631582803E+02  0.00000000000E+00 0.  1.
         25    2    1    2    0    0 -0.20879713531E+02 -0.60117282612E+02  0.12169188633E+03  0.18576382344E+03  0.12509689362E+03 0.  0.
         23    2    1    2    0    0  0.20879713531E+02  0.60117282612E+02  0.86044450131E+02  0.14123567863E+03  0.92161919545E+02 0.  0.
          5    1    3    3  502    0 -0.30537090139E+02  0.24215837967E+02  0.23683086113E+01  0.39268332894E+02  0.41800000000E+01 0.  1.
         -5    1    3    3    0  502  0.96573766078E+01 -0.84333120579E+02  0.11932357772E+03  0.14649549055E+03  0.41800000000E+01 0.  1.
        -11    1    4    4    0    0  0.74346057175E+01  0.61509599242E+02  0.85184586663E+01  0.62540133507E+02  0.00000000000E+00 0.  1.
         11    1    4    4    0    0  0.13445107814E+02 -0.13923166297E+01  0.77525991465E+02  0.78695545124E+02  0.00000000000E+00 0. -1.
</event>
<event>
 8    1  0.7130890E-009  0.2414424E+03  0.7561462E-02  0.1118836E+00
          1   -1    0    0  501    0  0.00000000000E+00  0.00000000000E+00  0.10517391892E+04  0.10517391892E+04  0.00000000000E+00 0. -1.
         -1   -1    0    0    0  501 -0.00000000000E+00 -0.00000000000E+00 -0.72966841673E+02  0.72966841673E+02  0.00000000000E+00 0.  1.
         25    2    1    2    0    0  0.17472237705E+03 -0.13952308215E+03  0.25559734715E+03  0.36189816159E+03  0.12508267664E+03 0.  0.
         23    2    1    2    0    0 -0.17472237705E+03  0.13952308215E+03  0.72317500037E+03  0.76280786928E+03  0.94335384578E+02 0.  0.
          5    1    3    3  502    0  0.32284223349E+02 -0.90092275331E+02  0.14924902031E+03  0.17734607866E+03  0.41800000000E+01 0.  1.
         -5    1    3    3    0  502  0.14243815370E+03 -0.49430806822E+02  0.10634832684E+03  0.18455208293E+03  0.41800000000E+01 0.  1.
        -11    1    4    4    0    0 -0.97535132178E+02  0.29566322752E+02  0.22819589421E+03  0.24992125876E+03  0.00000000000E+00 0.  1.
         11    1    4    4    0    0 -0.77187244867E+02  0.10995675940E+03  0.49497910616E+03  0.51288661052E+03  0.00000000000E+00 0. -1.
</event>
<event>
 8    1  0.7130890E-009  0.1207790E+03  0.7561462E-02  0.1241817E+00
         -3   -1    0    0    0  501 -0.00000000000E+00  0.00000000000E+00  0.12006437780E+03  0.12006437780E+03  0.00000000000E+00 0.  1.
          3   -1    0    0  501    0  0.00000000000E+00 -0.00000000000E+00 -0.14323865357E+03  0.14323865357E+03  0.00000000000E+00 0. -1.
         25    2    1    2    0    0 -0.23664469638E+02  0.69736206606E+02 -0.53041664508E+01  0.14525190967E+03  0.12508731929E+03 0.  0.
         23    2    1    2    0    0  0.23664469638E+02 -0.69736206606E+02 -0.17870109318E+02  0.11805112170E+03  0.90518400852E+02 0.  0.
          5    1    3    3  502    0 -0.11043654957E+02 -0.32538886703E+02  0.18723249128E+02  0.39354465065E+02  0.41800000000E+01 0. -1.
         -5    1    3    3    0  502 -0.12620814681E+02  0.10227509331E+03 -0.24027415579E+02  0.10589744461E+03  0.41800000000E+01 0. -1.
        -11    1    4    4    0    0  0.47000417103E+02 -0.64640525253E+02  0.10896252475E+02  0.80660802320E+02  0.00000000000E+00 0.  1.
         11    1    4    4    0    0 -0.23335947466E+02 -0.50956813534E+01 -0.28766361794E+02  0.37390319381E+02  0.00000000000E+00 0. -1.
</event>
<event>
 8    1  0.7130890E-009  0.1351184E+03  0.7561462E-02  0.1220053E+00
         -1   -1    0    0    0  501 -0.00000000000E+00  0.00000000000E+00  0.30170273167E+02  0.30170273167E+02  0.00000000000E+00 0. -1.
          1   -1    0    0  501    0  0.00000000000E+00 -0.00000000000E+00 -0.68469092485E+03  0.68469092485E+03  0.00000000000E+00 0.  1.
         25    2    1    2    0    0 -0.81072252760E+02  0.37951889041E+02 -0.35191365735E+03  0.38406418142E+03  0.12509603178E+03 0.  0.
         23    2    1    2    0    0  0.81072252760E+02 -0.37951889041E+02 -0.30260699433E+03  0.33079701660E+03  0.99209964849E+02 0.  0.
          5    1    3    3  502    0 -0.10451834155E+02  0.71563342314E+02 -0.20744264189E+03  0.21972818407E+03  0.41800000000E+01 0. -1.
         -5    1    3    3    0  502 -0.70620418605E+02 -0.33611453273E+02 -0.14447101546E+03  0.16433599735E+03  0.41800000000E+01 0. -1.
        -11    1    4    4    0    0  0.22793153884E+02  0.24900228712E+02 -0.16695998473E+03  0.17033844473E+03  0.00000000000E+00 0.  1.
         11    1    4    4    0    0  0.58279098876E+02 -0.62852117753E+02 -0.13564700961E+03  0.16045857187E+03  0.00000000000E+00 0. -1.
</event>
<event>
 8    1  0.7130890E-009  0.1075724E+03  0.7561462E-02  0.1265133E+00
         -2   -1    0    0    0  501 -0.00000000000E+00  0.00000000000E+00  0.41192480962E+02  0.41192480962E+02  0.00000000000E+00 0. -1.
          2   -1    0    0  501    0  0.00000000000E+00 -0.00000000000E+00 -0.52549920621E+03  0.52549920621E+03  0.00000000000E+00 0.  1.
         25    2    1    2    0    0 -0.91650402753E+02 -0.73888696836E+01 -0.33645002603E+03  0.37054064856E+03  0.12508941002E+03 0.  0.
         23    2    1    2    0    0  0.91650402753E+02  0.73888696836E+01 -0.14785669923E+03  0.19615103862E+03  0.90328482363E+02 0.  0.
          5    1    3    3  502    0 -0.48129844631E+02  0.12210128887E+02 -0.31346307716E+03  0.31739902699E+03  0.41800000000E+01 0.  1.
         -5    1    3    3    0  502 -0.43520558122E+02 -0.19598998570E+02 -0.22986948862E+02  0.53141621562E+02  0.41800000000E+01 0.  1.
        -11    1    4    4    0    0  0.10261276441E+03 -0.24929713153E+01 -0.14945331606E+03  0.18130606170E+03  0.00000000000E+00 0.  1.
         11    1    4    4    0    0 -0.10962361654E+02  0.98818409990E+01  0.15966168376E+01  0.14844976925E+02  0.00000000000E+00 0. -1.
</event>
<event>
 8    1  0.7130890E-009  0.1449406E+03  0.7561462E-02  0.1206831E+00
         -1   -1    0    0    0  501 -0.00000000000E+00  0.00000000000E+00  0.26018493536E+02  0.26018493536E+02  0.00000000000E+00 0.  1.
          1   -1    0    0  501    0  0.00000000000E+00 -0.00000000000E+00 -0.92154680392E+03  0.92154680392E+03  0.00000000000E+00 0. -1.
         25    2    1    2    0    0 -0.88363511718E+02  0.66969600597E+02 -0.50885485441E+03  0.53560650218E+03  0.12509206495E+03 0.  0.
         23    2    1    2    0    0  0.88363511718E+02 -0.66969600597E+02 -0.38667345598E+03  0.41195879528E+03  0.88885599753E+02 0.  0.
          5    1    3    3  502    0 -0.18383916176E+02  0.90989818155E+02 -0.29346199983E+03  0.30782224274E+03  0.41800000000E+01 0. -1.
         -5    1    3    3    0  502 -0.69979595541E+02 -0.24020217558E+02 -0.21539285458E+03  0.22778425944E+03  0.41800000000E+01 0. -1.
        -11    1    4    4    0    0  0.52510113949E+01  0.88908299618E+01 -0.11984504205E+01  0.10395011375E+02  0.00000000000E+00 0.  1.
         11    1    4    4    0    0  0.83112500323E+02 -0.75860430559E+02 -0.38547500556E+03  0.40156378390E+03  0.00000000000E+00 0. -1.
</event>
<event>
 8    1  0.7130890E-009  0.2214832E+03  0.7561462E-02  0.1132782E+00
         -2   -1    0    0    0  501 -0.00000000000E+00  0.00000000000E+00  0.27462063095E+03  0.27462063095E+03  0.00000000000E+00 0.  1.
          2   -1    0    0  501    0  0.00000000000E+00 -0.00000000000E+00 -0.23480537302E+03  0.23480537302E+03  0.00000000000E+00 0. -1.
         25    2    1    2    0    0  0.15330694296E+03  0.12374198640E+03 -0.96939732112E+02  0.25270360334E+03  0.12508677598E+03 0.  0.
         23    2    1    2    0    0 -0.15330694296E+03 -0.12374198640E+03  0.13675499005E+03  0.25672240063E+03  0.91593480803E+02 0.  0.
          5    1    3    3  502    0 -0.18231192716E+02  0.35522793559E+02 -0.12052632315E+02  0.41916388153E+02  0.41800000000E+01 0. -1.
         -5    1    3    3    0  502  0.17153813567E+03  0.88219192838E+02 -0.84887099797E+02  0.21078721519E+03  0.41800000000E+01 0. -1.
        -11    1    4    4    0    0 -0.13480940531E+03 -0.67676666999E+02  0.66214608568E+02  0.16473639975E+03  0.00000000000E+00 0.  1.
         11    1    4    4    0    0 -0.18497537652E+02 -0.56065319398E+02  0.70540381480E+02  0.91986000879E+02  0.00000000000E+00 0. -1.
</event>
<event>
 8    1  0.7130890E-009  0.6212950E+02  0.7561462E-02  0.1389106E+00
          2   -1    0    0  501    0  0.00000000000E+00  0.00000000000E+00  0.84110683689E+03  0.84110683689E+03  0.00000000000E+00 0. -1.
         -2   -1    0    0    0  501 -0.00000000000E+00 -0.00000000000E+00 -0.19498477241E+02  0.19498477241E+02  0.00000000000E+00 0.  1.
         25    2    1    2    0    0  0.24909596690E+02 -0.29828195246E+02  0.60337283528E+03  0.61742771651E+03  0.12509195626E+03 0.  0.
         23    2    1    2    0    0 -0.24909596690E+02  0.29828195246E+02  0.21823552436E+03  0.24317759762E+03  0.99991952927E+02 0.  0.
          5    1    3    3  502    0  0.19846211332E+02 -0.33406936936E+02  0.60758806055E+03  0.60884367391E+03  0.41800000000E+01 0. -1.
         -5    1    3    3    0  502  0.50633853581E+01  0.35787416901E+01 -0.42152252643E+01  0.85840426023E+01  0.41800000000E+01 0. -1.
        -11    1    4    4    0    0 -0.21430235357E+02  0.51484000291E+02  0.21359991294E+03  0.22075955264E+03  0.00000000000E+00 0. -1.
         11    1    4    4    0    0 -0.34793613325E+01 -0.21655805045E+02  0.46356114244E+01  0.22418044980E+02  0.00000000000E+00 0.  1.
</event>
<event>
 8    1  0.7130890E-009  0.9729246E+02  0.7561462E-02  0.1286095E+00
         -4   -1    0    0    0  501 -0.00000000000E+00  0.00000000000E+00  0.31528269938E+03  0.31528269938E+03  0.00000000000E+00 0.  1.
          4   -1    0    0  501    0  0.00000000000E+00 -0.00000000000E+00 -0.40540566453E+02  0.40540566453E+02  0.00000000000E+00 0. -1.
         25    2    1    2    0    0 -0.24099897929E+02 -0.18636500722E+02  0.15012884241E+03  0.19777338424E+03  0.12509003939E+03 0.  0.
         23    2    1    2    0    0  0.24099897929E+02  0.18636500722E+02  0.12461329053E+03  0.15804988159E+03  0.92321008748E+02 0.  0.
          5    1    3    3  502    0  0.42180638876E+02 -0.40503911316E+02  0.73961605071E+02  0.94379894854E+02  0.41800000000E+01 0.  1.
         -5    1    3    3    0  502 -0.66280536805E+02  0.21867410594E+02  0.76167237334E+02  0.10339348939E+03  0.41800000000E+01 0.  1.
        -11    1    4    4    0    0  0.39001528541E+02  0.28378757851E+02  0.20472874178E+02  0.52398584931E+02  0.00000000000E+00 0. -1.
         11    1    4    4    0    0 -0.14901630613E+02 -0.97422571293E+01  0.10414041635E+03  0.10565129666E+03  0.00000000000E+00 0.  1.
</event>
<event>
 8    1  0.7130890E-009  0.1417915E+03  0.7561462E-02  0.1210939E+00
          2   -1    0    0  501    0  0.00000000000E+00  0.00000000000E+00  0.45590457354E+03  0.45590457354E+03  0.00000000000E+00 0. -1.
         -2   -1    0    0    0  501 -0.00000000000E+00 -0.00000000000E+00 -0.67667926399E+02  0.67667926399E+02  0.00000000000E+00 0.  1.
         25    2    1    2    0    0 -0.12228649289E+03  0.56993207201E+02  0.23601831799E+03  0.29925494477E+03  0.12508662411E+03 0.  0.
         23    2    1    2    0    0  0.12228649289E+03 -0.56993207201E+02  0.15221832915E+03  0.22431755517E+03  0.94581889474E+02 0.  0.
          5    1    3    3  502    0 -0.43769353263E+02  0.54831868481E+00  0.18438036165E+03  0.18955117278E+03  0.41800000000E+01 0. -1.
         -5    1    3    3    0  502 -0.78517139626E+02  0.56444888516E+02  0.51637956338E+02  0.10970377199E+03  0.41800000000E+01 0. -1.
        -11    1    4    4    0    0  0.75210094268E+02 -0.92596266824E+01  0.13545578783E+03  0.15521137015E+03  0.00000000000E+00 0. -1.
         11    1    4    4    0    0  0.47076398621E+02 -0.47733580519E+02  0.16762541316E+02  0.69106185017E+02  0.00000000000E+00 0.  1.
</event>
<event>
 8    1  0.7130890E-009  0.1076840E+03  0.7561462E-02  0.1264920E+00
         -2   -1    0    0    0  501 -0.00000000000E+00  0.00000000000E+00  0.46385038379E+02  0.46385038379E+02  0.00000000000E+00 0.  1.
          2   -1    0    0  501    0  0.00000000000E+00 -0.00000000000E+00 -0.26235917523E+03  0.26235917523E+03  0.00000000000E+00 0. -1.
         25    2    1    2    0    0 -0.14950615144E+02  0.12346820668E+02 -0.13154943442E+03  0.18255917193E+03  0.12508650082E+03 0.  0.
         23    2    1    2    0    0  0.14950615144E+02 -0.12346820668E+02 -0.84424702439E+02  0.12618504168E+03  0.91756032435E+02 0.  0.
          5    1    3    3  502    0 -0.47495919208E+02  0.54889428918E+02 -0.79983907252E+02  0.10809074691E+03  0.41800000000E+01 0.  1.
         -5    1    3    3    0  502  0.32545304064E+02 -0.42542608251E+02 -0.51565527163E+02  0.74468425020E+02  0.41800000000E+01 0.  1.
        -11    1    4    4    0    0  0.50654393167E+02  0.14069493844E+01 -0.27665549260E+02  0.57734129157E+02  0.00000000000E+00 0.  1.
         11    1    4    4    0    0 -0.35703778022E+02 -0.13753770052E+02 -0.56759153180E+02  0.68450912524E+02  0.00000000000E+00 0. -1.
</event>
<event>
 8    1  0.7130890E-009  0.1619265E+03  0.7561462E-02  0.1186539E+00
          4   -1    0    0  501    0  0.00000000000E+00  0.00000000000E+00  0.88011764401E+02  0.88011764401E+02  0.00000000000E+00 0. -1.
         -4   -1    0    0    0  501 -0.00000000000E+00 -0.00000000000E+00 -0.32628071044E+03  0.32628071044E+03  0.00000000000E+00 0.  1.
         25    2    1    2    0    0 -0.44969804698E+02  0.11574488588E+03 -0.17877744196E+03  0.25105490521E+03  0.12509208502E+03 0.  0.
         23    2    1    2    0    0  0.44969804698E+02 -0.11574488588E+03 -0.59491504085E+02  0.16323756964E+03  0.87681829018E+02 0.  0.
          5    1    3    3  502    0  0.30803427433E+02  0.91426412509E+02 -0.97270718341E+02  0.13706460189E+03  0.41800000000E+01 0.  1.
         -5    1    3    3    0  502 -0.75773232131E+02  0.24318473374E+02 -0.81506723618E+02  0.11399030331E+03  0.41800000000E+01 0.  1.
        -11    1    4    4    0    0  0.52057120423E+02 -0.27136627456E+02 -0.43147307503E+02  0.72856231588E+02  0.00000000000E+00 0.  1.
         11    1    4    4    0    0 -0.70873157249E+01 -0.88608258427E+02 -0.16344196583E+02  0.90381338049E+02  0.00000000000E+00 0. -1.
</event>
<event>
 8    1  0.7130890E-009  0.2141953E+03  0.7561462E-02  0.1138286E+00
          2   -1    0    0  501    0  0.00000000000E+00  0.00000000000E+00  0.22444287265E+03  0.22444287265E+03  0.00000000000E+00 0. -1.
         -2   -1    0    0    0  501 -0.00000000000E+00 -0.00000000000E+00 -0.25585505567E+03  0.25585505567E+03  0.00000000000E+00 0.  1.
         25    2    1    2    0    0 -0.73860695551E+02  0.19569598821E+03  0.27142060046E+02  0.24522715455E+03  0.12508934309E+03 0.  0.
         23    2    1    2    0    0  0.73860695551E+02 -0.19569598821E+03 -0.58554243069E+02  0.23507077378E+03  0.89874062757E+02 0.  0.
          5    1    3    3  502    0  0.47829387704E+01  0.41479169691E+01 -0.29544781808E+02  0.30503249835E+02  0.41800000000E+01 0. -1.
         -5    1    3    3    0  502 -0.78643634321E+02  0.19154807124E+03  0.56686841854E+02  0.21472390471E+03  0.41800000000E+01 0. -1.
        -11    1    4    4    0    0  0.79224896557E+02 -0.17150621722E+03 -0.77175557316E+02  0.20407604815E+03  0.00000000000E+00 0.  1.
         11    1    4    4    0    0 -0.53642010063E+01 -0.24189770985E+02  0.18621314247E+02  0.30994725633E+02  0.00000000000E+00 0. -1.
</event>
<event>
 8    1  0.7130890E-009  0.8392373E+02  0.7561462E-02  0.1318271E+00
         -2   -1    0    0    0  501 -0.00000000000E+00  0.00000000000E+00  0.73728140114E+02  0.73728140114E+02  0.00000000000E+00 0.  1.
          2   -1    0    0  501    0  0.00000000000E+00 -0.00000000000E+00 -0.16488215710E+03  0.16488215710E+03  0.00000000000E+00 0. -1.
         25    2    1    2    0    0  0.17612793312E+02 -0.28428129587E+01 -0.54722411156E+02  0.13770142769E+03  0.12509535896E+03 0.  0.
         23    2    1    2    0    0 -0.17612793312E+02  0.28428129587E+01 -0.36431605830E+02  0.10090886952E+03  0.92396136122E+02 0.  0.
          5    1    3    3  502    0  0.11769499323E+01 -0.36623279964E+02 -0.82782512750E+02  0.90625971243E+02  0.41800000000E+01 0.  1.
         -5    1    3    3    0  502  0.16435843380E+02  0.33780467006E+02  0.28060101594E+02  0.47075456452E+02  0.41800000000E+01 0.  1.
        -11    1    4    4    0    0 -0.38454337882E+02  0.36865035802E+02 -0.27796610180E+02  0.60086758143E+02  0.00000000000E+00 0. -1.
         11    1    4    4    0    0  0.20841544570E+02 -0.34022222843E+02 -0.86349956502E+01  0.40822111375E+02  0.00000000000E+00 0.  1.
</event>
<event>
 8    1  0.7130890E-009  0.2075118E+03  0.7561462E-02  0.1143552E+00
          1   -1    0    0  501    0  0.00000000000E+00  0.00000000000E+00  0.58514861281E+03  0.58514861281E+03  0.00000000000E+00 0. -1.
         -1   -1    0    0    0  501 -0.00000000000E+00 -0.00000000000E+00 -0.13288920265E+03  0.13288920265E+03  0.00000000000E+00 0.  1.
         25    2    1    2    0    0 -0.18917815852E+03  0.56165346003E+01  0.82820647086E+01  0.22701700941E+03  0.12509280092E+03 0.  0.
         23    2    1    2    0    0  0.18917815852E+03 -0.56165346003E+01  0.44397734546E+03  0.49102080605E+03  0.90363862108E+02 0.  0.
          5    1    3    3  502    0 -0.92894629878E+02 -0.56028896296E+02  0.24981805990E+02  0.11140113335E+03  0.41800000000E+01 0. -1.
         -5    1    3    3    0  502 -0.96283528640E+02  0.61645430897E+02 -0.16699741282E+02  0.11561587606E+03  0.41800000000E+01 0. -1.
        -11    1    4    4    0    0  0.16873014187E+03  0.54255924446E+01  0.43409885780E+03  0.46576938089E+03  0.00000000000E+00 0. -1.
         11    1    4    4    0    0  0.20448016645E+02 -0.11042127045E+02  0.98784876578E+01  0.25251425164E+02  0.00000000000E+00 0.  1.
</event>
<event>
 8    1  0.7130890E-009  0.1166003E+03  0.7561462E-02  0.1248813E+00
         -1   -1    0    0    0  501 -0.00000000000E+00  0.00000000000E+00  0.95864168666E+02  0.95864168666E+02  0.00000000000E+00 0.  1.
          1   -1    0    0  501    0  0.00000000000E+00 -0.00000000000E+00 -0.16440998902E+03  0.16440998902E+03  0.00000000000E+00 0. -1.
         25    2    1    2    0    0  0.15561995201E+01  0.61012694872E+02 -0.32183191833E+02  0.14285311282E+03  0.12508510428E+03 0.  0.
         23    2    1    2    0    0 -0.15561995201E+01 -0.61012694872E+02 -0.36362628523E+02  0.11742104487E+03  0.93490589543E+02 0.  0.
          5    1    3    3  502    0 -0.44742845818E+02  0.67267224553E+02 -0.47128426872E+02  0.93623516118E+02  0.41800000000E+01 0. -1.
         -5    1    3    3    0  502  0.46299045338E+02 -0.62545296809E+01  0.14945235039E+02  0.49229596699E+02  0.41800000000E+01 0. -1.
        -11    1    4    4    0    0 -0.41158309876E+02 -0.49045251061E+02 -0.26977317688E+01  0.64083702142E+02  0.00000000000E+00 0.  1.
         11    1    4    4    0    0  0.39602110356E+02 -0.11967443810E+02 -0.33664896754E+02  0.53337342730E+02  0.00000000000E+00 0. -1.
</event>
<event>
 8    1  0.7130890E-009  0.8613358E+02  0.7561462E-02  0.1312494E+00
          1   -1    0    0  501    0  0.00000000000E+00  0.00000000000E+00  0.61327520081E+03  0.61327520081E+03  0.00000000000E+00 0. -1.
         -1   -1    0    0    0  501 -0.00000000000E+00 -0.00000000000E+00 -0.25988022041E+02  0.25988022041E+02  0.00000000000E+00 0.  1.
         25    2    1    2    0    0  0.19953301187E+02 -0.12367407612E+02  0.49119609287E+03  0.50741719409E+03  0.12509004839E+03 0.  0.
         23    2    1    2    0    0 -0.19953301187E+02  0.12367407612E+02  0.96091085897E+02  0.13184602876E+03  0.87171047441E+02 0.  0.
          5    1    3    3  502    0  0.72727583148E+02 -0.65249680888E+00  0.29565936087E+03  0.30450231062E+03  0.41800000000E+01 0. -1.
         -5    1    3    3    0  502 -0.52774281961E+02 -0.11714910803E+02  0.19553673200E+03  0.20291488347E+03  0.41800000000E+01 0. -1.
        -11    1    4    4    0    0 -0.30015144925E+02  0.16577999241E+02  0.10939469975E+03  0.11464265924E+03  0.00000000000E+00 0. -1.
         11    1    4    4    0    0  0.10061843738E+02 -0.42105916286E+01 -0.13303613855E+02  0.17203369521E+02  0.00000000000E+00 0.  1.
</event>
<event>
 8    1  0.7130890E-009  0.1072263E+03  0.7561462E-02  0.1265794E+00
         -4   -1    0    0    0  501 -0.00000000000E+00  0.00000000000E+00  0.11780017010E+03  0.11780017010E+03  0.00000000000E+00 0.  1.
          4   -1    0    0  501    0  0.00000000000E+00 -0.00000000000E+00 -0.12184592059E+03  0.12184592059E+03  0.00000000000E+00 0. -1.
         25    2    1    2    0    0 -0.43133773803E+02 -0.24323982597E+02  0.21285821558E+01  0.13455281905E+03  0.12509097361E+03 0.  0.
         23    2    1    2    0    0  0.43133773803E+02  0.24323982597E+02 -0.61743326447E+01  0.10509327165E+03  0.92489430695E+02 0.  0.
          5    1    3    3  502    0 -0.31977427759E+02 -0.66476876240E+02 -0.30497961088E+02  0.79933278372E+02  0.41800000000E+01 0. -1.
         -5    1    3    3    0  502 -0.11156346044E+02  0.42152893643E+02  0.32626543244E+02  0.54619540675E+02  0.41800000000E+01 0. -1.
        -11    1    4    4    0    0  0.63961152277E+02  0.35471982414E+02  0.13470602517E+02  0.74368996693E+02  0.00000000000E+00 0.  1.
         11    1    4    4    0    0 -0.20827378474E+02 -0.11147999817E+02 -0.19644935161E+02  0.30724274955E+02  0.00000000000E+00 0. -1.
</event>
<event>
 8    1  0.7130890E-009  0.1117995E+03  0.7561462E-02  0.1257273E+00
         -1   -1    0    0    0  501 -0.00000000000E+00  0.00000000000E+00  0.18627989446E+03  0.18627989446E+03  0.00000000000E+00 0.  1.
          1   -1    0    0  501    0  0.00000000000E+00 -0.00000000000E+00 -0.12613129326E+03  0.12613129326E+03  0.00000000000E+00 0. -1.
         25    2    1    2    0    0  0.81889965743E+02 -0.35180933887E+02 -0.28646223564E+02  0.15623866089E+03  0.12508496486E+03 0.  0.
         23    2    1    2    0    0 -0.81889965743E+02  0.35180933887E+02  0.88794824764E+02  0.15617252683E+03  0.92529306886E+02 0.  0.
          5    1    3    3  502    0  0.94857771561E+02 -0.20202599899E+02  0.23859118075E+02  0.99964352564E+02  0.41800000000E+01 0. -1.
         -5    1    3    3    0  502 -0.12967805818E+02 -0.14978333988E+02 -0.52505341639E+02  0.56274308324E+02  0.41800000000E+01 0. -1.
        -11    1    4    4    0    0 -0.49175898374E+02  0.50204905246E+02  0.11911915675E+02  0.71278995691E+02  0.00000000000E+00 0.  1.
         11    1    4    4    0    0 -0.32714067370E+02 -0.15023971359E+02  0.76882909089E+02  0.84893531139E+02  0.00000000000E+00 0. -1.
</event>
<event>
 8    1  0.7130890E-009  0.1062845E+03  0.7561462E-02  0.1267609E+00
         -2   -1    0    0    0  501 -0.00000000000E+00  0.00000000000E+00  0.21634985767E+03  0.21634985767E+03  0.00000000000E+00 0.  1.
          2   -1    0    0  501    0  0.00000000000E+00 -0.00000000000E+00 -0.70478399085E+02  0.70478399085E+02  0.00000000000E+00 0. -1.
         25    2    1    2    0    0  0.27990509200E+02  0.42883575583E+02  0.11120388389E+03  0.17503314026E+03  0.12509127363E+03 0.  0.
         23    2    1    2    0    0 -0.27990509200E+02 -0.42883575583E+02  0.34667574695E+02  0.11179511649E+03  0.93133440163E+02 0.  0.
          5    1    3    3  502    0 -0.47208918490E+02  0.14950218059E+02  0.66770274440E+02  0.83234205431E+02  0.41800000000E+01 0.  1.
         -5    1    3    3    0  502  0.75199427690E+02  0.27933357524E+02  0.44433609454E+02  0.91798934833E+02  0.41800000000E+01 0.  1.
        -11    1    4    4    0    0 -0.45990252856E+02 -0.45094365936E+02  0.54894620076E+02  0.84628745177E+02  0.00000000000E+00 0.  1.
         11    1    4    4    0    0  0.17999743656E+02  0.22107903535E+01 -0.20227045381E+02  0.27166371317E+02  0.00000000000E+00 0. -1.
</event>
<event>
 8    1  0.7130890E-009  0.2521484E+03  0.7561462E-02  0.1111955E+00
          2   -1    0    0  501    0  0.00000000000E+00  0.00000000000E+00  0.16104733216E+03  0.16104733216E+03  0.00000000000E+00 0. -1.
         -2   -1    0    0    0  501 -0.00000000000E+00 -0.00000000000E+00 -0.56109145826E+03  0.56109145826E+03  0.00000000000E+00 0.  1.
         25    2    1    2    0    0 -0.94926655280E+02  0.22168933082E+03 -0.37527529505E+03  0.46329388734E+03  0.12510975056E+03 0.  0.
         23    2    1    2    0    0  0.94926655280E+02 -0.22168933082E+03 -0.24768831041E+02  0.25884490308E+03  0.90719124640E+02 0.  0.
          5    1    3    3  502    0 -0.53956671786E+01  0.12333835340E+03 -0.25749134907E+03  0.28558839242E+03  0.41800000000E+01 0.  1.
         -5    1    3    3    0  502 -0.89530988102E+02  0.98350977425E+02 -0.11778394599E+03  0.17770549492E+03  0.41800000000E+01 0.  1.
        -11    1    4    4    0    0  0.24321160260E+02 -0.12854155564E+03  0.22541547154E+02  0.13275003469E+03  0.00000000000E+00 0. -1.
         11    1    4    4    0    0  0.70605495020E+02 -0.93147775185E+02 -0.47310378195E+02  0.12609486839E+03  0.00000000000E+00 0.  1.
</event>
<event>
 8    1  0.7130890E-009  0.8235454E+02  0.7561462E-02  0.1322499E+00
         -2   -1    0    0    0  501 -0.00000000000E+00  0.00000000000E+00  0.11172273430E+03  0.11172273430E+03  0.00000000000E+00 0.  1.
          2   -1    0    0  501    0  0.00000000000E+00 -0.00000000000E+00 -0.15258055768E+03  0.15258055768E+03  0.00000000000E+00 0. -1.
         25    2    1    2    0    0  0.44038855122E+02 -0.57529307720E+01 -0.81267810022E+02  0.15564315589E+03  0.12509123892E+03 0.  0.
         23    2    1    2    0    0 -0.44038855122E+02  0.57529307720E+01  0.40409986647E+02  0.10866013610E+03  0.90562360743E+02 0.  0.
          5    1    3    3  502    0 -0.19585610047E+02 -0.41312212294E+02  0.64836296530E+00  0.45915006045E+02  0.41800000000E+01 0.  1.
         -5    1    3    3    0  502  0.63624465169E+02  0.35559281522E+02 -0.81916172988E+02  0.10972814984E+03  0.41800000000E+01 0.  1.
        -11    1    4    4    0    0 -0.32318707364E+02  0.91503935518E+01 -0.25158137474E+02  0.41966181968E+02  0.00000000000E+00 0. -1.
         11    1    4    4    0    0 -0.11720147758E+02 -0.33974627798E+01  0.65568124121E+02  0.66693954130E+02  0.00000000000E+00 0.  1.
</event>
<event>
 8    1  0.7130890E-009  0.7735299E+02  0.7561462E-02  0.1336736E+00
          2   -1    0    0  501    0  0.00000000000E+00  0.00000000000E+00  0.15295772495E+03  0.15295772495E+03  0.00000000000E+00 0. -1.
         -2   -1    0    0    0  501 -0.00000000000E+00 -0.00000000000E+00 -0.10281321458E+03  0.10281321458E+03  0.00000000000E+00 0.  1.
         25    2    1    2    0    0  0.17488234867E+02  0.99800658231E+01  0.90707966334E+02  0.15582245417E+03  0.12508901628E+03 0.  0.
         23    2    1    2    0    0 -0.17488234867E+02 -0.99800658231E+01 -0.40563455962E+02  0.99948485364E+02  0.89100312538E+02 0.  0.
          5    1    3    3  502    0 -0.15003127824E+02  0.41877725619E+02 -0.94973539909E+01  0.45678330534E+02  0.41800000000E+01 0.  1.
         -5    1    3    3    0  502  0.32491362691E+02 -0.31897659796E+02  0.10020532033E+03  0.11014412364E+03  0.41800000000E+01 0.  1.
        -11    1    4    4    0    0  0.10215369191E+02 -0.28967985286E+02 -0.55310546886E+02  0.63267325975E+02  0.00000000000E+00 0.  1.
         11    1    4    4    0    0 -0.27703604058E+02  0.18987919463E+02  0.14747090924E+02  0.36681159388E+02  0.00000000000E+00 0. -1.
</event>
<event>
 8    1  0.7130890E-009  0.1047568E+03  0.7561462E-02  0.1270600E+00
          2   -1    0    0  501    0  0.00000000000E+00  0.00000000000E+00  0.24875730140E+03  0.24875730140E+03  0.00000000000E+00 0. -1.
         -2   -1    0    0    0  501 -0.00000000000E+00 -0.00000000000E+00 -0.82722900470E+02  0.82722900470E+02  0.00000000000E+00 0.  1.
         25    2    1    2    0    0 -0.62269242777E+02 -0.27655530085E+02  0.16495837284E+03  0.21794622015E+03  0.12508798170E+03 0.  0.
         23    2    1    2    0    0  0.62269242777E+02  0.27655530085E+02  0.10760280853E+01  0.11353398172E+03  0.90810353090E+02 0.  0.
          5    1    3    3  502    0  0.27928620183E+02 -0.30965626518E+02  0.18392597673E+02  0.45767214249E+02  0.41800000000E+01 0.  1.
         -5    1    3    3    0  502 -0.90197862960E+02  0.33100964338E+01  0.14656577517E+03  0.17217900590E+03  0.41800000000E+01 0.  1.
        -11    1    4    4    0    0  0.53843704383E+02  0.62008595647E+01 -0.39364216099E+02  0.66986093110E+02  0.00000000000E+00 0.  1.
         11    1    4    4    0    0  0.84255383943E+01  0.21454670520E+02  0.40440244184E+02  0.46547888610E+02  0.00000000000E+00 0. -1.
</event>
<event>
 8    1  0.7130890E-009  0.8933364E+02  0.7561462E-02  0.1304473E+00
          2   -1    0    0  501    0  0.00000000000E+00  0.00000000000E+00  0.62490370000E+03  0.62490370000E+03  0.00000000000E+00 0.  1.
         -2   -1    0    0    0  501 -0.00000000000E+00 -0.00000000000E+00 -0.21043447281E+02  0.21043447281E+02  0.00000000000E+00 0. -1.
         25    2    1    2    0    0  0.17417292804E+02 -0.29883000186E+02  0.38208095576E+03  0.40352346538E+03  0.12509586152E+03 0.  0.
         23    2    1    2    0    0 -0.17417292804E+02  0.29883000186E+02  0.22177929696E+03  0.24242368190E+03  0.91579633090E+02 0.  0.
          5    1    3    3  502    0  0.52207087345E+02 -0.45494647019E+02  0.33818722263E+03  0.34522950747E+03  0.41800000000E+01 0. -1.
         -5    1    3    3    0  502 -0.34789794541E+02  0.15611646833E+02  0.43893733124E+02  0.58293957909E+02  0.41800000000E+01 0. -1.
        -11    1    4    4    0    0 -0.76467031795E+00  0.47026296098E+02  0.21104799669E+03  0.21622514690E+03  0.00000000000E+00 0.  1.
         11    1    4    4    0    0 -0.16652622486E+02 -0.17143295913E+02  0.10731300263E+02  0.26198534993E+02  0.00000000000E+00 0. -1.
</event>
<event>
 8    1  0.7130890E-009  0.1125680E+03  0.7561462E-02  0.1255887E+00
         -2   -1    0    0    0  501 -0.00000000000E+00  0.00000000000E+00  0.17131251318E+03  0.17131251318E+03  0.00000000000E+00 0.  1.
          2   -1    0    0  501    0  0.00000000000E+00 -0.00000000000E+00 -0.99183558511E+02  0.99183558511E+02  0.00000000000E+00 0. -1.
         25    2    1    2    0    0 -0.63221381201E+02 -0.28212060676E+02  0.63321662921E+02  0.15636759724E+03  0.12509328145E+03 0.  0.
         23    2    1    2    0    0  0.63221381201E+02  0.28212060676E+02  0.88072917520E+01  0.11412847445E+03  0.90304356949E+02 0.  0.
          5    1    3    3  502    0  0.25746160206E+02  0.16668907083E+02  0.45533680529E+02  0.55059110883E+02  0.41800000000E+01 0.  1.
         -5    1    3    3    0  502 -0.88967541407E+02 -0.44880967759E+02  0.17787982391E+02  0.10130848636E+03  0.41800000000E+01 0.  1.
        -11    1    4    4    0    0 -0.13266164488E+02  0.73449864644E+01  0.28636439174E+02  0.32403481216E+02  0.00000000000E+00 0.  1.
         11    1    4    4    0    0  0.76487545690E+02  0.20867074212E+02 -0.19829147422E+02  0.81724993235E+02  0.00000000000E+00 0. -1.
</event>
<event>
 8    1  0.7130890E-009  0.1118217E+03  0.7561462E-02  0.1257233E+00
         -2   -1    0    0    0  501 -0.00000000000E+00  0.00000000000E+00  0.77734039749E+03  0.77734039749E+03  0.00000000000E+00 0.  1.
          2   -1    0    0  501    0  0.00000000000E+00 -0.00000000000E+00 -0.39936889874E+02  0.39936889874E+02  0.00000000000E+00 0. -1.
         25    2    1    2    0    0 -0.71255754305E+02 -0.32880619334E+02  0.65310757882E+03  0.66959402533E+03  0.12509249216E+03 0.  0.
         23    2    1    2    0    0  0.71255754305E+02  0.32880619334E+02  0.84295928796E+02  0.14768326203E+03  0.92444711175E+02 0.  0.
          5    1    3    3  502    0 -0.60620800768E+01  0.42715594005E+02  0.13016461850E+03  0.13719209560E+03  0.41800000000E+01 0. -1.
         -5    1    3    3    0  502 -0.65193674228E+02 -0.75596213339E+02  0.52294296032E+03  0.53240192972E+03  0.41800000000E+01 0. -1.
        -11    1    4    4    0    0  0.53365742592E+02  0.15811413390E+02  0.10273155953E+03  0.11684038942E+03  0.00000000000E+00 0.  1.
         11    1    4    4    0    0  0.17890011713E+02  0.17069205944E+02 -0.18435630735E+02  0.30842872617E+02  0.00000000000E+00 0. -1.
</event>
<event>
 8    1  0.7130890E-009  0.1248499E+03  0.7561462E-02  0.1235304E+00
         -2   -1    0    0    0  501 -0.00000000000E+00  0.00000000000E+00  0.54136822779E+02  0.54136822779E+02  0.00000000000E+00 0.  1.
          2   -1    0    0  501    0  0.00000000000E+00 -0.00000000000E+00 -0.45795953702E+03  0.45795953702E+03  0.00000000000E+00 0. -1.
         25    2    1    2    0    0 -0.55181904287E+02  0.87461734989E+02 -0.29491737817E+03  0.33662817559E+03  0.12509065114E+03 0.  0.
         23    2    1    2    0    0  0.55181904287E+02 -0.87461734989E+02 -0.10890533607E+03  0.17546818421E+03  0.90742017825E+02 0.  0.
          5    1    3    3  502    0 -0.61010914764E+02  0.46930255199E+02 -0.28367075971E+03  0.29395808016E+03  0.41800000000E+01 0.  1.
         -5    1    3    3    0  502  0.58290104773E+01  0.40531479790E+02 -0.11246618458E+02  0.42670095428E+02  0.41800000000E+01 0.  1.
        -11    1    4    4    0    0  0.70527508661E+02 -0.38942795283E+02 -0.90960072172E+02  0.12150887010E+03  0.00000000000E+00 0.  1.
         11    1    4    4    0    0 -0.15345604374E+02 -0.48518939706E+02 -0.17945263897E+02  0.53959314118E+02  0.00000000000E+00 0. -1.
</event>
<event>
 8    1  0.7130890E-009  0.1607467E+03  0.7561462E-02  0.1187856E+00
          2   -1    0    0  501    0  0.00000000000E+00  0.00000000000E+00  0.25395977953E+03  0.25395977953E+03  0.00000000000E+00 0. -1.
         -2   -1    0    0    0  501 -0.00000000000E+00 -0.00000000000E+00 -0.16317833420E+03  0.16317833420E+03  0.00000000000E+00 0.  1.
         25    2    1    2    0    0  0.10062234108E+03 -0.11748641572E+03 -0.27845678791E+02  0.20087432662E+03  0.12508876794E+03 0.  0.
         23    2    1    2    0    0 -0.10062234108E+03  0.11748641572E+03  0.11862712412E+03  0.21626378711E+03  0.93646770546E+02 0.  0.
          5    1    3    3  502    0  0.22834823856E+02 -0.67754425952E+02 -0.69229788608E+02  0.99610880166E+02  0.41800000000E+01 0.  1.
         -5    1    3    3    0  502  0.77787517222E+02 -0.49731989770E+02  0.41384109818E+02  0.10126344645E+03  0.41800000000E+01 0.  1.
        -11    1    4    4    0    0 -0.77213536582E+02  0.68752362374E+02  0.12455785033E+03  0.16187487650E+03  0.00000000000E+00 0.  1.
         11    1    4    4    0    0 -0.23408804495E+02  0.48734053348E+02 -0.59307262090E+01  0.54388910607E+02  0.00000000000E+00 0. -1.
</event>
<event>
 8    1  0.7130890E-009  0.1059778E+03  0.7561462E-02  0.1268205E+00
          2   -1    0    0  501    0  0.00000000000E+00  0.00000000000E+00  0.50784033089E+02  0.50784033089E+02  0.00000000000E+00 0. -1.
         -2   -1    0    0    0  501 -0.00000000000E+00 -0.00000000000E+00 -0.36722254141E+03  0.36722254141E+03  0.00000000000E+00 0.  1.
         25    2    1    2    0    0  0.98728063534E+01 -0.50516301394E+02 -0.75018712910E+02  0.15467138217E+03  0.12508421229E+03 0.  0.
         23    2    1    2    0    0 -0.98728063534E+01  0.50516301394E+02 -0.24141979542E+03  0.26333519233E+03  0.91719882750E+02 0.  0.
          5    1    3    3  502    0  0.59646950627E+02  0.25458790502E+01 -0.19118013177E+02  0.62826833814E+02  0.41800000000E+01 0. -1.
         -5    1    3    3    0  502 -0.49774144274E+02 -0.53062180444E+02 -0.55900699733E+02  0.91844548354E+02  0.41800000000E+01 0. -1.
        -11    1    4    4    0    0  0.22738684970E+01  0.62282379333E+02 -0.23807382548E+03  0.24609634624E+03  0.00000000000E+00 0.  1.
         11    1    4    4    0    0 -0.12146674850E+02 -0.11766077938E+02 -0.33459699373E+01  0.17238846098E+02  0.00000000000E+00 0. -1.
</event>
<event>
 8    1  0.7130890E-009  0.1010825E+03  0.7561462E-02  0.1278036E+00
          2   -1    0    0  501    0  0.00000000000E+00  0.00000000000E+00  0.89587506607E+03  0.89587506607E+03  0.00000000000E+00 0. -1.
         -2   -1    0    0    0  501 -0.00000000000E+00 -0.00000000000E+00 -0.18431573307E+02  0.18431573307E+02  0.00000000000E+00 0.  1.
         25    2    1    2    0    0 -0.69994437163E+01  0.21194587609E+02  0.71817406035E+03  0.72932796049E+03  0.12508832975E+03 0.  0.
         23    2    1    2    0    0  0.69994437163E+01 -0.21194587609E+02  0.15926943242E+03  0.18497867889E+03  0.91390135053E+02 0.  0.
          5    1    3    3  502    0 -0.64008009617E+02 -0.21905152229E+01  0.41422113870E+03  0.41916398676E+03  0.41800000000E+01 0.  1.
         -5    1    3    3    0  502  0.57008565901E+02  0.23385102832E+02  0.30395292165E+03  0.31016397373E+03  0.41800000000E+01 0.  1.
        -11    1    4    4    0    0 -0.99996681592E+01 -0.45487302502E+02  0.37916713703E+02  0.60056350458E+02  0.00000000000E+00 0.  1.
         11    1    4    4    0    0  0.16999111876E+02  0.24292714893E+02  0.12135271872E+03  0.12492232844E+03  0.00000000000E+00 0. -1.
</event>
<event>
 8    1  0.7130890E-009  0.1142597E+03  0.7561462E-02  0.1252879E+00
         -1   -1    0    0    0  501 -0.00000000000E+00  0.00000000000E+00  0.35794371426E+02  0.35794371426E+02  0.00000000000E+00 0.  1.
          1   -1    0    0  501    0  0.00000000000E+00 -0.00000000000E+00 -0.47791560956E+03  0.47791560956E+03  0.00000000000E+00 0. -1.
         25    2    1    2    0    0 -0.62879918737E+00  0.70449081699E+02 -0.27947367044E+03  0.31418827922E+03  0.12508106902E+03 0.  0.
         23    2    1    2    0    0  0.62879918737E+00 -0.70449081699E+02 -0.16264756769E+03  0.19952170177E+03  0.91603546325E+02 0.  0.
          5    1    3    3  502    0 -0.52573875319E+02  0.58293554263E+02 -0.22271577145E+03  0.23618200204E+03  0.41800000000E+01 0.  1.
         -5    1    3    3    0  502  0.51945076132E+02  0.12155527436E+02 -0.56757898995E+02  0.78006277183E+02  0.41800000000E+01 0.  1.
        -11    1    4    4    0    0  0.16367806001E+02 -0.77457611814E+02 -0.16413335993E+03  0.18222883016E+03  0.00000000000E+00 0. -1.
         11    1    4    4    0    0 -0.15739006814E+02  0.70085301145E+01  0.14857922338E+01  0.17292871607E+02  0.00000000000E+00 0.  1.
</event>
<event>
 8    1  0.7130890E-009  0.9701666E+02  0.7561462E-02  0.1286698E+00
          2   -1    0    0  501    0  0.00000000000E+00  0.00000000000E+00  0.57618984387E+03  0.57618984387E+03  0.00000000000E+00 0. -1.
         -2   -1    0    0    0  501 -0.00000000000E+00 -0.00000000000E+00 -0.26522701695E+02  0.26522701695E+02  0.00000000000E+00 0.  1.
         25    2    1    2    0    0  0.36346946873E+01 -0.53624959020E+02  0.35399931355E+03  0.37928197490E+03  0.12510177957E+03 0.  0.
         23    2    1    2    0    0 -0.36346946873E+01  0.53624959020E+02  0.19566782862E+03  0.22343057066E+03  0.93522582916E+02 0.  0.
          5    1    3    3  502    0 -0.66868247864E+01  0.25895190719E+02  0.15091551844E+02  0.30991964526E+02  0.41800000000E+01 0.  1.
         -5    1    3    3    0  502  0.10321519474E+02 -0.79520149739E+02  0.33890776171E+03  0.34829001037E+03  0.41800000000E+01 0.  1.
        -11    1    4    4    0    0  0.27069386507E+02  0.27010692236E+01  0.13778980495E+03  0.14044955610E+03  0.00000000000E+00 0. -1.
         11    1    4    4    0    0 -0.30704081194E+02  0.50923889797E+02  0.57878023668E+02  0.82981014562E+02  0.00000000000E+00 0.  1.
</event>
<event>
 8    1  0.7130890E-009  0.3731237E+03  0.7561462E-02  0.1053505E+00
         -2   -1    0    0    0  501 -0.00000000000E+00  0.00000000000E+00  0.34803486264E+03  0.34803486264E+03  0.00000000000E+00 0.  1.
          2   -1    0    0  501    0  0.00000000000E+00 -0.00000000000E+00 -0.46982307698E+03  0.46982307698E+03  0.00000000000E+00 0. -1.
         25    2    1    2    0    0  0.34259495981E+03 -0.11536381332E+03  0.85114958935E+02  0.39188227641E+03  0.12508815459E+03 0.  0.
         23    2    1    2    0    0 -0.34259495981E+03  0.11536381332E+03 -0.20690317327E+03  0.42597566322E+03  0.89253720568E+02 0.  0.
          5    1    3    3  502    0  0.35199921102E+03 -0.11577008937E+03  0.88586819315E+02  0.38101345791E+03  0.41800000000E+01 0. -1.
         -5    1    3    3    0  502 -0.94042512105E+01  0.40627605116E+00 -0.34718603809E+01  0.10868818499E+02  0.41800000000E+01 0. -1.
        -11    1    4    4    0    0 -0.14978864251E+03  0.22844612525E+02 -0.12691462663E+03  0.19765079357E+03  0.00000000000E+00 0. -1.
         11    1    4    4    0    0 -0.19280631729E+03  0.92519200796E+02 -0.79988546638E+02  0.22832486964E+03  0.00000000000E+00 0.  1.
</event>
<event>
 8    1  0.7130890E-009  0.1033222E+03  0.7561462E-02  0.1273461E+00
         -1   -1    0    0    0  501 -0.00000000000E+00  0.00000000000E+00  0.71171722571E+02  0.71171722571E+02  0.00000000000E+00 0.  1.
          1   -1    0    0  501    0  0.00000000000E+00 -0.00000000000E+00 -0.26951386947E+03  0.26951386947E+03  0.00000000000E+00 0. -1.
         25    2    1    2    0    0 -0.61180440750E+02  0.42708949312E+02 -0.73336659321E+02  0.16307140024E+03  0.12508763046E+03 0.  0.
         23    2    1    2    0    0  0.61180440750E+02 -0.42708949312E+02 -0.12500548758E+03  0.17761419180E+03  0.10175130722E+03 0.  0.
          5    1    3    3  502    0 -0.28699041808E+02  0.37798359385E+02  0.28820020361E+02  0.55681387792E+02  0.41800000000E+01 0.  1.
         -5    1    3    3    0  502 -0.32481398942E+02  0.49105899274E+01 -0.10215667968E+03  0.10739001245E+03  0.41800000000E+01 0.  1.
        -11    1    4    4    0    0 -0.19641113114E+02 -0.40526666224E+02 -0.39033645632E+02  0.59597059414E+02  0.00000000000E+00 0.  1.
         11    1    4    4    0    0  0.80821553864E+02 -0.21822830882E+01 -0.85971841948E+02  0.11801713238E+03  0.00000000000E+00 0. -1.
</event>
<event>
 8    1  0.7130890E-009  0.1337950E+03  0.7561462E-02  0.1221931E+00
         -2   -1    0    0    0  501 -0.00000000000E+00  0.00000000000E+00  0.63653615811E+02  0.63653615811E+02  0.00000000000E+00 0.  1.
          2   -1    0    0  501    0  0.00000000000E+00 -0.00000000000E+00 -0.34982339576E+03  0.34982339576E+03  0.00000000000E+00 0. -1.
         25    2    1    2    0    0 -0.69249339830E+02  0.69085877849E+02 -0.20326072634E+03  0.25793562623E+03  0.12509010679E+03 0.  0.
         23    2    1    2    0    0  0.69249339830E+02 -0.69085877849E+02 -0.82909053603E+02  0.15554138534E+03  0.88039092451E+02 0.  0.
          5    1    3    3  502    0 -0.45242496785E+00  0.68635620991E+02 -0.16578659369E+03  0.17948181023E+03  0.41800000000E+01 0.  1.
         -5    1    3    3    0  502 -0.68796914862E+02  0.45025685783E+00 -0.37474132654E+02  0.78453815993E+02  0.41800000000E+01 0.  1.
        -11    1    4    4    0    0 -0.18165159359E+02 -0.27844155704E+02 -0.32663492592E+02  0.46606585047E+02  0.00000000000E+00 0. -1.
         11    1    4    4    0    0  0.87414499189E+02 -0.41241722145E+02 -0.50245561011E+02  0.10893480030E+03  0.00000000000E+00 0.  1.
</event>
<event>
 8    1  0.7130890E-009  0.2822926E+03  0.7561462E-02  0.1094443E+00
         -2   -1    0    0    0  501 -0.00000000000E+00  0.00000000000E+00  0.13297134604E+03  0.13297134604E+03  0.00000000000E+00 0.  1.
          2   -1    0    0  501    0  0.00000000000E+00 -0.00000000000E+00 -0.61298102779E+03  0.61298102779E+03  0.00000000000E+00 0. -1.
         25    2    1    2    0    0 -0.25141880727E+01 -0.26394362734E+03 -0.25289103428E+03  0.38635809274E+03  0.12508453563E+03 0.  0.
         23    2    1    2    0    0  0.25141880727E+01  0.26394362734E+03 -0.22711864747E+03  0.35959428109E+03  0.89736321589E+02 0.  0.
          5    1    3    3  502    0 -0.56240641435E+02 -0.72681405691E+02 -0.62948467874E+02  0.11147007890E+03  0.41800000000E+01 0. -1.
         -5    1    3    3    0  502  0.53726453362E+02 -0.19126222165E+03 -0.18994256641E+03  0.27488801384E+03  0.41800000000E+01 0. -1.
        -11    1    4    4    0    0 -0.26066445843E+02  0.21949164960E+03 -0.15406304395E+03  0.26942803371E+03  0.00000000000E+00 0.  1.
         11    1    4    4    0    0  0.28580633916E+02  0.44451977742E+02 -0.73055603522E+02  0.90166247377E+02  0.00000000000E+00 0. -1.
</event>
<event>
 8    1  0.7130890E-009  0.1341594E+03  0.7561462E-02  0.1221411E+00
          2   -1    0    0  501    0  0.00000000000E+00  0.00000000000E+00  0.31093134015E+03  0.31093134015E+03  0.00000000000E+00 0. -1.
         -2   -1    0    0    0  501 -0.00000000000E+00 -0.00000000000E+00 -0.62682030403E+02  0.62682030403E+02  0.00000000000E+00 0.  1.
         25    2    1    2    0    0 -0.47135940903E+01 -0.84380628394E+02  0.15359796279E+03  0.21536452680E+03  0.12508891564E+03 0.  0.
         23    2    1    2    0    0  0.47135940903E+01  0.84380628394E+02  0.94651346957E+02  0.15824884375E+03  0.94559561385E+02 0.  0.
          5    1    3    3  502    0 -0.37141300782E+02 -0.99517500621E+02  0.14226346069E+03  0.17759384505E+03  0.41800000000E+01 0.  1.
         -5    1    3    3    0  502  0.32427706692E+02  0.15136872228E+02  0.11334502102E+02  0.37770681753E+02  0.41800000000E+01 0.  1.
        -11    1    4    4    0    0  0.38289068317E+02  0.84101710304E+02  0.61090316931E+02  0.11077534586E+03  0.00000000000E+00 0.  1.
         11    1    4    4    0    0 -0.33575474227E+02  0.27891808953E+00  0.33561030026E+02  0.47473497883E+02  0.00000000000E+00 0. -1.
</event>
<event>
 8    1  0.7130890E-009  0.1978534E+03  0.7561462E-02  0.1151563E+00
          1   -1    0    0  501    0  0.00000000000E+00  0.00000000000E+00  0.99915532264E+02  0.99915532264E+02  0.00000000000E+00 0. -1.
         -1   -1    0    0    0  501 -0.00000000000E+00 -0.00000000000E+00 -0.40657768903E+03  0.40657768903E+03  0.00000000000E+00 0.  1.
         25    2    1    2    0    0 -0.18495942495E+02 -0.16558380681E+03 -0.14431137785E+03  0.25344247213E+03  0.12508883218E+03 0.  0.
         23    2    1    2    0    0  0.18495942495E+02  0.16558380681E+03 -0.16235077891E+03  0.25305074916E+03  0.99583177653E+02 0.  0.
          5    1    3    3  502    0 -0.71350128195E+02 -0.93005189812E+02 -0.68319711782E+02  0.13574189310E+03  0.41800000000E+01 0.  1.
         -5    1    3    3    0  502  0.52854185699E+02 -0.72578616998E+02 -0.75991666072E+02  0.11770057903E+03  0.41800000000E+01 0.  1.
        -11    1    4    4    0    0 -0.33484772151E+02  0.96012667911E+02 -0.57182555811E+02  0.11665979194E+03  0.00000000000E+00 0.  1.
         11    1    4    4    0    0  0.51980714647E+02  0.69571138899E+02 -0.10516822310E+03  0.13639095722E+03  0.00000000000E+00 0. -1.
</event>
<event>
 8    1  0.7130890E-009  0.9806969E+02  0.7561462E-02  0.1284408E+00
          3   -1    0    0  501    0  0.00000000000E+00  0.00000000000E+00  0.13148426079E+03  0.13148426079E+03  0.00000000000E+00 0. -1.
         -3   -1    0    0    0  501 -0.00000000000E+00 -0.00000000000E+00 -0.17390000424E+03  0.17390000424E+03  0.00000000000E+00 0.  1.
         25    2    1    2    0    0  0.24138937738E+02 -0.30898614585E+02  0.75795894923E+02  0.15142316259E+03  0.12508614544E+03 0.  0.
         23    2    1    2    0    0 -0.24138937738E+02  0.30898614585E+02 -0.11821163837E+03  0.15396110244E+03  0.90513075963E+02 0.  0.
          5    1    3    3  502    0  0.58532756716E+02 -0.27835341547E+02 -0.32841865004E+01  0.65031900855E+02  0.41800000000E+01 0. -1.
         -5    1    3    3    0  502 -0.34393818978E+02 -0.30632730376E+01  0.79080081423E+02  0.86391261731E+02  0.41800000000E+01 0. -1.
        -11    1    4    4    0    0  0.33162086310E+02  0.17768177674E+02 -0.62617243021E+02  0.73050333537E+02  0.00000000000E+00 0.  1.
         11    1    4    4    0    0 -0.57301024048E+02  0.13130436911E+02 -0.55594395347E+02  0.80910768903E+02  0.00000000000E+00 0. -1.
</event>
<event>
 8    1  0.7130890E-009  0.1294642E+03  0.7561462E-02  0.1228253E+00
         -1   -1    0    0    0  501 -0.00000000000E+00  0.00000000000E+00  0.25991873370E+03  0.25991873370E+03  0.00000000000E+00 0.  1.
          1   -1    0    0  501    0  0.00000000000E+00 -0.00000000000E+00 -0.74794082378E+02  0.74794082378E+02  0.00000000000E+00 0. -1.
         25    2    1    2    0    0  0.37986915159E+02  0.63337918935E+02  0.44831157738E+02  0.15202434547E+03  0.12508745426E+03 0.  0.
         23    2    1    2    0    0 -0.37986915159E+02 -0.63337918935E+02  0.14029349359E+03  0.18268847061E+03  0.90764063661E+02 0.  0.
          5    1    3    3  502    0 -0.53949997790E+01 -0.36073759480E+02  0.10810443637E+02  0.38272186209E+02  0.41800000000E+01 0. -1.
         -5    1    3    3    0  502  0.43381914938E+02  0.99411678415E+02  0.34020714102E+02  0.11375215926E+03  0.41800000000E+01 0. -1.
        -11    1    4    4    0    0 -0.31060109232E+02 -0.85226935181E+02  0.91913975674E+02  0.12913767765E+03  0.00000000000E+00 0. -1.
         11    1    4    4    0    0 -0.69268059269E+01  0.21889016246E+02  0.48379517912E+02  0.53550792954E+02  0.00000000000E+00 0.  1.
</event>
<event>
 8    1  0.7130890E-009  0.1314822E+03  0.7561462E-02  0.1225273E+00
          3   -1    0    0  501    0  0.00000000000E+00  0.00000000000E+00  0.47219650144E+02  0.47219650144E+02  0.00000000000E+00 0. -1.
         -3   -1    0    0    0  501 -0.00000000000E+00 -0.00000000000E+00 -0.38304275561E+03  0.38304275561E+03  0.00000000000E+00 0.  1.
         25    2    1    2    0    0 -0.61102694754E+02  0.41578346604E+02 -0.17780707895E+03  0.22961751998E+03  0.12508617009E+03 0.  0.
         23    2    1    2    0    0  0.61102694754E+02 -0.41578346604E+02 -0.15801602651E+03  0.20064488577E+03  0.99131263165E+02 0.  0.
          5    1    3    3  502    0  0.35845168469E+02 -0.40068800710E+01 -0.30463573078E+02  0.47396549191E+02  0.41800000000E+01 0.  1.
         -5    1    3    3    0  502 -0.96947863224E+02  0.45585226675E+02 -0.14734350587E+03  0.18222097079E+03  0.41800000000E+01 0.  1.
        -11    1    4    4    0    0 -0.17559646921E+02 -0.36634272420E+02 -0.30756765676E+02  0.50954781431E+02  0.00000000000E+00 0. -1.
         11    1    4    4    0    0  0.78662341676E+02 -0.49440741842E+01 -0.12725926084E+03  0.14969010434E+03  0.00000000000E+00 0.  1.
</event>
<event>
 8    1  0.7130890E-009  0.9611273E+02  0.7561462E-02  0.1288689E+00
          1   -1    0    0  501    0  0.00000000000E+00  0.00000000000E+00  0.36117296751E+03  0.36117296751E+03  0.00000000000E+00 0. -1.
         -1   -1    0    0    0  501 -0.00000000000E+00 -0.00000000000E+00 -0.56113311191E+02  0.56113311191E+02  0.00000000000E+00 0.  1.
         25    2    1    2    0    0  0.79834453687E+02  0.11153000724E+02  0.23598377350E+03  0.27897987361E+03  0.12507397452E+03 0.  0.
         23    2    1    2    0    0 -0.79834453687E+02 -0.11153000724E+02  0.69075882816E+02  0.13830640509E+03  0.88652437540E+02 0.  0.
          5    1    3    3  502    0  0.35997818053E+02  0.15165321670E+02  0.40477275036E+00  0.39286971465E+02  0.41800000000E+01 0.  1.
         -5    1    3    3    0  502  0.43836635634E+02 -0.40123209453E+01  0.23557900075E+03  0.23969290215E+03  0.41800000000E+01 0.  1.
        -11    1    4    4    0    0 -0.18952339973E+02 -0.37784054449E+02 -0.25543826186E+00  0.42271635996E+02  0.00000000000E+00 0.  1.
         11    1    4    4    0    0 -0.60882113715E+02  0.26631053725E+02  0.69331321078E+02  0.96034769096E+02  0.00000000000E+00 0. -1.
</event>
<event>
 8    1  0.7130890E-009  0.1576236E+03  0.7561462E-02  0.1191406E+00
          2   -1    0    0  501    0  0.00000000000E+00  0.00000000000E+00  0.75161828025E+03  0.75161828025E+03  0.00000000000E+00 0.  1.
         -2   -1    0    0    0  501 -0.00000000000E+00 -0.00000000000E+00 -0.35442547878E+02  0.35442547878E+02  0.00000000000E+00 0. -1.
         25    2    1    2    0    0  0.12299782040E+03  0.12664718847E+02  0.37955603461E+03  0.41832882996E+03  0.12508943857E+03 0.  0.
         23    2    1    2    0    0 -0.12299782040E+03 -0.12664718847E+02  0.33661969776E+03  0.36873199817E+03  0.85799805510E+02 0.  0.
          5    1    3    3  502    0  0.14422319227E+03 -0.50661704273E+00  0.35433763313E+03  0.38258752789E+03  0.41800000000E+01 0.  1.
         -5    1    3    3    0  502 -0.21225371873E+02  0.13171335890E+02  0.25218401485E+02  0.35741302071E+02  0.41800000000E+01 0.  1.
        -11    1    4    4    0    0 -0.13071502424E+03 -0.23014011988E+02  0.26983295846E+03  0.30070897522E+03  0.00000000000E+00 0. -1.
         11    1    4    4    0    0  0.77172038424E+01  0.10349293141E+02  0.66786739303E+02  0.68023022943E+02  0.00000000000E+00 0.  1.
</event>
<event>
 8    1  0.7130890E-009  0.9440904E+02  0.7561462E-02  0.1292513E+00
         -2   -1    0    0    0  501 -0.00000000000E+00  0.00000000000E+00  0.11883426400E+02  0.11883426400E+02  0.00000000000E+00 0.  1.
          2   -1    0    0  501    0  0.00000000000E+00 -0.00000000000E+00 -0.18400552477E+04  0.18400552477E+04  0.00000000000E+00 0. -1.
         25    2    1    2    0    0 -0.34771303058E+02 -0.32109576419E+01 -0.15846196012E+04  0.15899326209E+04  0.12508838740E+03 0.  0.
         23    2    1    2    0    0  0.34771303058E+02  0.32109576419E+01 -0.24355222010E+03  0.26200605322E+03  0.90056283756E+02 0.  0.
          5    1    3    3  502    0 -0.62394437028E+02  0.29868712996E+02 -0.54175276325E+03  0.54616731381E+03  0.41800000000E+01 0. -1.
         -5    1    3    3    0  502  0.27623133970E+02 -0.33079670638E+02 -0.10428668379E+04  0.10437653071E+04  0.41800000000E+01 0. -1.
        -11    1    4    4    0    0  0.45684145762E+02 -0.20532979997E+02 -0.22356513140E+03  0.22910698902E+03  0.00000000000E+00 0. -1.
         11    1    4    4    0    0 -0.10912842704E+02  0.23743937638E+02 -0.19987088702E+02  0.32899064200E+02  0.00000000000E+00 0.  1.
</event>
<event>
 8    1  0.7130890E-009  0.1006823E+03  0.7561462E-02  0.1278868E+00
          1   -1    0    0  501    0  0.00000000000E+00  0.00000000000E+00  0.25041311224E+03  0.25041311224E+03  0.00000000000E+00 0. -1.
         -1   -1    0    0    0  501 -0.00000000000E+00 -0.00000000000E+00 -0.70941855281E+02  0.70941855281E+02  0.00000000000E+00 0.  1.
         25    2    1    2    0    0  0.58626138164E+02 -0.33786327766E+02  0.14208229314E+03  0.20103534112E+03  0.12509712361E+03 0.  0.
         23    2    1    2    0    0 -0.58626138164E+02  0.33786327766E+02  0.37388963819E+02  0.12031962640E+03  0.92197276871E+02 0.  0.
          5    1    3    3  502    0  0.71996883487E+02 -0.72544024385E+01  0.15284478692E+03  0.16916021658E+03  0.41800000000E+01 0.  1.
         -5    1    3    3    0  502 -0.13370745323E+02 -0.26531925327E+02 -0.10762493775E+02  0.31875124538E+02  0.41800000000E+01 0.  1.
        -11    1    4    4    0    0 -0.18741390799E+02 -0.22884994360E+02  0.41425934284E+02  0.50902561107E+02  0.00000000000E+00 0. -1.
         11    1    4    4    0    0 -0.39884747365E+02  0.56671322126E+02 -0.40369704643E+01  0.69417065296E+02  0.00000000000E+00 0.  1.
</event>
<event>
 8    1  0.7130890E-009  0.9771633E+02  0.7561462E-02  0.1285173E+00
          2   -1    0    0  501    0  0.00000000000E+00  0.00000000000E+00  0.73127036133E+02  0.73127036133E+02  0.00000000000E+00 0.  1.
         -2   -1    0    0    0  501 -0.00000000000E+00 -0.00000000000E+00 -0.23414689582E+03  0.23414689582E+03  0.00000000000E+00 0. -1.
         25    2    1    2    0    0 -0.40405615085E+01  0.46829309827E+02 -0.15538422791E+03  0.20494496891E+03  0.12509544997E+03 0.  0.
         23    2    1    2    0    0  0.40405615085E+01 -0.46829309827E+02 -0.56356317751E+01  0.10232896304E+03  0.90720151761E+02 0.  0.
          5    1    3    3  502    0  0.48030846666E+02  0.42341731212E+02 -0.13351919114E+03  0.14813720409E+03  0.41800000000E+01 0.  1.
         -5    1    3    3    0  502 -0.52071408175E+02  0.44875786144E+01 -0.21865036778E+02  0.56807764825E+02  0.41800000000E+01 0.  1.
        -11    1    4    4    0    0  0.25428862385E+02  0.20200437428E+01  0.29091798896E+02  0.38691606091E+02  0.00000000000E+00 0.  1.
         11    1    4    4    0    0 -0.21388300876E+02 -0.48849353569E+02 -0.34727430672E+02  0.63637356950E+02  0.00000000000E+00 0. -1.
</event>
<event>
 8    1  0.7130890E-009  0.9495969E+02  0.7561462E-02  0.1291267E+00
          2   -1    0    0  501    0  0.00000000000E+00  0.00000000000E+00  0.35141572442E+03  0.35141572442E+03  0.00000000000E+00 0. -1.
         -2   -1    0    0    0  501 -0.00000000000E+00 -0.00000000000E+00 -0.42282454111E+02  0.42282454111E+02  0.00000000000E+00 0.  1.
         25    2    1    2    0    0  0.35911657182E+02 -0.39472393144E+02  0.17876262475E+03  0.22461000855E+03  0.12508342412E+03 0.  0.
         23    2    1    2    0    0 -0.35911657182E+02  0.39472393144E+02  0.13037064556E+03  0.16908816998E+03  0.93523189974E+02 0.  0.
          5    1    3    3  502    0 -0.84432038789E+01  0.14296815996E+02  0.14683341538E+03  0.14782831566E+03  0.41800000000E+01 0. -1.
         -5    1    3    3    0  502  0.44354861061E+02 -0.53769209140E+02  0.31929209369E+02  0.76781692885E+02  0.41800000000E+01 0. -1.
        -11    1    4    4    0    0 -0.73372802587E+01  0.64541306310E+02  0.56846021758E+02  0.86318515346E+02  0.00000000000E+00 0.  1.
         11    1    4    4    0    0 -0.28574376923E+02 -0.25068913166E+02  0.73524623799E+02  0.82769654637E+02  0.00000000000E+00 0. -1.
</event>
<event>
 8    1  0.7130890E-009  0.1195940E+03  0.7561462E-02  0.1243768E+00
          1   -1    0    0  501    0  0.00000000000E+00  0.00000000000E+00  0.30420410869E+02  0.30420410869E+02  0.00000000000E+00 0. -1.
         -1   -1    0    0    0  501 -0.00000000000E+00 -0.00000000000E+00 -0.76927835225E+03  0.76927835225E+03  0.00000000000E+00 0.  1.
         25    2    1    2    0    0 -0.94851293928E+02  0.20740130573E+02 -0.52743222361E+03  0.55069088183E+03  0.12509506725E+03 0.  0.
         23    2    1    2    0    0  0.94851293928E+02 -0.20740130573E+02 -0.21142571777E+03  0.24900788129E+03  0.88753421531E+02 0.  0.
          5    1    3    3  502    0  0.14684433294E+02  0.25229879647E+02 -0.33100000498E+02  0.44331273849E+02  0.41800000000E+01 0. -1.
         -5    1    3    3    0  502 -0.10953572722E+03 -0.44897490744E+01 -0.49433222312E+03  0.50635960798E+03  0.41800000000E+01 0. -1.
        -11    1    4    4    0    0  0.38546251486E+02 -0.20557330351E+02 -0.17477415620E+02  0.47051858534E+02  0.00000000000E+00 0. -1.
         11    1    4    4    0    0  0.56305042443E+02 -0.18280022202E+00 -0.19394830215E+03  0.20195602275E+03  0.00000000000E+00 0.  1.
</event>
<event>
 8    1  0.7130890E-009  0.1280510E+03  0.7561462E-02  0.1230377E+00
         -1   -1    0    0    0  501 -0.00000000000E+00  0.00000000000E+00  0.20941772405E+03  0.20941772405E+03  0.00000000000E+00 0.  1.
          1   -1    0    0  501    0  0.00000000000E+00 -0.00000000000E+00 -0.94845746433E+02  0.94845746433E+02  0.00000000000E+00 0. -1.
         25    2    1    2    0    0 -0.66202799402E+02  0.52261092378E+02  0.90127944023E+02  0.17574322397E+03  0.12509437259E+03 0.  0.
         23    2    1    2    0    0  0.66202799402E+02 -0.52261092378E+02  0.24444033593E+02  0.12852024651E+03  0.93839813297E+02 0.  0.
          5    1    3    3  502    0 -0.45022220254E+02  0.87104889845E+02  0.29352581919E+02  0.10243685185E+03  0.41800000000E+01 0.  1.
         -5    1    3    3    0  502 -0.21180579148E+02 -0.34843797467E+02  0.60775362104E+02  0.73306372123E+02  0.41800000000E+01 0.  1.
        -11    1    4    4    0    0  0.36188057417E+02 -0.72320919100E+02  0.38767315234E+02  0.89681634517E+02  0.00000000000E+00 0.  1.
         11    1    4    4    0    0  0.30014741985E+02  0.20059826723E+02 -0.14323281642E+02  0.38838611993E+02  0.00000000000E+00 0. -1.
</event>
<event>
 8    1  0.7130890E-009  0.1445567E+03  0.7561462E-02  0.1207326E+00
          1   -1    0    0  501    0  0.00000000000E+00  0.00000000000E+00  0.17039774345E+03  0.17039774345E+03  0.00000000000E+00 0. -1.
         -1   -1    0    0    0  501 -0.00000000000E+00 -0.00000000000E+00 -0.15201340772E+03  0.15201340772E+03  0.00000000000E+00 0.  1.
         25    2    1    2    0    0 -0.11159066916E+01  0.11000716099E+03 -0.34014769790E+02  0.17001886101E+03  0.12508632147E+03 0.  0.
         23    2    1    2    0    0  0.11159066916E+01 -0.11000716099E+03  0.52399105513E+02  0.15239229016E+03  0.91514606080E+02 0.  0.
          5    1    3    3  502    0  0.51720373127E+02  0.59357304820E+02  0.17066940831E+02  0.80666222802E+02  0.41800000000E+01 0.  1.
         -5    1    3    3    0  502 -0.52836279818E+02  0.50649856168E+02 -0.51081710621E+02  0.89352638209E+02  0.41800000000E+01 0.  1.
        -11    1    4    4    0    0  0.37458396392E+02 -0.84882509441E+02  0.13950143299E+02  0.93823122776E+02  0.00000000000E+00 0.  1.
         11    1    4    4    0    0 -0.36342489701E+02 -0.25124651546E+02  0.38448962215E+02  0.58569167387E+02  0.00000000000E+00 0. -1.
</event>
<event>
 8    1  0.7130890E-009  0.1713279E+03  0.7561462E-02  0.1176470E+00
          1   -1    0    0  501    0  0.00000000000E+00  0.00000000000E+00  0.28678587877E+03  0.28678587877E+03  0.00000000000E+00 0. -1.
         -1   -1    0    0    0  501 -0.00000000000E+00 -0.00000000000E+00 -0.11695685188E+03  0.11695685188E+03  0.00000000000E+00 0.  1.
         25    2    1    2    0    0  0.12921321713E+03  0.70031453207E+02  0.10685953875E+03  0.22060657011E+03  0.12509131798E+03 0.  0.
         23    2    1    2    0    0 -0.12921321713E+03 -0.70031453207E+02  0.62969488138E+02  0.18313616055E+03  0.89292983730E+02 0.  0.
          5    1    3    3  502    0  0.14404306503E+03  0.87627186637E+02  0.86229616601E+02  0.18942002956E+03  0.41800000000E+01 0. -1.
         -5    1    3    3    0  502 -0.14829847895E+02 -0.17595733430E+02  0.20629922148E+02  0.31186540548E+02  0.41800000000E+01 0. -1.
        -11    1    4    4    0    0 -0.10516951578E+03 -0.40904504357E+02  0.37606827722E+01  0.11290681229E+03  0.00000000000E+00 0.  1.
         11    1    4    4    0    0 -0.24043701351E+02 -0.29126948851E+02  0.59208805366E+02  0.70229348259E+02  0.00000000000E+00 0. -1.
</event>
<event>
 8    1  0.7130890E-009  0.1115151E+03  0.7561462E-02  0.1257790E+00
         -3   -1    0    0    0  501 -0.00000000000E+00  0.00000000000E+00  0.32264298817E+03  0.32264298817E+03  0.00000000000E+00 0.  1.
          3   -1    0    0  501    0  0.00000000000E+00 -0.00000000000E+00 -0.51363184779E+02  0.51363184779E+02  0.00000000000E+00 0. -1.
         25    2    1    2    0    0 -0.43117177255E+02 -0.20139308896E+01  0.72910980491E+02  0.15108497674E+03  0.12509001650E+03 0.  0.
         23    2    1    2    0    0  0.43117177255E+02  0.20139308896E+01  0.19836882290E+03  0.22292119622E+03  0.92089754752E+02 0.  0.
          5    1    3    3  502    0 -0.30487467589E+02 -0.57012923579E+02  0.68566393203E+02  0.94333354716E+02  0.41800000000E+01 0.  1.
         -5    1    3    3    0  502 -0.12629709666E+02  0.54998992690E+02  0.43445872875E+01  0.56751622019E+02  0.41800000000E+01 0.  1.
        -11    1    4    4    0    0  0.22932322369E+02 -0.44992983351E+02  0.10190819902E+03  0.11373451977E+03  0.00000000000E+00 0. -1.
         11    1    4    4    0    0  0.20184854886E+02  0.47006914240E+02  0.96460623884E+02  0.10918667645E+03  0.00000000000E+00 0.  1.
</event>
<event>
 8    1  0.7130890E-009  0.8803081E+02  0.7561462E-02  0.1307692E+00
         -2   -1    0    0    0  501 -0.00000000000E+00  0.00000000000E+00  0.38781786373E+03  0.38781786373E+03  0.00000000000E+00 0.  1.
          2   -1    0    0  501    0  0.00000000000E+00 -0.00000000000E+00 -0.44985525165E+02  0.44985525165E+02  0.00000000000E+00 0. -1.
         25    2    1    2    0    0  0.57628323360E+02 -0.30800603937E+02  0.24548747399E+03  0.28316163949E+03  0.12508682320E+03 0.  0.
         23    2    1    2    0    0 -0.57628323360E+02  0.30800603937E+02  0.97344864573E+02  0.14964174940E+03  0.92988868410E+02 0.  0.
          5    1    3    3  502    0  0.32552013235E+02 -0.12857884740E+02 -0.46245119731E+00  0.35251170573E+02  0.41800000000E+01 0.  1.
         -5    1    3    3    0  502  0.25076310125E+02 -0.17942719196E+02  0.24594992519E+03  0.24791046892E+03  0.41800000000E+01 0.  1.
        -11    1    4    4    0    0 -0.81373107842E+02  0.26395288204E+02  0.57587256894E+02  0.10312412946E+03  0.00000000000E+00 0.  1.
         11    1    4    4    0    0  0.23744784482E+02  0.44053157325E+01  0.39757607679E+02  0.46517619943E+02  0.00000000000E+00 0. -1.
</event>
<event>
 8    1  0.7130890E-009  0.1621472E+03  0.7561462E-02  0.1186294E+00
         -1   -1    0    0    0  501 -0.00000000000E+00  0.00000000000E+00  0.90542262684E+02  0.90542262684E+02  0.00000000000E+00 0. -1.
          1   -1    0    0  501    0  0.00000000000E+00 -0.00000000000E+00 -0.39171820318E+03  0.39171820318E+03  0.00000000000E+00 0.  1.
         25    2    1    2    0    0  0.81320545920E+02  0.12564805294E+03 -0.14769713742E+03  0.24466822370E+03  0.12509049080E+03 0.  0.
         23    2    1    2    0    0 -0.81320545920E+02 -0.12564805294E+03 -0.15347880308E+03  0.23759224217E+03  0.10243957316E+03 0.  0.
          5    1    3    3  502    0 -0.14782585788E+02  0.40876275230E+02  0.64775149198E+01  0.44145501683E+02  0.41800000000E+01 0. -1.
         -5    1    3    3    0  502  0.96103131708E+02  0.84771777706E+02 -0.15417465234E+03  0.20052272201E+03  0.41800000000E+01 0. -1.
        -11    1    4    4    0    0 -0.18633275751E+02 -0.54437830954E+02 -0.44894361624E+00  0.57540229010E+02  0.00000000000E+00 0. -1.
         11    1    4    4    0    0 -0.62687270169E+02 -0.71210221982E+02 -0.15302985946E+03  0.18005201316E+03  0.00000000000E+00 0.  1.
</event>
<event>
 8    1  0.7130890E-009  0.2358261E+03  0.7561462E-02  0.1122605E+00
          1   -1    0    0  501    0  0.00000000000E+00  0.00000000000E+00  0.44323058176E+03  0.44323058176E+03  0.00000000000E+00 0. -1.
         -1   -1    0    0    0  501 -0.00000000000E+00 -0.00000000000E+00 -0.21266328376E+03  0.21266328376E+03  0.00000000000E+00 0.  1.
         25    2    1    2    0    0 -0.22616341531E+03  0.52232113851E+02  0.29795908849E+03  0.39787582674E+03  0.12508985149E+03 0.  0.
         23    2    1    2    0    0  0.22616341531E+03 -0.52232113851E+02 -0.67391790493E+02  0.25801803878E+03  0.90297124912E+02 0.  0.
          5    1    3    3  502    0 -0.14410624087E+03  0.36364287248E+02  0.90216089941E+02  0.17391200456E+03  0.41800000000E+01 0.  1.
         -5    1    3    3    0  502 -0.82057174435E+02  0.15867826604E+02  0.20774299855E+03  0.22396382218E+03  0.41800000000E+01 0.  1.
        -11    1    4    4    0    0  0.49786932210E+02 -0.37437757867E+02  0.12977763408E+02  0.63629762502E+02  0.00000000000E+00 0.  1.
         11    1    4    4    0    0  0.17637648310E+03 -0.14794355985E+02 -0.80369553901E+02  0.19438827628E+03  0.00000000000E+00 0. -1.
</event>
<event>
 8    1  0.7130890E-009  0.2173217E+03  0.7561462E-02  0.1135896E+00
          2   -1    0    0  501    0  0.00000000000E+00  0.00000000000E+00  0.21880221085E+04  0.21880221085E+04  0.00000000000E+00 0. -1.
         -2   -1    0    0    0  501 -0.00000000000E+00 -0.00000000000E+00 -0.23121523176E+02  0.23121523176E+02  0.00000000000E+00 0.  1.
         25    2    1    2    0    0 -0.11427452860E+02 -0.19873176716E+03  0.11257969166E+04  0.11500828821E+04  0.12508811358E+03 0.  0.
         23    2    1    2    0    0  0.11427452860E+02  0.19873176716E+03  0.10391036687E+04  0.10610607496E+04  0.80551710827E+02 0.  0.
          5    1    3    3  502    0 -0.68027027728E+02 -0.97941769943E+02  0.55424455343E+03  0.56694335185E+03  0.41800000000E+01 0. -1.
         -5    1    3    3    0  502  0.56599574867E+02 -0.10078999722E+03  0.57155236321E+03  0.58313953022E+03  0.41800000000E+01 0. -1.
        -11    1    4    4    0    0  0.76613107650E+01  0.33041567922E+02  0.68818690193E+02  0.76723223428E+02  0.00000000000E+00 0.  1.
         11    1    4    4    0    0  0.37661420952E+01  0.16569019924E+03  0.97028497847E+03  0.98433752616E+03  0.00000000000E+00 0. -1.
</event>
<event>
 8    1  0.7130890E-009  0.8671437E+02  0.7561462E-02  0.1311009E+00
          2   -1    0    0  501    0  0.00000000000E+00  0.00000000000E+00  0.28734723375E+03  0.28734723375E+03  0.00000000000E+00 0. -1.
         -2   -1    0    0    0  501 -0.00000000000E+00 -0.00000000000E+00 -0.48577264479E+02  0.48577264479E+02  0.00000000000E+00 0.  1.
         25    2    1    2    0    0 -0.26254032715E+02  0.33797049164E+02  0.16587107760E+03  0.21211051877E+03  0.12508454349E+03 0.  0.
         23    2    1    2    0    0  0.26254032715E+02 -0.33797049164E+02  0.72898891671E+02  0.12381397946E+03  0.90466227611E+02 0.  0.
          5    1    3    3  502    0 -0.74739714922E+02  0.30221979538E+02  0.81946016486E+02  0.11503049618E+03  0.41800000000E+01 0. -1.
         -5    1    3    3    0  502  0.48485682207E+02  0.35750696251E+01  0.83925061117E+02  0.97080022587E+02  0.41800000000E+01 0. -1.
        -11    1    4    4    0    0  0.19272581206E+02 -0.16939332069E+02 -0.17844854520E+02  0.31253994787E+02  0.00000000000E+00 0.  1.
         11    1    4    4    0    0  0.69814515085E+01 -0.16857717095E+02  0.90743746191E+02  0.92559984678E+02  0.00000000000E+00 0. -1.
</event>
<event>
 8    1  0.7130890E-009  0.1129185E+03  0.7561462E-02  0.1255259E+00
          2   -1    0    0  501    0  0.00000000000E+00  0.00000000000E+00  0.38578417605E+03  0.38578417605E+03  0.00000000000E+00 0. -1.
         -2   -1    0    0    0  501 -0.00000000000E+00 -0.00000000000E+00 -0.44808637796E+02  0.44808637796E+02  0.00000000000E+00 0.  1.
         25    2    1    2    0    0  0.37004921749E+02 -0.69621671130E+02  0.19362974201E+03  0.24363581852E+03  0.12509753694E+03 0.  0.
         23    2    1    2    0    0 -0.37004921749E+02  0.69621671130E+02  0.14734579624E+03  0.18695699532E+03  0.83818811173E+02 0.  0.
          5    1    3    3  502    0  0.75573661745E+02 -0.76113781396E+02  0.15471045065E+03  0.18830157198E+03  0.41800000000E+01 0.  1.
         -5    1    3    3    0  502 -0.38568739995E+02  0.64921102664E+01  0.38919291362E+02  0.55334246544E+02  0.41800000000E+01 0.  1.
        -11    1    4    4    0    0 -0.27682343648E+02  0.44986006496E+02  0.15136036501E+03  0.16031223605E+03  0.00000000000E+00 0. -1.
         11    1    4    4    0    0 -0.93225781018E+01  0.24635664634E+02 -0.40145687729E+01  0.26644759275E+02  0.00000000000E+00 0.  1.
</event>
<event>
 8    1  0.7130890E-009  0.1408000E+03  0.7561462E-02  0.1212257E+00
          2   -1    0    0  501    0  0.00000000000E+00  0.00000000000E+00  0.59216406455E+03  0.59216406455E+03  0.00000000000E+00 0. -1.
         -2   -1    0    0    0  501 -0.00000000000E+00 -0.00000000000E+00 -0.36118918595E+02  0.36118918595E+02  0.00000000000E+00 0.  1.
         25    2    1    2    0    0 -0.89795221236E+02 -0.29332889067E+02  0.31703131789E+03  0.35366637136E+03  0.12508975006E+03 0.  0.
         23    2    1    2    0    0  0.89795221236E+02  0.29332889067E+02  0.23901382807E+03  0.27461661179E+03  0.96762974959E+02 0.  0.
          5    1    3    3  502    0 -0.15448535393E+02  0.40998623937E+02  0.16186406008E+03  0.16774084403E+03  0.41800000000E+01 0. -1.
         -5    1    3    3    0  502 -0.74346685843E+02 -0.70331513004E+02  0.15516725781E+03  0.18592552733E+03  0.41800000000E+01 0. -1.
        -11    1    4    4    0    0  0.65556918266E+02 -0.29231455274E+02  0.12259463822E+03  0.14206207386E+03  0.00000000000E+00 0. -1.
         11    1    4    4    0    0  0.24238302970E+02  0.58564344341E+02  0.11641918985E+03  0.13255453792E+03  0.00000000000E+00 0.  1.
</event>
<event>
 8    1  0.7130890E-009  0.7600469E+02  0.7561462E-02  0.1340788E+00
          1   -1    0    0  501    0  0.00000000000E+00  0.00000000000E+00  0.52004099790E+02  0.52004099790E+02  0.00000000000E+00 0. -1.
         -1   -1    0    0    0  501 -0.00000000000E+00 -0.00000000000E+00 -0.24222055674E+03  0.24222055674E+03  0.00000000000E+00 0.  1.
         25    2    1    2    0    0 -0.24967968341E+02 -0.97841644663E+01 -0.12759276372E+03  0.18068271435E+03  0.12508877085E+03 0.  0.
         23    2    1    2    0    0  0.24967968341E+02  0.97841644663E+01 -0.62623693233E+02  0.11354194218E+03  0.90834554897E+02 0.  0.
          5    1    3    3  502    0  0.18244021265E+01 -0.25808464322E+02  0.17953054882E+02  0.31767748635E+02  0.41800000000E+01 0.  1.
         -5    1    3    3    0  502 -0.26792370468E+02  0.16024299856E+02 -0.14554581860E+03  0.14891496571E+03  0.41800000000E+01 0.  1.
        -11    1    4    4    0    0  0.21138026516E+02 -0.39537600722E+02 -0.35034234259E+02  0.56898467519E+02  0.00000000000E+00 0.  1.
         11    1    4    4    0    0  0.38299418253E+01  0.49321765188E+02 -0.27589458974E+02  0.56643474665E+02  0.00000000000E+00 0. -1.
</event>
<event>
 8    1  0.7130890E-009  0.1246563E+03  0.7561462E-02  0.1235607E+00
          2   -1    0    0  501    0  0.00000000000E+00  0.00000000000E+00  0.36604934036E+03  0.36604934036E+03  0.00000000000E+00 0. -1.
         -2   -1    0    0    0  501 -0.00000000000E+00 -0.00000000000E+00 -0.49114442627E+02  0.49114442627E+02  0.00000000000E+00 0.  1.
         25    2    1    2    0    0 -0.42731575701E+02  0.61418253760E+02  0.14322527899E+03  0.20435090613E+03  0.12509045862E+03 0.  0.
         23    2    1    2    0    0  0.42731575701E+02 -0.61418253760E+02  0.17370961875E+03  0.21081287686E+03  0.93106648246E+02 0.  0.
          5    1    3    3  502    0  0.38573665633E+02 -0.47566894965E+01  0.25559453989E+02  0.46704516522E+02  0.41800000000E+01 0.  1.
         -5    1    3    3    0  502 -0.81305241334E+02  0.66174943257E+02  0.11766582500E+03  0.15764638961E+03  0.41800000000E+01 0.  1.
        -11    1    4    4    0    0  0.51548324196E+02 -0.73853369284E+02  0.17359616777E+03  0.19556886088E+03  0.00000000000E+00 0. -1.
         11    1    4    4    0    0 -0.88167484948E+01  0.12435115524E+02  0.11345098059E+00  0.15244015981E+02  0.00000000000E+00 0.  1.
</event>
<event>
 8    1  0.7130890E-009  0.4206021E+03  0.7561462E-02  0.1036871E+00
          1   -1    0    0  501    0  0.00000000000E+00  0.00000000000E+00  0.15380770763E+04  0.15380770763E+04  0.00000000000E+00 0. -1.
         -1   -1    0    0    0  501 -0.00000000000E+00 -0.00000000000E+00 -0.12707917778E+03  0.12707917778E+03  0.00000000000E+00 0.  1.
         25    2    1    2    0    0 -0.11810341638E+03 -0.40336182431E+03  0.55860643433E+03  0.71016726791E+03  0.12508885509E+03 0.  0.
         23    2    1    2    0    0  0.11810341638E+03  0.40336182431E+03  0.85239146420E+03  0.95498898618E+03  0.93720740527E+02 0.  0.
          5    1    3    3  502    0 -0.12123797541E+02 -0.53583522525E+02  0.18715737244E+02  0.58188758137E+02  0.41800000000E+01 0.  1.
         -5    1    3    3    0  502 -0.10597961884E+03 -0.34977830179E+03  0.53989069709E+03  0.65197850978E+03  0.41800000000E+01 0.  1.
        -11    1    4    4    0    0  0.58789617679E+02  0.22909654398E+03  0.37525813423E+03  0.44357650176E+03  0.00000000000E+00 0.  1.
         11    1    4    4    0    0  0.59313798697E+02  0.17426528033E+03  0.47713332997E+03  0.51141248442E+03  0.00000000000E+00 0. -1.
</event>
<event>
 8    1  0.7130890E-009  0.9718396E+02  0.7561462E-02  0.1286332E+00
         -2   -1    0    0    0  501 -0.00000000000E+00  0.00000000000E+00  0.22305735684E+02  0.22305735684E+02  0.00000000000E+00 0.  1.
          2   -1    0    0  501    0  0.00000000000E+00 -0.00000000000E+00 -0.62352923083E+03  0.62352923083E+03  0.00000000000E+00 0. -1.
         25    2    1    2    0    0  0.37823365886E+02  0.87919916453E+01 -0.31429728739E+03  0.34049382537E+03  0.12508139000E+03 0.  0.
         23    2    1    2    0    0 -0.37823365886E+02 -0.87919916453E+01 -0.28692620775E+03  0.30534114114E+03  0.96946674305E+02 0.  0.
          5    1    3    3  502    0  0.60502016616E+02 -0.86200985847E+01 -0.30354210602E+03  0.30966123852E+03  0.41800000000E+01 0. -1.
         -5    1    3    3    0  502 -0.22678650730E+02  0.17412090230E+02 -0.10755181372E+02  0.30832586843E+02  0.41800000000E+01 0. -1.
        -11    1    4    4    0    0 -0.15055146130E+02  0.44117626103E+02 -0.13821586212E+03  0.14586516685E+03  0.00000000000E+00 0.  1.
         11    1    4    4    0    0 -0.22768219756E+02 -0.52909617748E+02 -0.14871034563E+03  0.15947597430E+03  0.00000000000E+00 0. -1.
</event>
<event>
 8    1  0.7130890E-009  0.1627146E+03  0.7561462E-02  0.1185666E+00
         -4   -1    0    0    0  501 -0.00000000000E+00  0.00000000000E+00  0.12941549947E+03  0.12941549947E+03  0.00000000000E+00 0. -1.
          4   -1    0    0  501    0  0.00000000000E+00 -0.00000000000E+00 -0.25262024077E+03  0.25262024077E+03  0.00000000000E+00 0.  1.
         25    2    1    2    0    0 -0.12211243198E+03 -0.90703850580E+01 -0.14636846270E+03  0.22817659826E+03  0.12508842949E+03 0.  0.
         23    2    1    2    0    0  0.12211243198E+03  0.90703850580E+01  0.23163721410E+02  0.15385914198E+03  0.90235024524E+02 0.  0.
          5    1    3    3  502    0 -0.14020331929E+03 -0.33305130495E+02 -0.12608289027E+03  0.19152172221E+03  0.41800000000E+01 0. -1.
         -5    1    3    3    0  502  0.18090887310E+02  0.24234745437E+02 -0.20285572426E+02  0.36654876057E+02  0.41800000000E+01 0. -1.
        -11    1    4    4    0    0 -0.60202274067E+01  0.21190675059E+02 -0.38154365209E+01  0.22357222621E+02  0.00000000000E+00 0.  1.
         11    1    4    4    0    0  0.12813265939E+03 -0.12120290001E+02  0.26979157931E+02  0.13150191935E+03  0.00000000000E+00 0. -1.
</event>
<event>
 8    1  0.7130890E-009  0.1235357E+03  0.7561462E-02  0.1237376E+00
         -2   -1    0    0    0  501 -0.00000000000E+00  0.00000000000E+00  0.23105215970E+02  0.23105215970E+02  0.00000000000E+00 0. -1.
          2   -1    0    0  501    0  0.00000000000E+00 -0.00000000000E+00 -0.86397269696E+03  0.86397269696E+03  0.00000000000E+00 0.  1.
         25    2    1    2    0    0 -0.60019950024E+02 -0.59750821925E+02 -0.50787307376E+03  0.52986405188E+03  0.12509316247E+03 0.  0.
         23    2    1    2    0    0  0.60019950024E+02  0.59750821925E+02 -0.33299440723E+03  0.35721386106E+03  0.97692948372E+02 0.  0.
          5    1    3    3  502    0 -0.82729800705E+02 -0.49906234709E+02 -0.48896670312E+03  0.49843832251E+03  0.41800000000E+01 0. -1.
         -5    1    3    3    0  502  0.22709850681E+02 -0.98445872168E+01 -0.18906370645E+02  0.31425729369E+02  0.41800000000E+01 0. -1.
        -11    1    4    4    0    0  0.75049936054E+02  0.13016896632E+02 -0.24354784450E+03  0.25518127882E+03  0.00000000000E+00 0.  1.
         11    1    4    4    0    0 -0.15029986029E+02  0.46733925294E+02 -0.89446562735E+02  0.10203258224E+03  0.00000000000E+00 0. -1.
</event>
<event>
 8    1  0.7130890E-009  0.1395006E+03  0.7561462E-02  0.1214003E+00
          2   -1    0    0  501    0  0.00000000000E+00  0.00000000000E+00  0.19122160508E+03  0.19122160508E+03  0.00000000000E+00 0. -1.
         -2   -1    0    0    0  501 -0.00000000000E+00 -0.00000000000E+00 -0.11773748514E+03  0.11773748514E+03  0.00000000000E+00 0.  1.
         25    2    1    2    0    0 -0.88308639182E+02  0.30644357731E+02  0.84593947207E+02  0.17759883665E+03  0.12509084083E+03 0.  0.
         23    2    1    2    0    0  0.88308639182E+02 -0.30644357731E+02 -0.11109827270E+02  0.13136025357E+03  0.91622025414E+02 0.  0.
          5    1    3    3  502    0  0.29760497184E+02  0.12048428482E+02  0.23727364058E+01  0.32464659240E+02  0.41800000000E+01 0.  1.
         -5    1    3    3    0  502 -0.11806913637E+03  0.18595929249E+02  0.82221210802E+02  0.14513417741E+03  0.41800000000E+01 0.  1.
        -11    1    4    4    0    0 -0.99917999707E+01 -0.26853486980E+02  0.10723264079E+02  0.30593042055E+02  0.00000000000E+00 0.  1.
         11    1    4    4    0    0  0.98300439153E+02 -0.37908707505E+01 -0.21833091349E+02  0.10076721151E+03  0.00000000000E+00 0. -1.
</event>
<event>
 8    1  0.7130890E-009  0.1756710E+03  0.7561462E-02  0.1172060E+00
          1   -1    0    0  501    0  0.00000000000E+00  0.00000000000E+00  0.77265078525E+02  0.77265078525E+02  0.00000000000E+00 0. -1.
         -1   -1    0    0    0  501 -0.00000000000E+00 -0.00000000000E+00 -0.52418493905E+03  0.52418493905E+03  0.00000000000E+00 0.  1.
         25    2    1    2    0    0  0.14965917235E+03 -0.79061271408E+01 -0.11607083955E+03  0.22711377635E+03  0.12509137821E+03 0.  0.
         23    2    1    2    0    0 -0.14965917235E+03  0.79061271408E+01 -0.33084902098E+03  0.37433624122E+03  0.90587924659E+02 0.  0.
          5    1    3    3  502    0  0.27717269713E+02  0.52117236407E+02 -0.37752153034E+02  0.70193666593E+02  0.41800000000E+01 0.  1.
         -5    1    3    3    0  502  0.12194190264E+03 -0.60023363548E+02 -0.78318686512E+02  0.15692010976E+03  0.41800000000E+01 0.  1.
        -11    1    4    4    0    0 -0.24347157972E+02  0.18280246146E+02 -0.14120232204E+02  0.33560876895E+02  0.00000000000E+00 0. -1.
         11    1    4    4    0    0 -0.12531201438E+03 -0.10374119005E+02 -0.31672878878E+03  0.34077536433E+03  0.00000000000E+00 0.  1.
</event>
<event>
 8    1  0.7130890E-009  0.1334857E+03  0.7561462E-02  0.1222373E+00
          3   -1    0    0  501    0  0.00000000000E+00  0.00000000000E+00  0.38322146971E+03  0.38322146971E+03  0.00000000000E+00 0. -1.
         -3   -1    0    0    0  501 -0.00000000000E+00 -0.00000000000E+00 -0.59026325277E+02  0.59026325277E+02  0.00000000000E+00 0.  1.
         25    2    1    2    0    0 -0.88182201041E+02 -0.51266727501E+02  0.13738331124E+03  0.21195747135E+03  0.12508963797E+03 0.  0.
         23    2    1    2    0    0  0.88182201041E+02  0.51266727501E+02  0.18681183320E+03  0.23029032364E+03  0.87923797736E+02 0.  0.
          5    1    3    3  502    0  0.13267776992E+02 -0.44121280807E+02  0.73803844189E+01  0.46847238985E+02  0.41800000000E+01 0. -1.
         -5    1    3    3    0  502 -0.10144997803E+03 -0.71454466940E+01  0.13000292682E+03  0.16511023237E+03  0.41800000000E+01 0. -1.
        -11    1    4    4    0    0  0.35588749167E+02  0.55746745319E+02  0.15534627291E+03  0.16883934135E+03  0.00000000000E+00 0.  1.
         11    1    4    4    0    0  0.52593451874E+02 -0.44800178184E+01  0.31465560293E+02  0.61450982288E+02  0.00000000000E+00 0. -1.
</event>
<event>
 8    1  0.7130890E-009  0.1531013E+03  0.7561462E-02  0.1196713E+00
          2   -1    0    0  501    0  0.00000000000E+00  0.00000000000E+00  0.50969115396E+03  0.50969115396E+03  0.00000000000E+00 0. -1.
         -2   -1    0    0    0  501 -0.00000000000E+00 -0.00000000000E+00 -0.53244314320E+02  0.53244314320E+02  0.00000000000E+00 0.  1.
         25    2    1    2    0    0 -0.12556301035E+02 -0.12142296986E+03  0.25359731762E+03  0.30799400181E+03  0.12508999696E+03 0.  0.
         23    2    1    2    0    0  0.12556301035E+02  0.12142296986E+03  0.20284952202E+03  0.25494146647E+03  0.94583425803E+02 0.  0.
          5    1    3    3  502    0 -0.50515450669E+02 -0.91840741618E+02  0.92661685058E+02  0.13996497010E+03  0.41800000000E+01 0.  1.
         -5    1    3    3    0  502  0.37959149634E+02 -0.29582228245E+02  0.16093563257E+03  0.16802903171E+03  0.41800000000E+01 0.  1.
        -11    1    4    4    0    0  0.44861870708E+02  0.10988932058E+03  0.17082737473E+03  0.20801500469E+03  0.00000000000E+00 0.  1.
         11    1    4    4    0    0 -0.32305569674E+02  0.11533649279E+02  0.32022147291E+02  0.46926461776E+02  0.00000000000E+00 0. -1.
</event>
<event>
 8    1  0.7130890E-009  0.1384139E+03  0.7561462E-02  0.1215479E+00
          3   -1    0    0  501    0  0.00000000000E+00  0.00000000000E+00  0.13260288291E+03  0.13260288291E+03  0.00000000000E+00 0. -1.
         -3   -1    0    0    0  501 -0.00000000000E+00 -0.00000000000E+00 -0.20361384115E+03  0.20361384115E+03  0.00000000000E+00 0.  1.
         25    2    1    2    0    0 -0.93878862653E+02  0.79502855749E+02 -0.52755376440E+02  0.18321699479E+03  0.12510552550E+03 0.  0.
         23    2    1    2    0    0  0.93878862653E+02 -0.79502855749E+02 -0.18255581803E+02  0.15299972927E+03  0.89116249720E+02 0.  0.
          5    1    3    3  502    0  0.58425349305E+01 -0.14553677135E+02  0.21752733450E+02  0.27140349024E+02  0.41800000000E+01 0.  1.
         -5    1    3    3    0  502 -0.99721397583E+02  0.94056532884E+02 -0.74508109890E+02  0.15607664577E+03  0.41800000000E+01 0.  1.
        -11    1    4    4    0    0  0.39206266170E+02 -0.26616167355E+02 -0.51501464056E+02  0.69985373269E+02  0.00000000000E+00 0.  1.
         11    1    4    4    0    0  0.54672596482E+02 -0.52886688393E+02  0.33245882253E+02  0.83014356000E+02  0.00000000000E+00 0. -1.
</event>
<event>
 8    1  0.7130890E-009  0.9316430E+02  0.7561462E-02  0.1295365E+00
         -2   -1    0    0    0  501 -0.00000000000E+00  0.00000000000E+00  0.93961243146E+02  0.93961243146E+02  0.00000000000E+00 0.  1.
          2   -1    0    0  501    0  0.00000000000E+00 -0.00000000000E+00 -0.22863457495E+03  0.22863457495E+03  0.00000000000E+00 0. -1.
         25    2    1    2    0    0  0.37713637932E+02  0.13688830825E+02 -0.17140240085E+03  0.21594924039E+03  0.12508232822E+03 0.  0.
         23    2    1    2    0    0 -0.37713637932E+02 -0.13688830825E+02  0.36729069042E+02  0.10664657771E+03  0.91732030658E+02 0.  0.
          5    1    3    3  502    0  0.74231931384E+02  0.24528509256E+02 -0.61501584015E+02  0.99558749689E+02  0.41800000000E+01 0. -1.
         -5    1    3    3    0  502 -0.36518293451E+02 -0.10839678431E+02 -0.10990081684E+03  0.11639049070E+03  0.41800000000E+01 0. -1.
        -11    1    4    4    0    0 -0.26069187030E+02  0.20777003135E+02  0.56230631875E+02  0.65369490840E+02  0.00000000000E+00 0.  1.
         11    1    4    4    0    0 -0.11644450902E+02 -0.34465833960E+02 -0.19501562832E+02  0.41277086868E+02  0.00000000000E+00 0. -1.
</event>
<event>
 8    1  0.7130890E-009  0.1473643E+03  0.7561462E-02  0.1203750E+00
         -1   -1    0    0    0  501 -0.00000000000E+00  0.00000000000E+00  0.66856419256E+02  0.66856419256E+02  0.00000000000E+00 0.  1.
          1   -1    0    0  501    0  0.00000000000E+00 -0.00000000000E+00 -0.53380037288E+03  0.53380037288E+03  0.00000000000E+00 0. -1.
         25    2    1    2    0    0  0.96140296150E+02 -0.84737986523E+02 -0.11656784510E+03  0.21367944380E+03  0.12508940518E+03 0.  0.
         23    2    1    2    0    0 -0.96140296150E+02  0.84737986523E+02 -0.35037610853E+03  0.38697734834E+03  0.10278408339E+03 0.  0.
          5    1    3    3  502    0  0.37051043370E+02 -0.18499696336E+02 -0.11766527070E+03  0.12481028366E+03  0.41800000000E+01 0.  1.
         -5    1    3    3    0  502  0.59089252780E+02 -0.66238290187E+02  0.10974255950E+01  0.88869160140E+02  0.41800000000E+01 0.  1.
        -11    1    4    4    0    0  0.16943940993E+02  0.38513699927E+02 -0.93405899001E+02  0.10244542053E+03  0.00000000000E+00 0.  1.
         11    1    4    4    0    0 -0.11308423714E+03  0.46224286595E+02 -0.25697020953E+03  0.28453192781E+03  0.00000000000E+00 0. -1.
</event>
<event>
 8    1  0.7130890E-009  0.1524371E+03  0.7561462E-02  0.1197510E+00
         -2   -1    0    0    0  501 -0.00000000000E+00  0.00000000000E+00  0.16223524192E+03  0.16223524192E+03  0.00000000000E+00 0.  1.
          2   -1    0    0  501    0  0.00000000000E+00 -0.00000000000E+00 -0.22080824593E+03  0.22080824593E+03  0.00000000000E+00 0. -1.
         25    2    1    2    0    0 -0.43257510033E+02  0.13022533501E+03 -0.10552118484E+03  0.21357005419E+03  0.12509035752E+03 0.  0.
         23    2    1    2    0    0  0.43257510033E+02 -0.13022533501E+03  0.46948180834E+02  0.16947343366E+03  0.87677037935E+02 0.  0.
          5    1    3    3  502    0 -0.34998042596E+02  0.26332391387E+02 -0.99847650411E+02  0.10911133541E+03  0.41800000000E+01 0.  1.
         -5    1    3    3    0  502 -0.82594674376E+01  0.10389294362E+03 -0.56735344304E+01  0.10445871878E+03  0.41800000000E+01 0.  1.
        -11    1    4    4    0    0 -0.19426999010E+02 -0.12217650459E+02  0.25213738025E+02  0.34094161648E+02  0.00000000000E+00 0.  1.
         11    1    4    4    0    0  0.62684509044E+02 -0.11800768455E+03  0.21734442809E+02  0.13537927201E+03  0.00000000000E+00 0. -1.
</event>
<event>
 8    1  0.7130890E-009  0.9240961E+02  0.7561462E-02  0.1297119E+00
          1   -1    0    0  501    0  0.00000000000E+00  0.00000000000E+00  0.27730137636E+02  0.27730137636E+02  0.00000000000E+00 0. -1.
         -1   -1    0    0    0  501 -0.00000000000E+00 -0.00000000000E+00 -0.60258952369E+03  0.60258952369E+03  0.00000000000E+00 0.  1.
         25    2    1    2    0    0 -0.51613626168E+02 -0.34085370195E+02 -0.39835512590E+03  0.42209083496E+03  0.12509231694E+03 0.  0.
         23    2    1    2    0    0  0.51613626168E+02  0.34085370195E+02 -0.17650426016E+03  0.20822882637E+03  0.91540763657E+02 0.  0.
          5    1    3    3  502    0 -0.56938791151E+02 -0.37268132401E+01 -0.38327863959E+03  0.38752535793E+03  0.41800000000E+01 0. -1.
         -5    1    3    3    0  502  0.53251649827E+01 -0.30358556955E+02 -0.15076486309E+02  0.34565477024E+02  0.41800000000E+01 0. -1.
        -11    1    4    4    0    0  0.12870885557E+02  0.52178253506E+02 -0.14635236005E+03  0.15590780328E+03  0.00000000000E+00 0.  1.
         11    1    4    4    0    0  0.38742740611E+02 -0.18092883311E+02 -0.30151900110E+02  0.52321023086E+02  0.00000000000E+00 0. -1.
</event>
<event>
 8    1  0.7130890E-009  0.1911242E+03  0.7561462E-02  0.1157451E+00
         -2   -1    0    0    0  501 -0.00000000000E+00  0.00000000000E+00  0.20813995957E+03  0.20813995957E+03  0.00000000000E+00 0.  1.
          2   -1    0    0  501    0  0.00000000000E+00 -0.00000000000E+00 -0.21451563198E+03  0.21451563198E+03  0.00000000000E+00 0. -1.
         25    2    1    2    0    0  0.14244465916E+03 -0.11049827228E+03 -0.23249090393E+02  0.22065414773E+03  0.12508950239E+03 0.  0.
         23    2    1    2    0    0 -0.14244465916E+03  0.11049827228E+03  0.16873417984E+02  0.20200144382E+03  0.89551783738E+02 0.  0.
          5    1    3    3  502    0  0.37681764499E+02 -0.55594947854E+01 -0.56847782365E+02  0.68556298892E+02  0.41800000000E+01 0.  1.
         -5    1    3    3    0  502  0.10476289466E+03 -0.10493877749E+03  0.33598691971E+02  0.15209784884E+03  0.41800000000E+01 0.  1.
        -11    1    4    4    0    0 -0.41120010004E+02  0.79708593130E+02 -0.16023242654E+02  0.91110149526E+02  0.00000000000E+00 0.  1.
         11    1    4    4    0    0 -0.10132464916E+03  0.30789679145E+02  0.32896660638E+02  0.11089129429E+03  0.00000000000E+00 0. -1.
</event>
<event>
 8    1  0.7130890E-009  0.1018023E+03  0.7561462E-02  0.1276551E+00
          1   -1    0    0  501    0  0.00000000000E+00  0.00000000000E+00  0.25350359090E+03  0.25350359090E+03  0.00000000000E+00 0. -1.
         -1   -1    0    0    0  501 -0.00000000000E+00 -0.00000000000E+00 -0.77128862531E+02  0.77128862531E+02  0.00000000000E+00 0.  1.
         25    2    1    2    0    0  0.32251096361E+02  0.55774622132E+02  0.16627064326E+03  0.21781637054E+03  0.12508837986E+03 0.  0.
         23    2    1    2    0    0 -0.32251096361E+02 -0.55774622132E+02  0.10104085108E+02  0.11281608288E+03  0.92056690854E+02 0.  0.
          5    1    3    3  502    0  0.59303470361E+02  0.78724363814E+02  0.14754033275E+03  0.17748253222E+03  0.41800000000E+01 0. -1.
         -5    1    3    3    0  502 -0.27052373999E+02 -0.22949741682E+02  0.18730310507E+02  0.40333838324E+02  0.41800000000E+01 0. -1.
        -11    1    4    4    0    0 -0.35900370723E+02 -0.43359668173E+02 -0.34735123021E+02  0.66147004569E+02  0.00000000000E+00 0.  1.
         11    1    4    4    0    0  0.36492743618E+01 -0.12414953959E+02  0.44839208129E+02  0.46669078315E+02  0.00000000000E+00 0. -1.
</event>
<event>
 8    1  0.7130890E-009  0.8932603E+02  0.7561462E-02  0.1304492E+00
         -2   -1    0    0    0  501 -0.00000000000E+00  0.00000000000E+00  0.28451649922E+03  0.28451649922E+03  0.00000000000E+00 0. -1.
          2   -1    0    0  501    0  0.00000000000E+00 -0.00000000000E+00 -0.48010570698E+02  0.48010570698E+02  0.00000000000E+00 0.  1.
         25    2    1    2    0    0 -0.15292292257E+02  0.25125477043E+02  0.87928528369E+02  0.15570324784E+03  0.12508769519E+03 0.  0.
         23    2    1    2    0    0  0.15292292257E+02 -0.25125477043E+02  0.14857740015E+03  0.17682382207E+03  0.91248432415E+02 0.  0.
          5    1    3    3  502    0 -0.40682400094E+02 -0.28181142974E+02 -0.49746679214E-01  0.49665978007E+02  0.41800000000E+01 0.  1.
         -5    1    3    3    0  502  0.25390107837E+02  0.53306620016E+02  0.87978275048E+02  0.10603726983E+03  0.41800000000E+01 0.  1.
        -11    1    4    4    0    0 -0.24875306266E+02 -0.80261614019E+01  0.48133303886E+01  0.26577589772E+02  0.00000000000E+00 0.  1.
         11    1    4    4    0    0  0.40167598522E+02 -0.17099315641E+02  0.14376406976E+03  0.15024623230E+03  0.00000000000E+00 0. -1.
</event>
<event>
 8    1  0.7130890E-009  0.7434936E+02  0.7561462E-02  0.1345898E+00
         -2   -1    0    0    0  501 -0.00000000000E+00  0.00000000000E+00  0.17506315291E+03  0.17506315291E+03  0.00000000000E+00 0.  1.
          2   -1    0    0  501    0  0.00000000000E+00 -0.00000000000E+00 -0.81251507248E+02  0.81251507248E+02  0.00000000000E+00 0. -1.
         25    2    1    2    0    0  0.28948912935E+02 -0.15692318747E+02  0.12379734571E+02  0.12993320003E+03  0.12508033505E+03 0.  0.
         23    2    1    2    0    0 -0.28948912935E+02  0.15692318747E+02  0.81431911092E+02  0.12638146013E+03  0.90867094659E+02 0.  0.
          5    1    3    3  502    0  0.48310647205E+01  0.31375024475E+02 -0.42757891266E+02  0.53417609574E+02  0.41800000000E+01 0.  1.
         -5    1    3    3    0  502  0.24117848215E+02 -0.47067343222E+02  0.55137625837E+02  0.76515590460E+02  0.41800000000E+01 0.  1.
        -11    1    4    4    0    0  0.15693258210E+02 -0.15552344562E+01 -0.13050353369E+02  0.20469705189E+02  0.00000000000E+00 0. -1.
         11    1    4    4    0    0 -0.44642171145E+02  0.17247553203E+02  0.94482264461E+02  0.10591175494E+03  0.00000000000E+00 0.  1.
</event>
<event>
 8    1  0.7130890E-009  0.8921492E+02  0.7561462E-02  0.1304764E+00
         -2   -1    0    0    0  501 -0.00000000000E+00  0.00000000000E+00  0.11378000324E+03  0.11378000324E+03  0.00000000000E+00 0.  1.
          2   -1    0    0  501    0  0.00000000000E+00 -0.00000000000E+00 -0.10588913643E+03  0.10588913643E+03  0.00000000000E+00 0. -1.
         25    2    1    2    0    0 -0.18748058088E+02 -0.48445335758E+01  0.46513644222E+01  0.12666460518E+03  0.12508927942E+03 0.  0.
         23    2    1    2    0    0  0.18748058088E+02  0.48445335758E+01  0.32395023876E+01  0.93004534493E+02  0.90908689755E+02 0.  0.
          5    1    3    3  502    0  0.16833700384E+01  0.45035984867E+02 -0.36965093016E+02  0.58437694764E+02  0.41800000000E+01 0.  1.
         -5    1    3    3    0  502 -0.20431428126E+02 -0.49880518443E+02  0.41616457438E+02  0.68226910417E+02  0.41800000000E+01 0.  1.
        -11    1    4    4    0    0 -0.18735936525E+02  0.28989499911E+02  0.25743578790E+02  0.43059938127E+02  0.00000000000E+00 0.  1.
         11    1    4    4    0    0  0.37483994613E+02 -0.24144966335E+02 -0.22504076403E+02  0.49944596366E+02  0.00000000000E+00 0. -1.
</event>
<event>
 8    1  0.7130890E-009  0.8028047E+02  0.7561462E-02  0.1328257E+00
          1   -1    0    0  501    0  0.00000000000E+00  0.00000000000E+00  0.93839236877E+02  0.93839236877E+02  0.00000000000E+00 0. -1.
         -1   -1    0    0    0  501 -0.00000000000E+00 -0.00000000000E+00 -0.13308423781E+03  0.13308423781E+03  0.00000000000E+00 0.  1.
         25    2    1    2    0    0 -0.25304507982E+02 -0.13617070996E+02 -0.11365568190E+02  0.12885494698E+03  0.12509467804E+03 0.  0.
         23    2    1    2    0    0  0.25304507982E+02  0.13617070996E+02 -0.27879432739E+02  0.98068527703E+02  0.89523352312E+02 0.  0.
          5    1    3    3  502    0  0.18114670951E+02  0.17294071618E+02 -0.54524216445E+02  0.60146394703E+02  0.41800000000E+01 0.  1.
         -5    1    3    3    0  502 -0.43419178933E+02 -0.30911142614E+02  0.43158648255E+02  0.68708552278E+02  0.41800000000E+01 0.  1.
        -11    1    4    4    0    0  0.10204179202E+02  0.45393401508E+02 -0.39484441899E+02  0.61022187160E+02  0.00000000000E+00 0.  1.
         11    1    4    4    0    0  0.15100328780E+02 -0.31776330512E+02  0.11605009160E+02  0.37046340543E+02  0.00000000000E+00 0. -1.
</event>
<event>
 8    1  0.7130890E-009  0.8598337E+02  0.7561462E-02  0.1312881E+00
          1   -1    0    0  501    0  0.00000000000E+00  0.00000000000E+00  0.65159801508E+03  0.65159801508E+03  0.00000000000E+00 0. -1.
         -1   -1    0    0    0  501 -0.00000000000E+00 -0.00000000000E+00 -0.26708722256E+02  0.26708722256E+02  0.00000000000E+00 0.  1.
         25    2    1    2    0    0 -0.39048015117E+02  0.50754877886E+02  0.45470769374E+03  0.47592811912E+03  0.12509069794E+03 0.  0.
         23    2    1    2    0    0  0.39048015117E+02 -0.50754877886E+02  0.17018159909E+03  0.20237861822E+03  0.88851130157E+02 0.  0.
          5    1    3    3  502    0 -0.37635000585E+02  0.12219563307E+02  0.42554411182E+03  0.42740025094E+03  0.41800000000E+01 0. -1.
         -5    1    3    3    0  502 -0.14130145312E+01  0.38535314580E+02  0.29163581913E+02  0.48527868177E+02  0.41800000000E+01 0. -1.
        -11    1    4    4    0    0  0.48881743950E+02 -0.80158246028E+01  0.14164324483E+03  0.15005494707E+03  0.00000000000E+00 0. -1.
         11    1    4    4    0    0 -0.98337288331E+01 -0.42739053284E+02  0.28538354260E+02  0.52323671146E+02  0.00000000000E+00 0.  1.
</event>
<event>
 8    1  0.7130890E-009  0.1521776E+03  0.7561462E-02  0.1197822E+00
          2   -1    0    0  501    0  0.00000000000E+00  0.00000000000E+00  0.46358088583E+03  0.46358088583E+03  0.00000000000E+00 0. -1.
         -2   -1    0    0    0  501 -0.00000000000E+00 -0.00000000000E+00 -0.50513621775E+02  0.50513621775E+02  0.00000000000E+00 0.  1.
         25    2    1    2    0    0 -0.13947019219E+02  0.10614207181E+03  0.23481442309E+03  0.28678992571E+03  0.12509991784E+03 0.  0.
         23    2    1    2    0    0  0.13947019219E+02 -0.10614207181E+03  0.17825284096E+03  0.22730458189E+03  0.91829400994E+02 0.  0.
          5    1    3    3  502    0  0.55195218788E+02  0.37279451334E+02  0.10302686415E+03  0.12275290956E+03  0.41800000000E+01 0. -1.
         -5    1    3    3    0  502 -0.69142238007E+02  0.68862620473E+02  0.13178755894E+03  0.16403701615E+03  0.41800000000E+01 0. -1.
        -11    1    4    4    0    0 -0.38623714128E+02 -0.43881338925E+02  0.88656112468E+02  0.10619448892E+03  0.00000000000E+00 0.  1.
         11    1    4    4    0    0  0.52570733348E+02 -0.62260732882E+02  0.89596728492E+02  0.12111009297E+03  0.00000000000E+00 0. -1.
</event>
<event>
 8    1  0.7130890E-009  0.7586289E+02  0.7561462E-02  0.1341220E+00
          1   -1    0    0  501    0  0.00000000000E+00  0.00000000000E+00  0.60785979199E+03  0.60785979199E+03  0.00000000000E+00 0. -1.
         -1   -1    0    0    0  501 -0.00000000000E+00 -0.00000000000E+00 -0.23410273045E+02  0.23410273045E+02  0.00000000000E+00 0.  1.
         25    2    1    2    0    0  0.24908944395E+02  0.38891183709E+02  0.35591606277E+03  0.38007455007E+03  0.12508972856E+03 0.  0.
         23    2    1    2    0    0 -0.24908944395E+02 -0.38891183709E+02  0.22853345617E+03  0.25119551496E+03  0.93480834752E+02 0.  0.
          5    1    3    3  502    0  0.27673101295E+02  0.11079207162E+02  0.34988621124E+03  0.35117856225E+03  0.41800000000E+01 0.  1.
         -5    1    3    3    0  502 -0.27641569007E+01  0.27811976548E+02  0.60298515327E+01  0.28895987825E+02  0.41800000000E+01 0.  1.
        -11    1    4    4    0    0  0.12057942484E+02  0.20281375001E+02  0.18823225744E+02  0.30183471906E+02  0.00000000000E+00 0.  1.
         11    1    4    4    0    0 -0.36966886879E+02 -0.59172558710E+02  0.20971023043E+03  0.22101204305E+03  0.00000000000E+00 0. -1.
</event>
<event>
 8    1  0.7130890E-009  0.8418307E+02  0.7561462E-02  0.1317583E+00
          2   -1    0    0  501    0  0.00000000000E+00  0.00000000000E+00  0.52065721879E+03  0.52065721879E+03  0.00000000000E+00 0. -1.
         -2   -1    0    0    0  501 -0.00000000000E+00 -0.00000000000E+00 -0.38896185242E+02  0.38896185242E+02  0.00000000000E+00 0.  1.
         25    2    1    2    0    0  0.36283502355E+02  0.27206381923E+02  0.10502036397E+03  0.16951127379E+03  0.12509242716E+03 0.  0.
         23    2    1    2    0    0 -0.36283502355E+02 -0.27206381923E+02  0.37674066958E+03  0.39004213025E+03  0.90236641610E+02 0.  0.
          5    1    3    3  502    0  0.46350313947E+02  0.94321944224E+01  0.12916091599E+03  0.13761298090E+03  0.41800000000E+01 0.  1.
         -5    1    3    3    0  502 -0.10066811591E+02  0.17774187501E+02 -0.24140552022E+02  0.31898292883E+02  0.41800000000E+01 0.  1.
        -11    1    4    4    0    0 -0.63522424831E+02 -0.33871448436E+02  0.29371904885E+03  0.30241238919E+03  0.00000000000E+00 0.  1.
         11    1    4    4    0    0  0.27238922476E+02  0.66650665128E+01  0.83021620730E+02  0.87629741058E+02  0.00000000000E+00 0. -1.
</event>
<event>
 8    1  0.7130890E-009  0.1483241E+03  0.7561462E-02  0.1202548E+00
          1   -1    0    0  501    0  0.00000000000E+00  0.00000000000E+00  0.49765735005E+02  0.49765735005E+02  0.00000000000E+00 0. -1.
         -1   -1    0    0    0  501 -0.00000000000E+00 -0.00000000000E+00 -0.46923214183E+03  0.46923214183E+03  0.00000000000E+00 0.  1.
         25    2    1    2    0    0 -0.93648362439E+02  0.47507165221E+02 -0.23698191180E+03  0.28781254214E+03  0.12509470954E+03 0.  0.
         23    2    1    2    0    0  0.93648362439E+02 -0.47507165221E+02 -0.18248449502E+03  0.23118533470E+03  0.95494091549E+02 0.  0.
          5    1    3    3  502    0 -0.87767502971E+02 -0.21450572169E+02 -0.16304618136E+03  0.18645318791E+03  0.41800000000E+01 0. -1.
         -5    1    3    3    0  502 -0.58808594681E+01  0.68957737391E+02 -0.73935730442E+02  0.10135935423E+03  0.41800000000E+01 0. -1.
        -11    1    4    4    0    0  0.45681189558E+02  0.23347973967E+02 -0.99717728323E+02  0.11214064522E+03  0.00000000000E+00 0.  1.
         11    1    4    4    0    0  0.47967172881E+02 -0.70855139188E+02 -0.82766766697E+02  0.11904468948E+03  0.00000000000E+00 0. -1.
</event>
<event>
 8    1  0.7130890E-009  0.1448814E+03  0.7561462E-02  0.1206908E+00
         -2   -1    0    0    0  501 -0.00000000000E+00  0.00000000000E+00  0.22039351546E+02  0.22039351546E+02  0.00000000000E+00 0.  1.
          2   -1    0    0  501    0  0.00000000000E+00 -0.00000000000E+00 -0.13736331940E+04  0.13736331940E+04  0.00000000000E+00 0. -1.
         25    2    1    2    0    0  0.82796608298E+02  0.75940740688E+02 -0.10262153710E+04  0.10398985155E+04  0.12509460652E+03 0.  0.
         23    2    1    2    0    0 -0.82796608298E+02 -0.75940740688E+02 -0.32537847147E+03  0.35577402999E+03  0.89898477589E+02 0.  0.
          5    1    3    3  502    0  0.89514889313E+01 -0.25529987043E+02 -0.41590426056E+03  0.41680419353E+03  0.41800000000E+01 0.  1.
         -5    1    3    3    0  502  0.73845119367E+02  0.10147072773E+03 -0.61031111041E+03  0.62309432202E+03  0.41800000000E+01 0.  1.
        -11    1    4    4    0    0 -0.35923846191E+02  0.11407577057E+02 -0.46842843585E+02  0.60124101113E+02  0.00000000000E+00 0.  1.
         11    1    4    4    0    0 -0.46872762107E+02 -0.87348317744E+02 -0.27853562789E+03  0.29564992887E+03  0.00000000000E+00 0. -1.
</event>
<event>
 8    1  0.7130890E-009  0.2683040E+03  0.7561462E-02  0.1102254E+00
         -1   -1    0    0    0  501 -0.00000000000E+00  0.00000000000E+00  0.96167072973E+02  0.96167072973E+02  0.00000000000E+00 0.  1.
          1   -1    0    0  501    0  0.00000000000E+00 -0.00000000000E+00 -0.79409733271E+03  0.79409733271E+03  0.00000000000E+00 0. -1.
         25    2    1    2    0    0 -0.19024289080E+03  0.16407061579E+03 -0.41685294197E+03  0.50251997572E+03  0.12509367011E+03 0.  0.
         23    2    1    2    0    0  0.19024289080E+03 -0.16407061579E+03 -0.28107731777E+03  0.38774442996E+03  0.90718024325E+02 0.  0.
          5    1    3    3  502    0 -0.18522561383E+03  0.18293107372E+03 -0.39294032481E+03  0.47137233374E+03  0.41800000000E+01 0. -1.
         -5    1    3    3    0  502 -0.50172769713E+01 -0.18860457931E+02 -0.23912617159E+02  0.31147641980E+02  0.41800000000E+01 0. -1.
        -11    1    4    4    0    0  0.18069011037E+03 -0.16725197264E+03 -0.23424638889E+03  0.33984335957E+03  0.00000000000E+00 0.  1.
         11    1    4    4    0    0  0.95527804299E+01  0.31813568420E+01 -0.46830928877E+02  0.47901070393E+02  0.00000000000E+00 0. -1.
</event>
<event>
 8    1  0.7130890E-009  0.1300580E+03  0.7561462E-02  0.1227370E+00
         -1   -1    0    0    0  501 -0.00000000000E+00  0.00000000000E+00  0.11682502116E+02  0.11682502116E+02  0.00000000000E+00 0.  1.
          1   -1    0    0  501    0  0.00000000000E+00 -0.00000000000E+00 -0.15288402104E+04  0.15288402104E+04  0.00000000000E+00 0. -1.
         25    2    1    2    0    0 -0.10477470489E+01 -0.75577921389E+02 -0.94357711470E+03  0.95482832236E+03  0.12508490649E+03 0.  0.
         23    2    1    2    0    0  0.10477470489E+01  0.75577921389E+02 -0.57358059357E+03  0.58569439014E+03  0.91269388854E+02 0.  0.
          5    1    3    3  502    0  0.42920485714E+01  0.32642572377E+02 -0.13532643656E+03  0.13933655675E+03  0.41800000000E+01 0.  1.
         -5    1    3    3    0  502 -0.53397956203E+01 -0.10822049377E+03 -0.80825067813E+03  0.81549176562E+03  0.41800000000E+01 0.  1.
        -11    1    4    4    0    0  0.45390886628E+02  0.27412578523E+02 -0.26020291853E+03  0.26555101367E+03  0.00000000000E+00 0.  1.
         11    1    4    4    0    0 -0.44343139579E+02  0.48165342866E+02 -0.31337767504E+03  0.32014337647E+03  0.00000000000E+00 0. -1.
</event>
<event>
 8    1  0.7130890E-009  0.1199653E+03  0.7561462E-02  0.1243154E+00
          1   -1    0    0  501    0  0.00000000000E+00  0.00000000000E+00  0.93774675421E+02  0.93774675421E+02  0.00000000000E+00 0. -1.
         -1   -1    0    0    0  501 -0.00000000000E+00 -0.00000000000E+00 -0.21345634739E+03  0.21345634739E+03  0.00000000000E+00 0.  1.
         25    2    1    2    0    0  0.72133153634E+02 -0.28945451859E+02 -0.19384987217E+02  0.14854596015E+03  0.12509633692E+03 0.  0.
         23    2    1    2    0    0 -0.72133153634E+02  0.28945451859E+02 -0.10029668475E+03  0.15868506266E+03  0.95291621367E+02 0.  0.
          5    1    3    3  502    0  0.81815999747E+02 -0.49500607395E+02 -0.51727331940E+02  0.10879961956E+03  0.41800000000E+01 0. -1.
         -5    1    3    3    0  502 -0.96828461133E+01  0.20555155536E+02  0.32342344723E+02  0.39746340588E+02  0.41800000000E+01 0. -1.
        -11    1    4    4    0    0  0.21019797651E+02  0.17318640770E+02 -0.11833223791E+02  0.29694989420E+02  0.00000000000E+00 0. -1.
         11    1    4    4    0    0 -0.93152951285E+02  0.11626811089E+02 -0.88463460958E+02  0.12899007324E+03  0.00000000000E+00 0.  1.
</event>
<event>
 8    1  0.7130890E-009  0.2302035E+03  0.7561462E-02  0.1126497E+00
         -2   -1    0    0    0  501 -0.00000000000E+00  0.00000000000E+00  0.71707924281E+02  0.71707924281E+02  0.00000000000E+00 0.  1.
          2   -1    0    0  501    0  0.00000000000E+00 -0.00000000000E+00 -0.76859105848E+03  0.76859105848E+03  0.00000000000E+00 0. -1.
         25    2    1    2    0    0 -0.20185316726E+03 -0.42073974070E+02 -0.30747901146E+03  0.39077578170E+03  0.12508976234E+03 0.  0.
         23    2    1    2    0    0  0.20185316726E+03  0.42073974070E+02 -0.38940412274E+03  0.44952320107E+03  0.88997848658E+02 0.  0.
          5    1    3    3  502    0  0.13933919616E+02 -0.16019574109E+02 -0.14902739795E+02  0.26274415767E+02  0.41800000000E+01 0.  1.
         -5    1    3    3    0  502 -0.21578708688E+03 -0.26054399961E+02 -0.29257627167E+03  0.36450136593E+03  0.41800000000E+01 0.  1.
        -11    1    4    4    0    0  0.20554774586E+03  0.28752494678E+02 -0.34111681639E+03  0.39929596067E+03  0.00000000000E+00 0.  1.
         11    1    4    4    0    0 -0.36945786008E+01  0.13321479392E+02 -0.48287306344E+02  0.50227240400E+02  0.00000000000E+00 0. -1.
</event>
<event>
 8    1  0.7130890E-009  0.1261482E+03  0.7561462E-02  0.1233286E+00
         -2   -1    0    0    0  501 -0.00000000000E+00  0.00000000000E+00  0.13552647124E+03  0.13552647124E+03  0.00000000000E+00 0.  1.
          2   -1    0    0  501    0  0.00000000000E+00 -0.00000000000E+00 -0.14448203320E+03  0.14448203320E+03  0.00000000000E+00 0. -1.
         25    2    1    2    0    0  0.85044297389E+02 -0.13305568208E+02  0.13624755575E+02  0.15245468474E+03  0.12508887348E+03 0.  0.
         23    2    1    2    0    0 -0.85044297389E+02  0.13305568208E+02 -0.22580317533E+02  0.12755381971E+03  0.91381264591E+02 0.  0.
          5    1    3    3  502    0  0.46838318344E+02  0.55612251215E+02  0.93801789910E+01  0.73430311918E+02  0.41800000000E+01 0. -1.
         -5    1    3    3    0  502  0.38205979044E+02 -0.68917819423E+02  0.42445765843E+01  0.79024372817E+02  0.41800000000E+01 0. -1.
        -11    1    4    4    0    0 -0.52390072312E+02  0.33479538982E+02  0.24484867304E+02  0.66821463125E+02  0.00000000000E+00 0.  1.
         11    1    4    4    0    0 -0.32654225077E+02 -0.20173970775E+02 -0.47065184837E+02  0.60732356582E+02  0.00000000000E+00 0. -1.
</event>
<event>
 8    1  0.7130890E-009  0.9874778E+02  0.7561462E-02  0.1282951E+00
         -1   -1    0    0    0  501 -0.00000000000E+00  0.00000000000E+00  0.22159927616E+02  0.22159927616E+02  0.00000000000E+00 0.  1.
          1   -1    0    0  501    0  0.00000000000E+00 -0.00000000000E+00 -0.74985736784E+03  0.74985736784E+03  0.00000000000E+00 0. -1.
         25    2    1    2    0    0 -0.15330482754E+02 -0.12396064179E+02 -0.60586975407E+03  0.61896263783E+03  0.12509157458E+03 0.  0.
         23    2    1    2    0    0  0.15330482754E+02  0.12396064179E+02 -0.12182768616E+03  0.15305465762E+03  0.90526554099E+02 0.  0.
          5    1    3    3  502    0 -0.46983979330E+02  0.31956805218E+02 -0.16171268658E+03  0.17145610842E+03  0.41800000000E+01 0. -1.
         -5    1    3    3    0  502  0.31653496576E+02 -0.44352869397E+02 -0.44415706749E+03  0.44750652941E+03  0.41800000000E+01 0. -1.
        -11    1    4    4    0    0 -0.31847622438E+02  0.20676788525E+02 -0.26296668038E+02  0.46187827277E+02  0.00000000000E+00 0.  1.
         11    1    4    4    0    0  0.47178105193E+02 -0.82807243456E+01 -0.95531018121E+02  0.10686683035E+03  0.00000000000E+00 0. -1.
</event>
<event>
 8    1  0.7130890E-009  0.2837335E+03  0.7561462E-02  0.1093667E+00
         -1   -1    0    0    0  501 -0.00000000000E+00  0.00000000000E+00  0.15567921758E+03  0.15567921758E+03  0.00000000000E+00 0. -1.
          1   -1    0    0  501    0  0.00000000000E+00 -0.00000000000E+00 -0.60228068445E+03  0.60228068445E+03  0.00000000000E+00 0.  1.
         25    2    1    2    0    0 -0.79058821227E+02  0.26986773971E+03 -0.16322976927E+03  0.34838233415E+03  0.12508956399E+03 0.  0.
         23    2    1    2    0    0  0.79058821227E+02 -0.26986773971E+03 -0.28337169759E+03  0.40957756789E+03  0.91517052872E+02 0.  0.
          5    1    3    3  502    0 -0.67468430545E+00  0.29840247403E+02 -0.75079403251E+02  0.80902934165E+02  0.41800000000E+01 0. -1.
         -5    1    3    3    0  502 -0.78384136922E+02  0.24002749231E+03 -0.88150366019E+02  0.26747939998E+03  0.41800000000E+01 0. -1.
        -11    1    4    4    0    0  0.41919841910E+02 -0.70725060333E+02 -0.35753538402E+02  0.89652790325E+02  0.00000000000E+00 0. -1.
         11    1    4    4    0    0  0.37138979317E+02 -0.19914267938E+03 -0.24761815919E+03  0.31992477756E+03  0.00000000000E+00 0.  1.
</event>
<event>
 8    1  0.7130890E-009  0.9878070E+02  0.7561462E-02  0.1282881E+00
         -3   -1    0    0    0  501 -0.00000000000E+00  0.00000000000E+00  0.69043909927E+02  0.69043909927E+02  0.00000000000E+00 0.  1.
          3   -1    0    0  501    0  0.00000000000E+00 -0.00000000000E+00 -0.20908243003E+03  0.20908243003E+03  0.00000000000E+00 0. -1.
         25    2    1    2    0    0 -0.14249105170E+02 -0.32414090595E+02 -0.12784542270E+03  0.18233442255E+03  0.12509068420E+03 0.  0.
         23    2    1    2    0    0  0.14249105170E+02  0.32414090595E+02 -0.12193097405E+02  0.95791917406E+02  0.88168642661E+02 0.  0.
          5    1    3    3  502    0 -0.28307068924E+02 -0.72631397838E+02 -0.47731599228E+02  0.91500754466E+02  0.41800000000E+01 0. -1.
         -5    1    3    3    0  502  0.14057963754E+02  0.40217307243E+02 -0.80113823468E+02  0.90833668083E+02  0.41800000000E+01 0. -1.
        -11    1    4    4    0    0 -0.10064687983E+02  0.47180558621E+02  0.20533477362E+02  0.52430208359E+02  0.00000000000E+00 0.  1.
         11    1    4    4    0    0  0.24313793153E+02 -0.14766468026E+02 -0.32726574767E+02  0.43361709046E+02  0.00000000000E+00 0. -1.
</event>
<event>
 8    1  0.7130890E-009  0.9328934E+02  0.7561462E-02  0.1295076E+00
          2   -1    0    0  501    0  0.00000000000E+00  0.00000000000E+00  0.27953280132E+03  0.27953280132E+03  0.00000000000E+00 0.  1.
         -2   -1    0    0    0  501 -0.00000000000E+00 -0.00000000000E+00 -0.97337110148E+02  0.97337110148E+02  0.00000000000E+00 0. -1.
         25    2    1    2    0    0  0.64024050980E+01  0.14297639047E+02 -0.41548330343E+02  0.13273979555E+03  0.12509267083E+03 0.  0.
         23    2    1    2    0    0 -0.64024050980E+01 -0.14297639047E+02  0.22374402151E+03  0.24413011591E+03  0.96398719183E+02 0.  0.
          5    1    3    3  502    0 -0.31987015264E+02 -0.29296993594E+02  0.20050721589E+02  0.47968602392E+02  0.41800000000E+01 0.  1.
         -5    1    3    3    0  502  0.38389420362E+02  0.43594632641E+02 -0.61599051932E+02  0.84771193160E+02  0.41800000000E+01 0.  1.
        -11    1    4    4    0    0  0.13670638943E+02  0.31729646721E+02  0.15614528909E+03  0.15992188141E+03  0.00000000000E+00 0.  1.
         11    1    4    4    0    0 -0.20073044041E+02 -0.46027285769E+02  0.67598732422E+02  0.84208234498E+02  0.00000000000E+00 0. -1.
</event>
<event>
 8    1  0.7130890E-009  0.4795182E+03  0.7561462E-02  0.1019268E+00
          2   -1    0    0  501    0  0.00000000000E+00  0.00000000000E+00  0.31612570208E+04  0.31612570208E+04  0.00000000000E+00 0. -1.
         -2   -1    0    0    0  501 -0.00000000000E+00 -0.00000000000E+00 -0.75774811002E+02  0.75774811002E+02  0.00000000000E+00 0.  1.
         25    2    1    2    0    0  0.47167363362E+03  0.28248105105E+02  0.13409178024E+04  0.14272287294E+04  0.12508925238E+03 0.  0.
         23    2    1    2    0    0 -0.47167363362E+03 -0.28248105105E+02  0.17445644074E+04  0.18098031025E+04  0.92781064402E+02 0.  0.
          5    1    3    3  502    0 -0.57518804113E+01 -0.35874478468E+01  0.92812940576E+01  0.12229829504E+02  0.41800000000E+01 0.  1.
         -5    1    3    3    0  502  0.47742551403E+03  0.31835552952E+02  0.13316365084E+04  0.14149988999E+04  0.41800000000E+01 0.  1.
        -11    1    4    4    0    0 -0.32600880753E+03 -0.16358167448E+02  0.10315102352E+04  0.10819254584E+04  0.00000000000E+00 0. -1.
         11    1    4    4    0    0 -0.14566482609E+03 -0.11889937658E+02  0.71305417221E+03  0.72787764403E+03  0.00000000000E+00 0.  1.
</event>
<event>
 8    1  0.7130890E-009  0.2916271E+03  0.7561462E-02  0.1089503E+00
          2   -1    0    0  501    0  0.00000000000E+00  0.00000000000E+00  0.52613057977E+03  0.52613057977E+03  0.00000000000E+00 0. -1.
         -2   -1    0    0    0  501 -0.00000000000E+00 -0.00000000000E+00 -0.17236276910E+03  0.17236276910E+03  0.00000000000E+00 0.  1.
         25    2    1    2    0    0  0.99942317053E+02 -0.25364975580E+03  0.11306469525E+03  0.32056109456E+03  0.12509646151E+03 0.  0.
         23    2    1    2    0    0 -0.99942317053E+02  0.25364975580E+03  0.24070311541E+03  0.37793225430E+03  0.10280142860E+03 0.  0.
          5    1    3    3  502    0 -0.20527277826E+02 -0.10696120888E+03  0.54573843287E+02  0.12189276480E+03  0.41800000000E+01 0. -1.
         -5    1    3    3    0  502  0.12046959488E+03 -0.14668854692E+03  0.58490851968E+02  0.19866832976E+03  0.41800000000E+01 0. -1.
        -11    1    4    4    0    0 -0.12934721290E+02 -0.31044385644E+01 -0.27305586537E+01  0.13579414723E+02  0.00000000000E+00 0.  1.
         11    1    4    4    0    0 -0.87007595763E+02  0.25675419436E+03  0.24343367407E+03  0.36435283958E+03  0.00000000000E+00 0. -1.
</event>
<event>
 8    1  0.7130890E-009  0.1963802E+03  0.7561462E-02  0.1152829E+00
         -3   -1    0    0    0  501 -0.00000000000E+00  0.00000000000E+00  0.47526309053E+02  0.47526309053E+02  0.00000000000E+00 0.  1.
          3   -1    0    0  501    0  0.00000000000E+00 -0.00000000000E+00 -0.13072637035E+04  0.13072637035E+04  0.00000000000E+00 0. -1.
         25    2    1    2    0    0  0.18497244195E+03  0.82839958414E+01 -0.99156832619E+03  0.10164347529E+04  0.12509369460E+03 0.  0.
         23    2    1    2    0    0 -0.18497244195E+03 -0.82839958414E+01 -0.26816906821E+03  0.33835525966E+03  0.91028587395E+02 0.  0.
          5    1    3    3  502    0  0.55636909008E+02  0.36569176034E+02 -0.58597861347E+03  0.58976366294E+03  0.41800000000E+01 0.  1.
         -5    1    3    3    0  502  0.12933553294E+03 -0.28285180193E+02 -0.40558971272E+03  0.42667108991E+03  0.41800000000E+01 0.  1.
        -11    1    4    4    0    0 -0.85414419073E+02  0.24357592456E+02 -0.18269128605E+03  0.20313793662E+03  0.00000000000E+00 0. -1.
         11    1    4    4    0    0 -0.99558022879E+02 -0.32641588297E+02 -0.85477782166E+02  0.13521732304E+03  0.00000000000E+00 0.  1.
</event>
<event>
 8    1  0.7130890E-009  0.1188478E+03  0.7561462E-02  0.1245010E+00
          2   -1    0    0  501    0  0.00000000000E+00  0.00000000000E+00  0.52314711989E+03  0.52314711989E+03  0.00000000000E+00 0. -1.
         -2   -1    0    0    0  501 -0.00000000000E+00 -0.00000000000E+00 -0.58768892070E+02  0.58768892070E+02  0.00000000000E+00 0.  1.
         25    2    1    2    0    0  0.53255327732E+02 -0.72181004571E+02  0.41918323406E+03  0.44655082748E+03  0.12508729133E+03 0.  0.
         23    2    1    2    0    0 -0.53255327732E+02  0.72181004571E+02  0.45194993751E+02  0.13536518447E+03  0.90746450916E+02 0.  0.
          5    1    3    3  502    0  0.23846808458E+02 -0.10260913570E+03  0.34814831479E+03  0.36376094691E+03  0.41800000000E+01 0. -1.
         -5    1    3    3    0  502  0.29408519275E+02  0.30428131128E+02  0.71034919275E+02  0.82789880579E+02  0.41800000000E+01 0. -1.
        -11    1    4    4    0    0 -0.35778242077E+02  0.46207149541E+02  0.72988591805E+02  0.93501432120E+02  0.00000000000E+00 0.  1.
         11    1    4    4    0    0 -0.17477085655E+02  0.25973855029E+02 -0.27793598054E+02  0.41863752351E+02  0.00000000000E+00 0. -1.
</event>
<event>
 8    1  0.7130890E-009  0.9632406E+02  0.7561462E-02  0.1288222E+00
          4   -1    0    0  501    0  0.00000000000E+00  0.00000000000E+00  0.15216833712E+03  0.15216833712E+03  0.00000000000E+00 0. -1.
         -4   -1    0    0    0  501 -0.00000000000E+00 -0.00000000000E+00 -0.91438277094E+02  0.91438277094E+02  0.00000000000E+00 0.  1.
         25    2    1    2    0    0 -0.26641719251E+02  0.37893398617E+02  0.39785485465E+02  0.13920376698E+03  0.12509641492E+03 0.  0.
         23    2    1    2    0    0  0.26641719251E+02 -0.37893398617E+02  0.20944574563E+02  0.10440284723E+03  0.91189848358E+02 0.  0.
          5    1    3    3  502    0  0.89443083638E+01  0.74618692878E+02  0.16712143184E+01  0.75287551004E+02  0.41800000000E+01 0.  1.
         -5    1    3    3    0  502 -0.35586027614E+02 -0.36725294261E+02  0.38114271147E+02  0.63916215978E+02  0.41800000000E+01 0.  1.
        -11    1    4    4    0    0 -0.35803153982E+01 -0.35580295961E+02 -0.28959157473E+02  0.46015311806E+02  0.00000000000E+00 0. -1.
         11    1    4    4    0    0  0.30222034649E+02 -0.23131026559E+01  0.49903732036E+02  0.58387535428E+02  0.00000000000E+00 0.  1.
</event>
<event>
 8    1  0.7130890E-009  0.1105077E+03  0.7561462E-02  0.1259632E+00
          2   -1    0    0  501    0  0.00000000000E+00  0.00000000000E+00  0.25614731131E+02  0.25614731131E+02  0.00000000000E+00 0.  1.
         -2   -1    0    0    0  501 -0.00000000000E+00 -0.00000000000E+00 -0.75482898584E+03  0.75482898584E+03  0.00000000000E+00 0. -1.
         25    2    1    2    0    0  0.74614245228E+02 -0.69614592925E+00 -0.27884280180E+03  0.31459225905E+03  0.12508881297E+03 0.  0.
         23    2    1    2    0    0 -0.74614245228E+02  0.69614592925E+00 -0.45037145290E+03  0.46585145791E+03  0.92818990724E+02 0.  0.
          5    1    3    3  502    0  0.91159608413E+02  0.17825599073E+02 -0.11067221948E+03  0.14454632044E+03  0.41800000000E+01 0. -1.
         -5    1    3    3    0  502 -0.16545363185E+02 -0.18521745002E+02 -0.16817058232E+03  0.17004593861E+03  0.41800000000E+01 0. -1.
        -11    1    4    4    0    0 -0.13640891250E+02 -0.31190399992E+02 -0.56101129460E+02  0.65622036638E+02  0.00000000000E+00 0.  1.
         11    1    4    4    0    0 -0.60973353978E+02  0.31886545922E+02 -0.39427032344E+03  0.40022942127E+03  0.00000000000E+00 0. -1.
</event>
<event>
 8    1  0.7130890E-009  0.2046107E+03  0.7561462E-02  0.1145906E+00
          1   -1    0    0  501    0  0.00000000000E+00  0.00000000000E+00  0.42703071440E+03  0.42703071440E+03  0.00000000000E+00 0. -1.
         -1   -1    0    0    0  501 -0.00000000000E+00 -0.00000000000E+00 -0.11777869468E+03  0.11777869468E+03  0.00000000000E+00 0.  1.
         25    2    1    2    0    0 -0.12176345057E+03  0.15232226347E+03  0.13820597479E+03  0.26977105370E+03  0.12508844912E+03 0.  0.
         23    2    1    2    0    0  0.12176345057E+03 -0.15232226347E+03  0.17104604493E+03  0.27503835538E+03  0.91438162721E+02 0.  0.
          5    1    3    3  502    0 -0.50240347977E+02  0.36518487633E+02  0.11620776113E+03  0.13183098517E+03  0.41800000000E+01 0.  1.
         -5    1    3    3    0  502 -0.71523102590E+02  0.11580377584E+03  0.21998213663E+02  0.13794006853E+03  0.41800000000E+01 0. -1.
        -11    1    4    4    0    0  0.51097540864E+02 -0.10244105734E+02  0.19579092029E+02  0.55670829249E+02  0.00000000000E+00 0. -1.
         11    1    4    4    0    0  0.70665909702E+02 -0.14207815774E+03  0.15146695290E+03  0.21936752613E+03  0.00000000000E+00 0.  1.
</event>
<event>
 8    1  0.7130890E-009  0.1412608E+03  0.7561462E-02  0.1211642E+00
         -3   -1    0    0    0  501 -0.00000000000E+00  0.00000000000E+00  0.32035653257E+03  0.32035653257E+03  0.00000000000E+00 0.  1.
          3   -1    0    0  501    0  0.00000000000E+00 -0.00000000000E+00 -0.92813175464E+02  0.92813175464E+02  0.00000000000E+00 0. -1.
         25    2    1    2    0    0 -0.11487769100E+03  0.56494901521E+02  0.16698777186E+03  0.24478867212E+03  0.12509204716E+03 0.  0.
         23    2    1    2    0    0  0.11487769100E+03 -0.56494901521E+02  0.60555585250E+02  0.16838103591E+03  0.91085874663E+02 0.  0.
          5    1    3    3  502    0 -0.47492205317E+02  0.67444780553E+02  0.23562369630E+02  0.85889263895E+02  0.41800000000E+01 0. -1.
         -5    1    3    3    0  502 -0.67385485681E+02 -0.10949879032E+02  0.14342540223E+03  0.15889940823E+03  0.41800000000E+01 0. -1.
        -11    1    4    4    0    0  0.34704594737E+02 -0.23453195000E+01 -0.22035172199E+02  0.41175942409E+02  0.00000000000E+00 0. -1.
         11    1    4    4    0    0  0.80173096261E+02 -0.54149582021E+02  0.82590757450E+02  0.12720509350E+03  0.00000000000E+00 0.  1.
</event>
<event>
 8    1  0.7130890E-009  0.9987742E+02  0.7561462E-02  0.1280554E+00
          2   -1    0    0  501    0  0.00000000000E+00  0.00000000000E+00  0.65040913216E+03  0.65040913216E+03  0.00000000000E+00 0. -1.
         -2   -1    0    0    0  501 -0.00000000000E+00 -0.00000000000E+00 -0.29066956482E+02  0.29066956482E+02  0.00000000000E+00 0.  1.
         25    2    1    2    0    0 -0.49744131821E+02  0.57026204523E+02  0.43353558390E+03  0.45752307173E+03  0.12509113479E+03 0.  0.
         23    2    1    2    0    0  0.49744131821E+02 -0.57026204523E+02  0.18780659177E+03  0.22195301691E+03  0.90914020641E+02 0.  0.
          5    1    3    3  502    0 -0.28817718811E+02  0.57364369105E+02  0.43129139881E+03  0.43606292533E+03  0.41800000000E+01 0. -1.
         -5    1    3    3    0  502 -0.20926413010E+02 -0.33816458172E+00  0.22441850921E+01  0.21460146399E+02  0.41800000000E+01 0. -1.
        -11    1    4    4    0    0  0.76146123779E+01 -0.69677457400E+02  0.14249883713E+03  0.15880443625E+03  0.00000000000E+00 0.  1.
         11    1    4    4    0    0  0.42129519443E+02  0.12651252877E+02  0.45307754647E+02  0.63148580657E+02  0.00000000000E+00 0. -1.
</event>
<event>
 8    1  0.7130890E-009  0.1127644E+03  0.7561462E-02  0.1255535E+00
         -2   -1    0    0    0  501 -0.00000000000E+00  0.00000000000E+00  0.21212467788E+02  0.21212467788E+02  0.00000000000E+00 0.  1.
          2   -1    0    0  501    0  0.00000000000E+00 -0.00000000000E+00 -0.69579135258E+03  0.69579135258E+03  0.00000000000E+00 0. -1.
         25    2    1    2    0    0  0.26388900597E+02  0.16429296696E+02 -0.50907840284E+03  0.52514224501E+03  0.12508901386E+03 0.  0.
         23    2    1    2    0    0 -0.26388900597E+02 -0.16429296696E+02 -0.16550048195E+03  0.19186157536E+03  0.91946499162E+02 0.  0.
          5    1    3    3  502    0  0.45478684230E+02  0.63213484715E+02 -0.29381074598E+03  0.30398434535E+03  0.41800000000E+01 0.  1.
         -5    1    3    3    0  502 -0.19089783633E+02 -0.46784188019E+02 -0.21526765686E+03  0.22115789965E+03  0.41800000000E+01 0.  1.
        -11    1    4    4    0    0 -0.24269949826E+02 -0.54004230924E+02 -0.94847032412E+02  0.11180986978E+03  0.00000000000E+00 0. -1.
         11    1    4    4    0    0 -0.21189507703E+01  0.37574934228E+02 -0.70653449537E+02  0.80051705578E+02  0.00000000000E+00 0.  1.
</event>
<event>
 8    1  0.7130890E-009  0.1339405E+03  0.7561462E-02  0.1221723E+00
          2   -1    0    0  501    0  0.00000000000E+00  0.00000000000E+00  0.22477631810E+03  0.22477631810E+03  0.00000000000E+00 0. -1.
         -2   -1    0    0    0  501 -0.00000000000E+00 -0.00000000000E+00 -0.92145584562E+02  0.92145584562E+02  0.00000000000E+00 0.  1.
         25    2    1    2    0    0  0.20995737820E+02 -0.85850643328E+02  0.10599046932E+03  0.18625916169E+03  0.12508933511E+03 0.  0.
         23    2    1    2    0    0 -0.20995737820E+02  0.85850643328E+02  0.26640264220E+02  0.13066274098E+03  0.92476452331E+02 0.  0.
          5    1    3    3  502    0  0.16169619395E+02 -0.11210603378E+03  0.11115243365E+03  0.15874997735E+03  0.41800000000E+01 0.  1.
         -5    1    3    3    0  502  0.48261184242E+01  0.26255390457E+02 -0.51619643313E+01  0.27509184336E+02  0.41800000000E+01 0.  1.
        -11    1    4    4    0    0 -0.54331348245E+02  0.74694838188E+02  0.14636822996E+02  0.93517115233E+02  0.00000000000E+00 0. -1.
         11    1    4    4    0    0  0.33335610426E+02  0.11155805141E+02  0.12003441224E+02  0.37145625745E+02  0.00000000000E+00 0.  1.
</event>
<event>
 8    1  0.7130890E-009  0.2124737E+03  0.7561462E-02  0.1139622E+00
         -2   -1    0    0    0  501 -0.00000000000E+00  0.00000000000E+00  0.53496551724E+02  0.53496551724E+02  0.00000000000E+00 0. -1.
          2   -1    0    0  501    0  0.00000000000E+00 -0.00000000000E+00 -0.95338139642E+03  0.95338139642E+03  0.00000000000E+00 0.  1.
         25    2    1    2    0    0  0.75931059136E+02  0.16867806566E+03 -0.61802947513E+03  0.65713271040E+03  0.12508057949E+03 0.  0.
         23    2    1    2    0    0 -0.75931059136E+02 -0.16867806566E+03 -0.28185536957E+03  0.34974523775E+03  0.93066999503E+02 0.  0.
          5    1    3    3  502    0 -0.33852369340E+02  0.26539569889E+02 -0.10436396233E+03  0.11295857964E+03  0.41800000000E+01 0. -1.
         -5    1    3    3    0  502  0.10978342848E+03  0.14213849578E+03 -0.51366551280E+03  0.54417413076E+03  0.41800000000E+01 0. -1.
        -11    1    4    4    0    0 -0.75212163792E+02 -0.67980095955E+02 -0.10321638284E+03  0.14467821092E+03  0.00000000000E+00 0. -1.
         11    1    4    4    0    0 -0.71889534387E+00 -0.10069796971E+03 -0.17863898672E+03  0.20506702682E+03  0.00000000000E+00 0.  1.
</event>
<event>
 8    1  0.7130890E-009  0.9780466E+02  0.7561462E-02  0.1284981E+00
          1   -1    0    0  501    0  0.00000000000E+00  0.00000000000E+00  0.10935544065E+04  0.10935544065E+04  0.00000000000E+00 0. -1.
         -1   -1    0    0    0  501 -0.00000000000E+00 -0.00000000000E+00 -0.62741886395E+02  0.62741886395E+02  0.00000000000E+00 0.  1.
         25    2    1    2    0    0  0.11813949624E+02  0.93105667606E+02  0.10072886356E+04  0.10193560126E+04  0.12509216670E+03 0.  0.
         23    2    1    2    0    0 -0.11813949624E+02 -0.93105667606E+02  0.23523884479E+02  0.13694028032E+03  0.96907339693E+02 0.  0.
          5    1    3    3  502    0 -0.73517649074E+01  0.17351234148E+02  0.16247652964E+02  0.25230386453E+02  0.41800000000E+01 0.  1.
         -5    1    3    3    0  502  0.19165714531E+02  0.75754433458E+02  0.99104098266E+03  0.99412562612E+03  0.41800000000E+01 0.  1.
        -11    1    4    4    0    0  0.87385986663E+01 -0.15721807587E+02 -0.33923066755E+02  0.38396781096E+02  0.00000000000E+00 0.  1.
         11    1    4    4    0    0 -0.20552548290E+02 -0.77383860019E+02  0.57446951234E+02  0.98543499221E+02  0.00000000000E+00 0. -1.
</event>
<event>
 8    1  0.7130890E-009  0.1768685E+03  0.7561462E-02  0.1170869E+00
          2   -1    0    0  501    0  0.00000000000E+00  0.00000000000E+00  0.93596729283E+03  0.93596729283E+03  0.00000000000E+00 0. -1.
         -2   -1    0    0    0  501 -0.00000000000E+00 -0.00000000000E+00 -0.43027013739E+02  0.43027013739E+02  0.00000000000E+00 0.  1.
         25    2    1    2    0    0  0.14375057760E+03  0.30760909104E+02  0.26501766467E+03  0.32785870084E+03  0.12508598257E+03 0.  0.
         23    2    1    2    0    0 -0.14375057760E+03 -0.30760909104E+02  0.62792261442E+03  0.65113560573E+03  0.89890518209E+02 0.  0.
          5    1    3    3  502    0 -0.22912187331E+02  0.74808797667E+01  0.28574920132E+02  0.37615559957E+02  0.41800000000E+01 0. -1.
         -5    1    3    3    0  502  0.16666276493E+03  0.23280029337E+02  0.23644274454E+03  0.29024314088E+03  0.41800000000E+01 0. -1.
        -11    1    4    4    0    0 -0.80338020939E+02  0.16299316663E+02  0.20280243513E+03  0.21874344110E+03  0.00000000000E+00 0.  1.
         11    1    4    4    0    0 -0.63412556664E+02 -0.47060225767E+02  0.42512017929E+03  0.43239216463E+03  0.00000000000E+00 0. -1.
</event>
<event>
 8    1  0.7130890E-009  0.2096188E+03  0.7561462E-02  0.1141868E+00
          1   -1    0    0  501    0  0.00000000000E+00  0.00000000000E+00  0.47784789271E+03  0.47784789271E+03  0.00000000000E+00 0. -1.
         -1   -1    0    0    0  501 -0.00000000000E+00 -0.00000000000E+00 -0.97844730473E+02  0.97844730473E+02  0.00000000000E+00 0.  1.
         25    2    1    2    0    0  0.68639084805E+02  0.17152922717E+03  0.18579380105E+03  0.29034402660E+03  0.12508683997E+03 0.  0.
         23    2    1    2    0    0 -0.68639084805E+02 -0.17152922717E+03  0.19420936119E+03  0.28534859659E+03  0.97841432245E+02 0.  0.
          5    1    3    3  502    0  0.54967670736E+02  0.18880213562E+03  0.18125633215E+03  0.26746779542E+03  0.41800000000E+01 0.  1.
         -5    1    3    3    0  502  0.13671414069E+02 -0.17272908449E+02  0.45374689043E+01  0.22876231179E+02  0.41800000000E+01 0.  1.
        -11    1    4    4    0    0 -0.66877454996E+02 -0.63934849883E+02  0.49248881797E+02  0.10481274433E+03  0.00000000000E+00 0.  1.
         11    1    4    4    0    0 -0.17616298085E+01 -0.10759437729E+03  0.14496047939E+03  0.18053585225E+03  0.00000000000E+00 0. -1.
</event>
<event>
 8    1  0.7130890E-009  0.1134621E+03  0.7561462E-02  0.1254290E+00
         -2   -1    0    0    0  501 -0.00000000000E+00  0.00000000000E+00  0.31065291258E+02  0.31065291258E+02  0.00000000000E+00 0.  1.
          2   -1    0    0  501    0  0.00000000000E+00 -0.00000000000E+00 -0.44330645766E+03  0.44330645766E+03  0.00000000000E+00 0. -1.
         25    2    1    2    0    0  0.12371250524E+02  0.43953025767E+02 -0.22242332062E+03  0.25924065459E+03  0.12509463268E+03 0.  0.
         23    2    1    2    0    0 -0.12371250524E+02 -0.43953025767E+02 -0.18981784578E+03  0.21513109432E+03  0.90364024110E+02 0.  0.
          5    1    3    3  502    0 -0.14436838843E+02 -0.40713805563E+02 -0.87275118451E+02  0.97470277417E+02  0.41800000000E+01 0. -1.
         -5    1    3    3    0  502  0.26808089367E+02  0.84666831330E+02 -0.13514820217E+03  0.16177037718E+03  0.41800000000E+01 0. -1.
        -11    1    4    4    0    0 -0.41693586163E+02  0.10434853366E+00 -0.12311566200E+03  0.12998396919E+03  0.00000000000E+00 0. -1.
         11    1    4    4    0    0  0.29322335639E+02 -0.44057374300E+02 -0.66702183781E+02  0.85147125135E+02  0.00000000000E+00 0.  1.
</event>
<event>
 8    1  0.7130890E-009  0.1002558E+03  0.7561462E-02  0.1279759E+00
          2   -1    0    0  501    0  0.00000000000E+00  0.00000000000E+00  0.11634765320E+04  0.11634765320E+04  0.00000000000E+00 0. -1.
         -2   -1    0    0    0  501 -0.00000000000E+00 -0.00000000000E+00 -0.15690480244E+02  0.15690480244E+02  0.00000000000E+00 0.  1.
         25    2    1    2    0    0 -0.34626988848E+02  0.49975228995E+02  0.85589272370E+03  0.86711936496E+03  0.12508831580E+03 0.  0.
         23    2    1    2    0    0  0.34626988848E+02 -0.49975228995E+02  0.29189332809E+03  0.31204764731E+03  0.92062301397E+02 0.  0.
          5    1    3    3  502    0  0.89480904809E+01  0.69600768489E+02  0.26118838641E+03  0.27048323588E+03  0.41800000000E+01 0.  1.
         -5    1    3    3    0  502 -0.43575079329E+02 -0.19625539494E+02  0.59470433729E+03  0.59663612908E+03  0.41800000000E+01 0.  1.
        -11    1    4    4    0    0 -0.13487533249E+02 -0.24080041172E+02  0.18450745232E+02  0.33199276131E+02  0.00000000000E+00 0.  1.
         11    1    4    4    0    0  0.48114522097E+02 -0.25895187822E+02  0.27344258286E+03  0.27884837118E+03  0.00000000000E+00 0. -1.
</event>
<event>
 8    1  0.7130890E-009  0.1290987E+03  0.7561462E-02  0.1228799E+00
          2   -1    0    0  501    0  0.00000000000E+00  0.00000000000E+00  0.52328747634E+03  0.52328747634E+03  0.00000000000E+00 0. -1.
         -2   -1    0    0    0  501 -0.00000000000E+00 -0.00000000000E+00 -0.40814237354E+02  0.40814237354E+02  0.00000000000E+00 0.  1.
         25    2    1    2    0    0 -0.30059686961E+02 -0.91460545351E+02  0.28954623874E+03  0.32977637544E+03  0.12508723874E+03 0.  0.
         23    2    1    2    0    0  0.30059686961E+02  0.91460545351E+02  0.19292700025E+03  0.23432533825E+03  0.91754676100E+02 0.  0.
          5    1    3    3  502    0 -0.16763047920E+02 -0.10947734110E+03  0.14026929321E+03  0.17877146027E+03  0.41800000000E+01 0. -1.
         -5    1    3    3    0  502 -0.13296639042E+02  0.18016795752E+02  0.14927694552E+03  0.15100491517E+03  0.41800000000E+01 0. -1.
        -11    1    4    4    0    0 -0.27236187471E+02  0.31780753662E+02  0.29675717369E+02  0.51307644778E+02  0.00000000000E+00 0.  1.
         11    1    4    4    0    0  0.57295874433E+02  0.59679791689E+02  0.16325128288E+03  0.18301769347E+03  0.00000000000E+00 0. -1.
</event>
<event>
 8    1  0.7130890E-009  0.1063125E+03  0.7561462E-02  0.1267555E+00
          1   -1    0    0  501    0  0.00000000000E+00  0.00000000000E+00  0.15994277152E+03  0.15994277152E+03  0.00000000000E+00 0. -1.
         -1   -1    0    0    0  501 -0.00000000000E+00 -0.00000000000E+00 -0.87469940608E+02  0.87469940608E+02  0.00000000000E+00 0.  1.
         25    2    1    2    0    0  0.45190515781E+00  0.38777980613E+02  0.74983823821E+02  0.15091293199E+03  0.12509277840E+03 0.  0.
         23    2    1    2    0    0 -0.45190515781E+00 -0.38777980613E+02 -0.25109929131E+01  0.96499780134E+02  0.88328740972E+02 0.  0.
          5    1    3    3  502    0  0.60652343149E+02  0.13558889621E+02  0.53382662844E+02  0.82034939566E+02  0.41800000000E+01 0.  1.
         -5    1    3    3    0  502 -0.60200437991E+02  0.25219090992E+02  0.21601160977E+02  0.68877992424E+02  0.41800000000E+01 0.  1.
        -11    1    4    4    0    0  0.37555011319E+02 -0.19070032207E+02 -0.24126280484E+02  0.48539905372E+02  0.00000000000E+00 0.  1.
         11    1    4    4    0    0 -0.38006916477E+02 -0.19707948406E+02  0.21615287570E+02  0.47959874762E+02  0.00000000000E+00 0. -1.
</event>
<event>
 8    1  0.7130890E-009  0.1410361E+03  0.7561462E-02  0.1211942E+00
         -1   -1    0    0    0  501 -0.00000000000E+00  0.00000000000E+00  0.69456609064E+02  0.69456609064E+02  0.00000000000E+00 0.  1.
          1   -1    0    0  501    0  0.00000000000E+00 -0.00000000000E+00 -0.38789729071E+03  0.38789729071E+03  0.00000000000E+00 0. -1.
         25    2    1    2    0    0 -0.11104336602E+03 -0.27932428898E+02 -0.10895233837E+03  0.20155800049E+03  0.12507663971E+03 0.  0.
         23    2    1    2    0    0  0.11104336602E+03  0.27932428898E+02 -0.20948834328E+03  0.25579589929E+03  0.91844033014E+02 0.  0.
          5    1    3    3  502    0 -0.60075040713E+02  0.22549883561E+02 -0.11253330572E+03  0.12960989569E+03  0.41800000000E+01 0. -1.
         -5    1    3    3    0  502 -0.50968325312E+02 -0.50482312459E+02  0.35809673514E+01  0.71948104795E+02  0.41800000000E+01 0. -1.
        -11    1    4    4    0    0  0.10198805376E+03 -0.14059270224E+02 -0.16003844732E+03  0.19029327578E+03  0.00000000000E+00 0.  1.
         11    1    4    4    0    0  0.90553122684E+01  0.41991699122E+02 -0.49449895961E+02  0.65502623504E+02  0.00000000000E+00 0. -1.
</event>
<event>
 8    1  0.7130890E-009  0.1644731E+03  0.7561462E-02  0.1183737E+00
         -1   -1    0    0    0  501 -0.00000000000E+00  0.00000000000E+00  0.10192223454E+03  0.10192223454E+03  0.00000000000E+00 0.  1.
          1   -1    0    0  501    0  0.00000000000E+00 -0.00000000000E+00 -0.34930829766E+03  0.34930829766E+03  0.00000000000E+00 0. -1.
         25    2    1    2    0    0  0.18145573595E+02  0.15081794730E+03 -0.16173817440E+03  0.25472158208E+03  0.12509409359E+03 0.  0.
         23    2    1    2    0    0 -0.18145573595E+02 -0.15081794730E+03 -0.85647888719E+02  0.19650895011E+03  0.90580856493E+02 0.  0.
          5    1    3    3  502    0 -0.20611266916E+02  0.17923590435E+01  0.10563115505E+02  0.23602726198E+02  0.41800000000E+01 0. -1.
         -5    1    3    3    0  502  0.38756840511E+02  0.14902558826E+03 -0.17230128991E+03  0.23111885588E+03  0.41800000000E+01 0. -1.
        -11    1    4    4    0    0 -0.24064669928E+02 -0.11440732859E+03 -0.16409408667E+02  0.11805682473E+03  0.00000000000E+00 0. -1.
         11    1    4    4    0    0  0.59190963332E+01 -0.36410618711E+02 -0.69238480052E+02  0.78452125377E+02  0.00000000000E+00 0.  1.
</event>
<event>
 8    1  0.7130890E-009  0.1137927E+03  0.7561462E-02  0.1253703E+00
         -2   -1    0    0    0  501 -0.00000000000E+00  0.00000000000E+00  0.82670064265E+02  0.82670064265E+02  0.00000000000E+00 0. -1.
          2   -1    0    0  501    0  0.00000000000E+00 -0.00000000000E+00 -0.34118066931E+03  0.34118066931E+03  0.00000000000E+00 0.  1.
         25    2    1    2    0    0 -0.26153537625E+01 -0.76933659676E+02 -0.26603821876E+03  0.30388877628E+03  0.12508567640E+03 0.  0.
         23    2    1    2    0    0  0.26153537625E+01  0.76933659676E+02  0.75276137134E+01  0.11996195730E+03  0.91698299677E+02 0.  0.
          5    1    3    3  502    0 -0.36800648636E+02 -0.78765951018E+02 -0.92720125890E+02  0.12717254784E+03  0.41800000000E+01 0.  1.
         -5    1    3    3    0  502  0.34185294873E+02  0.18322913412E+01 -0.17331809287E+03  0.17671622844E+03  0.41800000000E+01 0.  1.
        -11    1    4    4    0    0  0.35548795668E+02  0.21400850181E+02  0.30430562557E+02  0.51456121107E+02  0.00000000000E+00 0. -1.
         11    1    4    4    0    0 -0.32933441906E+02  0.55532809496E+02 -0.22902948843E+02  0.68505836189E+02  0.00000000000E+00 0.  1.
</event>
<event>
 8    1  0.7130890E-009  0.1665772E+03  0.7561462E-02  0.1181465E+00
         -2   -1    0    0    0  501 -0.00000000000E+00  0.00000000000E+00  0.67383719289E+02  0.67383719289E+02  0.00000000000E+00 0.  1.
          2   -1    0    0  501    0  0.00000000000E+00 -0.00000000000E+00 -0.52021786739E+03  0.52021786739E+03  0.00000000000E+00 0. -1.
         25    2    1    2    0    0  0.12938443566E+03 -0.72584895852E+02 -0.18303126299E+03  0.26675576558E+03  0.12509714600E+03 0.  0.
         23    2    1    2    0    0 -0.12938443566E+03  0.72584895852E+02 -0.26980288510E+03  0.32084582110E+03  0.90219425898E+02 0.  0.
          5    1    3    3  502    0  0.98728180757E+02 -0.80726846834E+02 -0.19462724040E+03  0.23272583136E+03  0.41800000000E+01 0. -1.
         -5    1    3    3    0  502  0.30656254908E+02  0.81419509820E+01  0.11595977407E+02  0.34029934217E+02  0.41800000000E+01 0. -1.
        -11    1    4    4    0    0  0.32541432955E+00  0.39762343504E+02 -0.58011787538E+02  0.70331481918E+02  0.00000000000E+00 0. -1.
         11    1    4    4    0    0 -0.12970984999E+03  0.32822552349E+02 -0.21179109757E+03  0.25051433918E+03  0.00000000000E+00 0.  1.
</event>
<event>
 8    1  0.7130890E-009  0.8342488E+02  0.7561462E-02  0.1319604E+00
         -2   -1    0    0    0  501 -0.00000000000E+00  0.00000000000E+00  0.24530906804E+03  0.24530906804E+03  0.00000000000E+00 0.  1.
          2   -1    0    0  501    0  0.00000000000E+00 -0.00000000000E+00 -0.89828831226E+02  0.89828831226E+02  0.00000000000E+00 0. -1.
         25    2    1    2    0    0  0.69562529219E+02  0.38804187047E+01  0.16425057843E+01  0.14319131360E+03  0.12508817428E+03 0.  0.
         23    2    1    2    0    0 -0.69562529219E+02 -0.38804187047E+01  0.15383773103E+03  0.19194658567E+03  0.91232895056E+02 0.  0.
          5    1    3    3  502    0  0.71264158997E+01 -0.82884397577E+01 -0.56022381209E+02  0.57231666353E+02  0.41800000000E+01 0.  1.
         -5    1    3    3    0  502  0.62436113319E+02  0.12168858462E+02  0.57664886993E+02  0.85959647246E+02  0.41800000000E+01 0.  1.
        -11    1    4    4    0    0 -0.37537552920E+02  0.27522569706E+02  0.13588261965E+03  0.14363372183E+03  0.00000000000E+00 0.  1.
         11    1    4    4    0    0 -0.32024976298E+02 -0.31402988411E+02  0.17955111382E+02  0.48312863844E+02  0.00000000000E+00 0. -1.
</event>
<event>
 8    1  0.7130890E-009  0.1317305E+03  0.7561462E-02  0.1224910E+00
          2   -1    0    0  501    0  0.00000000000E+00  0.00000000000E+00  0.11218976810E+03  0.11218976810E+03  0.00000000000E+00 0. -1.
         -2   -1    0    0    0  501 -0.00000000000E+00 -0.00000000000E+00 -0.19961130584E+03  0.19961130584E+03  0.00000000000E+00 0.  1.
         25    2    1    2    0    0 -0.96700647488E+02  0.28920536065E+02 -0.57336330212E+02  0.17065780312E+03  0.12509683599E+03 0.  0.
         23    2    1    2    0    0  0.96700647488E+02 -0.28920536065E+02 -0.30085207531E+02  0.14114327081E+03  0.93962176179E+02 0.  0.
          5    1    3    3  502    0 -0.12372748964E+03  0.27587638877E+02 -0.26784403286E+02  0.12963196431E+03  0.41800000000E+01 0.  1.
         -5    1    3    3    0  502  0.27026842151E+02  0.13328971880E+01 -0.30551926926E+02  0.41025838815E+02  0.41800000000E+01 0.  1.
        -11    1    4    4    0    0  0.22014957988E+02 -0.26593913119E+02 -0.52764474072E+02  0.63055406702E+02  0.00000000000E+00 0.  1.
         11    1    4    4    0    0  0.74685689499E+02 -0.23266229461E+01  0.22679266541E+02  0.78087864109E+02  0.00000000000E+00 0. -1.
</event>
<event>
 8    1  0.7130890E-009  0.3849272E+02  0.7561462E-02  0.1519606E+00
          1   -1    0    0  501    0  0.00000000000E+00  0.00000000000E+00  0.17819961144E+03  0.17819961144E+03  0.00000000000E+00 0. -1.
         -1   -1    0    0    0  501 -0.00000000000E+00 -0.00000000000E+00 -0.71184319028E+02  0.71184319028E+02  0.00000000000E+00 0.  1.
         25    2    1    2    0    0 -0.29229310825E+01 -0.23825357511E+02  0.70399832998E+02  0.14553267227E+03  0.12508969192E+03 0.  0.
         23    2    1    2    0    0  0.29229310825E+01  0.23825357511E+02  0.36615459409E+02  0.10385125819E+03  0.94171124946E+02 0.  0.
          5    1    3    3  502    0  0.88947960467E+01 -0.33239579567E+01 -0.35477126362E+02  0.36963021901E+02  0.41800000000E+01 0. -1.
         -5    1    3    3    0  502 -0.11817727129E+02 -0.20501399555E+02  0.10587695936E+03  0.10856965037E+03  0.41800000000E+01 0. -1.
        -11    1    4    4    0    0 -0.15899858821E+02  0.14734616238E+02 -0.28302862586E+02  0.35650616499E+02  0.00000000000E+00 0.  1.
         11    1    4    4    0    0  0.18822789904E+02  0.90907412737E+01  0.64918321995E+02  0.68200641693E+02  0.00000000000E+00 0. -1.
</event>
<event>
 8    1  0.7130890E-009  0.8872840E+02  0.7561462E-02  0.1305961E+00
          1   -1    0    0  501    0  0.00000000000E+00  0.00000000000E+00  0.67619135478E+03  0.67619135478E+03  0.00000000000E+00 0. -1.
         -1   -1    0    0    0  501 -0.00000000000E+00 -0.00000000000E+00 -0.25883327820E+02  0.25883327820E+02  0.00000000000E+00 0.  1.
         25    2    1    2    0    0  0.12834298724E+02  0.49166539200E+02  0.51795901872E+03  0.53526696189E+03  0.12508839922E+03 0.  0.
         23    2    1    2    0    0 -0.12834298724E+02 -0.49166539200E+02  0.13234900825E+03  0.16680772071E+03  0.87900443146E+02 0.  0.
          5    1    3    3  502    0  0.33561541305E+02  0.53292310309E+02  0.50733545945E+03  0.51124669995E+03  0.41800000000E+01 0. -1.
         -5    1    3    3    0  502 -0.20727242581E+02 -0.41257711093E+01  0.10623559266E+02  0.24020261941E+02  0.41800000000E+01 0. -1.
        -11    1    4    4    0    0  0.27492590817E+02  0.20952327692E+01  0.75179199704E+02  0.80075867890E+02  0.00000000000E+00 0. -1.
         11    1    4    4    0    0 -0.40326889541E+02 -0.51261771969E+02  0.57169808541E+02  0.86731852823E+02  0.00000000000E+00 0.  1.
</event>
<event>
 8    1  0.7130890E-009  0.7571630E+02  0.7561462E-02  0.1341667E+00
          1   -1    0    0  501    0  0.00000000000E+00  0.00000000000E+00  0.37294983031E+03  0.37294983031E+03  0.00000000000E+00 0. -1.
         -1   -1    0    0    0  501 -0.00000000000E+00 -0.00000000000E+00 -0.33089631969E+02  0.33089631969E+02  0.00000000000E+00 0.  1.
         25    2    1    2    0    0 -0.53913958755E+01  0.15660778325E+02  0.25733397703E+03  0.28660555955E+03  0.12509054282E+03 0.  0.
         23    2    1    2    0    0  0.53913958755E+01 -0.15660778325E+02  0.82526221305E+02  0.11943390273E+03  0.84732241739E+02 0.  0.
          5    1    3    3  502    0 -0.33781543536E+02  0.46079402047E+01  0.78521839671E+01  0.35235706175E+02  0.41800000000E+01 0. -1.
         -5    1    3    3    0  502  0.28390147661E+02  0.11052838120E+02  0.24948179306E+03  0.25136985337E+03  0.41800000000E+01 0. -1.
        -11    1    4    4    0    0  0.13360133758E+02  0.33741827252E+02  0.34114208817E+02  0.49807462529E+02  0.00000000000E+00 0.  1.
         11    1    4    4    0    0 -0.79687378825E+01 -0.49402605578E+02  0.48412012488E+02  0.69626440197E+02  0.00000000000E+00 0. -1.
</event>
<event>
 8    1  0.7130890E-009  0.9661680E+02  0.7561462E-02  0.1287576E+00
          2   -1    0    0  501    0  0.00000000000E+00  0.00000000000E+00  0.76938966797E+03  0.76938966797E+03  0.00000000000E+00 0. -1.
         -2   -1    0    0    0  501 -0.00000000000E+00 -0.00000000000E+00 -0.29226784329E+02  0.29226784329E+02  0.00000000000E+00 0.  1.
         25    2    1    2    0    0  0.42045694418E+02  0.70142496009E+02  0.56436835302E+03  0.58382114467E+03  0.12509069075E+03 0.  0.
         23    2    1    2    0    0 -0.42045694418E+02 -0.70142496009E+02  0.17579453063E+03  0.21479530764E+03  0.92441857496E+02 0.  0.
          5    1    3    3  502    0  0.64607991100E+01 -0.13759644789E+02  0.35607740047E+03  0.35642622978E+03  0.41800000000E+01 0.  1.
         -5    1    3    3    0  502  0.35584895308E+02  0.83902140798E+02  0.20829095254E+03  0.22739491488E+03  0.41800000000E+01 0.  1.
        -11    1    4    4    0    0 -0.36369807275E+02 -0.34451397606E+02  0.18501267980E+02  0.53403732033E+02  0.00000000000E+00 0.  1.
         11    1    4    4    0    0 -0.56758871426E+01 -0.35691098403E+02  0.15729326265E+03  0.16139157560E+03  0.00000000000E+00 0. -1.
</event>
<event>
 8    1  0.7130890E-009  0.9191790E+02  0.7561462E-02  0.1298273E+00
          2   -1    0    0  501    0  0.00000000000E+00  0.00000000000E+00  0.15978011568E+03  0.15978011568E+03  0.00000000000E+00 0. -1.
         -2   -1    0    0    0  501 -0.00000000000E+00 -0.00000000000E+00 -0.94000457733E+02  0.94000457733E+02  0.00000000000E+00 0.  1.
         25    2    1    2    0    0  0.36975525030E+02 -0.50859019528E+01  0.77680441923E+02  0.15190473993E+03  0.12509093934E+03 0.  0.
         23    2    1    2    0    0 -0.36975525030E+02  0.50859019528E+01 -0.11900783971E+02  0.10187583349E+03  0.94042548563E+02 0.  0.
          5    1    3    3  502    0  0.12839301064E+02 -0.45074992349E+02 -0.13858828501E+02  0.49052442492E+02  0.41800000000E+01 0.  1.
         -5    1    3    3    0  502  0.24136223966E+02  0.39989090396E+02  0.91539270424E+02  0.10285229744E+03  0.41800000000E+01 0.  1.
        -11    1    4    4    0    0  0.24031570832E+02  0.14634402849E+02  0.17861914411E+02  0.33327618124E+02  0.00000000000E+00 0. -1.
         11    1    4    4    0    0 -0.61007095862E+02 -0.95485008962E+01 -0.29762698382E+02  0.68548215366E+02  0.00000000000E+00 0.  1.
</event>
<event>
 8    1  0.7130890E-009  0.1065155E+03  0.7561462E-02  0.1267162E+00
         -1   -1    0    0    0  501 -0.00000000000E+00  0.00000000000E+00  0.59582441597E+02  0.59582441597E+02  0.00000000000E+00 0.  1.
          1   -1    0    0  501    0  0.00000000000E+00 -0.00000000000E+00 -0.29372379424E+03  0.29372379424E+03  0.00000000000E+00 0. -1.
         25    2    1    2    0    0 -0.32101954461E+02 -0.25272082615E+02 -0.21095052373E+03  0.24862987838E+03  0.12508988496E+03 0.  0.
         23    2    1    2    0    0  0.32101954461E+02  0.25272082615E+02 -0.23190828909E+02  0.10467635745E+03  0.93542031326E+02 0.  0.
          5    1    3    3  502    0 -0.67404503590E+02  0.21910344068E+01 -0.57450198224E+02  0.88691405514E+02  0.41800000000E+01 0. -1.
         -5    1    3    3    0  502  0.35302549129E+02 -0.27463117022E+02 -0.15350032551E+03  0.15993847287E+03  0.41800000000E+01 0. -1.
        -11    1    4    4    0    0  0.28491680495E+02 -0.32176408547E+02 -0.10127225058E+01  0.42989797991E+02  0.00000000000E+00 0.  1.
         11    1    4    4    0    0  0.36102739656E+01  0.57448491162E+02 -0.22178106403E+02  0.61686559464E+02  0.00000000000E+00 0. -1.
</event>
<event>
 8    1  0.7130890E-009  0.1657722E+03  0.7561462E-02  0.1182330E+00
         -2   -1    0    0    0  501 -0.00000000000E+00  0.00000000000E+00  0.40857923274E+02  0.40857923274E+02  0.00000000000E+00 0.  1.
          2   -1    0    0  501    0  0.00000000000E+00 -0.00000000000E+00 -0.80378223643E+03  0.80378223643E+03  0.00000000000E+00 0. -1.
         25    2    1    2    0    0  0.59950665783E+02 -0.13175011755E+03 -0.39483176652E+03  0.43873928596E+03  0.12509141214E+03 0.  0.
         23    2    1    2    0    0 -0.59950665783E+02  0.13175011755E+03 -0.36809254664E+03  0.40590087375E+03  0.91165896102E+02 0.  0.
          5    1    3    3  502    0  0.12446816008E+02 -0.13513380228E+03 -0.22968681348E+03  0.26681374109E+03  0.41800000000E+01 0. -1.
         -5    1    3    3    0  502  0.47503849775E+02  0.33836847244E+01 -0.16514495304E+03  0.17192554487E+03  0.41800000000E+01 0. -1.
        -11    1    4    4    0    0 -0.77038918407E+00  0.31808644411E+02 -0.16958118990E+02  0.36054974115E+02  0.00000000000E+00 0.  1.
         11    1    4    4    0    0 -0.59180276599E+02  0.99941473143E+02 -0.35113442765E+03  0.36984589963E+03  0.00000000000E+00 0. -1.
</event>
<event>
 8    1  0.7130890E-009  0.1077701E+03  0.7561462E-02  0.1264756E+00
          1   -1    0    0  501    0  0.00000000000E+00  0.00000000000E+00  0.34772584883E+02  0.34772584883E+02  0.00000000000E+00 0. -1.
         -1   -1    0    0    0  501 -0.00000000000E+00 -0.00000000000E+00 -0.35120986946E+03  0.35120986946E+03  0.00000000000E+00 0.  1.
         25    2    1    2    0    0  0.14174950887E+02 -0.23910279845E+02 -0.18447011170E+03  0.22460554400E+03  0.12508316262E+03 0.  0.
         23    2    1    2    0    0 -0.14174950887E+02  0.23910279845E+02 -0.13196717287E+03  0.16137691034E+03  0.88625852656E+02 0.  0.
          5    1    3    3  502    0 -0.53745420126E+02 -0.43423224759E+01 -0.55600083154E+02  0.77564602724E+02  0.41800000000E+01 0.  1.
         -5    1    3    3    0  502  0.67920371013E+02 -0.19567957369E+02 -0.12887002855E+03  0.14704094128E+03  0.41800000000E+01 0.  1.
        -11    1    4    4    0    0 -0.45786927404E+02 -0.71404754138E+01 -0.49815399264E+02  0.68036777658E+02  0.00000000000E+00 0. -1.
         11    1    4    4    0    0  0.31611976517E+02  0.31050755259E+02 -0.82151773609E+02  0.93340132679E+02  0.00000000000E+00 0.  1.
</event>
<event>
 8    1  0.7130890E-009  0.1163042E+03  0.7561462E-02  0.1249322E+00
          2   -1    0    0  501    0  0.00000000000E+00  0.00000000000E+00  0.98943975740E+02  0.98943975740E+02  0.00000000000E+00 0. -1.
         -2   -1    0    0    0  501 -0.00000000000E+00 -0.00000000000E+00 -0.15595967408E+03  0.15595967408E+03  0.00000000000E+00 0.  1.
         25    2    1    2    0    0 -0.35069902757E+02  0.34114330235E+02  0.57086770887E+01  0.13443626174E+03  0.12508730499E+03 0.  0.
         23    2    1    2    0    0  0.35069902757E+02 -0.34114330235E+02 -0.62724375430E+02  0.12046738808E+03  0.90467445584E+02 0.  0.
          5    1    3    3  502    0 -0.22582856304E+02  0.80849870861E+02  0.13914404176E+02  0.85192546979E+02  0.41800000000E+01 0.  1.
         -5    1    3    3    0  502 -0.12487046453E+02 -0.46735540627E+02 -0.82057270870E+01  0.49243714765E+02  0.41800000000E+01 0.  1.
        -11    1    4    4    0    0  0.64482502624E+02 -0.25665585450E+02 -0.55896221876E+02  0.89112866867E+02  0.00000000000E+00 0.  1.
         11    1    4    4    0    0 -0.29412599868E+02 -0.84487447844E+01 -0.68281535538E+01  0.31354521211E+02  0.00000000000E+00 0. -1.
</event>
<event>
 8    1  0.7130890E-009  0.5420023E+03  0.7561462E-02  0.1003362E+00
          1   -1    0    0  501    0  0.00000000000E+00  0.00000000000E+00  0.14886589159E+04  0.14886589159E+04  0.00000000000E+00 0. -1.
         -1   -1    0    0    0  501 -0.00000000000E+00 -0.00000000000E+00 -0.23603460756E+03  0.23603460756E+03  0.00000000000E+00 0.  1.
         25    2    1    2    0    0 -0.20178130609E+03 -0.49793297207E+03  0.95674166376E+03  0.11043799470E+04  0.12509003192E+03 0.  0.
         23    2    1    2    0    0  0.20178130609E+03  0.49793297207E+03  0.29588264463E+03  0.62031357647E+03  0.92679305136E+02 0.  0.
          5    1    3    3  502    0 -0.22349771382E+02 -0.27429973256E+02  0.19991043392E+02  0.40853762734E+02  0.41800000000E+01 0.  1.
         -5    1    3    3    0  502 -0.17943153470E+03 -0.47050299881E+03  0.93675062037E+03  0.10635261843E+04  0.41800000000E+01 0.  1.
        -11    1    4    4    0    0  0.19537970253E+03  0.38547201460E+03  0.24416653329E+03  0.49636599217E+03  0.00000000000E+00 0. -1.
         11    1    4    4    0    0  0.64016035600E+01  0.11246095747E+03  0.51716111338E+02  0.12394758430E+03  0.00000000000E+00 0.  1.
</event>
<event>
 8    1  0.7130890E-009  0.1090725E+03  0.7561462E-02  0.1262297E+00
         -2   -1    0    0    0  501 -0.00000000000E+00  0.00000000000E+00  0.45256987927E+02  0.45256987927E+02  0.00000000000E+00 0.  1.
          2   -1    0    0  501    0  0.00000000000E+00 -0.00000000000E+00 -0.35548377595E+03  0.35548377595E+03  0.00000000000E+00 0. -1.
         25    2    1    2    0    0 -0.57500496288E+02 -0.26344316421E+02 -0.12446829501E+03  0.18745465760E+03  0.12508621871E+03 0.  0.
         23    2    1    2    0    0  0.57500496288E+02  0.26344316421E+02 -0.18575849301E+03  0.21328610628E+03  0.83572814502E+02 0.  0.
          5    1    3    3  502    0 -0.79025850340E+02 -0.46446074329E+02 -0.44197059749E+02  0.10184878661E+03  0.41800000000E+01 0.  1.
         -5    1    3    3    0  502  0.21525354052E+02  0.20101757908E+02 -0.80271235263E+02  0.85605870995E+02  0.41800000000E+01 0.  1.
        -11    1    4    4    0    0 -0.12455514095E+02 -0.11629089340E+02 -0.74882359734E+02  0.76796766531E+02  0.00000000000E+00 0. -1.
         11    1    4    4    0    0  0.69956010383E+02  0.37973405761E+02 -0.11087613328E+03  0.13648933975E+03  0.00000000000E+00 0.  1.
</event>
<event>
 8    1  0.7130890E-009  0.1131090E+03  0.7561462E-02  0.1254918E+00
         -3   -1    0    0    0  501 -0.00000000000E+00  0.00000000000E+00  0.19731353669E+02  0.19731353669E+02  0.00000000000E+00 0.  1.
          3   -1    0    0  501    0  0.00000000000E+00 -0.00000000000E+00 -0.70979337234E+03  0.70979337234E+03  0.00000000000E+00 0. -1.
         25    2    1    2    0    0  0.44253640098E+02 -0.10518214652E+01 -0.35871183807E+03  0.38246636885E+03  0.12508736764E+03 0.  0.
         23    2    1    2    0    0 -0.44253640098E+02  0.10518214652E+01 -0.33135018060E+03  0.34705835716E+03  0.93258083275E+02 0.  0.
          5    1    3    3  502    0 -0.10221962601E+02  0.49741604090E+02 -0.20999416575E+03  0.21608733824E+03  0.41800000000E+01 0. -1.
         -5    1    3    3    0  502  0.54475602699E+02 -0.50793425555E+02 -0.14871767232E+03  0.16637903062E+03  0.41800000000E+01 0. -1.
        -11    1    4    4    0    0 -0.65838445908E+02  0.23136252800E+02 -0.26216642646E+03  0.27129545207E+03  0.00000000000E+00 0.  1.
         11    1    4    4    0    0  0.21584805810E+02 -0.22084431335E+02 -0.69183754147E+02  0.75762905086E+02  0.00000000000E+00 0. -1.
</event>
<event>
 8    1  0.7130890E-009  0.1595533E+03  0.7561462E-02  0.1189202E+00
          2   -1    0    0  501    0  0.00000000000E+00  0.00000000000E+00  0.33316079813E+03  0.33316079813E+03  0.00000000000E+00 0. -1.
         -2   -1    0    0    0  501 -0.00000000000E+00 -0.00000000000E+00 -0.12621113807E+03  0.12621113807E+03  0.00000000000E+00 0.  1.
         25    2    1    2    0    0  0.11704697686E+03 -0.60162653810E+02  0.23377744658E+03  0.29600399194E+03  0.12508768529E+03 0.  0.
         23    2    1    2    0    0 -0.11704697686E+03  0.60162653810E+02 -0.26827786516E+02  0.16336794427E+03  0.93004383652E+02 0.  0.
          5    1    3    3  502    0  0.10933508242E+03  0.10037531403E+02  0.15668279561E+03  0.19136844861E+03  0.41800000000E+01 0. -1.
         -5    1    3    3    0  502  0.77118944417E+01 -0.70200185212E+02  0.77094650968E+02  0.10463554333E+03  0.41800000000E+01 0. -1.
        -11    1    4    4    0    0 -0.92483217483E+01  0.22451232616E+02 -0.41644293866E+02  0.48206187494E+02  0.00000000000E+00 0.  1.
         11    1    4    4    0    0 -0.10779865511E+03  0.37711421194E+02  0.14816507350E+02  0.11516175677E+03  0.00000000000E+00 0. -1.
</event>
<event>
 8    1  0.7130890E-009  0.1096018E+03  0.7561462E-02  0.1261309E+00
         -2   -1    0    0    0  501 -0.00000000000E+00  0.00000000000E+00  0.50462207243E+02  0.50462207243E+02  0.00000000000E+00 0.  1.
          2   -1    0    0  501    0  0.00000000000E+00 -0.00000000000E+00 -0.39962997351E+03  0.39962997351E+03  0.00000000000E+00 0. -1.
         25    2    1    2    0    0  0.81477418995E+02  0.41042487165E+02 -0.18975066104E+03  0.24488937957E+03  0.12506973776E+03 0.  0.
         23    2    1    2    0    0 -0.81477418995E+02 -0.41042487165E+02 -0.15941710523E+03  0.20520280118E+03  0.91494921250E+02 0.  0.
          5    1    3    3  502    0  0.95859853146E+02  0.50406243697E+02 -0.82546736380E+02  0.13623999756E+03  0.41800000000E+01 0. -1.
         -5    1    3    3    0  502 -0.14382434151E+02 -0.93637565324E+01 -0.10720392466E+03  0.10864938201E+03  0.41800000000E+01 0. -1.
        -11    1    4    4    0    0 -0.52349750558E+02 -0.15995988729E+02 -0.15749816299E+03  0.16673943560E+03  0.00000000000E+00 0. -1.
         11    1    4    4    0    0 -0.29127668437E+02 -0.25046498436E+02 -0.19189422366E+01  0.38463365580E+02  0.00000000000E+00 0.  1.
</event>
<event>
 8    1  0.7130890E-009  0.1613238E+03  0.7561462E-02  0.1187210E+00
         -2   -1    0    0    0  501 -0.00000000000E+00  0.00000000000E+00  0.88481898365E+02  0.88481898365E+02  0.00000000000E+00 0.  1.
          2   -1    0    0  501    0  0.00000000000E+00 -0.00000000000E+00 -0.51858236956E+03  0.51858236956E+03  0.00000000000E+00 0. -1.
         25    2    1    2    0    0  0.10278924013E+03 -0.10431373287E+03 -0.65056468962E+02  0.20329192963E+03  0.12509309232E+03 0.  0.
         23    2    1    2    0    0 -0.10278924013E+03  0.10431373287E+03 -0.36504400224E+03  0.40377233830E+03  0.91257848194E+02 0.  0.
          5    1    3    3  502    0  0.67149023614E+02 -0.41059703405E+02 -0.96040877163E+02  0.12424255753E+03  0.41800000000E+01 0.  1.
         -5    1    3    3    0  502  0.35640216514E+02 -0.63254029466E+02  0.30984408201E+02  0.79049372094E+02  0.41800000000E+01 0.  1.
        -11    1    4    4    0    0 -0.48236992347E+02 -0.54387276625E+01 -0.12846984989E+03  0.13733495374E+03  0.00000000000E+00 0.  1.
         11    1    4    4    0    0 -0.54552247781E+02  0.10975246053E+03 -0.23657415235E+03  0.26643738456E+03  0.00000000000E+00 0. -1.
</event>
<event>
 8    1  0.7130890E-009  0.8222410E+02  0.7561462E-02  0.1322856E+00
         -2   -1    0    0    0  501 -0.00000000000E+00  0.00000000000E+00  0.86337667092E+02  0.86337667092E+02  0.00000000000E+00 0.  1.
          2   -1    0    0  501    0  0.00000000000E+00 -0.00000000000E+00 -0.24129113808E+03  0.24129113808E+03  0.00000000000E+00 0. -1.
         25    2    1    2    0    0  0.23876444944E+02  0.37055504868E+02 -0.17230955628E+03  0.21744509681E+03  0.12509433191E+03 0.  0.
         23    2    1    2    0    0 -0.23876444944E+02 -0.37055504868E+02  0.17356085293E+02  0.11018370837E+03  0.99478745611E+02 0.  0.
          5    1    3    3  502    0  0.30544348790E+02 -0.31395175737E+02 -0.12842800711E+03  0.13575654574E+03  0.41800000000E+01 0.  1.
         -5    1    3    3    0  502 -0.66679038461E+01  0.68450680605E+02 -0.43881549174E+02  0.81688551064E+02  0.41800000000E+01 0.  1.
        -11    1    4    4    0    0 -0.27946446027E+02 -0.20932006120E+02 -0.38458652391E+02  0.51944399789E+02  0.00000000000E+00 0. -1.
         11    1    4    4    0    0  0.40700010838E+01 -0.16123498748E+02  0.55814737684E+02  0.58239308576E+02  0.00000000000E+00 0.  1.
</event>
<event>
 8    1  0.7130890E-009  0.2003371E+03  0.7561462E-02  0.1149455E+00
          1   -1    0    0  501    0  0.00000000000E+00  0.00000000000E+00  0.13052254096E+04  0.13052254096E+04  0.00000000000E+00 0. -1.
         -1   -1    0    0    0  501 -0.00000000000E+00 -0.00000000000E+00 -0.45139897226E+02  0.45139897226E+02  0.00000000000E+00 0.  1.
         25    2    1    2    0    0  0.12246008432E+03 -0.15282574060E+03  0.39044445180E+03  0.45436540029E+03  0.12509543477E+03 0.  0.
         23    2    1    2    0    0 -0.12246008432E+03  0.15282574060E+03  0.86964106060E+03  0.89599990656E+03  0.90488004908E+02 0.  0.
          5    1    3    3  502    0  0.95171924491E+02 -0.10766466543E+03  0.37116497292E+03  0.39803301988E+03  0.41800000000E+01 0.  1.
         -5    1    3    3    0  502  0.27288159827E+02 -0.45161075164E+02  0.19279478880E+02  0.56332380410E+02  0.41800000000E+01 0.  1.
        -11    1    4    4    0    0 -0.87883020025E+02  0.64150433137E+02  0.60632254535E+03  0.61600789952E+03  0.00000000000E+00 0. -1.
         11    1    4    4    0    0 -0.34577064294E+02  0.88675307461E+02  0.26331851526E+03  0.27999200704E+03  0.00000000000E+00 0.  1.
</event>
<event>
 8    1  0.7130890E-009  0.1193481E+03  0.7561462E-02  0.1244176E+00
          1   -1    0    0  501    0  0.00000000000E+00  0.00000000000E+00  0.48094099695E+03  0.48094099695E+03  0.00000000000E+00 0. -1.
         -1   -1    0    0    0  501 -0.00000000000E+00 -0.00000000000E+00 -0.45933791134E+02  0.45933791134E+02  0.00000000000E+00 0.  1.
         25    2    1    2    0    0 -0.78014051570E+02  0.58197057356E+02  0.28861662257E+03  0.32927264819E+03  0.12509129583E+03 0.  0.
         23    2    1    2    0    0  0.78014051570E+02 -0.58197057356E+02  0.14639058325E+03  0.19760213990E+03  0.90240307524E+02 0.  0.
          5    1    3    3  502    0 -0.85656048609E+02  0.56681834124E+02  0.11044552802E+03  0.15088232515E+03  0.41800000000E+01 0. -1.
         -5    1    3    3    0  502  0.76419970394E+01  0.15152232319E+01  0.17817109455E+03  0.17839032304E+03  0.41800000000E+01 0. -1.
        -11    1    4    4    0    0  0.16968500410E+02 -0.63551480025E+02  0.10412044151E+03  0.12315756964E+03  0.00000000000E+00 0. -1.
         11    1    4    4    0    0  0.61045551160E+02  0.53544226689E+01  0.42270141737E+02  0.74444570259E+02  0.00000000000E+00 0.  1.
</event>
<event>
 8    1  0.7130890E-009  0.1378840E+03  0.7561462E-02  0.1216205E+00
         -2   -1    0    0    0  501 -0.00000000000E+00  0.00000000000E+00  0.36978234953E+02  0.36978234953E+02  0.00000000000E+00 0.  1.
          2   -1    0    0  501    0  0.00000000000E+00 -0.00000000000E+00 -0.66856563006E+03  0.66856563006E+03  0.00000000000E+00 0. -1.
         25    2    1    2    0    0 -0.77385759395E+02 -0.62697093364E+02 -0.21078311108E+03  0.26456914143E+03  0.12509128428E+03 0.  0.
         23    2    1    2    0    0  0.77385759395E+02  0.62697093364E+02 -0.42080428403E+03  0.44097472359E+03  0.86388541584E+02 0.  0.
          5    1    3    3  502    0 -0.99813680940E+02 -0.81699677848E+02 -0.15799428671E+03  0.20400312570E+03  0.41800000000E+01 0.  1.
         -5    1    3    3    0  502  0.22427921544E+02  0.19002584484E+02 -0.52788824379E+02  0.60566015728E+02  0.41800000000E+01 0.  1.
        -11    1    4    4    0    0  0.59681995120E+02  0.88442555952E+01 -0.11404010154E+03  0.12901668945E+03  0.00000000000E+00 0.  1.
         11    1    4    4    0    0  0.17703764275E+02  0.53852837769E+02 -0.30676418249E+03  0.31195803414E+03  0.00000000000E+00 0. -1.
</event>
<event>
 8    1  0.7130890E-009  0.7734949E+02  0.7561462E-02  0.1336746E+00
         -1   -1    0    0    0  501 -0.00000000000E+00  0.00000000000E+00  0.27638970516E+02  0.27638970516E+02  0.00000000000E+00 0.  1.
          1   -1    0    0  501    0  0.00000000000E+00 -0.00000000000E+00 -0.40546112046E+03  0.40546112046E+03  0.00000000000E+00 0. -1.
         25    2    1    2    0    0 -0.14427734744E+02  0.11896354283E+02 -0.22506607570E+03  0.25817047425E+03  0.12509025770E+03 0.  0.
         23    2    1    2    0    0  0.14427734744E+02 -0.11896354283E+02 -0.15275607425E+03  0.17492961672E+03  0.83164113723E+02 0.  0.
          5    1    3    3  502    0 -0.47311619488E+02 -0.27001621833E+02 -0.18595699341E+03  0.19381680195E+03  0.41800000000E+01 0. -1.
         -5    1    3    3    0  502  0.32883884744E+02  0.38897976116E+02 -0.39109082285E+02  0.64353672303E+02  0.41800000000E+01 0. -1.
        -11    1    4    4    0    0  0.28897123282E+02 -0.17104213320E+02 -0.15569347119E+03  0.15927352202E+03  0.00000000000E+00 0. -1.
         11    1    4    4    0    0 -0.14469388538E+02  0.52078590367E+01  0.29373969390E+01  0.15656094698E+02  0.00000000000E+00 0.  1.
</event>
<event>
 8    1  0.7130890E-009  0.9491268E+02  0.7561462E-02  0.1291373E+00
          1   -1    0    0  501    0  0.00000000000E+00  0.00000000000E+00  0.99092667798E+03  0.99092667798E+03  0.00000000000E+00 0. -1.
         -1   -1    0    0    0  501 -0.00000000000E+00 -0.00000000000E+00 -0.13086898001E+02  0.13086898001E+02  0.00000000000E+00 0.  1.
         25    2    1    2    0    0 -0.34988711698E+02  0.15528736312E+01  0.61252038817E+03  0.62614388227E+03  0.12509322132E+03 0.  0.
         23    2    1    2    0    0  0.34988711698E+02 -0.15528736312E+01  0.36531939181E+03  0.37786969371E+03  0.90003477873E+02 0.  0.
          5    1    3    3  502    0 -0.60135050933E+02  0.21601048139E+02  0.15820640297E+03  0.17067386435E+03  0.41800000000E+01 0.  1.
         -5    1    3    3    0  502  0.25146339234E+02 -0.20048174508E+02  0.45431398520E+03  0.45547001792E+03  0.41800000000E+01 0.  1.
        -11    1    4    4    0    0  0.42107236669E+02  0.35841169003E+02  0.16658395502E+03  0.17552157373E+03  0.00000000000E+00 0.  1.
         11    1    4    4    0    0 -0.71185249702E+01 -0.37394042635E+02  0.19873543679E+03  0.20234811998E+03  0.00000000000E+00 0. -1.
</event>
<event>
 8    1  0.7130890E-009  0.1061529E+03  0.7561462E-02  0.1267865E+00
         -2   -1    0    0    0  501 -0.00000000000E+00  0.00000000000E+00  0.15233864092E+02  0.15233864092E+02  0.00000000000E+00 0. -1.
          2   -1    0    0  501    0  0.00000000000E+00 -0.00000000000E+00 -0.96932059380E+03  0.96932059380E+03  0.00000000000E+00 0.  1.
         25    2    1    2    0    0 -0.36971003943E+02  0.14490235281E+02 -0.67559260567E+03  0.68822246431E+03  0.12509184423E+03 0.  0.
         23    2    1    2    0    0  0.36971003943E+02 -0.14490235281E+02 -0.27849412404E+03  0.29633199358E+03  0.93149617530E+02 0.  0.
          5    1    3    3  502    0 -0.41663961146E+02  0.56976729710E+02 -0.56784568804E+03  0.57223109948E+03  0.41800000000E+01 0.  1.
         -5    1    3    3    0  502  0.46929572035E+01 -0.42486494429E+02 -0.10774691763E+03  0.11599136483E+03  0.41800000000E+01 0.  1.
        -11    1    4    4    0    0 -0.21637550864E+02  0.20982902459E+02 -0.11879062929E+03  0.12255480166E+03  0.00000000000E+00 0.  1.
         11    1    4    4    0    0  0.58608554807E+02 -0.35473137740E+02 -0.15970349475E+03  0.17377719192E+03  0.00000000000E+00 0. -1.
</event>
<event>
 8    1  0.7130890E-009  0.1432938E+03  0.7561462E-02  0.1208964E+00
         -2   -1    0    0    0  501 -0.00000000000E+00  0.00000000000E+00  0.67322396748E+02  0.67322396748E+02  0.00000000000E+00 0.  1.
          2   -1    0    0  501    0  0.00000000000E+00 -0.00000000000E+00 -0.35473141802E+03  0.35473141802E+03  0.00000000000E+00 0. -1.
         25    2    1    2    0    0 -0.10170990628E+03 -0.14531435567E+02 -0.98454201485E+02  0.18946416545E+03  0.12508945816E+03 0.  0.
         23    2    1    2    0    0  0.10170990628E+03  0.14531435567E+02 -0.18895481979E+03  0.23258964932E+03  0.88532216714E+02 0.  0.
          5    1    3    3  502    0  0.28886935621E+02 -0.13345546700E+01 -0.90330819823E+01  0.30582757493E+02  0.41800000000E+01 0.  1.
         -5    1    3    3    0  502 -0.13059684190E+03 -0.13196880897E+02 -0.89421119502E+02  0.15888140795E+03  0.41800000000E+01 0.  1.
        -11    1    4    4    0    0 -0.11310562613E+02 -0.29189688867E+01  0.48825961790E-01  0.11681249503E+02  0.00000000000E+00 0.  1.
         11    1    4    4    0    0  0.11302046889E+03  0.17450404454E+02 -0.18900364575E+03  0.22090839982E+03  0.00000000000E+00 0. -1.
</event>
<event>
 8    1  0.7130890E-009  0.1257523E+03  0.7561462E-02  0.1233898E+00
          1   -1    0    0  501    0  0.00000000000E+00  0.00000000000E+00  0.28365477707E+03  0.28365477707E+03  0.00000000000E+00 0. -1.
         -1   -1    0    0    0  501 -0.00000000000E+00 -0.00000000000E+00 -0.69626938367E+02  0.69626938367E+02  0.00000000000E+00 0.  1.
         25    2    1    2    0    0  0.67085122054E+02 -0.56349964328E+02  0.99631719925E+02  0.18234686168E+03  0.12509263075E+03 0.  0.
         23    2    1    2    0    0 -0.67085122054E+02  0.56349964328E+02  0.11439611878E+03  0.17093485376E+03  0.91959339699E+02 0.  0.
          5    1    3    3  502    0  0.71731204592E+02 -0.41470140374E+01  0.26387916545E+01  0.72020823787E+02  0.41800000000E+01 0.  1.
         -5    1    3    3    0  502 -0.46460825373E+01 -0.52202950290E+02  0.96992928270E+02  0.11032603789E+03  0.41800000000E+01 0.  1.
        -11    1    4    4    0    0 -0.85305124542E+02  0.22036313343E+02  0.77020466684E+02  0.11702442338E+03  0.00000000000E+00 0.  1.
         11    1    4    4    0    0  0.18220002487E+02  0.34313650985E+02  0.37375652097E+02  0.53910430384E+02  0.00000000000E+00 0. -1.
</event>
<event>
 8    1  0.7130890E-009  0.1191158E+03  0.7561462E-02  0.1244563E+00
         -3   -1    0    0    0  501 -0.00000000000E+00  0.00000000000E+00  0.32265615156E+03  0.32265615156E+03  0.00000000000E+00 0.  1.
          3   -1    0    0  501    0  0.00000000000E+00 -0.00000000000E+00 -0.49992310616E+02  0.49992310616E+02  0.00000000000E+00 0. -1.
         25    2    1    2    0    0 -0.23550752571E+01  0.66301294726E+02  0.15114595819E+03  0.20710797306E+03  0.12508878353E+03 0.  0.
         23    2    1    2    0    0  0.23550752571E+01 -0.66301294726E+02  0.12151788275E+03  0.16554048911E+03  0.90750480142E+02 0.  0.
          5    1    3    3  502    0  0.50649141466E+02  0.71086115604E+02  0.82778814468E+02  0.12036766961E+03  0.41800000000E+01 0.  1.
         -5    1    3    3    0  502 -0.53004216723E+02 -0.47848208782E+01  0.68367143722E+02  0.86740303447E+02  0.41800000000E+01 0.  1.
        -11    1    4    4    0    0 -0.51733928415E+00 -0.81749172391E+02  0.12508271688E+03  0.14942851431E+03  0.00000000000E+00 0.  1.
         11    1    4    4    0    0  0.28724145413E+01  0.15447877664E+02 -0.35648341324E+01  0.16111974802E+02  0.00000000000E+00 0. -1.
</event>
<event>
 8    1  0.7130890E-009  0.2320867E+03  0.7561462E-02  0.1125180E+00
         -3   -1    0    0    0  501 -0.00000000000E+00  0.00000000000E+00  0.20499620151E+03  0.20499620151E+03  0.00000000000E+00 0.  1.
          3   -1    0    0  501    0  0.00000000000E+00 -0.00000000000E+00 -0.27989366618E+03  0.27989366618E+03  0.00000000000E+00 0. -1.
         25    2    1    2    0    0 -0.17752739082E+03  0.11804112868E+03 -0.46510366774E+02  0.25151669694E+03  0.12509097518E+03 0.  0.
         23    2    1    2    0    0  0.17752739082E+03 -0.11804112868E+03 -0.28387097897E+02  0.23337317074E+03  0.90595402450E+02 0.  0.
          5    1    3    3  502    0 -0.18373383475E+03  0.13129542360E+03 -0.28061398487E+02  0.22759948325E+03  0.41800000000E+01 0.  1.
         -5    1    3    3    0  502  0.62064439287E+01 -0.13254294920E+02 -0.18448968287E+02  0.23917213695E+02  0.41800000000E+01 0.  1.
        -11    1    4    4    0    0  0.10472158089E+03 -0.30180576726E+02  0.17511861420E+02  0.11038180107E+03  0.00000000000E+00 0.  1.
         11    1    4    4    0    0  0.72805809924E+02 -0.87860551956E+02 -0.45898959317E+02  0.12299136968E+03  0.00000000000E+00 0. -1.
</event>
<event>
 8    1  0.7130890E-009  0.2617302E+03  0.7561462E-02  0.1106108E+00
          2   -1    0    0  501    0  0.00000000000E+00  0.00000000000E+00  0.85962950253E+02  0.85962950253E+02  0.00000000000E+00 0. -1.
         -2   -1    0    0    0  501 -0.00000000000E+00 -0.00000000000E+00 -0.89161595995E+03  0.89161595995E+03  0.00000000000E+00 0.  1.
         25    2    1    2    0    0 -0.22843966647E+03  0.85127279851E+02 -0.28454775815E+03  0.39502729846E+03  0.12509118620E+03 0.  0.
         23    2    1    2    0    0  0.22843966647E+03 -0.85127279851E+02 -0.52110525155E+03  0.58255161175E+03  0.91566162805E+02 0.  0.
          5    1    3    3  502    0 -0.41358369077E+02 -0.22407123845E+02 -0.10181861944E+03  0.11223679234E+03  0.41800000000E+01 0.  1.
         -5    1    3    3    0  502 -0.18708129739E+03  0.10753440370E+03 -0.18272913872E+03  0.28279050611E+03  0.41800000000E+01 0.  1.
        -11    1    4    4    0    0  0.18917846393E+03 -0.28215156382E+02 -0.38394551160E+03  0.42895074559E+03  0.00000000000E+00 0.  1.
         11    1    4    4    0    0  0.39261202537E+02 -0.56912123468E+02 -0.13715973995E+03  0.15360086616E+03  0.00000000000E+00 0. -1.
</event>
<event>
 8    1  0.7130890E-009  0.8965822E+02  0.7561462E-02  0.1303681E+00
          2   -1    0    0  501    0  0.00000000000E+00  0.00000000000E+00  0.52236433855E+03  0.52236433855E+03  0.00000000000E+00 0. -1.
         -2   -1    0    0    0  501 -0.00000000000E+00 -0.00000000000E+00 -0.24350550908E+02  0.24350550908E+02  0.00000000000E+00 0.  1.
         25    2    1    2    0    0 -0.13538162303E+02  0.12393278931E+02  0.21517772113E+03  0.24957341489E+03  0.12509421469E+03 0.  0.
         23    2    1    2    0    0  0.13538162303E+02 -0.12393278931E+02  0.28283606651E+03  0.29714147456E+03  0.89218496889E+02 0.  0.
          5    1    3    3  502    0  0.37447093092E+02 -0.18978740488E+02  0.22597934008E+02  0.47860384380E+02  0.41800000000E+01 0.  1.
         -5    1    3    3    0  502 -0.50985255395E+02  0.31372019419E+02  0.19257978712E+03  0.20171303051E+03  0.41800000000E+01 0.  1.
        -11    1    4    4    0    0 -0.23967005467E+02 -0.27681890373E+02  0.57316373665E+02  0.68013756666E+02  0.00000000000E+00 0.  1.
         11    1    4    4    0    0  0.37505167769E+02  0.15288611443E+02  0.22551969284E+03  0.22912771790E+03  0.00000000000E+00 0. -1.
</event>
<event>
 8    1  0.7130890E-009  0.1159489E+03  0.7561462E-02  0.1249934E+00
          2   -1    0    0  501    0  0.00000000000E+00  0.00000000000E+00  0.11039081912E+03  0.11039081912E+03  0.00000000000E+00 0. -1.
         -2   -1    0    0    0  501 -0.00000000000E+00 -0.00000000000E+00 -0.19576221045E+03  0.19576221045E+03  0.00000000000E+00 0.  1.
         25    2    1    2    0    0 -0.39816988595E+02 -0.89700312462E+02 -0.57461032919E+02  0.16905778054E+03  0.12508886530E+03 0.  0.
         23    2    1    2    0    0  0.39816988595E+02  0.89700312462E+02 -0.27910358414E+02  0.13709524902E+03  0.91567355320E+02 0.  0.
          5    1    3    3  502    0 -0.25001852933E+02 -0.57338843169E+02 -0.97126063502E+02  0.11560181745E+03  0.41800000000E+01 0.  1.
         -5    1    3    3    0  502 -0.14815135662E+02 -0.32361469293E+02  0.39665030582E+02  0.53455963097E+02  0.41800000000E+01 0.  1.
        -11    1    4    4    0    0 -0.27452729430E+02  0.44628641171E+02 -0.34570807226E+01  0.52510183518E+02  0.00000000000E+00 0.  1.
         11    1    4    4    0    0  0.67269718025E+02  0.45071671291E+02 -0.24453277692E+02  0.84585065502E+02  0.00000000000E+00 0. -1.
</event>
<event>
 8    1  0.7130890E-009  0.1462133E+03  0.7561462E-02  0.1205205E+00
         -1   -1    0    0    0  501 -0.00000000000E+00  0.00000000000E+00  0.33577511034E+02  0.33577511034E+02  0.00000000000E+00 0.  1.
          1   -1    0    0  501    0  0.00000000000E+00 -0.00000000000E+00 -0.65164481347E+03  0.65164481347E+03  0.00000000000E+00 0. -1.
         25    2    1    2    0    0  0.74452387995E+02 -0.64204471261E+02 -0.31355633681E+03  0.35160952458E+03  0.12508520783E+03 0.  0.
         23    2    1    2    0    0 -0.74452387995E+02  0.64204471261E+02 -0.30451096563E+03  0.33361279992E+03  0.94367366580E+02 0.  0.
          5    1    3    3  502    0  0.36148394836E+02 -0.98526287711E+02 -0.17958330913E+03  0.20804271950E+03  0.41800000000E+01 0. -1.
         -5    1    3    3    0  502  0.38303993159E+02  0.34321816450E+02 -0.13397302768E+03  0.14356680508E+03  0.41800000000E+01 0. -1.
        -11    1    4    4    0    0  0.19905141848E+02  0.28807964279E+02 -0.91287600430E+02  0.97772897421E+02  0.00000000000E+00 0.  1.
         11    1    4    4    0    0 -0.94357529843E+02  0.35396506981E+02 -0.21322336520E+03  0.23583990250E+03  0.00000000000E+00 0. -1.
</event>
<event>
 8    1  0.7130890E-009  0.1209706E+03  0.7561462E-02  0.1241504E+00
         -2   -1    0    0    0  501 -0.00000000000E+00  0.00000000000E+00  0.10476251768E+03  0.10476251768E+03  0.00000000000E+00 0.  1.
          2   -1    0    0  501    0  0.00000000000E+00 -0.00000000000E+00 -0.35511628234E+03  0.35511628234E+03  0.00000000000E+00 0. -1.
         25    2    1    2    0    0 -0.35056645853E+02 -0.92165840358E+02  0.17572923141E+02  0.16025005349E+03  0.12509101274E+03 0.  0.
         23    2    1    2    0    0  0.35056645853E+02  0.92165840358E+02 -0.26792668781E+03  0.29962874653E+03  0.90934950146E+02 0.  0.
          5    1    3    3  502    0 -0.23204962665E+02  0.17494542944E+02 -0.28244751954E+02  0.40740247152E+02  0.41800000000E+01 0. -1.
         -5    1    3    3    0  502 -0.11851683188E+02 -0.10966038330E+03  0.45817675094E+02  0.11950980634E+03  0.41800000000E+01 0. -1.
        -11    1    4    4    0    0  0.36544647493E+02  0.61769049932E+02 -0.25772451524E+03  0.26753103100E+03  0.00000000000E+00 0. -1.
         11    1    4    4    0    0 -0.14880016395E+01  0.30396790425E+02 -0.10202172564E+02  0.32097715527E+02  0.00000000000E+00 0.  1.
</event>
<event>
 8    1  0.7130890E-009  0.1042181E+03  0.7561462E-02  0.1271668E+00
         -2   -1    0    0    0  501 -0.00000000000E+00  0.00000000000E+00  0.34385548871E+02  0.34385548871E+02  0.00000000000E+00 0.  1.
          2   -1    0    0  501    0  0.00000000000E+00 -0.00000000000E+00 -0.81641693781E+03  0.81641693781E+03  0.00000000000E+00 0. -1.
         25    2    1    2    0    0 -0.48837315726E+02 -0.79592476747E+02 -0.63986629407E+03  0.65863192270E+03  0.12508832698E+03 0.  0.
         23    2    1    2    0    0  0.48837315726E+02  0.79592476747E+02 -0.14216509486E+03  0.19217056398E+03  0.89434700760E+02 0.  0.
          5    1    3    3  502    0 -0.56471540501E+02 -0.86420645362E+02 -0.27771575151E+03  0.29631245986E+03  0.41800000000E+01 0.  1.
         -5    1    3    3    0  502  0.76342247746E+01  0.68281686150E+01 -0.36215054257E+03  0.36231946284E+03  0.41800000000E+01 0.  1.
        -11    1    4    4    0    0  0.24315313981E+02  0.50172105119E+02 -0.14339327179E+03  0.15385091817E+03  0.00000000000E+00 0. -1.
         11    1    4    4    0    0  0.24522001745E+02  0.29420371628E+02  0.12281769298E+01  0.38319645808E+02  0.00000000000E+00 0.  1.
</event>
<event>
 8    1  0.7130890E-009  0.1295776E+03  0.7561462E-02  0.1228084E+00
         -2   -1    0    0    0  501 -0.00000000000E+00  0.00000000000E+00  0.18903314010E+03  0.18903314010E+03  0.00000000000E+00 0. -1.
          2   -1    0    0  501    0  0.00000000000E+00 -0.00000000000E+00 -0.12555860762E+03  0.12555860762E+03  0.00000000000E+00 0.  1.
         25    2    1    2    0    0  0.30773898806E+01 -0.90183890825E+02 -0.27446204794E+02  0.15666270578E+03  0.12508918710E+03 0.  0.
         23    2    1    2    0    0 -0.30773898806E+01  0.90183890825E+02  0.90920737275E+02  0.15792904194E+03  0.92370976655E+02 0.  0.
          5    1    3    3  502    0 -0.31054632400E+02 -0.98071569628E+02 -0.50341815577E+02  0.11460451020E+03  0.41800000000E+01 0. -1.
         -5    1    3    3    0  502  0.34132022281E+02  0.78876788028E+01  0.22895610783E+02  0.42058195575E+02  0.41800000000E+01 0. -1.
        -11    1    4    4    0    0 -0.18538520176E+02 -0.89507913333E+01 -0.26238705960E+01  0.20752785180E+02  0.00000000000E+00 0.  1.
         11    1    4    4    0    0  0.15461130296E+02  0.99134682158E+02  0.93544607871E+02  0.13717625676E+03  0.00000000000E+00 0. -1.
</event>
<event>
 8    1  0.7130890E-009  0.1359868E+03  0.7561462E-02  0.1218833E+00
         -1   -1    0    0    0  501 -0.00000000000E+00  0.00000000000E+00  0.41796183204E+03  0.41796183204E+03  0.00000000000E+00 0.  1.
          1   -1    0    0  501    0  0.00000000000E+00 -0.00000000000E+00 -0.56723063213E+02  0.56723063213E+02  0.00000000000E+00 0. -1.
         25    2    1    2    0    0  0.43077744308E+02  0.91537889887E+02  0.27462212700E+03  0.31827862619E+03  0.12509633852E+03 0.  0.
         23    2    1    2    0    0 -0.43077744308E+02 -0.91537889887E+02  0.86616641829E+02  0.15640626906E+03  0.82009761742E+02 0.  0.
          5    1    3    3  502    0 -0.34980811040E+02  0.40487560222E+02  0.16895399488E+03  0.17727330442E+03  0.41800000000E+01 0.  1.
         -5    1    3    3    0  502  0.78058555348E+02  0.51050329665E+02  0.10566813211E+03  0.14100532176E+03  0.41800000000E+01 0.  1.
        -11    1    4    4    0    0 -0.46544295375E+02 -0.15843095934E+02  0.13219746136E+02  0.50913031815E+02  0.00000000000E+00 0. -1.
         11    1    4    4    0    0  0.34665510669E+01 -0.75694793952E+02  0.73396895693E+02  0.10549323725E+03  0.00000000000E+00 0.  1.
</event>
<event>
 8    1  0.7130890E-009  0.4964194E+03  0.7561462E-02  0.1014718E+00
          3   -1    0    0  501    0  0.00000000000E+00  0.00000000000E+00  0.56560231894E+03  0.56560231894E+03  0.00000000000E+00 0. -1.
         -3   -1    0    0    0  501 -0.00000000000E+00 -0.00000000000E+00 -0.70425206070E+03  0.70425206070E+03  0.00000000000E+00 0.  1.
         25    2    1    2    0    0  0.34893156089E+03 -0.34717107092E+03 -0.45171022943E+03  0.67968457141E+03  0.12509196041E+03 0.  0.
         23    2    1    2    0    0 -0.34893156089E+03  0.34717107092E+03  0.31306048767E+03  0.59016980824E+03  0.89512831171E+02 0.  0.
          5    1    3    3  502    0  0.57623270999E+02 -0.29566204625E+02 -0.11774688045E+03  0.13444851086E+03  0.41800000000E+01 0.  1.
         -5    1    3    3    0  502  0.29130828989E+03 -0.31760486630E+03 -0.33396334898E+03  0.54523606055E+03  0.41800000000E+01 0.  1.
        -11    1    4    4    0    0 -0.30893361767E+03  0.27115663710E+03  0.28346857349E+03  0.49931987156E+03  0.00000000000E+00 0.  1.
         11    1    4    4    0    0 -0.39997943218E+02  0.76014433820E+02  0.29591914184E+02  0.90849936685E+02  0.00000000000E+00 0. -1.
</event>
<event>
 8    1  0.7130890E-009  0.9688312E+02  0.7561462E-02  0.1286990E+00
         -2   -1    0    0    0  501 -0.00000000000E+00  0.00000000000E+00  0.75154397872E+02  0.75154397872E+02  0.00000000000E+00 0.  1.
          2   -1    0    0  501    0  0.00000000000E+00 -0.00000000000E+00 -0.33827572932E+03  0.33827572932E+03  0.00000000000E+00 0. -1.
         25    2    1    2    0    0  0.62844236947E+02  0.38470772147E+02 -0.25774009292E+03  0.29581562320E+03  0.12509008356E+03 0.  0.
         23    2    1    2    0    0 -0.62844236947E+02 -0.38470772147E+02 -0.53812385233E+01  0.11761450399E+03  0.91514017469E+02 0.  0.
          5    1    3    3  502    0  0.38305388282E+02  0.33301439255E+02 -0.16932959420E+02  0.53670160635E+02  0.41800000000E+01 0. -1.
         -5    1    3    3    0  502  0.24538848665E+02  0.51693328925E+01 -0.24080713350E+03  0.24214546257E+03  0.41800000000E+01 0. -1.
        -11    1    4    4    0    0  0.20155466526E+02  0.86926433339E+01 -0.26738578376E+01  0.22112313193E+02  0.00000000000E+00 0. -1.
         11    1    4    4    0    0 -0.82999703473E+02 -0.47163415481E+02 -0.27073806857E+01  0.95502190795E+02  0.00000000000E+00 0.  1.
</event>
<event>
 8    1  0.7130890E-009  0.1178718E+03  0.7561462E-02  0.1246650E+00
         -1   -1    0    0    0  501 -0.00000000000E+00  0.00000000000E+00  0.24549468698E+03  0.24549468698E+03  0.00000000000E+00 0.  1.
          1   -1    0    0  501    0  0.00000000000E+00 -0.00000000000E+00 -0.60170787180E+02  0.60170787180E+02  0.00000000000E+00 0. -1.
         25    2    1    2    0    0  0.41174095848E+02  0.20288755766E+02  0.10490137626E+03  0.16958629154E+03  0.12509305240E+03 0.  0.
         23    2    1    2    0    0 -0.41174095848E+02 -0.20288755766E+02  0.80422523543E+02  0.13607918262E+03  0.99713699513E+02 0.  0.
          5    1    3    3  502    0 -0.44749236023E+02  0.32281030579E+01  0.28855178631E+02  0.53507088388E+02  0.41800000000E+01 0.  1.
         -5    1    3    3    0  502  0.85923331871E+02  0.17060652708E+02  0.76046197627E+02  0.11607920315E+03  0.41800000000E+01 0.  1.
        -11    1    4    4    0    0  0.25418522592E+02 -0.25730876097E+02  0.52297797019E+02  0.63586467495E+02  0.00000000000E+00 0.  1.
         11    1    4    4    0    0 -0.66592618440E+02  0.54421203312E+01  0.28124726524E+02  0.72492715127E+02  0.00000000000E+00 0. -1.
</event>
<event>
 8    1  0.7130890E-009  0.1278769E+03  0.7561462E-02  0.1230640E+00
          3   -1    0    0  501    0  0.00000000000E+00  0.00000000000E+00  0.12760903614E+04  0.12760903614E+04  0.00000000000E+00 0. -1.
         -3   -1    0    0    0  501 -0.00000000000E+00 -0.00000000000E+00 -0.21350519227E+02  0.21350519227E+02  0.00000000000E+00 0.  1.
         25    2    1    2    0    0 -0.71252438815E+02 -0.54830478025E+02  0.10030904571E+04  0.10148508973E+04  0.12509431400E+03 0.  0.
         23    2    1    2    0    0  0.71252438815E+02  0.54830478025E+02  0.25164938514E+03  0.28258998333E+03  0.91904266932E+02 0.  0.
          5    1    3    3  502    0 -0.80225357248E+02 -0.83296759347E+02  0.90110586106E+03  0.90850630339E+03  0.41800000000E+01 0. -1.
         -5    1    3    3    0  502  0.89729184329E+01  0.28466281322E+02  0.10198459601E+03  0.10634459394E+03  0.41800000000E+01 0. -1.
        -11    1    4    4    0    0  0.45796126479E+02 -0.38201559985E+01  0.38163703618E+02  0.59735643180E+02  0.00000000000E+00 0.  1.
         11    1    4    4    0    0  0.25456312336E+02  0.58650634024E+02  0.21348568152E+03  0.22285434015E+03  0.00000000000E+00 0. -1.
</event>
<event>
 8    1  0.7130890E-009  0.1100706E+03  0.7561462E-02  0.1260439E+00
         -2   -1    0    0    0  501 -0.00000000000E+00  0.00000000000E+00  0.80684781252E+03  0.80684781252E+03  0.00000000000E+00 0. -1.
          2   -1    0    0  501    0  0.00000000000E+00 -0.00000000000E+00 -0.23043062668E+02  0.23043062668E+02  0.00000000000E+00 0.  1.
         25    2    1    2    0    0  0.67030338010E+02 -0.35924829011E+02  0.44408213570E+03  0.46758992402E+03  0.12509090394E+03 0.  0.
         23    2    1    2    0    0 -0.67030338010E+02  0.35924829011E+02  0.33972261415E+03  0.36230095117E+03  0.10033376847E+03 0.  0.
          5    1    3    3  502    0  0.87575121253E+02 -0.96990042698E+01  0.41134143986E+03  0.42069314838E+03  0.41800000000E+01 0.  1.
         -5    1    3    3    0  502 -0.20544783243E+02 -0.26225824742E+02  0.32740695839E+02  0.46896775646E+02  0.41800000000E+01 0.  1.
        -11    1    4    4    0    0 -0.72747018880E+01  0.37875592110E+02  0.36030126751E+02  0.52779274331E+02  0.00000000000E+00 0.  1.
         11    1    4    4    0    0 -0.59755636122E+02 -0.19507630988E+01  0.30369248740E+03  0.30952167683E+03  0.00000000000E+00 0. -1.
</event>
<event>
 8    1  0.7130890E-009  0.9657552E+02  0.7561462E-02  0.1287667E+00
          2   -1    0    0  501    0  0.00000000000E+00  0.00000000000E+00  0.57942123511E+03  0.57942123511E+03  0.00000000000E+00 0. -1.
         -2   -1    0    0    0  501 -0.00000000000E+00 -0.00000000000E+00 -0.33185900577E+02  0.33185900577E+02  0.00000000000E+00 0.  1.
         25    2    1    2    0    0  0.38470582992E+02  0.30613621866E+01  0.46481952989E+03  0.48290178023E+03  0.12509027255E+03 0.  0.
         23    2    1    2    0    0 -0.38470582992E+02 -0.30613621866E+01  0.81415804645E+02  0.12970535546E+03  0.93303742127E+02 0.  0.
          5    1    3    3  502    0  0.12181934100E+01  0.41216817132E+02  0.38244733776E+03  0.38468655886E+03  0.41800000000E+01 0.  1.
         -5    1    3    3    0  502  0.37252389582E+02 -0.38155454945E+02  0.82372192129E+02  0.98215221365E+02  0.41800000000E+01 0.  1.
        -11    1    4    4    0    0 -0.88039497616E+01 -0.45551274335E+02  0.53600858192E+02  0.70890620846E+02  0.00000000000E+00 0. -1.
         11    1    4    4    0    0 -0.29666633230E+02  0.42489912148E+02  0.27814946454E+02  0.58814734615E+02  0.00000000000E+00 0.  1.
</event>
<event>
 8    1  0.7130890E-009  0.8008500E+02  0.7561462E-02  0.1328810E+00
         -3   -1    0    0    0  501 -0.00000000000E+00  0.00000000000E+00  0.10092450769E+03  0.10092450769E+03  0.00000000000E+00 0.  1.
          3   -1    0    0  501    0  0.00000000000E+00 -0.00000000000E+00 -0.18952142794E+03  0.18952142794E+03  0.00000000000E+00 0. -1.
         25    2    1    2    0    0 -0.50327753642E+02 -0.42191360767E+02 -0.10335842449E+03  0.17505360968E+03  0.12509120128E+03 0.  0.
         23    2    1    2    0    0  0.50327753642E+02  0.42191360767E+02  0.14761504243E+02  0.11539232596E+03  0.93725627084E+02 0.  0.
          5    1    3    3  502    0 -0.11225594331E+02  0.10791040731E+02  0.25566437654E+02  0.30225414182E+02  0.41800000000E+01 0.  1.
         -5    1    3    3    0  502 -0.39102159311E+02 -0.52982401498E+02 -0.12892486215E+03  0.14482819550E+03  0.41800000000E+01 0.  1.
        -11    1    4    4    0    0 -0.65281961453E+01  0.12073670981E+02  0.42992951132E+02  0.45130751411E+02  0.00000000000E+00 0.  1.
         11    1    4    4    0    0  0.56855949788E+02  0.30117689786E+02 -0.28231446889E+02  0.70261574547E+02  0.00000000000E+00 0. -1.
</event>
<event>
 8    1  0.7130890E-009  0.1448492E+03  0.7561462E-02  0.1206949E+00
          2   -1    0    0  501    0  0.00000000000E+00  0.00000000000E+00  0.85219677977E+03  0.85219677977E+03  0.00000000000E+00 0. -1.
         -2   -1    0    0    0  501 -0.00000000000E+00 -0.00000000000E+00 -0.28336042490E+02  0.28336042490E+02  0.00000000000E+00 0.  1.
         25    2    1    2    0    0  0.10236470219E+03  0.45417497238E+01  0.55759328078E+03  0.58056566477E+03  0.12508822725E+03 0.  0.
         23    2    1    2    0    0 -0.10236470219E+03 -0.45417497238E+01  0.26626745649E+03  0.29996715748E+03  0.92643280577E+02 0.  0.
          5    1    3    3  502    0  0.11437382541E+03  0.40480870416E+02  0.37975003135E+03  0.39868236921E+03  0.41800000000E+01 0. -1.
         -5    1    3    3    0  502 -0.12009123221E+02 -0.35939120693E+02  0.17784324943E+03  0.18188329556E+03  0.41800000000E+01 0. -1.
        -11    1    4    4    0    0 -0.73756196869E+02 -0.40565812428E+02  0.21602758244E+03  0.23184796331E+03  0.00000000000E+00 0. -1.
         11    1    4    4    0    0 -0.28608505320E+02  0.36024062704E+02  0.50239874055E+02  0.68119194177E+02  0.00000000000E+00 0.  1.
</event>
<event>
 8    1  0.7130890E-009  0.8537159E+02  0.7561462E-02  0.1314464E+00
         -2   -1    0    0    0  501 -0.00000000000E+00  0.00000000000E+00  0.50947093924E+03  0.50947093924E+03  0.00000000000E+00 0.  1.
          2   -1    0    0  501    0  0.00000000000E+00 -0.00000000000E+00 -0.38029864387E+02  0.38029864387E+02  0.00000000000E+00 0. -1.
         25    2    1    2    0    0  0.27412015348E+02  0.59139717364E+02  0.14333965082E+03  0.20110375826E+03  0.12509013285E+03 0.  0.
         23    2    1    2    0    0 -0.27412015348E+02 -0.59139717364E+02  0.32810142404E+03  0.34639704537E+03  0.89952453148E+02 0.  0.
          5    1    3    3  502    0  0.75033197207E+01  0.65890597121E+02  0.11380902881E+02  0.67415635769E+02  0.41800000000E+01 0. -1.
         -5    1    3    3    0  502  0.19908695627E+02 -0.67508797568E+01  0.13195874794E+03  0.13368812249E+03  0.41800000000E+01 0. -1.
        -11    1    4    4    0    0  0.14626157546E+02 -0.80339662526E+01  0.62598939564E+01  0.17822888954E+02  0.00000000000E+00 0. -1.
         11    1    4    4    0    0 -0.42038172894E+02 -0.51105751111E+02  0.32184153008E+03  0.32857415641E+03  0.00000000000E+00 0.  1.
</event>
<event>
 8    1  0.7130890E-009  0.1678318E+03  0.7561462E-02  0.1180128E+00
          4   -1    0    0  501    0  0.00000000000E+00  0.00000000000E+00  0.54809311348E+03  0.54809311348E+03  0.00000000000E+00 0. -1.
         -4   -1    0    0    0  501 -0.00000000000E+00 -0.00000000000E+00 -0.72617844621E+02  0.72617844621E+02  0.00000000000E+00 0.  1.
         25    2    1    2    0    0  0.13502691457E+03  0.72994368780E+02  0.14431365208E+03  0.24501946839E+03  0.12509062388E+03 0.  0.
         23    2    1    2    0    0 -0.13502691457E+03 -0.72994368780E+02  0.33116161678E+03  0.37569148971E+03  0.88969845913E+02 0.  0.
          5    1    3    3  502    0  0.93920922503E+02  0.25078255347E+02  0.11593297238E+02  0.97989466352E+02  0.41800000000E+01 0.  1.
         -5    1    3    3    0  502  0.41105992064E+02  0.47916113433E+02  0.13272035484E+03  0.14703000204E+03  0.41800000000E+01 0.  1.
        -11    1    4    4    0    0 -0.13980593209E+02  0.18620396826E+02  0.26315284539E+02  0.35137876498E+02  0.00000000000E+00 0.  1.
         11    1    4    4    0    0 -0.12104632136E+03 -0.91614765606E+02  0.30484633224E+03  0.34055361321E+03  0.00000000000E+00 0. -1.
</event>
<event>
 8    1  0.7130890E-009  0.1172360E+03  0.7561462E-02  0.1247728E+00
         -1   -1    0    0    0  501 -0.00000000000E+00  0.00000000000E+00  0.16198604464E+03  0.16198604464E+03  0.00000000000E+00 0.  1.
          1   -1    0    0  501    0  0.00000000000E+00 -0.00000000000E+00 -0.92932535351E+02  0.92932535351E+02  0.00000000000E+00 0. -1.
         25    2    1    2    0    0  0.32826975696E+02  0.42884533561E+02  0.17748642170E+02  0.13740173685E+03  0.12509008529E+03 0.  0.
         23    2    1    2    0    0 -0.32826975696E+02 -0.42884533561E+02  0.51304867117E+02  0.11751684314E+03  0.90891833958E+02 0.  0.
          5    1    3    3  502    0  0.74952024880E+02  0.99731213538E+01 -0.11061314541E+02  0.76531655297E+02  0.41800000000E+01 0. -1.
         -5    1    3    3    0  502 -0.42125049183E+02  0.32911412207E+02  0.28809956711E+02  0.60870081550E+02  0.41800000000E+01 0. -1.
        -11    1    4    4    0    0 -0.44438161978E+02 -0.65819732640E+02  0.44006368712E+02  0.90793986211E+02  0.00000000000E+00 0.  1.
         11    1    4    4    0    0  0.11611186282E+02  0.22935199079E+02  0.72984984055E+01  0.26722856933E+02  0.00000000000E+00 0. -1.
</event>
<event>
 8    1  0.7130890E-009  0.2000259E+03  0.7561462E-02  0.1149717E+00
          1   -1    0    0  501    0  0.00000000000E+00  0.00000000000E+00  0.58549365062E+03  0.58549365062E+03  0.00000000000E+00 0. -1.
         -1   -1    0    0    0  501 -0.00000000000E+00 -0.00000000000E+00 -0.88852691673E+02  0.88852691673E+02  0.00000000000E+00 0.  1.
         25    2    1    2    0    0 -0.15692927153E+03 -0.84349181772E+02  0.39145107026E+03  0.44791142702E+03  0.12509646408E+03 0.  0.
         23    2    1    2    0    0  0.15692927153E+03  0.84349181772E+02  0.10518988869E+03  0.22643491527E+03  0.92012376564E+02 0.  0.
          5    1    3    3  502    0 -0.90054539182E+02  0.18953535721E+02  0.13505570601E+03  0.16348263721E+03  0.41800000000E+01 0. -1.
         -5    1    3    3    0  502 -0.66874732347E+02 -0.10330271749E+03  0.25639536424E+03  0.28442878981E+03  0.41800000000E+01 0. -1.
        -11    1    4    4    0    0  0.13087202009E+03  0.46582453945E+02  0.36155554265E+02  0.14354314600E+03  0.00000000000E+00 0.  1.
         11    1    4    4    0    0  0.26057251437E+02  0.37766727827E+02  0.69034334424E+02  0.82891769269E+02  0.00000000000E+00 0. -1.
</event>
<event>
 8    1  0.7130890E-009  0.1164141E+03  0.7561462E-02  0.1249133E+00
          2   -1    0    0  501    0  0.00000000000E+00  0.00000000000E+00  0.14858806005E+03  0.14858806005E+03  0.00000000000E+00 0. -1.
         -2   -1    0    0    0  501 -0.00000000000E+00 -0.00000000000E+00 -0.12357649337E+03  0.12357649337E+03  0.00000000000E+00 0.  1.
         25    2    1    2    0    0  0.74161587460E+02  0.21849142101E+02 -0.28053663261E+02  0.14970601572E+03  0.12509019569E+03 0.  0.
         23    2    1    2    0    0 -0.74161587460E+02 -0.21849142101E+02  0.53065229943E+02  0.12245853769E+03  0.78758166308E+02 0.  0.
          5    1    3    3  502    0 -0.81129341581E+01 -0.25780939184E+02 -0.45378863815E+02  0.52982923730E+02  0.41800000000E+01 0. -1.
         -5    1    3    3    0  502  0.82274521618E+02  0.47630081285E+02  0.17325200554E+02  0.96723091994E+02  0.41800000000E+01 0. -1.
        -11    1    4    4    0    0 -0.64798328368E+02  0.19702303794E+02  0.30907531765E+02  0.74446488526E+02  0.00000000000E+00 0.  1.
         11    1    4    4    0    0 -0.93632590922E+01 -0.41551445895E+02  0.22157698178E+02  0.48012049168E+02  0.00000000000E+00 0. -1.
</event>
<event>
 8    1  0.7130890E-009  0.1760231E+03  0.7561462E-02  0.1171708E+00
          1   -1    0    0  501    0  0.00000000000E+00  0.00000000000E+00  0.68966486276E+02  0.68966486276E+02  0.00000000000E+00 0. -1.
         -1   -1    0    0    0  501 -0.00000000000E+00 -0.00000000000E+00 -0.52208780686E+03  0.52208780686E+03  0.00000000000E+00 0.  1.
         25    2    1    2    0    0 -0.13024421080E+03 -0.84501896423E+02 -0.24753412674E+03  0.31784320936E+03  0.12508811649E+03 0.  0.
         23    2    1    2    0    0  0.13024421080E+03  0.84501896423E+02 -0.20558719384E+03  0.27321108378E+03  0.90961954032E+02 0.  0.
          5    1    3    3  502    0 -0.46302013032E+02  0.29304657501E+02 -0.46334346710E+02  0.71881732360E+02  0.41800000000E+01 0.  1.
         -5    1    3    3    0  502 -0.83942197766E+02 -0.11380655392E+03 -0.20119978003E+03  0.24596147699E+03  0.41800000000E+01 0.  1.
        -11    1    4    4    0    0  0.10158622539E+03  0.70971916817E+02 -0.89465588537E+02  0.15284261741E+03  0.00000000000E+00 0. -1.
         11    1    4    4    0    0  0.28657985408E+02  0.13529979606E+02 -0.11612160531E+03  0.12036846636E+03  0.00000000000E+00 0.  1.
</event>
<event>
 8    1  0.7130890E-009  0.1048317E+03  0.7561462E-02  0.1270452E+00
          1   -1    0    0  501    0  0.00000000000E+00  0.00000000000E+00  0.33059322138E+03  0.33059322138E+03  0.00000000000E+00 0. -1.
         -1   -1    0    0    0  501 -0.00000000000E+00 -0.00000000000E+00 -0.37542955711E+02  0.37542955711E+02  0.00000000000E+00 0.  1.
         25    2    1    2    0    0  0.25251928949E+02 -0.77196440494E+01  0.17968361693E+03  0.22052589336E+03  0.12509282405E+03 0.  0.
         23    2    1    2    0    0 -0.25251928949E+02  0.77196440494E+01  0.11336664874E+03  0.14761028374E+03  0.90771944995E+02 0.  0.
          5    1    3    3  502    0  0.80119186102E+01  0.52217259617E+02  0.13094943933E+03  0.14126592336E+03  0.41800000000E+01 0. -1.
         -5    1    3    3    0  502  0.17240010339E+02 -0.59936903666E+02  0.48734177595E+02  0.79259969993E+02  0.41800000000E+01 0. -1.
        -11    1    4    4    0    0 -0.10774791030E+02  0.49128602359E+02  0.54000550333E+02  0.73795495308E+02  0.00000000000E+00 0. -1.
         11    1    4    4    0    0 -0.14477137919E+02 -0.41408958309E+02  0.59366098411E+02  0.73814788431E+02  0.00000000000E+00 0.  1.
</event>
<event>
 8    1  0.7130890E-009  0.1103514E+03  0.7561462E-02  0.1259920E+00
          2   -1    0    0  501    0  0.00000000000E+00  0.00000000000E+00  0.18898982744E+03  0.18898982744E+03  0.00000000000E+00 0. -1.
         -2   -1    0    0    0  501 -0.00000000000E+00 -0.00000000000E+00 -0.12074178637E+03  0.12074178637E+03  0.00000000000E+00 0.  1.
         25    2    1    2    0    0  0.24558010435E+02 -0.48880223678E+02 -0.53940915227E+02  0.14680012778E+03  0.12509309748E+03 0.  0.
         23    2    1    2    0    0 -0.24558010435E+02  0.48880223678E+02  0.12218895630E+03  0.16293148604E+03  0.92866333824E+02 0.  0.
          5    1    3    3  502    0  0.27398976303E+01  0.41406785625E+02 -0.28120514093E+02  0.50301736030E+02  0.41800000000E+01 0. -1.
         -5    1    3    3    0  502  0.21818112805E+02 -0.90287009303E+02 -0.25820401134E+02  0.96498391748E+02  0.41800000000E+01 0. -1.
        -11    1    4    4    0    0 -0.21570607468E+01  0.60665454599E+02  0.30738436059E+02  0.68042646510E+02  0.00000000000E+00 0.  1.
         11    1    4    4    0    0 -0.22400949688E+02 -0.11785230921E+02  0.91450520240E+02  0.94888839528E+02  0.00000000000E+00 0. -1.
</event>
<event>
 8    1  0.7130890E-009  0.1356795E+03  0.7561462E-02  0.1219264E+00
         -2   -1    0    0    0  501 -0.00000000000E+00  0.00000000000E+00  0.77977402286E+02  0.77977402286E+02  0.00000000000E+00 0.  1.
          2   -1    0    0  501    0  0.00000000000E+00 -0.00000000000E+00 -0.30528030963E+03  0.30528030963E+03  0.00000000000E+00 0. -1.
         25    2    1    2    0    0  0.10509246247E+03 -0.86482031845E+01 -0.93010207126E+02  0.18819505392E+03  0.12508901872E+03 0.  0.
         23    2    1    2    0    0 -0.10509246247E+03  0.86482031845E+01 -0.13429270022E+03  0.19506265800E+03  0.94316987477E+02 0.  0.
          5    1    3    3  502    0  0.98939734423E+01  0.48702106060E+02 -0.44572146219E+02  0.66887476135E+02  0.41800000000E+01 0.  1.
         -5    1    3    3    0  502  0.95198489026E+02 -0.57350309244E+02 -0.48438060907E+02  0.12130757778E+03  0.41800000000E+01 0.  1.
        -11    1    4    4    0    0 -0.76569061610E+02 -0.84175698209E+01 -0.25244931456E+02  0.81061601524E+02  0.00000000000E+00 0.  1.
         11    1    4    4    0    0 -0.28523400859E+02  0.17065773005E+02 -0.10904776876E+03  0.11400105647E+03  0.00000000000E+00 0. -1.
</event>
<event>
 8    1  0.7130890E-009  0.1153447E+03  0.7561462E-02  0.1250981E+00
          1   -1    0    0  501    0  0.00000000000E+00  0.00000000000E+00  0.37524553428E+03  0.37524553428E+03  0.00000000000E+00 0. -1.
         -1   -1    0    0    0  501 -0.00000000000E+00 -0.00000000000E+00 -0.36264435368E+02  0.36264435368E+02  0.00000000000E+00 0.  1.
         25    2    1    2    0    0 -0.34951970439E+02 -0.15063254993E+02  0.16146589040E+03  0.20776772419E+03  0.12509057344E+03 0.  0.
         23    2    1    2    0    0  0.34951970439E+02  0.15063254993E+02  0.17751520851E+03  0.20374224546E+03  0.92470057006E+02 0.  0.
          5    1    3    3  502    0 -0.43385768849E+02  0.49230873840E+02  0.83016471030E+02  0.10590189205E+03  0.41800000000E+01 0. -1.
         -5    1    3    3    0  502  0.84337984105E+01 -0.64294128833E+02  0.78449419375E+02  0.10186583214E+03  0.41800000000E+01 0. -1.
        -11    1    4    4    0    0  0.61656717985E+02  0.30840373730E+02  0.12505317487E+03  0.14279697500E+03  0.00000000000E+00 0.  1.
         11    1    4    4    0    0 -0.26704747546E+02 -0.15777118737E+02  0.52462033635E+02  0.60945270451E+02  0.00000000000E+00 0. -1.
</event>
<event>
 8    1  0.7130890E-009  0.2860461E+03  0.7561462E-02  0.1092432E+00
          2   -1    0    0  501    0  0.00000000000E+00  0.00000000000E+00  0.51787517649E+03  0.51787517649E+03  0.00000000000E+00 0. -1.
         -2   -1    0    0    0  501 -0.00000000000E+00 -0.00000000000E+00 -0.20235730054E+03  0.20235730054E+03  0.00000000000E+00 0.  1.
         25    2    1    2    0    0  0.27320218562E+03 -0.24381858399E+02  0.30839067385E+03  0.43126126371E+03  0.12509020988E+03 0.  0.
         23    2    1    2    0    0 -0.27320218562E+03  0.24381858399E+02  0.71272020927E+01  0.28897121333E+03  0.90662317841E+02 0.  0.
          5    1    3    3  502    0  0.92241375184E+02 -0.44202025763E+02  0.18457296348E+03  0.21106146409E+03  0.41800000000E+01 0.  1.
         -5    1    3    3    0  502  0.18096081044E+03  0.19820167364E+02  0.12381771037E+03  0.22019979961E+03  0.41800000000E+01 0.  1.
        -11    1    4    4    0    0 -0.12223633488E+03 -0.32205190631E+02  0.16479938489E+02  0.12747738718E+03  0.00000000000E+00 0.  1.
         11    1    4    4    0    0 -0.15096585074E+03  0.56587049029E+02 -0.93527363959E+01  0.16149382615E+03  0.00000000000E+00 0. -1.
</event>
<event>
 8    1  0.7130890E-009  0.3442699E+03  0.7561462E-02  0.1064992E+00
          1   -1    0    0  501    0  0.00000000000E+00  0.00000000000E+00  0.35077476021E+03  0.35077476021E+03  0.00000000000E+00 0. -1.
         -1   -1    0    0    0  501 -0.00000000000E+00 -0.00000000000E+00 -0.35639604696E+03  0.35639604696E+03  0.00000000000E+00 0.  1.
         25    2    1    2    0    0  0.31056426958E+03 -0.12800094773E+03 -0.12797191082E+02  0.35867232082E+03  0.12509059703E+03 0.  0.
         23    2    1    2    0    0 -0.31056426958E+03  0.12800094773E+03  0.71759043352E+01  0.34849848635E+03  0.92548869371E+02 0.  0.
          5    1    3    3  502    0  0.13412832662E+03 -0.40525176221E+00 -0.37920091524E+02  0.13944883639E+03  0.41800000000E+01 0. -1.
         -5    1    3    3    0  502  0.17643594296E+03 -0.12759569597E+03  0.25122900442E+02  0.21922348443E+03  0.41800000000E+01 0. -1.
        -11    1    4    4    0    0 -0.83414772202E+02  0.44604507239E+02 -0.38719522934E+02  0.10220952864E+03  0.00000000000E+00 0.  1.
         11    1    4    4    0    0 -0.22714949738E+03  0.83396440494E+02  0.45895427269E+02  0.24628895771E+03  0.00000000000E+00 0. -1.
</event>
<event>
 8    1  0.7130890E-009  0.8863218E+02  0.7561462E-02  0.1306198E+00
         -1   -1    0    0    0  501 -0.00000000000E+00  0.00000000000E+00  0.11198722201E+03  0.11198722201E+03  0.00000000000E+00 0.  1.
          1   -1    0    0  501    0  0.00000000000E+00 -0.00000000000E+00 -0.12288641380E+03  0.12288641380E+03  0.00000000000E+00 0. -1.
         25    2    1    2    0    0  0.39446562503E+02  0.26450639181E+02 -0.26472284305E+02  0.13639617602E+03  0.12508983727E+03 0.  0.
         23    2    1    2    0    0 -0.39446562503E+02 -0.26450639181E+02  0.15573092507E+02  0.98477459792E+02  0.84850582028E+02 0.  0.
          5    1    3    3  502    0  0.45846553177E+02  0.42905561443E+02 -0.67044184841E+02  0.91952100367E+02  0.41800000000E+01 0.  1.
         -5    1    3    3    0  502 -0.63999906742E+01 -0.16454922263E+02  0.40571900535E+02  0.44444075650E+02  0.41800000000E+01 0.  1.
        -11    1    4    4    0    0 -0.20971161938E+02 -0.56862246312E+02  0.28006275901E+01  0.60670818386E+02  0.00000000000E+00 0.  1.
         11    1    4    4    0    0 -0.18475400565E+02  0.30411607132E+02  0.12772464917E+02  0.37806641406E+02  0.00000000000E+00 0. -1.
</event>
<event>
 8    1  0.7130890E-009  0.1104732E+03  0.7561462E-02  0.1259696E+00
         -4   -1    0    0    0  501 -0.00000000000E+00  0.00000000000E+00  0.40816105405E+02  0.40816105405E+02  0.00000000000E+00 0.  1.
          4   -1    0    0  501    0  0.00000000000E+00 -0.00000000000E+00 -0.54092069013E+03  0.54092069013E+03  0.00000000000E+00 0. -1.
         25    2    1    2    0    0  0.50525290371E+02  0.69190983350E+02 -0.36203213623E+03  0.39249865309E+03  0.12509087845E+03 0.  0.
         23    2    1    2    0    0 -0.50525290371E+02 -0.69190983350E+02 -0.13807244850E+03  0.18923814244E+03  0.96989052877E+02 0.  0.
          5    1    3    3  502    0  0.54001318064E+02  0.40181764211E+02 -0.35605452237E+03  0.36238517054E+03  0.41800000000E+01 0.  1.
         -5    1    3    3    0  502 -0.34760276930E+01  0.29009219139E+02 -0.59776138526E+01  0.30113482544E+02  0.41800000000E+01 0.  1.
        -11    1    4    4    0    0  0.43236117108E+01 -0.69007283490E+02 -0.10326948553E+03  0.12427906274E+03  0.00000000000E+00 0. -1.
         11    1    4    4    0    0 -0.54848902082E+02 -0.18369986006E+00 -0.34802962964E+02  0.64959079707E+02  0.00000000000E+00 0.  1.
</event>
<event>
 8    1  0.7130890E-009  0.9657595E+02  0.7561462E-02  0.1287666E+00
          2   -1    0    0  501    0  0.00000000000E+00  0.00000000000E+00  0.80484970654E+02  0.80484970654E+02  0.00000000000E+00 0. -1.
         -2   -1    0    0    0  501 -0.00000000000E+00 -0.00000000000E+00 -0.17264719928E+03  0.17264719928E+03  0.00000000000E+00 0.  1.
         25    2    1    2    0    0  0.45170044364E+02 -0.81530005215E+01 -0.41931118612E+02  0.13967377209E+03  0.12507493585E+03 0.  0.
         23    2    1    2    0    0 -0.45170044364E+02  0.81530005215E+01 -0.50231110012E+02  0.11345839784E+03  0.90790083722E+02 0.  0.
          5    1    3    3  502    0  0.41293145050E+01 -0.62196401116E+02 -0.34267260447E+02  0.71254200498E+02  0.41800000000E+01 0.  1.
         -5    1    3    3    0  502  0.41040729859E+02  0.54043400594E+02 -0.76638581649E+01  0.68419571594E+02  0.41800000000E+01 0.  1.
        -11    1    4    4    0    0 -0.37699041627E+02 -0.13297326036E+02  0.16289314891E+02  0.43166866911E+02  0.00000000000E+00 0. -1.
         11    1    4    4    0    0 -0.74710027376E+01  0.21450326557E+02 -0.66520424903E+02  0.70291530931E+02  0.00000000000E+00 0.  1.
</event>
<event>
 8    1  0.7130890E-009  0.1361548E+03  0.7561462E-02  0.1218599E+00
          1   -1    0    0  501    0  0.00000000000E+00  0.00000000000E+00  0.10755985136E+04  0.10755985136E+04  0.00000000000E+00 0. -1.
         -1   -1    0    0    0  501 -0.00000000000E+00 -0.00000000000E+00 -0.22671410241E+02  0.22671410241E+02  0.00000000000E+00 0.  1.
         25    2    1    2    0    0  0.49137076632E+02  0.95887397377E+02  0.67943467509E+03  0.69920504255E+03  0.12508944212E+03 0.  0.
         23    2    1    2    0    0 -0.49137076632E+02 -0.95887397377E+02  0.37349242825E+03  0.39906488128E+03  0.90262618136E+02 0.  0.
          5    1    3    3  502    0  0.68957989372E+02  0.10786270430E+03  0.64435942085E+03  0.65696735301E+03  0.41800000000E+01 0.  1.
         -5    1    3    3    0  502 -0.19820912739E+02 -0.11975306919E+02  0.35075254242E+02  0.42237689541E+02  0.41800000000E+01 0.  1.
        -11    1    4    4    0    0 -0.27969265201E+02 -0.63485673402E+01  0.23195706259E+02  0.36886649238E+02  0.00000000000E+00 0.  1.
         11    1    4    4    0    0 -0.21167811431E+02 -0.89538830037E+02  0.35029672199E+03  0.36217823204E+03  0.00000000000E+00 0. -1.
</event>
<event>
 8    1  0.7130890E-009  0.1448490E+03  0.7561462E-02  0.1206949E+00
         -2   -1    0    0    0  501 -0.00000000000E+00  0.00000000000E+00  0.42969717064E+02  0.42969717064E+02  0.00000000000E+00 0.  1.
          2   -1    0    0  501    0  0.00000000000E+00 -0.00000000000E+00 -0.54420419216E+03  0.54420419216E+03  0.00000000000E+00 0. -1.
         25    2    1    2    0    0  0.73926429305E+02 -0.75248937959E+02 -0.31075715539E+03  0.35120513561E+03  0.12509003974E+03 0.  0.
         23    2    1    2    0    0 -0.73926429305E+02  0.75248937959E+02 -0.19047731971E+03  0.23596877361E+03  0.90951268176E+02 0.  0.
          5    1    3    3  502    0  0.84524119017E+02  0.17231547976E+01 -0.18281204332E+03  0.20145722012E+03  0.41800000000E+01 0. -1.
         -5    1    3    3    0  502 -0.10597689712E+02 -0.76972092756E+02 -0.12794511207E+03  0.14974791549E+03  0.41800000000E+01 0. -1.
        -11    1    4    4    0    0 -0.36409399589E+02  0.81449132164E+02 -0.17184326657E+03  0.19362260657E+03  0.00000000000E+00 0. -1.
         11    1    4    4    0    0 -0.37517029716E+02 -0.62001942048E+01 -0.18634053137E+02  0.42346167043E+02  0.00000000000E+00 0.  1.
</event>
<event>
 8    1  0.7130890E-009  0.8222758E+02  0.7561462E-02  0.1322846E+00
          1   -1    0    0  501    0  0.00000000000E+00  0.00000000000E+00  0.42179864495E+03  0.42179864495E+03  0.00000000000E+00 0. -1.
         -1   -1    0    0    0  501 -0.00000000000E+00 -0.00000000000E+00 -0.34129056892E+02  0.34129056892E+02  0.00000000000E+00 0.  1.
         25    2    1    2    0    0 -0.48019203762E+02  0.12152883957E+02  0.19563496389E+03  0.23743040360E+03  0.12508645385E+03 0.  0.
         23    2    1    2    0    0  0.48019203762E+02 -0.12152883957E+02  0.19203462417E+03  0.21849729825E+03  0.91707338543E+02 0.  0.
          5    1    3    3  502    0 -0.64202053735E+01 -0.26400851902E+02 -0.58222109326E+01  0.28099725236E+02  0.41800000000E+01 0.  1.
         -5    1    3    3    0  502 -0.41598998388E+02  0.38553735858E+02  0.20145717482E+03  0.20933067836E+03  0.41800000000E+01 0.  1.
        -11    1    4    4    0    0  0.10582219595E+02 -0.34777275638E+02  0.16052022237E+03  0.16458488406E+03  0.00000000000E+00 0. -1.
         11    1    4    4    0    0  0.37436984166E+02  0.22624391681E+02  0.31514401803E+02  0.53912414186E+02  0.00000000000E+00 0.  1.
</event>
<event>
 8    1  0.7130890E-009  0.1848798E+03  0.7561462E-02  0.1163162E+00
         -1   -1    0    0    0  501 -0.00000000000E+00  0.00000000000E+00  0.24530788308E+02  0.24530788308E+02  0.00000000000E+00 0.  1.
          1   -1    0    0  501    0  0.00000000000E+00 -0.00000000000E+00 -0.15903797806E+04  0.15903797806E+04  0.00000000000E+00 0. -1.
         25    2    1    2    0    0  0.33812798582E+02 -0.16015765805E+03 -0.91219130435E+03  0.93516510946E+03  0.12508807073E+03 0.  0.
         23    2    1    2    0    0 -0.33812798582E+02  0.16015765805E+03 -0.65365768796E+03  0.67974545947E+03  0.89396509203E+02 0.  0.
          5    1    3    3  502    0  0.45499503864E+02 -0.17708796188E+03 -0.85230074802E+03  0.87170200675E+03  0.41800000000E+01 0. -1.
         -5    1    3    3    0  502 -0.11686705282E+02  0.16930303831E+02 -0.59890556327E+02  0.63463102708E+02  0.41800000000E+01 0. -1.
        -11    1    4    4    0    0  0.32303781147E+01  0.40275065157E+02 -0.55976713773E+02  0.69035561133E+02  0.00000000000E+00 0.  1.
         11    1    4    4    0    0 -0.37043176697E+02  0.11988259289E+03 -0.59768097419E+03  0.61070989833E+03  0.00000000000E+00 0. -1.
</event>
<event>
 8    1  0.7130890E-009  0.9316358E+02  0.7561462E-02  0.1295367E+00
          2   -1    0    0  501    0  0.00000000000E+00  0.00000000000E+00  0.18007744488E+03  0.18007744488E+03  0.00000000000E+00 0. -1.
         -2   -1    0    0    0  501 -0.00000000000E+00 -0.00000000000E+00 -0.11776585935E+03  0.11776585935E+03  0.00000000000E+00 0.  1.
         25    2    1    2    0    0  0.49994679979E+02 -0.73408421903E+02  0.10924006726E+02  0.15379866007E+03  0.12508568856E+03 0.  0.
         23    2    1    2    0    0 -0.49994679979E+02  0.73408421903E+02  0.51387578805E+02  0.14404464416E+03  0.10109357954E+03 0.  0.
          5    1    3    3  502    0  0.14935644864E+02 -0.43461808908E+02 -0.55910886861E+02  0.72494841131E+02  0.41800000000E+01 0.  1.
         -5    1    3    3    0  502  0.35059035115E+02 -0.29946612996E+02  0.66834893587E+02  0.81303818938E+02  0.41800000000E+01 0.  1.
        -11    1    4    4    0    0 -0.46905847350E+02  0.43997408996E+02 -0.19527424538E+02  0.67210496376E+02  0.00000000000E+00 0.  1.
         11    1    4    4    0    0 -0.30888326283E+01  0.29411012908E+02  0.70915003343E+02  0.76834147789E+02  0.00000000000E+00 0. -1.
</event>
<event>
 8    1  0.7130890E-009  0.1020195E+03  0.7561462E-02  0.1276106E+00
         -2   -1    0    0    0  501 -0.00000000000E+00  0.00000000000E+00  0.31901926996E+03  0.31901926996E+03  0.00000000000E+00 0.  1.
          2   -1    0    0  501    0  0.00000000000E+00 -0.00000000000E+00 -0.38408960940E+02  0.38408960940E+02  0.00000000000E+00 0. -1.
         25    2    1    2    0    0 -0.67074122216E+01 -0.15171462325E+01  0.12599988357E+03  0.17768323452E+03  0.12509224619E+03 0.  0.
         23    2    1    2    0    0  0.67074122216E+01  0.15171462325E+01  0.15461042545E+03  0.17974499638E+03  0.91414380463E+02 0.  0.
          5    1    3    3  502    0 -0.31312171858E+01 -0.56832457597E+02  0.10252909069E+03  0.11734317021E+03  0.41800000000E+01 0.  1.
         -5    1    3    3    0  502 -0.35761950358E+01  0.55315311364E+02  0.23470792884E+02  0.60340064309E+02  0.41800000000E+01 0.  1.
        -11    1    4    4    0    0 -0.18295125087E+02 -0.39392650724E+02  0.66332906767E+02  0.79287748443E+02  0.00000000000E+00 0.  1.
         11    1    4    4    0    0  0.25002537309E+02  0.40909796956E+02  0.88277518680E+02  0.10045724794E+03  0.00000000000E+00 0. -1.
</event>
<event>
 8    1  0.7130890E-009  0.7283311E+02  0.7561462E-02  0.1350716E+00
          1   -1    0    0  501    0  0.00000000000E+00  0.00000000000E+00  0.76292447632E+02  0.76292447632E+02  0.00000000000E+00 0. -1.
         -1   -1    0    0    0  501 -0.00000000000E+00 -0.00000000000E+00 -0.17523803121E+03  0.17523803121E+03  0.00000000000E+00 0.  1.
         25    2    1    2    0    0  0.28717075323E+02 -0.17302791394E+02 -0.31828925374E+02  0.13335791809E+03  0.12508875578E+03 0.  0.
         23    2    1    2    0    0 -0.28717075323E+02  0.17302791394E+02 -0.67116658202E+02  0.11817256075E+03  0.91301978619E+02 0.  0.
          5    1    3    3  502    0  0.55531691648E+02 -0.19525018976E+02 -0.66737036670E+02  0.89085911382E+02  0.41800000000E+01 0.  1.
         -5    1    3    3    0  502 -0.26814616325E+02  0.22222275819E+01  0.34908111296E+02  0.44272006712E+02  0.41800000000E+01 0.  1.
        -11    1    4    4    0    0 -0.17980175960E+02 -0.16225575763E+02 -0.77719001973E+02  0.81405155267E+02  0.00000000000E+00 0.  1.
         11    1    4    4    0    0 -0.10736899364E+02  0.33528367157E+02  0.10602343771E+02  0.36767405478E+02  0.00000000000E+00 0. -1.
</event>
<event>
 8    1  0.7130890E-009  0.7100427E+02  0.7561462E-02  0.1356711E+00
          1   -1    0    0  501    0  0.00000000000E+00  0.00000000000E+00  0.65544487908E+03  0.65544487908E+03  0.00000000000E+00 0. -1.
         -1   -1    0    0    0  501 -0.00000000000E+00 -0.00000000000E+00 -0.20535903512E+02  0.20535903512E+02  0.00000000000E+00 0.  1.
         25    2    1    2    0    0 -0.14532440646E+02  0.34857802103E+02  0.40751482345E+03  0.42795133419E+03  0.12509098651E+03 0.  0.
         23    2    1    2    0    0  0.14532440646E+02 -0.34857802103E+02  0.22739415212E+03  0.24802944840E+03  0.91565542957E+02 0.  0.
          5    1    3    3  502    0 -0.21226600379E+02  0.17954490241E+02  0.97611785961E+01  0.29760465235E+02  0.41800000000E+01 0. -1.
         -5    1    3    3    0  502  0.66941597330E+01  0.16903311862E+02  0.39775364485E+03  0.39819086895E+03  0.41800000000E+01 0. -1.
        -11    1    4    4    0    0  0.46660678564E+02  0.15453867120E+01  0.77583776108E+02  0.90547498360E+02  0.00000000000E+00 0. -1.
         11    1    4    4    0    0 -0.32128237918E+02 -0.36403188815E+02  0.14981037602E+03  0.15748195004E+03  0.00000000000E+00 0.  1.
</event>
<event>
 8    1  0.7130890E-009  0.1163084E+03  0.7561462E-02  0.1249314E+00
         -2   -1    0    0    0  501 -0.00000000000E+00  0.00000000000E+00  0.14933562143E+03  0.14933562143E+03  0.00000000000E+00 0.  1.
          2   -1    0    0  501    0  0.00000000000E+00 -0.00000000000E+00 -0.12060960709E+03  0.12060960709E+03  0.00000000000E+00 0. -1.
         25    2    1    2    0    0  0.14026780014E+02  0.51432033424E+02  0.75863096012E+02  0.15569326833E+03  0.12507269825E+03 0.  0.
         23    2    1    2    0    0 -0.14026780014E+02 -0.51432033424E+02 -0.47137081664E+02  0.11425196019E+03  0.89384569803E+02 0.  0.
          5    1    3    3  502    0  0.69781275013E+02  0.29955247302E+02  0.43476093963E+02  0.87603574868E+02  0.41800000000E+01 0.  1.
         -5    1    3    3    0  502 -0.55754494999E+02  0.21476786122E+02  0.32387002049E+02  0.68089693467E+02  0.41800000000E+01 0.  1.
        -11    1    4    4    0    0 -0.38158622096E+02  0.18222251784E+01  0.14532116133E+01  0.38229736709E+02  0.00000000000E+00 0.  1.
         11    1    4    4    0    0  0.24131842082E+02 -0.53254258602E+02 -0.48590293277E+02  0.76022223476E+02  0.00000000000E+00 0. -1.
</event>
<event>
 8    1  0.7130890E-009  0.1020452E+03  0.7561462E-02  0.1276053E+00
          1   -1    0    0  501    0  0.00000000000E+00  0.00000000000E+00  0.60390387293E+02  0.60390387293E+02  0.00000000000E+00 0. -1.
         -1   -1    0    0    0  501 -0.00000000000E+00 -0.00000000000E+00 -0.34524733928E+03  0.34524733928E+03  0.00000000000E+00 0.  1.
         25    2    1    2    0    0  0.51398536093E+02 -0.59511216374E+02 -0.23127744133E+03  0.27444506331E+03  0.12508974187E+03 0.  0.
         23    2    1    2    0    0 -0.51398536093E+02  0.59511216374E+02 -0.53579510650E+02  0.13119266326E+03  0.90318085365E+02 0.  0.
          5    1    3    3  502    0  0.12733019749E+02  0.12228350645E+02  0.93126167571E+01  0.20392635491E+02  0.41800000000E+01 0.  1.
         -5    1    3    3    0  502  0.38665516344E+02 -0.71739567019E+02 -0.24059005809E+03  0.25405242782E+03  0.41800000000E+01 0.  1.
        -11    1    4    4    0    0 -0.21000328345E+02 -0.13700018913E+02 -0.44927269241E+02  0.51450596015E+02  0.00000000000E+00 0.  1.
         11    1    4    4    0    0 -0.30398207748E+02  0.73211235287E+02 -0.86522414098E+01  0.79742067242E+02  0.00000000000E+00 0. -1.
</event>
<event>
 8    1  0.7130890E-009  0.1497267E+03  0.7561462E-02  0.1200809E+00
         -3   -1    0    0    0  501 -0.00000000000E+00  0.00000000000E+00  0.72468338213E+03  0.72468338213E+03  0.00000000000E+00 0.  1.
          3   -1    0    0  501    0  0.00000000000E+00 -0.00000000000E+00 -0.45183926825E+02  0.45183926825E+02  0.00000000000E+00 0. -1.
         25    2    1    2    0    0  0.11383788968E+03 -0.23134490454E+02  0.17724838997E+03  0.24608717390E+03  0.12509050978E+03 0.  0.
         23    2    1    2    0    0 -0.11383788968E+03  0.23134490454E+02  0.50225106534E+03  0.52378013505E+03  0.92710449613E+02 0.  0.
          5    1    3    3  502    0  0.23274157533E+02  0.35959912991E+02  0.11136163970E+03  0.11938881417E+03  0.41800000000E+01 0.  1.
         -5    1    3    3    0  502  0.90563732149E+02 -0.59094403445E+02  0.65886750269E+02  0.12669835974E+03  0.41800000000E+01 0.  1.
        -11    1    4    4    0    0 -0.51916300760E+02  0.57424794710E+02  0.28217097271E+03  0.29259761990E+03  0.00000000000E+00 0.  1.
         11    1    4    4    0    0 -0.61921588923E+02 -0.34290304256E+02  0.22008009263E+03  0.23118251515E+03  0.00000000000E+00 0. -1.
</event>
<event>
 8    1  0.7130890E-009  0.1166379E+03  0.7561462E-02  0.1248749E+00
          1   -1    0    0  501    0  0.00000000000E+00  0.00000000000E+00  0.43861918942E+02  0.43861918942E+02  0.00000000000E+00 0. -1.
         -1   -1    0    0    0  501 -0.00000000000E+00 -0.00000000000E+00 -0.53160519099E+03  0.53160519099E+03  0.00000000000E+00 0.  1.
         25    2    1    2    0    0 -0.39596035513E+02 -0.64113832367E+02 -0.40461961459E+03  0.43016616608E+03  0.12508984131E+03 0.  0.
         23    2    1    2    0    0  0.39596035513E+02  0.64113832367E+02 -0.83123657456E+02  0.14530094385E+03  0.92327635767E+02 0.  0.
          5    1    3    3  502    0  0.25221017775E+02 -0.33837230799E+01 -0.25363652981E+03  0.25494413305E+03  0.41800000000E+01 0. -1.
         -5    1    3    3    0  502 -0.64817053288E+02 -0.60730109287E+02 -0.15098308478E+03  0.17522203303E+03  0.41800000000E+01 0. -1.
        -11    1    4    4    0    0  0.14838582166E+02 -0.23350543532E+02 -0.25836229079E+02  0.37854222182E+02  0.00000000000E+00 0. -1.
         11    1    4    4    0    0  0.24757453347E+02  0.87464375900E+02 -0.57287428376E+02  0.10744672167E+03  0.00000000000E+00 0.  1.
</event>
<event>
 8    1  0.7130890E-009  0.9721145E+02  0.7561462E-02  0.1286272E+00
         -1   -1    0    0    0  501 -0.00000000000E+00  0.00000000000E+00  0.16510291491E+02  0.16510291491E+02  0.00000000000E+00 0.  1.
          1   -1    0    0  501    0  0.00000000000E+00 -0.00000000000E+00 -0.12367150254E+04  0.12367150254E+04  0.00000000000E+00 0. -1.
         25    2    1    2    0    0 -0.14877882456E+02 -0.26484940512E+02 -0.10464593920E+04  0.10543473971E+04  0.12509345061E+03 0.  0.
         23    2    1    2    0    0  0.14877882456E+02  0.26484940512E+02 -0.17374534197E+03  0.19887791977E+03  0.91881334635E+02 0.  0.
          5    1    3    3  502    0  0.22483462293E+02 -0.54716239033E+02 -0.86035382419E+03  0.86239523891E+03  0.41800000000E+01 0.  1.
         -5    1    3    3    0  502 -0.37361344749E+02  0.28231298521E+02 -0.18610556777E+03  0.19195215824E+03  0.41800000000E+01 0.  1.
        -11    1    4    4    0    0 -0.34504794744E+02  0.13431182956E+02 -0.11608467349E+03  0.12184674372E+03  0.00000000000E+00 0. -1.
         11    1    4    4    0    0  0.49382677200E+02  0.13053757556E+02 -0.57660668484E+02  0.77031176051E+02  0.00000000000E+00 0.  1.
</event>
<event>
 8    1  0.7130890E-009  0.1101915E+03  0.7561462E-02  0.1260216E+00
         -2   -1    0    0    0  501 -0.00000000000E+00  0.00000000000E+00  0.22333947918E+03  0.22333947918E+03  0.00000000000E+00 0.  1.
          2   -1    0    0  501    0  0.00000000000E+00 -0.00000000000E+00 -0.87971413550E+02  0.87971413550E+02  0.00000000000E+00 0. -1.
         25    2    1    2    0    0 -0.48844870471E+02  0.64012123000E+02  0.32922473936E+02  0.15235429436E+03  0.12507824934E+03 0.  0.
         23    2    1    2    0    0  0.48844870471E+02 -0.64012123000E+02  0.10244559169E+03  0.15895659837E+03  0.91042449687E+02 0.  0.
          5    1    3    3  502    0 -0.80772003387E+02  0.58955820498E+02  0.53816643791E+02  0.11363806075E+03  0.41800000000E+01 0.  1.
         -5    1    3    3    0  502  0.31927132916E+02  0.50563025016E+01 -0.20894169855E+02  0.38716233612E+02  0.41800000000E+01 0.  1.
        -11    1    4    4    0    0 -0.36017197530E+01 -0.16649697766E+02  0.84290500183E+02  0.85994611703E+02  0.00000000000E+00 0.  1.
         11    1    4    4    0    0  0.52446590224E+02 -0.47362425233E+02  0.18155091507E+02  0.72961986662E+02  0.00000000000E+00 0. -1.
</event>
<event>
 8    1  0.7130890E-009  0.8211637E+02  0.7561462E-02  0.1323151E+00
          2   -1    0    0  501    0  0.00000000000E+00  0.00000000000E+00  0.35849836269E+03  0.35849836269E+03  0.00000000000E+00 0.  1.
         -2   -1    0    0    0  501 -0.00000000000E+00 -0.00000000000E+00 -0.46282684504E+02  0.46282684504E+02  0.00000000000E+00 0. -1.
         25    2    1    2    0    0  0.40701467227E+02 -0.13030787296E+02  0.25645664185E+03  0.28852289387E+03  0.12509612417E+03 0.  0.
         23    2    1    2    0    0 -0.40701467227E+02  0.13030787296E+02  0.55759036331E+02  0.11625815332E+03  0.92630865427E+02 0.  0.
          5    1    3    3  502    0  0.33543821947E+02 -0.49713327981E+02  0.24010123720E+03  0.24751298850E+03  0.41800000000E+01 0.  1.
         -5    1    3    3    0  502  0.71576452798E+01  0.36682540685E+02  0.16355404651E+02  0.41009905369E+02  0.41800000000E+01 0.  1.
        -11    1    4    4    0    0 -0.12455036684E+02  0.30741373095E+02 -0.16227895774E+02  0.36925662618E+02  0.00000000000E+00 0. -1.
         11    1    4    4    0    0 -0.28246430543E+02 -0.17710585799E+02  0.71986932105E+02  0.79332490706E+02  0.00000000000E+00 0.  1.
</event>
<event>
 8    1  0.7130890E-009  0.1151606E+03  0.7561462E-02  0.1251301E+00
          1   -1    0    0  501    0  0.00000000000E+00  0.00000000000E+00  0.99945939848E+02  0.99945939848E+02  0.00000000000E+00 0. -1.
         -1   -1    0    0    0  501 -0.00000000000E+00 -0.00000000000E+00 -0.21644525853E+03  0.21644525853E+03  0.00000000000E+00 0.  1.
         25    2    1    2    0    0  0.57611143320E+02 -0.65269783799E+02 -0.13192306881E+02  0.15297323020E+03  0.12509030212E+03 0.  0.
         23    2    1    2    0    0 -0.57611143320E+02  0.65269783799E+02 -0.10330701180E+03  0.16341796818E+03  0.91945120179E+02 0.  0.
          5    1    3    3  502    0  0.78317634557E+02 -0.67482327994E+02  0.27512321993E+02  0.10706034156E+03  0.41800000000E+01 0.  1.
         -5    1    3    3    0  502 -0.20706491237E+02  0.22125441950E+01 -0.40704628873E+02  0.45912888636E+02  0.41800000000E+01 0.  1.
        -11    1    4    4    0    0 -0.48527860454E+02  0.99262389292E+01 -0.94434398904E+02  0.10663648135E+03  0.00000000000E+00 0.  1.
         11    1    4    4    0    0 -0.90832828667E+01  0.55343544870E+02 -0.88726128983E+01  0.56781486825E+02  0.00000000000E+00 0. -1.
</event>
<event>
 8    1  0.7130890E-009  0.1168042E+03  0.7561462E-02  0.1248464E+00
         -1   -1    0    0    0  501 -0.00000000000E+00  0.00000000000E+00  0.15835754298E+03  0.15835754298E+03  0.00000000000E+00 0.  1.
          1   -1    0    0  501    0  0.00000000000E+00 -0.00000000000E+00 -0.12416489677E+03  0.12416489677E+03  0.00000000000E+00 0. -1.
         25    2    1    2    0    0  0.27724267996E+02 -0.47443734496E+02 -0.51276754412E+02  0.14592687727E+03  0.12508319227E+03 0.  0.
         23    2    1    2    0    0 -0.27724267996E+02  0.47443734496E+02  0.85469400619E+02  0.13659556247E+03  0.91289573698E+02 0.  0.
          5    1    3    3  502    0  0.30666000784E+02  0.35183206789E+02  0.29686950715E+01  0.46952605832E+02  0.41800000000E+01 0.  1.
         -5    1    3    3    0  502 -0.29417327872E+01 -0.82626941285E+02 -0.54245449483E+02  0.98974271442E+02  0.41800000000E+01 0.  1.
        -11    1    4    4    0    0 -0.43367707051E+02  0.66449443628E+02  0.76987990973E+02  0.11055965506E+03  0.00000000000E+00 0.  1.
         11    1    4    4    0    0  0.15643439055E+02 -0.19005709132E+02  0.84814096461E+01  0.26035907410E+02  0.00000000000E+00 0. -1.
</event>
<event>
 8    1  0.7130890E-009  0.7646470E+02  0.7561462E-02  0.1339394E+00
          2   -1    0    0  501    0  0.00000000000E+00  0.00000000000E+00  0.86123177045E+03  0.86123177045E+03  0.00000000000E+00 0. -1.
         -2   -1    0    0    0  501 -0.00000000000E+00 -0.00000000000E+00 -0.35296649816E+02  0.35296649816E+02  0.00000000000E+00 0.  1.
         25    2    1    2    0    0  0.43735168982E+02  0.11687954384E+02  0.76918528408E+03  0.78060413696E+03  0.12508974418E+03 0.  0.
         23    2    1    2    0    0 -0.43735168982E+02 -0.11687954384E+02  0.56749836553E+02  0.11592428331E+03  0.90379877346E+02 0.  0.
          5    1    3    3  502    0  0.63220725391E+02 -0.21721952239E+02  0.21823283620E+03  0.22827997399E+03  0.41800000000E+01 0. -1.
         -5    1    3    3    0  502 -0.19485556409E+02  0.33409906624E+02  0.55095244788E+03  0.55232416297E+03  0.41800000000E+01 0. -1.
        -11    1    4    4    0    0 -0.94368071946E+01 -0.83274375244E+01  0.75601907145E+02  0.76642337580E+02  0.00000000000E+00 0. -1.
         11    1    4    4    0    0 -0.34298361788E+02 -0.33605168600E+01 -0.18852070592E+02  0.39281945732E+02  0.00000000000E+00 0.  1.
</event>
<event>
 8    1  0.7130890E-009  0.9992290E+02  0.7561462E-02  0.1280458E+00
          1   -1    0    0  501    0  0.00000000000E+00  0.00000000000E+00  0.18540784582E+04  0.18540784582E+04  0.00000000000E+00 0. -1.
         -1   -1    0    0    0  501 -0.00000000000E+00 -0.00000000000E+00 -0.11404891784E+02  0.11404891784E+02  0.00000000000E+00 0.  1.
         25    2    1    2    0    0 -0.40840513598E+02  0.26888094870E+02  0.15183035933E+04  0.15242325120E+04  0.12509209432E+03 0.  0.
         23    2    1    2    0    0  0.40840513598E+02 -0.26888094870E+02  0.32436997318E+03  0.34125083803E+03  0.94049655820E+02 0.  0.
          5    1    3    3  502    0 -0.69022340581E+02  0.67632952717E+01  0.44754988709E+03  0.45291080744E+03  0.41800000000E+01 0. -1.
         -5    1    3    3    0  502  0.28181826983E+02  0.20124799599E+02  0.10707537062E+04  0.10713217045E+04  0.41800000000E+01 0. -1.
        -11    1    4    4    0    0  0.36871244873E+02  0.24290672514E+02  0.22621174371E+03  0.23048053814E+03  0.00000000000E+00 0.  1.
         11    1    4    4    0    0  0.39692687244E+01 -0.51178767384E+02  0.98158229473E+02  0.11077029989E+03  0.00000000000E+00 0. -1.
</event>
<event>
 8    1  0.7130890E-009  0.1268006E+03  0.7561462E-02  0.1232282E+00
         -2   -1    0    0    0  501 -0.00000000000E+00  0.00000000000E+00  0.24127177940E+02  0.24127177940E+02  0.00000000000E+00 0.  1.
          2   -1    0    0  501    0  0.00000000000E+00 -0.00000000000E+00 -0.83142469280E+03  0.83142469280E+03  0.00000000000E+00 0. -1.
         25    2    1    2    0    0  0.75759738450E+02 -0.14543442265E+02 -0.58488352251E+03  0.60306556382E+03  0.12509312405E+03 0.  0.
         23    2    1    2    0    0 -0.75759738450E+02  0.14543442265E+02 -0.22241399235E+03  0.25248630692E+03  0.91270485391E+02 0.  0.
          5    1    3    3  502    0 -0.27183296129E+02 -0.14857155447E+02 -0.55033013529E+02  0.63291165533E+02  0.41800000000E+01 0.  1.
         -5    1    3    3    0  502  0.10294303458E+03  0.31371318143E+00 -0.52985050898E+03  0.53977439829E+03  0.41800000000E+01 0.  1.
        -11    1    4    4    0    0  0.20765872248E+02 -0.36616686665E+01 -0.34087809079E+02  0.40082514834E+02  0.00000000000E+00 0.  1.
         11    1    4    4    0    0 -0.96525610698E+02  0.18205110932E+02 -0.18832618327E+03  0.21240379208E+03  0.00000000000E+00 0. -1.
</event>
<event>
 8    1  0.7130890E-009  0.1529401E+03  0.7561462E-02  0.1196906E+00
         -1   -1    0    0    0  501 -0.00000000000E+00  0.00000000000E+00  0.14886988694E+02  0.14886988694E+02  0.00000000000E+00 0.  1.
          1   -1    0    0  501    0  0.00000000000E+00 -0.00000000000E+00 -0.18189464441E+04  0.18189464441E+04  0.00000000000E+00 0. -1.
         25    2    1    2    0    0  0.10601865763E+03 -0.28081548563E+02 -0.12815942578E+04  0.12923467220E+04  0.12509068395E+03 0.  0.
         23    2    1    2    0    0 -0.10601865763E+03  0.28081548563E+02 -0.52246519762E+03  0.54148671076E+03  0.90605993609E+02 0.  0.
          5    1    3    3  502    0  0.13275611316E+03 -0.31035403531E+02 -0.11425134680E+04  0.11506267331E+04  0.41800000000E+01 0.  1.
         -5    1    3    3    0  502 -0.26737455532E+02  0.29538549679E+01 -0.13908078973E+03  0.14171998892E+03  0.41800000000E+01 0.  1.
        -11    1    4    4    0    0 -0.45620553258E+02  0.58859691941E+02 -0.27183420884E+03  0.28185020012E+03  0.00000000000E+00 0.  1.
         11    1    4    4    0    0 -0.60398104368E+02 -0.30778143378E+02 -0.25063098878E+03  0.25963651064E+03  0.00000000000E+00 0. -1.
</event>
<event>
 8    1  0.7130890E-009  0.8180910E+02  0.7561462E-02  0.1323994E+00
         -1   -1    0    0    0  501 -0.00000000000E+00  0.00000000000E+00  0.73020893377E+02  0.73020893377E+02  0.00000000000E+00 0.  1.
          1   -1    0    0  501    0  0.00000000000E+00 -0.00000000000E+00 -0.17635665047E+03  0.17635665047E+03  0.00000000000E+00 0. -1.
         25    2    1    2    0    0  0.20536067842E+02 -0.40490709355E+01 -0.29654887726E+02  0.13025215214E+03  0.12509230877E+03 0.  0.
         23    2    1    2    0    0 -0.20536067842E+02  0.40490709355E+01 -0.73680869365E+02  0.11912539171E+03  0.91235209107E+02 0.  0.
          5    1    3    3  502    0  0.26499323544E+02 -0.60506441283E+02 -0.31492716282E+02  0.73297388520E+02  0.41800000000E+01 0.  1.
         -5    1    3    3    0  502 -0.59632557021E+01  0.56457370347E+02  0.18378285560E+01  0.56954763619E+02  0.41800000000E+01 0.  1.
        -11    1    4    4    0    0  0.70761985749E+01  0.10009201178E+02  0.18790709389E+02  0.22435406255E+02  0.00000000000E+00 0.  1.
         11    1    4    4    0    0 -0.27612266417E+02 -0.59601302425E+01 -0.92471578754E+02  0.96689985450E+02  0.00000000000E+00 0. -1.
</event>
<event>
 8    1  0.7130890E-009  0.1234110E+03  0.7561462E-02  0.1237574E+00
          1   -1    0    0  501    0  0.00000000000E+00  0.00000000000E+00  0.42184307362E+03  0.42184307362E+03  0.00000000000E+00 0. -1.
         -1   -1    0    0    0  501 -0.00000000000E+00 -0.00000000000E+00 -0.52272931173E+02  0.52272931173E+02  0.00000000000E+00 0.  1.
         25    2    1    2    0    0  0.51758915300E+02 -0.68117791171E+02  0.11365071683E+03  0.18942737886E+03  0.12508887895E+03 0.  0.
         23    2    1    2    0    0 -0.51758915300E+02  0.68117791171E+02  0.25591942562E+03  0.28468862594E+03  0.90740523159E+02 0.  0.
          5    1    3    3  502    0  0.75161129095E+02 -0.63411430262E+02  0.12784347952E+03  0.16134321328E+03  0.41800000000E+01 0.  1.
         -5    1    3    3    0  502 -0.23402213795E+02 -0.47063609085E+01 -0.14192762690E+02  0.28084165579E+02  0.41800000000E+01 0.  1.
        -11    1    4    4    0    0 -0.17187834412E+02  0.84269110888E+02  0.18915817954E+03  0.20779201522E+03  0.00000000000E+00 0. -1.
         11    1    4    4    0    0 -0.34571080888E+02 -0.16151319717E+02  0.66761246078E+02  0.76896610720E+02  0.00000000000E+00 0.  1.
</event>
<event>
 8    1  0.7130890E-009  0.1081589E+03  0.7561462E-02  0.1264018E+00
          2   -1    0    0  501    0  0.00000000000E+00  0.00000000000E+00  0.67487790659E+03  0.67487790659E+03  0.00000000000E+00 0. -1.
         -2   -1    0    0    0  501 -0.00000000000E+00 -0.00000000000E+00 -0.58864454183E+02  0.58864454183E+02  0.00000000000E+00 0.  1.
         25    2    1    2    0    0 -0.44515065828E+02 -0.39698564102E+02  0.60938081043E+03  0.62494010379E+03  0.12509034385E+03 0.  0.
         23    2    1    2    0    0  0.44515065828E+02  0.39698564102E+02  0.66326419757E+01  0.10880225698E+03  0.90754460539E+02 0.  0.
          5    1    3    3  502    0  0.18385011220E+02 -0.65467882411E+02  0.24742962402E+03  0.25663776711E+03  0.41800000000E+01 0. -1.
         -5    1    3    3    0  502 -0.62900077049E+02  0.25769318309E+02  0.36195118641E+03  0.36830233668E+03  0.41800000000E+01 0. -1.
        -11    1    4    4    0    0 -0.11389541206E+02 -0.22199414014E+00  0.33237493262E+02  0.35135479058E+02  0.00000000000E+00 0. -1.
         11    1    4    4    0    0  0.55904607034E+02  0.39920558242E+02 -0.26604851286E+02  0.73666777926E+02  0.00000000000E+00 0.  1.
</event>
<event>
 8    1  0.7130890E-009  0.1112176E+03  0.7561462E-02  0.1258331E+00
         -2   -1    0    0    0  501 -0.00000000000E+00  0.00000000000E+00  0.48076959122E+02  0.48076959122E+02  0.00000000000E+00 0.  1.
          2   -1    0    0  501    0  0.00000000000E+00 -0.00000000000E+00 -0.27449687983E+03  0.27449687983E+03  0.00000000000E+00 0. -1.
         25    2    1    2    0    0  0.29772585675E+02 -0.22439013635E+02 -0.11932370835E+03  0.17684695107E+03  0.12508709181E+03 0.  0.
         23    2    1    2    0    0 -0.29772585675E+02  0.22439013635E+02 -0.10709621235E+03  0.14572688788E+03  0.91524919879E+02 0.  0.
          5    1    3    3  502    0  0.64026720187E+02 -0.48885057553E+02 -0.49644409720E+02  0.94716469351E+02  0.41800000000E+01 0.  1.
         -5    1    3    3    0  502 -0.34254134512E+02  0.26446043919E+02 -0.69679298631E+02  0.82130481722E+02  0.41800000000E+01 0.  1.
        -11    1    4    4    0    0  0.12593188126E+02  0.47453147429E+02 -0.45943613117E+02  0.67239907602E+02  0.00000000000E+00 0.  1.
         11    1    4    4    0    0 -0.42365773800E+02 -0.25014133794E+02 -0.61152599237E+02  0.78486980275E+02  0.00000000000E+00 0. -1.
</event>
<event>
 8    1  0.7130890E-009  0.1010600E+03  0.7561462E-02  0.1278083E+00
         -2   -1    0    0    0  501 -0.00000000000E+00  0.00000000000E+00  0.16289121716E+02  0.16289121716E+02  0.00000000000E+00 0.  1.
          2   -1    0    0  501    0  0.00000000000E+00 -0.00000000000E+00 -0.11692559964E+04  0.11692559964E+04  0.00000000000E+00 0. -1.
         25    2    1    2    0    0  0.78560601432E+02  0.12218569423E+01 -0.76295055787E+03  0.77711951630E+03  0.12509167768E+03 0.  0.
         23    2    1    2    0    0 -0.78560601432E+02 -0.12218569423E+01 -0.39001631677E+03  0.40842560177E+03  0.92333546488E+02 0.  0.
          5    1    3    3  502    0  0.32936241499E+01  0.43931831349E+01  0.29548696006E+01  0.75067751035E+01  0.41800000000E+01 0.  1.
         -5    1    3    3    0  502  0.75266977282E+02 -0.31713261926E+01 -0.76590542747E+03  0.76961274119E+03  0.41800000000E+01 0.  1.
        -11    1    4    4    0    0 -0.51009731793E+02  0.43635467134E+02 -0.18655951919E+03  0.19826875934E+03  0.00000000000E+00 0. -1.
         11    1    4    4    0    0 -0.27550869639E+02 -0.44857324077E+02 -0.20345679757E+03  0.21015684243E+03  0.00000000000E+00 0.  1.
</event>
<event>
 8    1  0.7130890E-009  0.1415866E+03  0.7561462E-02  0.1211210E+00
         -1   -1    0    0    0  501 -0.00000000000E+00  0.00000000000E+00  0.51803286073E+02  0.51803286073E+02  0.00000000000E+00 0.  1.
          1   -1    0    0  501    0  0.00000000000E+00 -0.00000000000E+00 -0.51529602632E+03  0.51529602632E+03  0.00000000000E+00 0. -1.
         25    2    1    2    0    0 -0.26805112121E+02  0.11189863698E+03 -0.31844786688E+03  0.36096637731E+03  0.12509141708E+03 0.  0.
         23    2    1    2    0    0  0.26805112121E+02 -0.11189863698E+03 -0.14504487336E+03  0.20613293509E+03  0.90625342176E+02 0.  0.
          5    1    3    3  502    0  0.23036989940E+02 -0.15846302362E+02 -0.28206895976E+02  0.39936319118E+02  0.41800000000E+01 0. -1.
         -5    1    3    3    0  502 -0.49842102062E+02  0.12774493935E+03 -0.29024097091E+03  0.32103005819E+03  0.41800000000E+01 0. -1.
        -11    1    4    4    0    0  0.11839428408E+02 -0.12583830491E+02  0.11056165723E+02  0.20512524353E+02  0.00000000000E+00 0.  1.
         11    1    4    4    0    0  0.14965683713E+02 -0.99314806493E+02 -0.15610103909E+03  0.18562041074E+03  0.00000000000E+00 0. -1.
</event>
<event>
 8    1  0.7130890E-009  0.9614888E+02  0.7561462E-02  0.1288609E+00
         -1   -1    0    0    0  501 -0.00000000000E+00  0.00000000000E+00  0.62251198793E+03  0.62251198793E+03  0.00000000000E+00 0.  1.
          1   -1    0    0  501    0  0.00000000000E+00 -0.00000000000E+00 -0.25443686706E+02  0.25443686706E+02  0.00000000000E+00 0. -1.
         25    2    1    2    0    0 -0.64288906680E+02 -0.15835527282E+01  0.34084844259E+03  0.36872851982E+03  0.12508992506E+03 0.  0.
         23    2    1    2    0    0  0.64288906680E+02  0.15835527282E+01  0.25621985863E+03  0.27922715481E+03  0.90463345436E+02 0.  0.
          5    1    3    3  502    0 -0.30988139269E+02 -0.33561025881E+02  0.30923385713E+03  0.31261743078E+03  0.41800000000E+01 0. -1.
         -5    1    3    3    0  502 -0.33300767411E+02  0.31977473153E+02  0.31614585467E+02  0.56111089044E+02  0.41800000000E+01 0. -1.
        -11    1    4    4    0    0 -0.70788922991E+01  0.24192672699E+02  0.13044580048E+03  0.13285895902E+03  0.00000000000E+00 0.  1.
         11    1    4    4    0    0  0.71367798979E+02 -0.22609119971E+02  0.12577405815E+03  0.14636819580E+03  0.00000000000E+00 0. -1.
</event>
<event>
 8    1  0.7130890E-009  0.5752574E+02  0.7561462E-02  0.1408518E+00
          1   -1    0    0  501    0  0.00000000000E+00  0.00000000000E+00  0.28334998791E+03  0.28334998791E+03  0.00000000000E+00 0. -1.
         -1   -1    0    0    0  501 -0.00000000000E+00 -0.00000000000E+00 -0.63009395317E+02  0.63009395317E+02  0.00000000000E+00 0.  1.
         25    2    1    2    0    0 -0.37234191713E+02 -0.32949548789E+01  0.21203629752E+03  0.24901230712E+03  0.12510194192E+03 0.  0.
         23    2    1    2    0    0  0.37234191713E+02  0.32949548789E+01  0.83042950757E+01  0.97347076109E+02  0.89500000839E+02 0.  0.
          5    1    3    3  502    0 -0.16223816899E+02 -0.17792412180E+02  0.22045857476E+03  0.22180901188E+03  0.41800000000E+01 0.  1.
         -5    1    3    3    0  502 -0.21010374814E+02  0.14497457301E+02 -0.84222772412E+01  0.27203295240E+02  0.41800000000E+01 0.  1.
        -11    1    4    4    0    0  0.41149168086E+02  0.21289644023E+02 -0.29757887574E+02  0.55063916040E+02  0.00000000000E+00 0.  1.
         11    1    4    4    0    0 -0.39149763730E+01 -0.17994689144E+02  0.38062182650E+02  0.42283160069E+02  0.00000000000E+00 0. -1.
</event>
<event>
 8    1  0.7130890E-009  0.1423559E+03  0.7561462E-02  0.1210194E+00
         -1   -1    0    0    0  501 -0.00000000000E+00  0.00000000000E+00  0.29695952447E+03  0.29695952447E+03  0.00000000000E+00 0.  1.
          1   -1    0    0  501    0  0.00000000000E+00 -0.00000000000E+00 -0.81716100459E+02  0.81716100459E+02  0.00000000000E+00 0. -1.
         25    2    1    2    0    0 -0.89192045837E+02  0.59259746836E+02  0.15159794044E+03  0.22382291328E+03  0.12509125599E+03 0.  0.
         23    2    1    2    0    0  0.89192045837E+02 -0.59259746836E+02  0.63645483566E+02  0.15485271165E+03  0.91987369199E+02 0.  0.
          5    1    3    3  502    0 -0.77689626643E+02 -0.23289476700E+02  0.75180079312E+02  0.11066885080E+03  0.41800000000E+01 0. -1.
         -5    1    3    3    0  502 -0.11502419194E+02  0.82549223536E+02  0.76417861133E+02  0.11315406247E+03  0.41800000000E+01 0. -1.
        -11    1    4    4    0    0  0.91674169830E+02 -0.38981715083E+02  0.13276936999E+02  0.10049877900E+03  0.00000000000E+00 0. -1.
         11    1    4    4    0    0 -0.24821239929E+01 -0.20278031754E+02  0.50368546568E+02  0.54353932651E+02  0.00000000000E+00 0.  1.
</event>
<event>
 8    1  0.7130890E-009  0.1054915E+03  0.7561462E-02  0.1269154E+00
          1   -1    0    0  501    0  0.00000000000E+00  0.00000000000E+00  0.38653502122E+03  0.38653502122E+03  0.00000000000E+00 0. -1.
         -1   -1    0    0    0  501 -0.00000000000E+00 -0.00000000000E+00 -0.53636582960E+02  0.53636582960E+02  0.00000000000E+00 0.  1.
         25    2    1    2    0    0  0.75243074705E+02 -0.44040859027E+02  0.24164102413E+03  0.28572636771E+03  0.12509218644E+03 0.  0.
         23    2    1    2    0    0 -0.75243074705E+02  0.44040859027E+02  0.91257414124E+02  0.15444523646E+03  0.89018525483E+02 0.  0.
          5    1    3    3  502    0  0.12509908683E+02 -0.18929736625E+02 -0.99938064520E+01  0.25143216011E+02  0.41800000000E+01 0.  1.
         -5    1    3    3    0  502  0.62733166022E+02 -0.25111122401E+02  0.25163483058E+03  0.26058315170E+03  0.41800000000E+01 0.  1.
        -11    1    4    4    0    0 -0.92555625208E+02  0.28232831846E+02  0.55103243680E+02  0.11135530529E+03  0.00000000000E+00 0.  1.
         11    1    4    4    0    0  0.17312550504E+02  0.15808027180E+02  0.36154170443E+02  0.43089931176E+02  0.00000000000E+00 0. -1.
</event>
<event>
 8    1  0.7130890E-009  0.1002277E+03  0.7561462E-02  0.1279818E+00
          1   -1    0    0  501    0  0.00000000000E+00  0.00000000000E+00  0.89701432506E+03  0.89701432506E+03  0.00000000000E+00 0. -1.
         -1   -1    0    0    0  501 -0.00000000000E+00 -0.00000000000E+00 -0.14889437948E+02  0.14889437948E+02  0.00000000000E+00 0.  1.
         25    2    1    2    0    0  0.31092863987E+02 -0.23733932302E+02  0.45290641044E+03  0.47149022034E+03  0.12509494604E+03 0.  0.
         23    2    1    2    0    0 -0.31092863987E+02  0.23733932302E+02  0.42921847667E+03  0.44041354267E+03  0.90584337036E+02 0.  0.
          5    1    3    3  502    0  0.61587623375E+02 -0.32528680552E+02  0.41934373478E+03  0.42510915153E+03  0.41800000000E+01 0. -1.
         -5    1    3    3    0  502 -0.30494759388E+02  0.87947482501E+01  0.33562675663E+02  0.46381068816E+02  0.41800000000E+01 0. -1.
        -11    1    4    4    0    0 -0.32369251099E+02 -0.30466920331E+02  0.19240504941E+03  0.19747330120E+03  0.00000000000E+00 0.  1.
         11    1    4    4    0    0  0.12763871113E+01  0.54200852632E+02  0.23681342727E+03  0.24294024147E+03  0.00000000000E+00 0. -1.
</event>
<event>
 8    1  0.7130890E-009  0.1143703E+03  0.7561462E-02  0.1252684E+00
         -1   -1    0    0    0  501 -0.00000000000E+00  0.00000000000E+00  0.62503100884E+02  0.62503100884E+02  0.00000000000E+00 0.  1.
          1   -1    0    0  501    0  0.00000000000E+00 -0.00000000000E+00 -0.27848292529E+03  0.27848292529E+03  0.00000000000E+00 0. -1.
         25    2    1    2    0    0 -0.28777941899E+02  0.64609748009E+02 -0.86040478975E+02  0.16749081375E+03  0.12509044405E+03 0.  0.
         23    2    1    2    0    0  0.28777941899E+02 -0.64609748009E+02 -0.12993934543E+03  0.17349521242E+03  0.90629828226E+02 0.  0.
          5    1    3    3  502    0  0.85500546266E+01 -0.32041497695E+02 -0.10901952080E+01  0.33442815884E+02  0.41800000000E+01 0.  1.
         -5    1    3    3    0  502 -0.37327996526E+02  0.96651245704E+02 -0.84950283767E+02  0.13404799787E+03  0.41800000000E+01 0.  1.
        -11    1    4    4    0    0  0.66470150653E+01  0.10993232042E+02  0.76490756433E+01  0.14951331653E+02  0.00000000000E+00 0.  1.
         11    1    4    4    0    0  0.22130926834E+02 -0.75602980051E+02 -0.13758842108E+03  0.15854388077E+03  0.00000000000E+00 0. -1.
</event>
<event>
 8    1  0.7130890E-009  0.1538036E+03  0.7561462E-02  0.1195876E+00
         -1   -1    0    0    0  501 -0.00000000000E+00  0.00000000000E+00  0.12189309134E+04  0.12189309134E+04  0.00000000000E+00 0.  1.
          1   -1    0    0  501    0  0.00000000000E+00 -0.00000000000E+00 -0.32372262417E+02  0.32372262417E+02  0.00000000000E+00 0. -1.
         25    2    1    2    0    0 -0.12865936548E+03  0.16879888156E+02  0.29731790652E+03  0.34768196066E+03  0.12508655115E+03 0.  0.
         23    2    1    2    0    0  0.12865936548E+03 -0.16879888156E+02  0.88924074441E+03  0.90362121511E+03  0.94572913245E+02 0.  0.
          5    1    3    3  502    0 -0.97902695235E+02 -0.18893208265E+02  0.87940501959E+02  0.13301464332E+03  0.41800000000E+01 0.  1.
         -5    1    3    3    0  502 -0.30756670249E+02  0.35773096421E+02  0.20937740456E+03  0.21466731734E+03  0.41800000000E+01 0.  1.
        -11    1    4    4    0    0  0.76344244482E+02 -0.56371763199E+02  0.54299081756E+03  0.55122159546E+03  0.00000000000E+00 0.  1.
         11    1    4    4    0    0  0.52315121002E+02  0.39491875043E+02  0.34624992686E+03  0.35239961965E+03  0.00000000000E+00 0. -1.
</event>
<event>
 8    1  0.7130890E-009  0.1538572E+03  0.7561462E-02  0.1195812E+00
         -1   -1    0    0    0  501 -0.00000000000E+00  0.00000000000E+00  0.31387553906E+02  0.31387553906E+02  0.00000000000E+00 0.  1.
          1   -1    0    0  501    0  0.00000000000E+00 -0.00000000000E+00 -0.16345664560E+04  0.16345664560E+04  0.00000000000E+00 0. -1.
         25    2    1    2    0    0  0.11903669122E+03  0.77934366762E+02 -0.13389121907E+04  0.13522488518E+04  0.12509038102E+03 0.  0.
         23    2    1    2    0    0 -0.11903669122E+03 -0.77934366762E+02 -0.26426671149E+03  0.31370515820E+03  0.91271748629E+02 0.  0.
          5    1    3    3  502    0  0.17859664017E+02  0.15804185788E+02 -0.80132010762E+03  0.80168580327E+03  0.41800000000E+01 0.  1.
         -5    1    3    3    0  502  0.10117702721E+03  0.62130180975E+02 -0.53759208303E+03  0.55056304849E+03  0.41800000000E+01 0.  1.
        -11    1    4    4    0    0 -0.62028439523E+02 -0.87129340371E+02 -0.13582568957E+03  0.17288049980E+03  0.00000000000E+00 0.  1.
         11    1    4    4    0    0 -0.57008251700E+02  0.91949736083E+01 -0.12844102192E+03  0.14082465840E+03  0.00000000000E+00 0. -1.
</event>
<event>
 8    1  0.7130890E-009  0.9806538E+02  0.7561462E-02  0.1284418E+00
          1   -1    0    0  501    0  0.00000000000E+00  0.00000000000E+00  0.46125442885E+03  0.46125442885E+03  0.00000000000E+00 0. -1.
         -1   -1    0    0    0  501 -0.00000000000E+00 -0.00000000000E+00 -0.36362216122E+02  0.36362216122E+02  0.00000000000E+00 0.  1.
         25    2    1    2    0    0  0.97574382037E+01 -0.49841676871E+02  0.14026157447E+03  0.19467914449E+03  0.12508900700E+03 0.  0.
         23    2    1    2    0    0 -0.97574382037E+01  0.49841676871E+02  0.28463063826E+03  0.30293750049E+03  0.90427477075E+02 0.  0.
          5    1    3    3  502    0  0.20883802262E+02  0.21659684756E+02  0.11336972686E+03  0.11736883107E+03  0.41800000000E+01 0.  1.
         -5    1    3    3    0  502 -0.11126364058E+02 -0.71501361628E+02  0.26891847611E+02  0.77310313411E+02  0.41800000000E+01 0.  1.
        -11    1    4    4    0    0 -0.43435296584E+02  0.18311344727E+02  0.77319610975E+02  0.90555245990E+02  0.00000000000E+00 0. -1.
         11    1    4    4    0    0  0.33677858380E+02  0.31530332144E+02  0.20731102729E+03  0.21238225450E+03  0.00000000000E+00 0.  1.
</event>
<event>
 8    1  0.7130890E-009  0.2158704E+03  0.7561462E-02  0.1137000E+00
          3   -1    0    0  501    0  0.00000000000E+00  0.00000000000E+00  0.14512455413E+03  0.14512455413E+03  0.00000000000E+00 0. -1.
         -3   -1    0    0    0  501 -0.00000000000E+00 -0.00000000000E+00 -0.37028587235E+03  0.37028587235E+03  0.00000000000E+00 0.  1.
         25    2    1    2    0    0  0.18052921881E+02 -0.19105955231E+03 -0.37492564443E+02  0.23212587850E+03  0.12508825110E+03 0.  0.
         23    2    1    2    0    0 -0.18052921881E+02  0.19105955231E+03 -0.18766875377E+03  0.28328454798E+03  0.90558894981E+02 0.  0.
          5    1    3    3  502    0  0.23195274848E+02  0.53273633344E+01  0.15374012884E+02  0.28639731974E+02  0.41800000000E+01 0. -1.
         -5    1    3    3    0  502 -0.51423529669E+01 -0.19638691565E+03 -0.52866577327E+02  0.20348614653E+03  0.41800000000E+01 0. -1.
        -11    1    4    4    0    0  0.31075279035E+02  0.32004110085E+02 -0.28307201838E+02  0.52832127586E+02  0.00000000000E+00 0.  1.
         11    1    4    4    0    0 -0.49128200916E+02  0.15905544223E+03 -0.15936155194E+03  0.23045242039E+03  0.00000000000E+00 0. -1.
</event>
<event>
 8    1  0.7130890E-009  0.1116984E+03  0.7561462E-02  0.1257457E+00
          2   -1    0    0  501    0  0.00000000000E+00  0.00000000000E+00  0.16516671790E+03  0.16516671790E+03  0.00000000000E+00 0.  1.
         -2   -1    0    0    0  501 -0.00000000000E+00 -0.00000000000E+00 -0.10702308875E+03  0.10702308875E+03  0.00000000000E+00 0. -1.
         25    2    1    2    0    0 -0.28884474880E+02 -0.63949802914E+02  0.18063508275E+02  0.14456147618E+03  0.12509132616E+03 0.  0.
         23    2    1    2    0    0  0.28884474880E+02  0.63949802914E+02  0.40080120879E+02  0.12762833047E+03  0.98786054009E+02 0.  0.
          5    1    3    3  502    0 -0.59067445850E+02 -0.30084348136E+02 -0.34630488575E+02  0.74905101969E+02  0.41800000000E+01 0. -1.
         -5    1    3    3    0  502  0.30182970970E+02 -0.33865454778E+02  0.52693996850E+02  0.69656374209E+02  0.41800000000E+01 0. -1.
        -11    1    4    4    0    0  0.84457874928E+01  0.83031487642E+02  0.50774492107E+02  0.97691393249E+02  0.00000000000E+00 0.  1.
         11    1    4    4    0    0  0.20438687387E+02 -0.19081684727E+02 -0.10694371227E+02  0.29936937220E+02  0.00000000000E+00 0. -1.
</event>
<event>
 8    1  0.7130890E-009  0.1353649E+03  0.7561462E-02  0.1219706E+00
         -1   -1    0    0    0  501 -0.00000000000E+00  0.00000000000E+00  0.42938597846E+02  0.42938597846E+02  0.00000000000E+00 0.  1.
          1   -1    0    0  501    0  0.00000000000E+00 -0.00000000000E+00 -0.50793604730E+03  0.50793604730E+03  0.00000000000E+00 0. -1.
         25    2    1    2    0    0 -0.91883109689E+01  0.96066973044E+02 -0.29540083235E+03  0.33499628367E+03  0.12509024722E+03 0.  0.
         23    2    1    2    0    0  0.91883109689E+01 -0.96066973044E+02 -0.16959661710E+03  0.21587836148E+03  0.92342655654E+02 0.  0.
          5    1    3    3  502    0 -0.46861722602E+02  0.10369565780E+03 -0.17720310322E+03  0.21063528356E+03  0.41800000000E+01 0.  1.
         -5    1    3    3    0  502  0.37673411633E+02 -0.76286847553E+01 -0.11819772913E+03  0.12436100010E+03  0.41800000000E+01 0.  1.
        -11    1    4    4    0    0  0.29953890593E+02 -0.92367482118E+02 -0.16884091411E+03  0.19477228138E+03  0.00000000000E+00 0. -1.
         11    1    4    4    0    0 -0.20765579624E+02 -0.36994909258E+01 -0.75570299154E+00  0.21106080101E+02  0.00000000000E+00 0.  1.
</event>
<event>
 8    1  0.7130890E-009  0.1559700E+03  0.7561462E-02  0.1193323E+00
         -2   -1    0    0    0  501 -0.00000000000E+00  0.00000000000E+00  0.21063705030E+03  0.21063705030E+03  0.00000000000E+00 0.  1.
          2   -1    0    0  501    0  0.00000000000E+00 -0.00000000000E+00 -0.16387948935E+03  0.16387948935E+03  0.00000000000E+00 0. -1.
         25    2    1    2    0    0  0.99689944677E+02  0.11177852834E+03  0.37373830012E+02  0.19868844285E+03  0.12509104558E+03 0.  0.
         23    2    1    2    0    0 -0.99689944677E+02 -0.11177852834E+03  0.93837309403E+01  0.17582809680E+03  0.91623909266E+02 0.  0.
          5    1    3    3  502    0  0.87710386892E+02  0.11030012027E+03 -0.17755666185E+02  0.14209843272E+03  0.41800000000E+01 0.  1.
         -5    1    3    3    0  502  0.11979557785E+02  0.14784080650E+01  0.55129496196E+02  0.56590010125E+02  0.41800000000E+01 0.  1.
        -11    1    4    4    0    0 -0.39502589594E+02 -0.11353913415E+02 -0.31533331196E+02  0.51804603182E+02  0.00000000000E+00 0. -1.
         11    1    4    4    0    0 -0.60187355083E+02 -0.10042461492E+03  0.40917062137E+02  0.12402349361E+03  0.00000000000E+00 0.  1.
</event>
<event>
 8    1  0.7130890E-009  0.1195241E+03  0.7561462E-02  0.1243884E+00
         -1   -1    0    0    0  501 -0.00000000000E+00  0.00000000000E+00  0.18437243604E+03  0.18437243604E+03  0.00000000000E+00 0.  1.
          1   -1    0    0  501    0  0.00000000000E+00 -0.00000000000E+00 -0.10038553804E+03  0.10038553804E+03  0.00000000000E+00 0. -1.
         25    2    1    2    0    0 -0.89462000156E+01  0.79446449032E+02  0.74409662163E+02  0.16606137415E+03  0.12509120434E+03 0.  0.
         23    2    1    2    0    0  0.89462000156E+01 -0.79446449032E+02  0.95772358303E+01  0.11869659993E+03  0.87208867841E+02 0.  0.
          5    1    3    3  502    0  0.12048591742E+02  0.10972699087E+03  0.63455521671E+02  0.12739410002E+03  0.41800000000E+01 0. -1.
         -5    1    3    3    0  502 -0.20994791758E+02 -0.30280541841E+02  0.10954140492E+02  0.38667274135E+02  0.41800000000E+01 0. -1.
        -11    1    4    4    0    0 -0.17074744421E+02 -0.46373905599E+02 -0.32532144639E+02  0.59164401902E+02  0.00000000000E+00 0. -1.
         11    1    4    4    0    0  0.26020944436E+02 -0.33072543432E+02  0.42109380470E+02  0.59532198027E+02  0.00000000000E+00 0.  1.
</event>
<event>
 8    1  0.7130890E-009  0.9779574E+02  0.7561462E-02  0.1285001E+00
         -2   -1    0    0    0  501 -0.00000000000E+00  0.00000000000E+00  0.91892971409E+02  0.91892971409E+02  0.00000000000E+00 0.  1.
          2   -1    0    0  501    0  0.00000000000E+00 -0.00000000000E+00 -0.16078738609E+03  0.16078738609E+03  0.00000000000E+00 0. -1.
         25    2    1    2    0    0 -0.20839355284E+02 -0.41399811297E+02 -0.13111517663E+02  0.13404302520E+03  0.12508955834E+03 0.  0.
         23    2    1    2    0    0  0.20839355284E+02  0.41399811297E+02 -0.55782897017E+02  0.11863733229E+03  0.93887496027E+02 0.  0.
          5    1    3    3  502    0 -0.64924805858E+02 -0.18109229688E+02 -0.38710133865E+02  0.77840358937E+02  0.41800000000E+01 0. -1.
         -5    1    3    3    0  502  0.44085450574E+02 -0.23290581609E+02  0.25598616202E+02  0.56202666266E+02  0.41800000000E+01 0. -1.
        -11    1    4    4    0    0  0.42704188938E+02  0.19058111456E+02 -0.70089995034E+02  0.84258333528E+02  0.00000000000E+00 0. -1.
         11    1    4    4    0    0 -0.21864833654E+02  0.22341699841E+02  0.14307098017E+02  0.34378998766E+02  0.00000000000E+00 0.  1.
</event>
<event>
 8    1  0.7130890E-009  0.1448869E+03  0.7561462E-02  0.1206900E+00
         -1   -1    0    0    0  501 -0.00000000000E+00  0.00000000000E+00  0.11683378785E+03  0.11683378785E+03  0.00000000000E+00 0.  1.
          1   -1    0    0  501    0  0.00000000000E+00 -0.00000000000E+00 -0.24886716928E+03  0.24886716928E+03  0.00000000000E+00 0. -1.
         25    2    1    2    0    0 -0.12045507659E+03  0.84677447104E+01 -0.12884594076E+03  0.21640260489E+03  0.12509069820E+03 0.  0.
         23    2    1    2    0    0  0.12045507659E+03 -0.84677447104E+01 -0.31874406662E+01  0.14929835224E+03  0.87742293260E+02 0.  0.
          5    1    3    3  502    0 -0.10787958176E+03 -0.39426712261E+02 -0.55058979623E+02  0.12744188259E+03  0.41800000000E+01 0.  1.
         -5    1    3    3    0  502 -0.12575494834E+02  0.47894456972E+02 -0.73786961134E+02  0.88960722301E+02  0.41800000000E+01 0.  1.
        -11    1    4    4    0    0  0.10612218437E+03  0.39292605678E+01 -0.35387454173E+02  0.11193582544E+03  0.00000000000E+00 0. -1.
         11    1    4    4    0    0  0.14332892228E+02 -0.12397005278E+02  0.32200013507E+02  0.37362526807E+02  0.00000000000E+00 0.  1.
</event>
<event>
 8    1  0.7130890E-009  0.1309950E+03  0.7561462E-02  0.1225987E+00
          1   -1    0    0  501    0  0.00000000000E+00  0.00000000000E+00  0.40559922917E+03  0.40559922917E+03  0.00000000000E+00 0. -1.
         -1   -1    0    0    0  501 -0.00000000000E+00 -0.00000000000E+00 -0.62097330684E+02  0.62097330684E+02  0.00000000000E+00 0.  1.
         25    2    1    2    0    0  0.36896500298E+02 -0.97400895921E+02  0.25783788651E+03  0.30492776592E+03  0.12510907420E+03 0.  0.
         23    2    1    2    0    0 -0.36896500298E+02  0.97400895921E+02  0.85664011973E+02  0.16276879393E+03  0.91143135074E+02 0.  0.
          5    1    3    3  502    0 -0.29398536897E+02 -0.75034112807E+02  0.19403395428E+03  0.21014528277E+03  0.41800000000E+01 0.  1.
         -5    1    3    3    0  502  0.66295037195E+02 -0.22366783114E+02  0.63803932227E+02  0.94782483145E+02  0.41800000000E+01 0.  1.
        -11    1    4    4    0    0  0.38335921550E+01  0.43373256274E+02 -0.10875378630E+02  0.44879947069E+02  0.00000000000E+00 0.  1.
         11    1    4    4    0    0 -0.40730092453E+02  0.54027639647E+02  0.96539390604E+02  0.11788884687E+03  0.00000000000E+00 0. -1.
</event>
<event>
 8    1  0.7130890E-009  0.2285856E+03  0.7561462E-02  0.1127639E+00
          1   -1    0    0  501    0  0.00000000000E+00  0.00000000000E+00  0.34269333127E+03  0.34269333127E+03  0.00000000000E+00 0. -1.
         -1   -1    0    0    0  501 -0.00000000000E+00 -0.00000000000E+00 -0.27421869050E+03  0.27421869050E+03  0.00000000000E+00 0.  1.
         25    2    1    2    0    0 -0.50830474768E+02  0.20745557476E+03  0.22698314381E+03  0.33584249289E+03  0.12508908744E+03 0.  0.
         23    2    1    2    0    0  0.50830474768E+02 -0.20745557476E+03 -0.15850850303E+03  0.28106952888E+03  0.90849225998E+02 0.  0.
          5    1    3    3  502    0 -0.15018421810E+02 -0.71140952553E+00  0.72396124019E+02  0.74058964819E+02  0.41800000000E+01 0. -1.
         -5    1    3    3    0  502 -0.35812052958E+02  0.20816698429E+03  0.15458701979E+03  0.26178352808E+03  0.41800000000E+01 0. -1.
        -11    1    4    4    0    0  0.70383328581E+02 -0.10779278767E+03 -0.71060146708E+02  0.14704639563E+03  0.00000000000E+00 0.  1.
         11    1    4    4    0    0 -0.19552853812E+02 -0.99662787087E+02 -0.87448356324E+02  0.13402313325E+03  0.00000000000E+00 0. -1.
</event>
<event>
 8    1  0.7130890E-009  0.1031612E+03  0.7561462E-02  0.1273785E+00
          3   -1    0    0  501    0  0.00000000000E+00  0.00000000000E+00  0.26932737297E+03  0.26932737297E+03  0.00000000000E+00 0. -1.
         -3   -1    0    0    0  501 -0.00000000000E+00 -0.00000000000E+00 -0.48169080491E+02  0.48169080491E+02  0.00000000000E+00 0.  1.
         25    2    1    2    0    0 -0.25586185576E+02 -0.12103395758E+02  0.10135215355E+03  0.16345549398E+03  0.12507715379E+03 0.  0.
         23    2    1    2    0    0  0.25586185576E+02  0.12103395758E+02  0.11980613893E+03  0.15404095949E+03  0.92595686687E+02 0.  0.
          5    1    3    3  502    0  0.42807251558E+02  0.15156206293E+02  0.11152275384E+02  0.46946959661E+02  0.41800000000E+01 0.  1.
         -5    1    3    3    0  502 -0.68393437134E+02 -0.27259602051E+02  0.90199878167E+02  0.11650853432E+03  0.41800000000E+01 0.  1.
        -11    1    4    4    0    0 -0.21866288136E+02 -0.20040273571E+02  0.12098301272E+02  0.32033045677E+02  0.00000000000E+00 0.  1.
         11    1    4    4    0    0  0.47452473713E+02  0.32143669328E+02  0.10770783766E+03  0.12200791381E+03  0.00000000000E+00 0. -1.
</event>
<event>
 8    1  0.7130890E-009  0.1392626E+03  0.7561462E-02  0.1214325E+00
          1   -1    0    0  501    0  0.00000000000E+00  0.00000000000E+00  0.10030218618E+03  0.10030218618E+03  0.00000000000E+00 0. -1.
         -1   -1    0    0    0  501 -0.00000000000E+00 -0.00000000000E+00 -0.23060202177E+03  0.23060202177E+03  0.00000000000E+00 0.  1.
         25    2    1    2    0    0 -0.93650396899E+02 -0.38892793260E+02 -0.37384405920E+02  0.16531221322E+03  0.12508991897E+03 0.  0.
         23    2    1    2    0    0  0.93650396899E+02  0.38892793260E+02 -0.92915429669E+02  0.16559199472E+03  0.92219224889E+02 0.  0.
          5    1    3    3  502    0  0.21095867551E+02 -0.58166860833E+01  0.22492147703E+02  0.31658151763E+02  0.41800000000E+01 0.  1.
         -5    1    3    3    0  502 -0.11474626445E+03 -0.33076107177E+02 -0.59876553622E+02  0.13365406146E+03  0.41800000000E+01 0.  1.
        -11    1    4    4    0    0  0.35907301030E+02  0.64317883453E+02 -0.55600642725E+02  0.92290605538E+02  0.00000000000E+00 0.  1.
         11    1    4    4    0    0  0.57743095870E+02 -0.25425090193E+02 -0.37314786944E+02  0.73301389186E+02  0.00000000000E+00 0. -1.
</event>
<event>
 8    1  0.7130890E-009  0.2373765E+03  0.7561462E-02  0.1121553E+00
         -1   -1    0    0    0  501 -0.00000000000E+00  0.00000000000E+00  0.51083477747E+02  0.51083477747E+02  0.00000000000E+00 0.  1.
          1   -1    0    0  501    0  0.00000000000E+00 -0.00000000000E+00 -0.13283801231E+04  0.13283801231E+04  0.00000000000E+00 0. -1.
         25    2    1    2    0    0 -0.11939672559E+03  0.19955187979E+03 -0.54001320245E+03  0.60111412440E+03  0.12508957159E+03 0.  0.
         23    2    1    2    0    0  0.11939672559E+03 -0.19955187979E+03 -0.73728344292E+03  0.77834947647E+03  0.90357631115E+02 0.  0.
          5    1    3    3  502    0 -0.11590788054E+03  0.17297868918E+03 -0.53421590336E+03  0.57337628787E+03  0.41800000000E+01 0. -1.
         -5    1    3    3    0  502 -0.34888450476E+01  0.26573190609E+02 -0.57972990924E+01  0.27737836536E+02  0.41800000000E+01 0. -1.
        -11    1    4    4    0    0 -0.53912937931E+01 -0.19952790152E+02 -0.21170117180E+02  0.29586377693E+02  0.00000000000E+00 0.  1.
         11    1    4    4    0    0  0.12478801938E+03 -0.17959908964E+03 -0.71611332574E+03  0.74876309878E+03  0.00000000000E+00 0. -1.
</event>
<event>
 8    1  0.7130890E-009  0.1212575E+03  0.7561462E-02  0.1241037E+00
          1   -1    0    0  501    0  0.00000000000E+00  0.00000000000E+00  0.34706323566E+03  0.34706323566E+03  0.00000000000E+00 0. -1.
         -1   -1    0    0    0  501 -0.00000000000E+00 -0.00000000000E+00 -0.56195431488E+02  0.56195431488E+02  0.00000000000E+00 0.  1.
         25    2    1    2    0    0 -0.62889053210E+02 -0.58257555624E+02  0.17636150515E+03  0.23259349918E+03  0.12508948622E+03 0.  0.
         23    2    1    2    0    0  0.62889053210E+02  0.58257555624E+02  0.11450629903E+03  0.17066516797E+03  0.93090983667E+02 0.  0.
          5    1    3    3  502    0 -0.39154936048E+01 -0.83255899448E+02  0.72755410793E+02  0.11071448904E+03  0.41800000000E+01 0.  1.
         -5    1    3    3    0  502 -0.58973559606E+02  0.24998343823E+02  0.10360609435E+03  0.12187901014E+03  0.41800000000E+01 0.  1.
        -11    1    4    4    0    0  0.22440843647E+02  0.48237834561E+02  0.11740172948E+03  0.12889393403E+03  0.00000000000E+00 0. -1.
         11    1    4    4    0    0  0.40448209563E+02  0.10019721063E+02 -0.28954304483E+01  0.41771233936E+02  0.00000000000E+00 0.  1.
</event>
<event>
 8    1  0.7130890E-009  0.2124633E+03  0.7561462E-02  0.1139630E+00
         -2   -1    0    0    0  501 -0.00000000000E+00  0.00000000000E+00  0.99265980589E+02  0.99265980589E+02  0.00000000000E+00 0.  1.
          2   -1    0    0  501    0  0.00000000000E+00 -0.00000000000E+00 -0.54147512350E+03  0.54147512350E+03  0.00000000000E+00 0. -1.
         25    2    1    2    0    0  0.22207024939E+02 -0.20077479255E+03 -0.17580975826E+03  0.29556811275E+03  0.12509104242E+03 0.  0.
         23    2    1    2    0    0 -0.22207024939E+02  0.20077479255E+03 -0.26639938466E+03  0.34517299135E+03  0.85860890567E+02 0.  0.
          5    1    3    3  502    0  0.31481301757E+02 -0.18057737206E+03 -0.19371379337E+03  0.26672413802E+03  0.41800000000E+01 0. -1.
         -5    1    3    3    0  502 -0.92742768175E+01 -0.20197420493E+02  0.17904035111E+02  0.28843974732E+02  0.41800000000E+01 0. -1.
        -11    1    4    4    0    0 -0.50123042405E+02  0.17079918872E+03 -0.22549596879E+03  0.28728577094E+03  0.00000000000E+00 0.  1.
         11    1    4    4    0    0  0.27916017466E+02  0.29975603829E+02 -0.40903415871E+02  0.57887220403E+02  0.00000000000E+00 0. -1.
</event>
<event>
 8    1  0.7130890E-009  0.1225712E+03  0.7561462E-02  0.1238915E+00
          1   -1    0    0  501    0  0.00000000000E+00  0.00000000000E+00  0.11890914335E+03  0.11890914335E+03  0.00000000000E+00 0. -1.
         -1   -1    0    0    0  501 -0.00000000000E+00 -0.00000000000E+00 -0.14167073754E+03  0.14167073754E+03  0.00000000000E+00 0.  1.
         25    2    1    2    0    0  0.38924564160E+02  0.57696402437E+02 -0.34971332253E+02  0.14735817542E+03  0.12508973273E+03 0.  0.
         23    2    1    2    0    0 -0.38924564160E+02 -0.57696402437E+02  0.12209738067E+02  0.11322170546E+03  0.88465136271E+02 0.  0.
          5    1    3    3  502    0  0.13013422111E+02  0.91344384244E+02 -0.27898979861E+00  0.92361766567E+02  0.41800000000E+01 0.  1.
         -5    1    3    3    0  502  0.25911142049E+02 -0.33647981808E+02 -0.34692342455E+02  0.54996408855E+02  0.41800000000E+01 0.  1.
        -11    1    4    4    0    0 -0.60443845882E+02 -0.14973417088E+02  0.18530162843E+02  0.64969444043E+02  0.00000000000E+00 0. -1.
         11    1    4    4    0    0  0.21519281722E+02 -0.42722985348E+02 -0.63204247760E+01  0.48252261421E+02  0.00000000000E+00 0.  1.
</event>
<event>
 8    1  0.7130890E-009  0.2159158E+03  0.7561462E-02  0.1136965E+00
         -2   -1    0    0    0  501 -0.00000000000E+00  0.00000000000E+00  0.30475706823E+02  0.30475706823E+02  0.00000000000E+00 0.  1.
          2   -1    0    0  501    0  0.00000000000E+00 -0.00000000000E+00 -0.16672367504E+04  0.16672367504E+04  0.00000000000E+00 0. -1.
         25    2    1    2    0    0  0.69795920057E+01 -0.19098740453E+03 -0.10380245384E+04  0.10628578410E+04  0.12508774681E+03 0.  0.
         23    2    1    2    0    0 -0.69795920057E+01  0.19098740453E+03 -0.59873650518E+03  0.63485461625E+03  0.89610701087E+02 0.  0.
          5    1    3    3  502    0 -0.50692499147E+02 -0.12776151217E+03 -0.74409176112E+03  0.75669198147E+03  0.41800000000E+01 0. -1.
         -5    1    3    3    0  502  0.57672091152E+02 -0.63225892358E+02 -0.29393277730E+03  0.30616585951E+03  0.41800000000E+01 0. -1.
        -11    1    4    4    0    0 -0.35893041929E+02  0.16773925499E+03 -0.45069993946E+03  0.48223977807E+03  0.00000000000E+00 0.  1.
         11    1    4    4    0    0  0.28913449923E+02  0.23248149539E+02 -0.14803656572E+03  0.15261483819E+03  0.00000000000E+00 0. -1.
</event>
<event>
 8    1  0.7130890E-009  0.2051559E+03  0.7561462E-02  0.1145460E+00
         -2   -1    0    0    0  501 -0.00000000000E+00  0.00000000000E+00  0.67512915693E+02  0.67512915693E+02  0.00000000000E+00 0.  1.
          2   -1    0    0  501    0  0.00000000000E+00 -0.00000000000E+00 -0.74504085327E+03  0.74504085327E+03  0.00000000000E+00 0. -1.
         25    2    1    2    0    0  0.58254141944E+02 -0.18655918043E+03 -0.36251769962E+03  0.43042411310E+03  0.12509181324E+03 0.  0.
         23    2    1    2    0    0 -0.58254141944E+02  0.18655918043E+03 -0.31501023795E+03  0.38212965586E+03  0.92702486578E+02 0.  0.
          5    1    3    3  502    0  0.42615691158E+02 -0.95345338673E+02 -0.30248670544E+03  0.32003517011E+03  0.41800000000E+01 0.  1.
         -5    1    3    3    0  502  0.15638450786E+02 -0.91213841758E+02 -0.60030994180E+02  0.11038894299E+03  0.41800000000E+01 0.  1.
        -11    1    4    4    0    0 -0.66032851499E+02  0.69616099368E+02 -0.10987450115E+03  0.14587372886E+03  0.00000000000E+00 0.  1.
         11    1    4    4    0    0  0.77787095548E+01  0.11694308106E+03 -0.20513573680E+03  0.23625592700E+03  0.00000000000E+00 0. -1.
</event>
<event>
 8    1  0.7130890E-009  0.1245888E+03  0.7561462E-02  0.1235713E+00
         -2   -1    0    0    0  501 -0.00000000000E+00  0.00000000000E+00  0.30717741693E+02  0.30717741693E+02  0.00000000000E+00 0. -1.
          2   -1    0    0  501    0  0.00000000000E+00 -0.00000000000E+00 -0.55394711632E+03  0.55394711632E+03  0.00000000000E+00 0.  1.
         25    2    1    2    0    0  0.27607128360E+00 -0.61600193634E+02 -0.20608042721E+03  0.24882130187E+03  0.12509291632E+03 0.  0.
         23    2    1    2    0    0 -0.27607128360E+00  0.61600193634E+02 -0.31714894742E+03  0.33584355615E+03  0.91721204119E+02 0.  0.
          5    1    3    3  502    0  0.52281858195E+02 -0.68395813924E+02 -0.13923044370E+03  0.16374971423E+03  0.41800000000E+01 0.  1.
         -5    1    3    3    0  502 -0.52005786911E+02  0.67956202902E+01 -0.66849983514E+02  0.85071587638E+02  0.41800000000E+01 0.  1.
        -11    1    4    4    0    0  0.41681877220E+02  0.53196308974E+02 -0.20157234852E+03  0.21259971276E+03  0.00000000000E+00 0.  1.
         11    1    4    4    0    0 -0.41957948504E+02  0.84038846593E+01 -0.11557659890E+03  0.12324384339E+03  0.00000000000E+00 0. -1.
</event>
<event>
 8    1  0.7130890E-009  0.1399788E+03  0.7561462E-02  0.1213358E+00
          2   -1    0    0  501    0  0.00000000000E+00  0.00000000000E+00  0.11552926374E+04  0.11552926374E+04  0.00000000000E+00 0.  1.
         -2   -1    0    0    0  501 -0.00000000000E+00 -0.00000000000E+00 -0.23012228723E+02  0.23012228723E+02  0.00000000000E+00 0. -1.
         25    2    1    2    0    0  0.83792648131E+02  0.87116027411E+02  0.65919134387E+03  0.68175586052E+03  0.12508962954E+03 0.  0.
         23    2    1    2    0    0 -0.83792648131E+02 -0.87116027411E+02  0.47308906483E+03  0.49654900562E+03  0.90206660549E+02 0.  0.
          5    1    3    3  502    0  0.93135765384E+02  0.29690618333E+02  0.25062730442E+03  0.26904892071E+03  0.41800000000E+01 0.  1.
         -5    1    3    3    0  502 -0.93431172525E+01  0.57425409077E+02  0.40856403944E+03  0.41270693982E+03  0.41800000000E+01 0.  1.
        -11    1    4    4    0    0 -0.17281598782E+01 -0.13280599410E+02  0.30694081278E+01  0.13739800709E+02  0.00000000000E+00 0. -1.
         11    1    4    4    0    0 -0.82064488253E+02 -0.73835428000E+02  0.47001965670E+03  0.48280920491E+03  0.00000000000E+00 0.  1.
</event>
<event>
 8    1  0.7130890E-009  0.7981181E+02  0.7561462E-02  0.1329586E+00
          1   -1    0    0  501    0  0.00000000000E+00  0.00000000000E+00  0.55143010631E+03  0.55143010631E+03  0.00000000000E+00 0. -1.
         -1   -1    0    0    0  501 -0.00000000000E+00 -0.00000000000E+00 -0.22288812668E+02  0.22288812668E+02  0.00000000000E+00 0.  1.
         25    2    1    2    0    0  0.70473871643E+01 -0.92096877771E+01  0.31512310353E+03  0.33924071715E+03  0.12508880758E+03 0.  0.
         23    2    1    2    0    0 -0.70473871643E+01  0.92096877771E+01  0.21401819011E+03  0.23447820183E+03  0.95088156036E+02 0.  0.
          5    1    3    3  502    0 -0.35708390822E+02 -0.23378359539E+01  0.28268852287E+03  0.28497513579E+03  0.41800000000E+01 0.  1.
         -5    1    3    3    0  502  0.42755777986E+02 -0.68718518233E+01  0.32434580659E+02  0.54265581368E+02  0.41800000000E+01 0.  1.
        -11    1    4    4    0    0  0.24134953944E+02 -0.24346499484E+02  0.16009642467E+03  0.16372572562E+03  0.00000000000E+00 0. -1.
         11    1    4    4    0    0 -0.31182341108E+02  0.33556187261E+02  0.53921765443E+02  0.70752476203E+02  0.00000000000E+00 0.  1.
</event>
<event>
 8    1  0.7130890E-009  0.1316030E+03  0.7561462E-02  0.1225096E+00
         -1   -1    0    0    0  501 -0.00000000000E+00  0.00000000000E+00  0.10222121481E+03  0.10222121481E+03  0.00000000000E+00 0.  1.
          1   -1    0    0  501    0  0.00000000000E+00 -0.00000000000E+00 -0.42135573799E+03  0.42135573799E+03  0.00000000000E+00 0. -1.
         25    2    1    2    0    0  0.71317979620E+02 -0.43335748152E+02  0.29931012439E+02  0.15332228855E+03  0.12509043679E+03 0.  0.
         23    2    1    2    0    0 -0.71317979620E+02  0.43335748152E+02 -0.34906553562E+03  0.37025466426E+03  0.90980915378E+02 0.  0.
          5    1    3    3  502    0  0.10665882681E+03 -0.28601043793E+02  0.13069613211E+02  0.11127628783E+03  0.41800000000E+01 0. -1.
         -5    1    3    3    0  502 -0.35340847193E+02 -0.14734704359E+02  0.16861399228E+02  0.42046000723E+02  0.41800000000E+01 0. -1.
        -11    1    4    4    0    0 -0.43110505707E+02  0.65427806955E+02 -0.16404338879E+03  0.18179534381E+03  0.00000000000E+00 0.  1.
         11    1    4    4    0    0 -0.28207473913E+02 -0.22092058803E+02 -0.18502214683E+03  0.18845932045E+03  0.00000000000E+00 0. -1.
</event>
<event>
 8    1  0.7130890E-009  0.1136269E+03  0.7561462E-02  0.1253997E+00
         -1   -1    0    0    0  501 -0.00000000000E+00  0.00000000000E+00  0.35862040526E+03  0.35862040526E+03  0.00000000000E+00 0.  1.
          1   -1    0    0  501    0  0.00000000000E+00 -0.00000000000E+00 -0.73369605645E+02  0.73369605645E+02  0.00000000000E+00 0. -1.
         25    2    1    2    0    0 -0.15807110582E+02 -0.86213346754E+02  0.43588532618E+02  0.15884075217E+03  0.12509124058E+03 0.  0.
         23    2    1    2    0    0  0.15807110582E+02  0.86213346754E+02  0.24166226700E+03  0.27314925874E+03  0.92343166269E+02 0.  0.
          5    1    3    3  502    0  0.13208412889E+02 -0.69358181115E+02  0.81585797912E+02  0.10797561891E+03  0.41800000000E+01 0. -1.
         -5    1    3    3    0  502 -0.29015523471E+02 -0.16855165639E+02 -0.37997265294E+02  0.50865133253E+02  0.41800000000E+01 0. -1.
        -11    1    4    4    0    0 -0.35735469711E+02  0.33398144656E+02  0.62361783006E+02  0.79255610790E+02  0.00000000000E+00 0.  1.
         11    1    4    4    0    0  0.51542580293E+02  0.52815202097E+02  0.17930048400E+03  0.19389364795E+03  0.00000000000E+00 0. -1.
</event>
<event>
 8    1  0.7130890E-009  0.9762912E+02  0.7561462E-02  0.1285362E+00
          3   -1    0    0  501    0  0.00000000000E+00  0.00000000000E+00  0.18161979150E+03  0.18161979150E+03  0.00000000000E+00 0. -1.
         -3   -1    0    0    0  501 -0.00000000000E+00 -0.00000000000E+00 -0.95575770582E+02  0.95575770582E+02  0.00000000000E+00 0.  1.
         25    2    1    2    0    0 -0.56225072888E+02  0.47422936553E+02  0.54874678157E+02  0.15513798168E+03  0.12508544810E+03 0.  0.
         23    2    1    2    0    0  0.56225072888E+02 -0.47422936553E+02  0.31169342762E+02  0.12205758040E+03  0.92283970830E+02 0.  0.
          5    1    3    3  502    0 -0.56998704647E+02  0.68419833658E+01 -0.27061736983E+02  0.63604049213E+02  0.41800000000E+01 0. -1.
         -5    1    3    3    0  502  0.77363175933E+00  0.40580953187E+02  0.81936415139E+02  0.91533932471E+02  0.41800000000E+01 0. -1.
        -11    1    4    4    0    0 -0.12586589783E+02 -0.18216862524E+02  0.41063113517E+02  0.46652498479E+02  0.00000000000E+00 0. -1.
         11    1    4    4    0    0  0.68811662671E+02 -0.29206074029E+02 -0.98937707546E+01  0.75405081921E+02  0.00000000000E+00 0.  1.
</event>
<event>
 8    1  0.7130890E-009  0.9748048E+02  0.7561462E-02  0.1285685E+00
          2   -1    0    0  501    0  0.00000000000E+00  0.00000000000E+00  0.64200643862E+02  0.64200643862E+02  0.00000000000E+00 0. -1.
         -2   -1    0    0    0  501 -0.00000000000E+00 -0.00000000000E+00 -0.20083809266E+03  0.20083809266E+03  0.00000000000E+00 0.  1.
         25    2    1    2    0    0  0.26559484894E+02 -0.38316230152E+01 -0.10295030519E+03  0.16421766156E+03  0.12509431425E+03 0.  0.
         23    2    1    2    0    0 -0.26559484894E+02  0.38316230152E+01 -0.33687143608E+02  0.10082107496E+03  0.91159080399E+02 0.  0.
          5    1    3    3  502    0  0.65168532018E+02 -0.21620564168E+02 -0.21201209973E+02  0.71981595319E+02  0.41800000000E+01 0. -1.
         -5    1    3    3    0  502 -0.38609047124E+02  0.17788941153E+02 -0.81749095221E+02  0.92236066246E+02  0.41800000000E+01 0. -1.
        -11    1    4    4    0    0 -0.48567554804E+02  0.23488253495E+02 -0.43943528638E+02  0.69581169443E+02  0.00000000000E+00 0.  1.
         11    1    4    4    0    0  0.22008069910E+02 -0.19656630480E+02  0.10256385030E+02  0.31239905519E+02  0.00000000000E+00 0. -1.
</event>
<event>
 8    1  0.7130890E-009  0.7505535E+02  0.7561462E-02  0.1343700E+00
          2   -1    0    0  501    0  0.00000000000E+00  0.00000000000E+00  0.26992519304E+03  0.26992519304E+03  0.00000000000E+00 0. -1.
         -2   -1    0    0    0  501 -0.00000000000E+00 -0.00000000000E+00 -0.75465207584E+02  0.75465207584E+02  0.00000000000E+00 0.  1.
         25    2    1    2    0    0  0.24838129708E+02 -0.58810909929E+02  0.18580340820E+03  0.23290879091E+03  0.12509173663E+03 0.  0.
         23    2    1    2    0    0 -0.24838129708E+02  0.58810909929E+02  0.86565772539E+01  0.11248160971E+03  0.92203689615E+02 0.  0.
          5    1    3    3  502    0 -0.77674317535E+01 -0.11743010792E+02 -0.16807985299E+02  0.22320664603E+02  0.41800000000E+01 0.  1.
         -5    1    3    3    0  502  0.32605561461E+02 -0.47067899137E+02  0.20261139350E+03  0.21058812631E+03  0.41800000000E+01 0.  1.
        -11    1    4    4    0    0 -0.61143259458E+01  0.58972570728E+02  0.43085317118E+02  0.73290474356E+02  0.00000000000E+00 0. -1.
         11    1    4    4    0    0 -0.18723803762E+02 -0.16166079900E+00 -0.34428739864E+02  0.39191135352E+02  0.00000000000E+00 0.  1.
</event>
<event>
 8    1  0.7130890E-009  0.7875567E+02  0.7561462E-02  0.1332620E+00
         -2   -1    0    0    0  501 -0.00000000000E+00  0.00000000000E+00  0.11992190441E+02  0.11992190441E+02  0.00000000000E+00 0.  1.
          2   -1    0    0  501    0  0.00000000000E+00 -0.00000000000E+00 -0.11150102503E+04  0.11150102503E+04  0.00000000000E+00 0. -1.
         25    2    1    2    0    0 -0.37266725611E+02 -0.40592018170E+01 -0.65974649808E+03  0.67254774702E+03  0.12509893821E+03 0.  0.
         23    2    1    2    0    0  0.37266725611E+02  0.40592018170E+01 -0.44327156183E+03  0.45445469377E+03  0.92919885933E+02 0.  0.
          5    1    3    3  502    0 -0.47061854487E+02 -0.38303683906E+01 -0.66018687572E+03  0.66188645034E+03  0.41800000000E+01 0.  1.
         -5    1    3    3    0  502  0.97951288756E+01 -0.22883342641E+00  0.44037764580E+00  0.10661296680E+02  0.41800000000E+01 0.  1.
        -11    1    4    4    0    0  0.60488272554E+02  0.27513611624E+02 -0.26909339920E+03  0.27717699658E+03  0.00000000000E+00 0.  1.
         11    1    4    4    0    0 -0.23221546943E+02 -0.23454409807E+02 -0.17417816263E+03  0.17727769719E+03  0.00000000000E+00 0. -1.
</event>
<event>
 8    1  0.7130890E-009  0.8892403E+02  0.7561462E-02  0.1305478E+00
         -2   -1    0    0    0  501 -0.00000000000E+00  0.00000000000E+00  0.88598283644E+02  0.88598283644E+02  0.00000000000E+00 0.  1.
          2   -1    0    0  501    0  0.00000000000E+00 -0.00000000000E+00 -0.17363157080E+03  0.17363157080E+03  0.00000000000E+00 0. -1.
         25    2    1    2    0    0  0.26055040323E+02  0.34289587814E+02  0.34963644813E+01  0.13233871330E+03  0.12508664803E+03 0.  0.
         23    2    1    2    0    0 -0.26055040323E+02 -0.34289587814E+02 -0.88529651636E+02  0.12989114115E+03  0.84732333678E+02 0.  0.
          5    1    3    3  502    0 -0.59407297853E+01  0.63050390562E+02 -0.36698080047E+02  0.73313474202E+02  0.41800000000E+01 0.  1.
         -5    1    3    3    0  502  0.31995770108E+02 -0.28760802748E+02  0.40194444528E+02  0.59025239097E+02  0.41800000000E+01 0.  1.
        -11    1    4    4    0    0  0.10740280088E+02 -0.32597825727E+02 -0.34547948987E+00  0.34323333384E+02  0.00000000000E+00 0. -1.
         11    1    4    4    0    0 -0.36795320411E+02 -0.16917620871E+01 -0.88184172146E+02  0.95567807761E+02  0.00000000000E+00 0.  1.
</event>
<event>
 8    1  0.7130890E-009  0.2511227E+03  0.7561462E-02  0.1112597E+00
         -2   -1    0    0    0  501 -0.00000000000E+00  0.00000000000E+00  0.60898083680E+02  0.60898083680E+02  0.00000000000E+00 0.  1.
          2   -1    0    0  501    0  0.00000000000E+00 -0.00000000000E+00 -0.11977617645E+04  0.11977617645E+04  0.00000000000E+00 0. -1.
         25    2    1    2    0    0  0.12054052259E+03 -0.19840432897E+03 -0.38658415710E+03  0.46796277231E+03  0.12509016913E+03 0.  0.
         23    2    1    2    0    0 -0.12054052259E+03  0.19840432897E+03 -0.75027952377E+03  0.79069707591E+03  0.91587153751E+02 0.  0.
          5    1    3    3  502    0  0.12909544540E+03 -0.12708013787E+03 -0.21051449515E+03  0.27775676505E+03  0.41800000000E+01 0.  1.
         -5    1    3    3    0  502 -0.85549228062E+01 -0.71324191097E+02 -0.17606966195E+03  0.19020600726E+03  0.41800000000E+01 0.  1.
        -11    1    4    4    0    0 -0.13400127192E+03  0.16176735236E+03 -0.64946541891E+03  0.68259090789E+03  0.00000000000E+00 0. -1.
         11    1    4    4    0    0  0.13460749332E+02  0.36636976606E+02 -0.10081410485E+03  0.10810616802E+03  0.00000000000E+00 0.  1.
</event>
<event>
 8    1  0.7130890E-009  0.1109857E+03  0.7561462E-02  0.1258755E+00
         -1   -1    0    0    0  501 -0.00000000000E+00  0.00000000000E+00  0.46375176715E+02  0.46375176715E+02  0.00000000000E+00 0.  1.
          1   -1    0    0  501    0  0.00000000000E+00 -0.00000000000E+00 -0.65828843463E+03  0.65828843463E+03  0.00000000000E+00 0. -1.
         25    2    1    2    0    0 -0.52589425889E+02 -0.14288675832E+02 -0.57847360285E+03  0.59434751652E+03  0.12508975670E+03 0.  0.
         23    2    1    2    0    0  0.52589425889E+02  0.14288675832E+02 -0.33439655064E+02  0.11031609482E+03  0.89897810170E+02 0.  0.
          5    1    3    3  502    0 -0.33389770792E+02  0.54577714519E+02 -0.24314082230E+03  0.25145284962E+03  0.41800000000E+01 0. -1.
         -5    1    3    3    0  502 -0.19199655097E+02 -0.68866390351E+02 -0.33533278055E+03  0.34289466690E+03  0.41800000000E+01 0. -1.
        -11    1    4    4    0    0  0.40218923298E+02 -0.23428335236E+02  0.13862710765E+02  0.48565661047E+02  0.00000000000E+00 0.  1.
         11    1    4    4    0    0  0.12370502591E+02  0.37717011068E+02 -0.47302365829E+02  0.61750433774E+02  0.00000000000E+00 0. -1.
</event>
<event>
 8    1  0.7130890E-009  0.9432383E+02  0.7561462E-02  0.1292706E+00
          4   -1    0    0  501    0  0.00000000000E+00  0.00000000000E+00  0.88260904390E+02  0.88260904390E+02  0.00000000000E+00 0. -1.
         -4   -1    0    0    0  501 -0.00000000000E+00 -0.00000000000E+00 -0.16674064787E+03  0.16674064787E+03  0.00000000000E+00 0.  1.
         25    2    1    2    0    0 -0.87037598311E+01 -0.89036671439E+01 -0.11062169522E+03  0.16745149923E+03  0.12509122438E+03 0.  0.
         23    2    1    2    0    0  0.87037598311E+01  0.89036671439E+01  0.32141951742E+02  0.87550053025E+02  0.80479040745E+02 0.  0.
          5    1    3    3  502    0  0.12624031179E+02  0.52937415951E+02 -0.75269896568E+02  0.92977233236E+02  0.41800000000E+01 0. -1.
         -5    1    3    3    0  502 -0.21327791010E+02 -0.61841083095E+02 -0.35351798650E+02  0.74474265995E+02  0.41800000000E+01 0. -1.
        -11    1    4    4    0    0  0.12308489340E+00 -0.29330807205E+02  0.37920973321E+02  0.47940709411E+02  0.00000000000E+00 0. -1.
         11    1    4    4    0    0  0.85806749377E+01  0.38234474349E+02 -0.57790215795E+01  0.39609343614E+02  0.00000000000E+00 0.  1.
</event>
<event>
 8    1  0.7130890E-009  0.1661612E+03  0.7561462E-02  0.1181911E+00
         -2   -1    0    0    0  501 -0.00000000000E+00  0.00000000000E+00  0.14014353050E+03  0.14014353050E+03  0.00000000000E+00 0.  1.
          2   -1    0    0  501    0  0.00000000000E+00 -0.00000000000E+00 -0.38321557005E+03  0.38321557005E+03  0.00000000000E+00 0. -1.
         25    2    1    2    0    0 -0.66522725463E+02 -0.12834425927E+03 -0.28957457979E+03  0.34698525418E+03  0.12509119660E+03 0.  0.
         23    2    1    2    0    0  0.66522725463E+02  0.12834425927E+03  0.46502540243E+02  0.17637384638E+03  0.89709116295E+02 0.  0.
          5    1    3    3  502    0  0.32002807019E+02 -0.12853701918E+02 -0.28415128073E+02  0.44880833476E+02  0.41800000000E+01 0. -1.
         -5    1    3    3    0  502 -0.98525532481E+02 -0.11549055735E+03 -0.26115945172E+03  0.30210442070E+03  0.41800000000E+01 0. -1.
        -11    1    4    4    0    0  0.40178580615E+02  0.57608983702E+02 -0.22859444098E+02  0.73862490669E+02  0.00000000000E+00 0.  1.
         11    1    4    4    0    0  0.26344144848E+02  0.70735275565E+02  0.69361984341E+02  0.10251135571E+03  0.00000000000E+00 0. -1.
</event>
<event>
 8    1  0.7130890E-009  0.1835316E+03  0.7561462E-02  0.1164428E+00
         -3   -1    0    0    0  501 -0.00000000000E+00  0.00000000000E+00  0.81868234034E+02  0.81868234034E+02  0.00000000000E+00 0.  1.
          3   -1    0    0  501    0  0.00000000000E+00 -0.00000000000E+00 -0.45483009858E+03  0.45483009858E+03  0.00000000000E+00 0. -1.
         25    2    1    2    0    0 -0.14269741639E+03 -0.62619378207E+02 -0.24529942461E+03  0.31639085316E+03  0.12509046756E+03 0.  0.
         23    2    1    2    0    0  0.14269741639E+03  0.62619378207E+02 -0.12766243993E+03  0.22030747946E+03  0.89184907717E+02 0.  0.
          5    1    3    3  502    0 -0.48783621789E+02 -0.84914401351E+02 -0.87654389306E+02  0.13149548158E+03  0.41800000000E+01 0. -1.
         -5    1    3    3    0  502 -0.93913794598E+02  0.22295023145E+02 -0.15764503531E+03  0.18489537158E+03  0.41800000000E+01 0. -1.
        -11    1    4    4    0    0  0.40366282905E+02 -0.15961807416E+02 -0.76069650965E+01  0.44069059549E+02  0.00000000000E+00 0.  1.
         11    1    4    4    0    0  0.10233113348E+03  0.78581185622E+02 -0.12005547483E+03  0.17623841991E+03  0.00000000000E+00 0. -1.
</event>
<event>
 8    1  0.7130890E-009  0.1274148E+03  0.7561462E-02  0.1231343E+00
          1   -1    0    0  501    0  0.00000000000E+00  0.00000000000E+00  0.13180242839E+03  0.13180242839E+03  0.00000000000E+00 0. -1.
         -1   -1    0    0    0  501 -0.00000000000E+00 -0.00000000000E+00 -0.15667742375E+03  0.15667742375E+03  0.00000000000E+00 0.  1.
         25    2    1    2    0    0 -0.27629379013E+02  0.84041910846E+02  0.18172798198E+02  0.15428730583E+03  0.12509155360E+03 0.  0.
         23    2    1    2    0    0  0.27629379013E+02 -0.84041910846E+02 -0.43047793556E+02  0.13419254632E+03  0.91258433000E+02 0.  0.
          5    1    3    3  502    0  0.39136262001E+02  0.29073419369E+02 -0.27776953136E+02  0.56266706344E+02  0.41800000000E+01 0.  1.
         -5    1    3    3    0  502 -0.66765641014E+02  0.54968491477E+02  0.45949751335E+02  0.98020599483E+02  0.41800000000E+01 0.  1.
        -11    1    4    4    0    0  0.48995213911E+01 -0.94264102247E+02 -0.13203389815E+02  0.95310313109E+02  0.00000000000E+00 0. -1.
         11    1    4    4    0    0  0.22729857622E+02  0.10222191401E+02 -0.29844403741E+02  0.38882233208E+02  0.00000000000E+00 0.  1.
</event>
<event>
 8    1  0.7130890E-009  0.1057500E+03  0.7561462E-02  0.1268649E+00
          2   -1    0    0  501    0  0.00000000000E+00  0.00000000000E+00  0.11245415338E+04  0.11245415338E+04  0.00000000000E+00 0. -1.
         -2   -1    0    0    0  501 -0.00000000000E+00 -0.00000000000E+00 -0.15856672808E+02  0.15856672808E+02  0.00000000000E+00 0.  1.
         25    2    1    2    0    0 -0.24526828162E+02 -0.30523291368E+02  0.89149800284E+03  0.90108191774E+03  0.12508675706E+03 0.  0.
         23    2    1    2    0    0  0.24526828162E+02  0.30523291368E+02  0.21718685814E+03  0.23931628885E+03  0.92568451147E+02 0.  0.
          5    1    3    3  502    0  0.13565514146E+02 -0.71049127497E+02  0.40865070563E+03  0.41502394305E+03  0.41800000000E+01 0. -1.
         -5    1    3    3    0  502 -0.38092342308E+02  0.40525836129E+02  0.48284729721E+03  0.48605797469E+03  0.41800000000E+01 0. -1.
        -11    1    4    4    0    0  0.50984166703E+02  0.18911723234E+02  0.66588554890E+02  0.85971356697E+02  0.00000000000E+00 0.  1.
         11    1    4    4    0    0 -0.26457338541E+02  0.11611568135E+02  0.15059830325E+03  0.15334493216E+03  0.00000000000E+00 0. -1.
</event>
<event>
 8    1  0.7130890E-009  0.9643795E+02  0.7561462E-02  0.1287970E+00
         -2   -1    0    0    0  501 -0.00000000000E+00  0.00000000000E+00  0.17428766878E+02  0.17428766878E+02  0.00000000000E+00 0.  1.
          2   -1    0    0  501    0  0.00000000000E+00 -0.00000000000E+00 -0.12503226677E+04  0.12503226677E+04  0.00000000000E+00 0. -1.
         25    2    1    2    0    0  0.62516301582E+02 -0.95001008057E+01 -0.98391492010E+03  0.99384800851E+03  0.12508698628E+03 0.  0.
         23    2    1    2    0    0 -0.62516301582E+02  0.95001008057E+01 -0.24897898070E+03  0.27390342605E+03  0.95047430753E+02 0.  0.
          5    1    3    3  502    0 -0.79946024858E+01  0.19874318866E+02 -0.68342154560E+03  0.68376997858E+03  0.41800000000E+01 0.  1.
         -5    1    3    3    0  502  0.70510904067E+02 -0.29374419671E+02 -0.30049337450E+03  0.31007802992E+03  0.41800000000E+01 0.  1.
        -11    1    4    4    0    0 -0.40857374833E+02 -0.29188233733E+02 -0.20643935831E+03  0.21245819995E+03  0.00000000000E+00 0. -1.
         11    1    4    4    0    0 -0.21658926749E+02  0.38688334539E+02 -0.42539622389E+02  0.61445226098E+02  0.00000000000E+00 0.  1.
</event>
<event>
 8    1  0.7130890E-009  0.1101724E+03  0.7561462E-02  0.1260251E+00
         -2   -1    0    0    0  501 -0.00000000000E+00  0.00000000000E+00  0.10488189862E+03  0.10488189862E+03  0.00000000000E+00 0.  1.
          2   -1    0    0  501    0  0.00000000000E+00 -0.00000000000E+00 -0.15448150514E+03  0.15448150514E+03  0.00000000000E+00 0. -1.
         25    2    1    2    0    0  0.32888929165E+02 -0.29297513246E+02  0.23741114153E+02  0.13472397392E+03  0.12508750019E+03 0.  0.
         23    2    1    2    0    0 -0.32888929165E+02  0.29297513246E+02 -0.73340720675E+02  0.12463942984E+03  0.90642706372E+02 0.  0.
          5    1    3    3  502    0  0.56983213927E+02 -0.59821465154E+02 -0.96670952834E+01  0.83286370396E+02  0.41800000000E+01 0.  1.
         -5    1    3    3    0  502 -0.24094284761E+02  0.30523951908E+02  0.33408209436E+02  0.51437603521E+02  0.41800000000E+01 0.  1.
        -11    1    4    4    0    0 -0.31442423498E+02  0.60017967071E+02 -0.37602840793E+02  0.77490360707E+02  0.00000000000E+00 0. -1.
         11    1    4    4    0    0 -0.14465056669E+01 -0.30720453825E+02 -0.35737879882E+02  0.47149069136E+02  0.00000000000E+00 0.  1.
</event>
<event>
 8    1  0.7130890E-009  0.1539497E+03  0.7561462E-02  0.1195702E+00
         -2   -1    0    0    0  501 -0.00000000000E+00  0.00000000000E+00  0.14427943856E+04  0.14427943856E+04  0.00000000000E+00 0.  1.
          2   -1    0    0  501    0  0.00000000000E+00 -0.00000000000E+00 -0.26759812365E+02  0.26759812365E+02  0.00000000000E+00 0. -1.
         25    2    1    2    0    0 -0.14308699953E+03 -0.18956140411E+02  0.10203913218E+04  0.10381131976E+04  0.12508931491E+03 0.  0.
         23    2    1    2    0    0  0.14308699953E+03  0.18956140411E+02  0.39564325141E+03  0.43144100036E+03  0.93672459694E+02 0.  0.
          5    1    3    3  502    0  0.56642458522E+01 -0.12707089359E+02  0.39363180572E+03  0.39389976476E+03  0.41800000000E+01 0.  1.
         -5    1    3    3    0  502 -0.14875124538E+03 -0.62490510524E+01  0.62675951609E+03  0.64421343284E+03  0.41800000000E+01 0.  1.
        -11    1    4    4    0    0  0.42173351771E+02  0.31925488107E+01  0.30138556107E+02  0.51933770629E+02  0.00000000000E+00 0. -1.
         11    1    4    4    0    0  0.10091364776E+03  0.15763591601E+02  0.36550469531E+03  0.37950722973E+03  0.00000000000E+00 0.  1.
</event>
<event>
 8    1  0.7130890E-009  0.1719077E+03  0.7561462E-02  0.1175873E+00
         -2   -1    0    0    0  501 -0.00000000000E+00  0.00000000000E+00  0.32449106639E+03  0.32449106639E+03  0.00000000000E+00 0.  1.
          2   -1    0    0  501    0  0.00000000000E+00 -0.00000000000E+00 -0.11099694816E+03  0.11099694816E+03  0.00000000000E+00 0. -1.
         25    2    1    2    0    0  0.58846536760E+02 -0.14326513030E+03  0.12072150909E+03  0.23283061352E+03  0.12509436192E+03 0.  0.
         23    2    1    2    0    0 -0.58846536760E+02  0.14326513030E+03  0.92772609135E+02  0.20265740103E+03  0.92062222103E+02 0.  0.
          5    1    3    3  502    0  0.26922941207E+02 -0.12308360405E+03  0.14150964212E+03  0.18951746505E+03  0.41800000000E+01 0. -1.
         -5    1    3    3    0  502  0.31923595553E+02 -0.20181526256E+02 -0.20788133028E+02  0.43313148464E+02  0.41800000000E+01 0. -1.
        -11    1    4    4    0    0 -0.78841187256E+02  0.13823254110E+03  0.86395023765E+02  0.18107531129E+03  0.00000000000E+00 0.  1.
         11    1    4    4    0    0  0.19994650496E+02  0.50325892012E+01  0.63775853700E+01  0.21582089743E+02  0.00000000000E+00 0. -1.
</event>
<event>
 8    1  0.7130890E-009  0.9810298E+02  0.7561462E-02  0.1284336E+00
          2   -1    0    0  501    0  0.00000000000E+00  0.00000000000E+00  0.10447986489E+03  0.10447986489E+03  0.00000000000E+00 0. -1.
         -2   -1    0    0    0  501 -0.00000000000E+00 -0.00000000000E+00 -0.19624019456E+03  0.19624019456E+03  0.00000000000E+00 0.  1.
         25    2    1    2    0    0 -0.19731290939E+02  0.54850824083E+02 -0.12597277120E+03  0.18685345498E+03  0.12508851990E+03 0.  0.
         23    2    1    2    0    0  0.19731290939E+02 -0.54850824083E+02  0.34212441527E+02  0.11386660448E+03  0.91636104867E+02 0.  0.
          5    1    3    3  502    0 -0.29610011262E+02  0.75135054341E+02 -0.26999835446E+02  0.85255455378E+02  0.41800000000E+01 0.  1.
         -5    1    3    3    0  502  0.98787203227E+01 -0.20284230258E+02 -0.98972935749E+02  0.10159799960E+03  0.41800000000E+01 0.  1.
        -11    1    4    4    0    0 -0.23204237686E+02 -0.41295722677E+02  0.47338387192E+02  0.66967874835E+02  0.00000000000E+00 0. -1.
         11    1    4    4    0    0  0.42935528625E+02 -0.13555101406E+02 -0.13125945666E+02  0.46898729642E+02  0.00000000000E+00 0.  1.
</event>
<event>
 8    1  0.7130890E-009  0.1556179E+03  0.7561462E-02  0.1193735E+00
          2   -1    0    0  501    0  0.00000000000E+00  0.00000000000E+00  0.45190976725E+03  0.45190976725E+03  0.00000000000E+00 0. -1.
         -2   -1    0    0    0  501 -0.00000000000E+00 -0.00000000000E+00 -0.73396825689E+02  0.73396825689E+02  0.00000000000E+00 0.  1.
         25    2    1    2    0    0  0.12003602029E+03 -0.75612161247E+02  0.14960075599E+03  0.24115842735E+03  0.12510457943E+03 0.  0.
         23    2    1    2    0    0 -0.12003602029E+03  0.75612161247E+02  0.22891218557E+03  0.28414816559E+03  0.90628616940E+02 0.  0.
          5    1    3    3  502    0  0.37690770539E+02 -0.50409518281E+01 -0.17371351397E+02  0.42014778692E+02  0.41800000000E+01 0.  1.
         -5    1    3    3    0  502  0.82345249753E+02 -0.70571209419E+02  0.16697210739E+03  0.19914364866E+03  0.41800000000E+01 0.  1.
        -11    1    4    4    0    0 -0.11811851215E+03  0.34165348479E+02  0.19514458616E+03  0.23065269011E+03  0.00000000000E+00 0.  1.
         11    1    4    4    0    0 -0.19175081385E+01  0.41446812769E+02  0.33767599413E+02  0.53495475475E+02  0.00000000000E+00 0. -1.
</event>
<event>
 8    1  0.7130890E-009  0.1328136E+03  0.7561462E-02  0.1223340E+00
          3   -1    0    0  501    0  0.00000000000E+00  0.00000000000E+00  0.32627385251E+03  0.32627385251E+03  0.00000000000E+00 0. -1.
         -3   -1    0    0    0  501 -0.00000000000E+00 -0.00000000000E+00 -0.68105747448E+02  0.68105747448E+02  0.00000000000E+00 0.  1.
         25    2    1    2    0    0  0.20264092122E+02  0.98587869389E+02  0.10704108988E+03  0.19296670281E+03  0.12509257392E+03 0.  0.
         23    2    1    2    0    0 -0.20264092122E+02 -0.98587869389E+02  0.15112701519E+03  0.20141289715E+03  0.87164092378E+02 0.  0.
          5    1    3    3  502    0 -0.40805120717E+02  0.24852073637E+02  0.80199947623E+02  0.93446174023E+02  0.41800000000E+01 0. -1.
         -5    1    3    3    0  502  0.61069212840E+02  0.73735795752E+02  0.26841142255E+02  0.99520528785E+02  0.41800000000E+01 0. -1.
        -11    1    4    4    0    0 -0.22389178936E+02 -0.10896536637E+03  0.15442341960E+03  0.19031899254E+03  0.00000000000E+00 0. -1.
         11    1    4    4    0    0  0.21250868131E+01  0.10377496980E+02 -0.32964044094E+01  0.11093904613E+02  0.00000000000E+00 0.  1.
</event>
<event>
 8    1  0.7130890E-009  0.2081814E+03  0.7561462E-02  0.1143014E+00
          1   -1    0    0  501    0  0.00000000000E+00  0.00000000000E+00  0.98554240443E+03  0.98554240443E+03  0.00000000000E+00 0. -1.
         -1   -1    0    0    0  501 -0.00000000000E+00 -0.00000000000E+00 -0.61054630856E+02  0.61054630856E+02  0.00000000000E+00 0.  1.
         25    2    1    2    0    0 -0.36281646767E+01 -0.19913859921E+03  0.68354374099E+03  0.72287522857E+03  0.12508878830E+03 0.  0.
         23    2    1    2    0    0  0.36281646767E+01  0.19913859921E+03  0.24094403259E+03  0.32372180672E+03  0.84097776627E+02 0.  0.
          5    1    3    3  502    0  0.15774114011E+02 -0.17648942741E+03  0.39718864230E+03  0.43494095074E+03  0.41800000000E+01 0. -1.
         -5    1    3    3    0  502 -0.19402278687E+02 -0.22649171796E+02  0.28635509869E+03  0.28793427783E+03  0.41800000000E+01 0. -1.
        -11    1    4    4    0    0  0.33542325766E+02  0.10635271802E+03  0.86712284700E+02  0.14126219793E+03  0.00000000000E+00 0.  1.
         11    1    4    4    0    0 -0.29914161090E+02  0.92785881192E+02  0.15423174789E+03  0.18245960879E+03  0.00000000000E+00 0. -1.
</event>
<event>
 8    1  0.7130890E-009  0.8325710E+02  0.7561462E-02  0.1320054E+00
         -1   -1    0    0    0  501 -0.00000000000E+00  0.00000000000E+00  0.23134565563E+03  0.23134565563E+03  0.00000000000E+00 0.  1.
          1   -1    0    0  501    0  0.00000000000E+00 -0.00000000000E+00 -0.79315128077E+02  0.79315128077E+02  0.00000000000E+00 0. -1.
         25    2    1    2    0    0 -0.13290718535E+02  0.33598144441E+02  0.59397006435E+00  0.13020344174E+03  0.12508838848E+03 0.  0.
         23    2    1    2    0    0  0.13290718535E+02 -0.33598144441E+02  0.15143655748E+03  0.18045734196E+03  0.91248796244E+02 0.  0.
          5    1    3    3  502    0  0.48465964932E+02 -0.76791299311E+01  0.20254662093E+02  0.53250751448E+02  0.41800000000E+01 0. -1.
         -5    1    3    3    0  502 -0.61756683467E+02  0.41277274372E+02 -0.19660692029E+02  0.76952690294E+02  0.41800000000E+01 0. -1.
        -11    1    4    4    0    0  0.85339336012E+00 -0.29871302700E+02  0.16136741586E+03  0.16411113889E+03  0.00000000000E+00 0.  1.
         11    1    4    4    0    0  0.12437325175E+02 -0.37268417408E+01 -0.99308583761E+01  0.16346203075E+02  0.00000000000E+00 0. -1.
</event>
<event>
 8    1  0.7130890E-009  0.2496267E+03  0.7561462E-02  0.1113541E+00
         -2   -1    0    0    0  501 -0.00000000000E+00  0.00000000000E+00  0.76764357352E+02  0.76764357352E+02  0.00000000000E+00 0.  1.
          2   -1    0    0  501    0  0.00000000000E+00 -0.00000000000E+00 -0.87848523255E+03  0.87848523255E+03  0.00000000000E+00 0. -1.
         25    2    1    2    0    0  0.23208204185E+03 -0.57720705041E+01 -0.33784901585E+03  0.42858514495E+03  0.12509147858E+03 0.  0.
         23    2    1    2    0    0 -0.23208204185E+03  0.57720705041E+01 -0.46387185935E+03  0.52666444496E+03  0.91120495722E+02 0.  0.
          5    1    3    3  502    0  0.16146214527E+02 -0.38163664203E+02 -0.83724545468E+02  0.93511696716E+02  0.41800000000E+01 0.  1.
         -5    1    3    3    0  502  0.21593582732E+03  0.32391593699E+02 -0.25412447038E+03  0.33507344823E+03  0.41800000000E+01 0.  1.
        -11    1    4    4    0    0 -0.11125555878E+03 -0.26052523145E+02 -0.29681917260E+03  0.31805369759E+03  0.00000000000E+00 0.  1.
         11    1    4    4    0    0 -0.12082648306E+03  0.31824593649E+02 -0.16705268675E+03  0.20861074737E+03  0.00000000000E+00 0. -1.
</event>
<event>
 8    1  0.7130890E-009  0.1646596E+03  0.7561462E-02  0.1183534E+00
         -2   -1    0    0    0  501 -0.00000000000E+00  0.00000000000E+00  0.26321081715E+02  0.26321081715E+02  0.00000000000E+00 0.  1.
          2   -1    0    0  501    0  0.00000000000E+00 -0.00000000000E+00 -0.13988111042E+04  0.13988111042E+04  0.00000000000E+00 0. -1.
         25    2    1    2    0    0  0.53907697575E+02  0.14717507741E+03 -0.79008106168E+03  0.81513342881E+03  0.12509148443E+03 0.  0.
         23    2    1    2    0    0 -0.53907697575E+02 -0.14717507741E+03 -0.58240896084E+03  0.60999875713E+03  0.91278380647E+02 0.  0.
          5    1    3    3  502    0  0.52095092092E+02  0.42482887625E+02 -0.53711690335E+03  0.54132313328E+03  0.41800000000E+01 0.  1.
         -5    1    3    3    0  502  0.18126054829E+01  0.10469218978E+03 -0.25296415832E+03  0.27381029553E+03  0.41800000000E+01 0.  1.
        -11    1    4    4    0    0 -0.36380172981E+02 -0.82428210813E+02 -0.47421690615E+03  0.48270032215E+03  0.00000000000E+00 0.  1.
         11    1    4    4    0    0 -0.17527524593E+02 -0.64746866593E+02 -0.10819205468E+03  0.12729843498E+03  0.00000000000E+00 0. -1.
</event>
<event>
 8    1  0.7130890E-009  0.1849691E+03  0.7561462E-02  0.1163079E+00
          3   -1    0    0  501    0  0.00000000000E+00  0.00000000000E+00  0.16521941304E+03  0.16521941304E+03  0.00000000000E+00 0. -1.
         -3   -1    0    0    0  501 -0.00000000000E+00 -0.00000000000E+00 -0.27538405463E+03  0.27538405463E+03  0.00000000000E+00 0.  1.
         25    2    1    2    0    0 -0.18031991583E+03 -0.29392221251E+01 -0.91213045853E+02  0.23767851177E+03  0.12508934467E+03 0.  0.
         23    2    1    2    0    0  0.18031991583E+03  0.29392221251E+01 -0.18951595734E+02  0.20292495590E+03  0.91079436069E+02 0.  0.
          5    1    3    3  502    0 -0.13652219201E+03  0.10588542300E+02 -0.12105864958E+03  0.18281984350E+03  0.41800000000E+01 0.  1.
         -5    1    3    3    0  502 -0.43797723823E+02 -0.13527764425E+02  0.29845603727E+02  0.54858668269E+02  0.41800000000E+01 0.  1.
        -11    1    4    4    0    0  0.17470024482E+02  0.15801061391E+02 -0.31218010919E+02  0.39108049072E+02  0.00000000000E+00 0.  1.
         11    1    4    4    0    0  0.16284989135E+03 -0.12861839266E+02  0.12266415185E+02  0.16381690683E+03  0.00000000000E+00 0. -1.
</event>
<event>
 8    1  0.7130890E-009  0.1018325E+03  0.7561462E-02  0.1276489E+00
         -4   -1    0    0    0  501 -0.00000000000E+00  0.00000000000E+00  0.18897229795E+03  0.18897229795E+03  0.00000000000E+00 0.  1.
          4   -1    0    0  501    0  0.00000000000E+00 -0.00000000000E+00 -0.72123628013E+02  0.72123628013E+02  0.00000000000E+00 0. -1.
         25    2    1    2    0    0  0.32050879394E+02  0.29139846181E+02  0.68013451358E+02  0.14882940882E+03  0.12509186168E+03 0.  0.
         23    2    1    2    0    0 -0.32050879394E+02 -0.29139846181E+02  0.48835218578E+02  0.11226651714E+03  0.91337302300E+02 0.  0.
          5    1    3    3  502    0  0.76355172885E+02  0.35847560493E+02  0.29078065957E+02  0.89320581836E+02  0.41800000000E+01 0. -1.
         -5    1    3    3    0  502 -0.44304293492E+02 -0.67077143124E+01  0.38935385401E+02  0.59508826987E+02  0.41800000000E+01 0. -1.
        -11    1    4    4    0    0 -0.48822354383E+02 -0.30189166265E+02  0.66525440344E+02  0.87867185343E+02  0.00000000000E+00 0.  1.
         11    1    4    4    0    0  0.16771474989E+02  0.10493200838E+01 -0.17690221766E+02  0.24399331795E+02  0.00000000000E+00 0. -1.
</event>
