<event>
 8    1  0.1224355E-005  0.1555397E+03  0.7546771E-02  0.1202004E+00
         -1   -1    0    0    0  501 -0.00000000000E+00  0.00000000000E+00  0.16984531188E+02  0.16984531188E+02  0.00000000000E+00 0.  1.
          1   -1    0    0  501    0  0.00000000000E+00 -0.00000000000E+00 -0.12454662197E+04  0.12454662197E+04  0.00000000000E+00 0. -1.
         23    2    1    2    0    0  0.47079477117E+02  0.79692647801E+02 -0.44319204034E+03  0.46190566053E+03  0.91489121367E+02 0.  0.
         23    2    1    2    0    0 -0.47079477117E+02 -0.79692647801E+02 -0.78528964816E+03  0.80054509034E+03  0.12500085957E+03 0.  0.
          5    1    4    4  502    0 -0.51044685125E+02 -0.11046212775E+03 -0.56052199098E+03  0.57359779804E+03  0.47000000000E+01 0.  1.
         -5    1    4    4    0  502  0.39652080080E+01  0.30769479947E+02 -0.22476765718E+03  0.22694729230E+03  0.47000000000E+01 0.  1.
        -11    1    3    3    0    0 -0.80884235896E-01 -0.12988207012E+02 -0.99592865837E+01  0.16367267728E+02  0.00000000000E+00 0.  1.
         11    1    3    3    0    0  0.47160361353E+02  0.92680854812E+02 -0.43323275375E+03  0.44553839280E+03  0.00000000000E+00 0. -1.
<mgrwt>
<rscale>  0 0.14876052E+03</rscale>
<asrwt>0</asrwt>
<pdfrwt beam="2">  1        1 0.19161018E+00 0.15553974E+03</pdfrwt>
<pdfrwt beam="1">  1       -1 0.26130049E-02 0.15553974E+03</pdfrwt>
<totfact> 0.48506441E+03</totfact>
</mgrwt>
</event>
<event>
 7    1  0.1224355E-005  0.1507911E+03  0.7546771E-02  0.1220254E+00
         -2   -1    0    0    0  501 -0.00000000000E+00  0.00000000000E+00  0.74200508994E+02  0.74200508994E+02  0.00000000000E+00 0.  1.
          2   -1    0    0  501    0  0.00000000000E+00 -0.00000000000E+00 -0.21237481672E+03  0.21237481672E+03  0.00000000000E+00 0. -1.
         23    2    1    2    0    0 -0.65344455387E+01 -0.32254499445E+02 -0.31258249570E+02  0.10172671486E+03  0.91039522386E+02 0.  0.
          5    1    1    2  502    0 -0.23591224098E+02 -0.37752343928E+02 -0.98291037424E+02  0.10800464511E+03  0.47000000000E+01 0. -1.
         -5    1    1    2    0  502  0.30125669637E+02  0.70006843373E+02 -0.86250207333E+01  0.76843965754E+02  0.47000000000E+01 0.  1.
        -11    1    3    3    0    0 -0.42976090668E+02 -0.32028796497E+02  0.17838436229E+00  0.53598693969E+02  0.00000000000E+00 0. -1.
         11    1    3    3    0    0  0.36441645129E+02 -0.22570294827E+00 -0.31436633933E+02  0.48128020888E+02  0.00000000000E+00 0.  1.
<mgrwt>
<rscale>  0 0.13497599E+03</rscale>
<asrwt>0</asrwt>
<pdfrwt beam="2">  1        2 0.32673049E-01 0.15079113E+03</pdfrwt>
<pdfrwt beam="1">  1       -2 0.11415463E-01 0.15079113E+03</pdfrwt>
<totfact> 0.81641433E+03</totfact>
</mgrwt>
</event>
<event>
 8    1  0.1224355E-005  0.1150668E+03  0.7546771E-02  0.1262264E+00
         -1   -1    0    0    0  501 -0.00000000000E+00  0.00000000000E+00  0.23891849120E+02  0.23891849120E+02  0.00000000000E+00 0.  1.
          1   -1    0    0  501    0  0.00000000000E+00 -0.00000000000E+00 -0.48054687045E+03  0.48054687045E+03  0.00000000000E+00 0. -1.
         23    2    1    2    0    0  0.20545620773E+02 -0.12455825921E+02 -0.14520497433E+03  0.17241237998E+03  0.89801303258E+02 0.  0.
         23    2    1    2    0    0 -0.20545620773E+02  0.12455825921E+02 -0.31145004700E+03  0.33202633959E+03  0.11253038823E+03 0.  0.
          5    1    4    4  502    0 -0.38210813744E+02  0.49617535861E+02 -0.11279042077E+03  0.12909583715E+03  0.47000000000E+01 0. -1.
         -5    1    4    4    0  502  0.17665192971E+02 -0.37161709941E+02 -0.19865962622E+03  0.20293050244E+03  0.47000000000E+01 0.  1.
        -11    1    3    3    0    0  0.86512749538E+01  0.38803230264E+02 -0.72164560675E+02  0.82390891819E+02  0.00000000000E+00 0. -1.
         11    1    3    3    0    0  0.11894345819E+02 -0.51259056184E+02 -0.73040413659E+02  0.90021488162E+02  0.00000000000E+00 0.  1.
<mgrwt>
<rscale>  0 0.10909035E+03</rscale>
<asrwt>0</asrwt>
<pdfrwt beam="2">  1        1 0.73930287E-01 0.11506676E+03</pdfrwt>
<pdfrwt beam="1">  1       -1 0.36756692E-02 0.11506676E+03</pdfrwt>
<totfact> 0.12430375E+04</totfact>
</mgrwt>
</event>
<event>
 8    1  0.1224355E-005  0.1270075E+03  0.7546771E-02  0.1247822E+00
          1   -1    0    0  501    0  0.00000000000E+00  0.00000000000E+00  0.91466001121E+02  0.91466001121E+02  0.00000000000E+00 0. -1.
         -1   -1    0    0    0  501 -0.00000000000E+00 -0.00000000000E+00 -0.15750379456E+03  0.15750379456E+03  0.00000000000E+00 0.  1.
         23    2    1    2    0    0 -0.12069405237E+02  0.18964446223E+02 -0.79018818037E+02  0.12130064531E+03  0.89244339791E+02 0.  0.
         23    2    1    2    0    0  0.12069405237E+02 -0.18964446223E+02  0.12981024600E+02  0.12766915037E+03  0.12500233675E+03 0.  0.
          5    1    4    4  502    0 -0.42333929995E+02  0.21575712428E+02  0.31477474225E+02  0.57189110669E+02  0.47000000000E+01 0.  1.
         -5    1    4    4    0  502  0.54403335232E+02 -0.40540158651E+02 -0.18496449625E+02  0.70480039703E+02  0.47000000000E+01 0.  1.
        -11    1    3    3    0    0 -0.33361123212E+02  0.73067607230E+00  0.40644767996E+01  0.33615746328E+02  0.00000000000E+00 0. -1.
         11    1    3    3    0    0  0.21291717975E+02  0.18233770151E+02 -0.83083294837E+02  0.87684898980E+02  0.00000000000E+00 0.  1.
<mgrwt>
<rscale>  0 0.11718085E+03</rscale>
<asrwt>0</asrwt>
<pdfrwt beam="1">  1        1 0.14071693E-01 0.12700750E+03</pdfrwt>
<pdfrwt beam="2">  1       -1 0.24231353E-01 0.12700750E+03</pdfrwt>
<totfact> 0.56369491E+03</totfact>
</mgrwt>
</event>
<event>
 7    1  0.1224355E-005  0.2239589E+03  0.7546771E-02  0.1163839E+00
         -2   -1    0    0    0  501 -0.00000000000E+00  0.00000000000E+00  0.14260370163E+02  0.14260370163E+02  0.00000000000E+00 0.  1.
          2   -1    0    0  501    0  0.00000000000E+00 -0.00000000000E+00 -0.22744962335E+04  0.22744962335E+04  0.00000000000E+00 0. -1.
         23    2    1    2    0    0  0.47194045181E+02 -0.54899614427E+02 -0.32863744227E+03  0.34421808883E+03  0.72403581762E+02 0.  0.
          5    1    1    2  502    0  0.52191469455E+02  0.10073920260E+03 -0.89804870843E+03  0.90519937536E+03  0.47000000000E+01 0. -1.
         -5    1    1    2    0  502 -0.99385514636E+02 -0.45839588173E+02 -0.10335497126E+04  0.10393391395E+04  0.47000000000E+01 0.  1.
        -11    1    3    3    0    0 -0.17059695774E+02 -0.20271363496E+02 -0.55556373519E+02  0.61550564875E+02  0.00000000000E+00 0. -1.
         11    1    3    3    0    0  0.64253740955E+02 -0.34628250931E+02 -0.27308106875E+03  0.28266752396E+03  0.00000000000E+00 0.  1.
<mgrwt>
<rscale>  0 0.18415759E+03</rscale>
<asrwt>0</asrwt>
<pdfrwt beam="2">  1        2 0.34992251E+00 0.22395887E+03</pdfrwt>
<pdfrwt beam="1">  1       -2 0.21939030E-02 0.22395887E+03</pdfrwt>
<totfact> 0.35864597E+03</totfact>
</mgrwt>
</event>
<event>
 8    1  0.1224355E-005  0.2633938E+03  0.7546771E-02  0.1107224E+00
         -2   -1    0    0    0  501 -0.00000000000E+00  0.00000000000E+00  0.10478119542E+03  0.10478119542E+03  0.00000000000E+00 0.  1.
          2   -1    0    0  501    0  0.00000000000E+00 -0.00000000000E+00 -0.63023521031E+03  0.63023521031E+03  0.00000000000E+00 0. -1.
         23    2    1    2    0    0  0.91109474102E+02  0.21318565003E+03 -0.27853807615E+03  0.37398489089E+03  0.92369806198E+02 0.  0.
         23    2    1    2    0    0 -0.91109474102E+02 -0.21318565003E+03 -0.24691593874E+03  0.36103151485E+03  0.12500886472E+03 0.  0.
          5    1    4    4  502    0 -0.11567365890E+03 -0.18833045467E+03 -0.23765037686E+03  0.32457440926E+03  0.47000000000E+01 0.  1.
         -5    1    4    4    0  502  0.24564184799E+02 -0.24855195356E+02 -0.92655618731E+01  0.36457105588E+02  0.47000000000E+01 0.  1.
        -11    1    3    3    0    0  0.23494704564E+02  0.13200467641E+03 -0.20614002287E+03  0.24590840727E+03  0.00000000000E+00 0. -1.
         11    1    3    3    0    0  0.67614769537E+02  0.81180973616E+02 -0.72398053280E+02  0.12807648362E+03  0.00000000000E+00 0.  1.
<mgrwt>
<rscale>  0 0.25986559E+03</rscale>
<asrwt>0</asrwt>
<pdfrwt beam="2">  1        2 0.96959259E-01 0.26339376E+03</pdfrwt>
<pdfrwt beam="1">  1       -2 0.16120185E-01 0.26339376E+03</pdfrwt>
<totfact> 0.14444841E+03</totfact>
</mgrwt>
</event>
<event>
 8    1  0.1224355E-005  0.1390259E+03  0.7546771E-02  0.1219514E+00
         -1   -1    0    0    0  501 -0.00000000000E+00  0.00000000000E+00  0.23386151500E+02  0.23386151500E+02  0.00000000000E+00 0.  1.
          1   -1    0    0  501    0  0.00000000000E+00 -0.00000000000E+00 -0.84351275688E+03  0.84351275688E+03  0.00000000000E+00 0. -1.
         23    2    1    2    0    0 -0.62339164874E+02 -0.57590823890E+02 -0.24554762471E+03  0.27573971280E+03  0.92389819481E+02 0.  0.
         23    2    1    2    0    0  0.62339164874E+02  0.57590823890E+02 -0.57457898067E+03  0.59115919558E+03  0.11011500811E+03 0.  0.
          5    1    4    4  502    0  0.62473519613E+02  0.66752154045E+02 -0.57355027090E+03  0.58081046304E+03  0.47000000000E+01 0. -1.
         -5    1    4    4    0  502 -0.13435473876E+00 -0.91613301555E+01 -0.10287097725E+01  0.10348732541E+02  0.47000000000E+01 0.  1.
        -11    1    3    3    0    0 -0.17461758512E+02  0.24122308681E+02 -0.85283299953E+02  0.90332939935E+02  0.00000000000E+00 0. -1.
         11    1    3    3    0    0 -0.44877406362E+02 -0.81713132571E+02 -0.16026432475E+03  0.18540677287E+03  0.00000000000E+00 0.  1.
<mgrwt>
<rscale>  0 0.13550115E+03</rscale>
<asrwt>0</asrwt>
<pdfrwt beam="2">  1        1 0.12977118E+00 0.13902586E+03</pdfrwt>
<pdfrwt beam="1">  1       -1 0.35978698E-02 0.13902586E+03</pdfrwt>
<totfact> 0.59301922E+03</totfact>
</mgrwt>
</event>
<event>
 8    1  0.1224355E-005  0.1365459E+03  0.7546771E-02  0.1230731E+00
          1   -1    0    0  501    0  0.00000000000E+00  0.00000000000E+00  0.85980090719E+02  0.85980090719E+02  0.00000000000E+00 0. -1.
         -1   -1    0    0    0  501 -0.00000000000E+00 -0.00000000000E+00 -0.16941736709E+03  0.16941736709E+03  0.00000000000E+00 0.  1.
         23    2    1    2    0    0  0.54667684710E+02  0.55717627322E+01 -0.36125330187E+02  0.11088723785E+03  0.89282359658E+02 0.  0.
         23    2    1    2    0    0 -0.54667684710E+02 -0.55717627322E+01 -0.47311946182E+02  0.14451021995E+03  0.12500073251E+03 0.  0.
          5    1    4    4  502    0  0.26029785176E+02  0.32700226504E+02 -0.34011498916E+02  0.54089986025E+02  0.47000000000E+01 0. -1.
         -5    1    4    4    0  502 -0.80697469887E+02 -0.38271989236E+02 -0.13300447266E+02  0.90420233929E+02  0.47000000000E+01 0. -1.
        -11    1    3    3    0    0  0.78455011649E+02 -0.51812874634E+01 -0.29268591733E+02  0.83896871542E+02  0.00000000000E+00 0.  1.
         11    1    3    3    0    0 -0.23787326938E+02  0.10753050196E+02 -0.68567384538E+01  0.26990366311E+02  0.00000000000E+00 0. -1.
<mgrwt>
<rscale>  0 0.12781692E+03</rscale>
<asrwt>0</asrwt>
<pdfrwt beam="1">  1        1 0.13227706E-01 0.13654590E+03</pdfrwt>
<pdfrwt beam="2">  1       -1 0.26064210E-01 0.13654590E+03</pdfrwt>
<totfact> 0.54464441E+03</totfact>
</mgrwt>
</event>
<event>
 8    1  0.1224355E-005  0.1279490E+03  0.7546771E-02  0.1245406E+00
         -3   -1    0    0    0  501 -0.00000000000E+00  0.00000000000E+00  0.19167810503E+02  0.19167810503E+02  0.00000000000E+00 0.  1.
          3   -1    0    0  501    0  0.00000000000E+00 -0.00000000000E+00 -0.93033176081E+03  0.93033176081E+03  0.00000000000E+00 0. -1.
         23    2    1    2    0    0 -0.15853407476E+01  0.27322855180E+02 -0.14735873363E+03  0.17505179897E+03  0.90440501030E+02 0.  0.
         23    2    1    2    0    0  0.15853407476E+01 -0.27322855180E+02 -0.76380521668E+03  0.77444777234E+03  0.12498756473E+03 0.  0.
          5    1    4    4  502    0 -0.29720840515E+02  0.19653670308E+01 -0.67551063784E+03  0.67618333524E+03  0.47000000000E+01 0.  1.
         -5    1    4    4    0  502  0.31306181262E+02 -0.29288222211E+02 -0.88294578841E+02  0.98264437098E+02  0.47000000000E+01 0.  1.
        -11    1    3    3    0    0 -0.41454232551E+02  0.37717982935E+01 -0.38279290935E+02  0.56550720360E+02  0.00000000000E+00 0.  1.
         11    1    3    3    0    0  0.39868891803E+02  0.23551056887E+02 -0.10907944269E+03  0.11850107861E+03  0.00000000000E+00 0. -1.
<mgrwt>
<rscale>  0 0.11861105E+03</rscale>
<asrwt>0</asrwt>
<pdfrwt beam="2">  1        3 0.14312794E+00 0.12794899E+03</pdfrwt>
<pdfrwt beam="1">  1       -3 0.29488944E-02 0.12794899E+03</pdfrwt>
<totfact> 0.46669116E+02</totfact>
</mgrwt>
</event>
<event>
 8    1  0.1224355E-005  0.3089354E+03  0.7546771E-02  0.1082343E+00
         -1   -1    0    0    0  501 -0.00000000000E+00  0.00000000000E+00  0.43241221131E+03  0.43241221131E+03  0.00000000000E+00 0.  1.
          1   -1    0    0  501    0  0.00000000000E+00 -0.00000000000E+00 -0.26302183741E+03  0.26302183741E+03  0.00000000000E+00 0. -1.
         23    2    1    2    0    0 -0.69129361916E+02  0.27393001251E+03  0.23620106115E+03  0.37935692199E+03  0.91127452169E+02 0.  0.
         23    2    1    2    0    0  0.69129361916E+02 -0.27393001251E+03 -0.66810687261E+02  0.31607712672E+03  0.12499824667E+03 0.  0.
          5    1    4    4  502    0 -0.14074061683E+02 -0.28742752531E+02  0.25462496730E+02  0.41166172703E+02  0.47000000000E+01 0. -1.
         -5    1    4    4    0  502  0.83203423599E+02 -0.24518725998E+03 -0.92273183991E+02  0.27491095402E+03  0.47000000000E+01 0. -1.
        -11    1    3    3    0    0 -0.69013731072E+02  0.24033091897E+03  0.23867092475E+03  0.34566697269E+03  0.00000000000E+00 0.  1.
         11    1    3    3    0    0 -0.11563084348E+00  0.33599093548E+02 -0.24698635981E+01  0.33689949302E+02  0.00000000000E+00 0. -1.
<mgrwt>
<rscale>  0 0.30586904E+03</rscale>
<asrwt>0</asrwt>
<pdfrwt beam="2">  1        1 0.40464898E-01 0.30893540E+03</pdfrwt>
<pdfrwt beam="1">  1       -1 0.66524955E-01 0.30893540E+03</pdfrwt>
<totfact> 0.24677386E+02</totfact>
</mgrwt>
</event>
<event>
 8    1  0.1224355E-005  0.1411731E+03  0.7546771E-02  0.1222402E+00
          2   -1    0    0  501    0  0.00000000000E+00  0.00000000000E+00  0.41567247935E+03  0.41567247935E+03  0.00000000000E+00 0. -1.
         -2   -1    0    0    0  501 -0.00000000000E+00 -0.00000000000E+00 -0.40138126864E+02  0.40138126864E+02  0.00000000000E+00 0.  1.
         23    2    1    2    0    0 -0.53984420095E+02  0.37280121010E+02  0.12591659270E+03  0.16903740000E+03  0.91730743189E+02 0.  0.
         23    2    1    2    0    0  0.53984420095E+02 -0.37280121010E+02  0.24961775979E+03  0.28677320622E+03  0.12500288303E+03 0.  0.
          5    1    4    4  502    0  0.20421913621E+01 -0.58143915381E+02  0.21019064650E+03  0.21814463852E+03  0.47000000000E+01 0. -1.
         -5    1    4    4    0  502  0.51942228733E+02  0.20863794371E+02  0.39427113295E+02  0.68628567697E+02  0.47000000000E+01 0. -1.
        -11    1    3    3    0    0 -0.81320215135E+01 -0.23611381263E+02  0.70514010856E+02  0.74805433132E+02  0.00000000000E+00 0. -1.
         11    1    3    3    0    0 -0.45852398582E+02  0.60891502273E+02  0.55402581840E+02  0.94231966865E+02  0.00000000000E+00 0.  1.
<mgrwt>
<rscale>  0 0.13346553E+03</rscale>
<asrwt>0</asrwt>
<pdfrwt beam="1">  1        2 0.63949609E-01 0.14117311E+03</pdfrwt>
<pdfrwt beam="2">  1       -2 0.61750967E-02 0.14117311E+03</pdfrwt>
<totfact> 0.10312424E+04</totfact>
</mgrwt>
</event>
<event>
 8    1  0.1224355E-005  0.1740761E+03  0.7546771E-02  0.1179668E+00
         -3   -1    0    0    0  501 -0.00000000000E+00  0.00000000000E+00  0.78548165216E+03  0.78548165216E+03  0.00000000000E+00 0.  1.
          3   -1    0    0  501    0  0.00000000000E+00 -0.00000000000E+00 -0.33982106195E+02  0.33982106195E+02  0.00000000000E+00 0. -1.
         23    2    1    2    0    0 -0.26066966794E+01 -0.12105881388E+03  0.37721234885E+03  0.40667642848E+03  0.91839697690E+02 0.  0.
         23    2    1    2    0    0  0.26066966794E+01  0.12105881388E+03  0.37428719712E+03  0.41278732987E+03  0.12506175472E+03 0.  0.
          5    1    4    4  502    0 -0.37022834363E+02  0.22954327967E+02  0.22808034128E+03  0.23225056193E+03  0.47000000000E+01 0.  1.
         -5    1    4    4    0  502  0.39629531042E+02  0.98104485914E+02  0.14620685583E+03  0.18053676794E+03  0.47000000000E+01 0.  1.
        -11    1    3    3    0    0 -0.18102245596E+02  0.90186120472E+01  0.65665948625E+02  0.68709849859E+02  0.00000000000E+00 0. -1.
         11    1    3    3    0    0  0.15495548917E+02 -0.13007742593E+03  0.31154640022E+03  0.33796657862E+03  0.00000000000E+00 0.  1.
<mgrwt>
<rscale>  0 0.16826651E+03</rscale>
<asrwt>0</asrwt>
<pdfrwt beam="2">  1        3 0.52280169E-02 0.17407606E+03</pdfrwt>
<pdfrwt beam="1">  1       -3 0.12084332E+00 0.17407606E+03</pdfrwt>
<totfact> 0.29688811E+02</totfact>
</mgrwt>
</event>
<event>
 8    1  0.1224355E-005  0.1254815E+03  0.7546771E-02  0.1250005E+00
         -1   -1    0    0    0  501 -0.00000000000E+00  0.00000000000E+00  0.48587284809E+02  0.48587284809E+02  0.00000000000E+00 0.  1.
          1   -1    0    0  501    0  0.00000000000E+00 -0.00000000000E+00 -0.39063473782E+03  0.39063473782E+03  0.00000000000E+00 0. -1.
         23    2    1    2    0    0 -0.83096419472E+00 -0.10891613768E+02 -0.19891003122E+02  0.93490369773E+02  0.90694429173E+02 0.  0.
         23    2    1    2    0    0  0.83096419472E+00  0.10891613768E+02 -0.32215644989E+03  0.34573165286E+03  0.12500511921E+03 0.  0.
          5    1    4    4  502    0  0.25531679113E+01 -0.40301129424E+02 -0.33934866701E+02  0.52956254373E+02  0.47000000000E+01 0.  1.
         -5    1    4    4    0  502 -0.17222037166E+01  0.51192743192E+02 -0.28822158319E+03  0.29277539848E+03  0.47000000000E+01 0.  1.
        -11    1    3    3    0    0  0.12219738856E+02  0.14524234128E+02 -0.49094140364E+02  0.52635634439E+02  0.00000000000E+00 0. -1.
         11    1    3    3    0    0 -0.13050703051E+02 -0.25415847896E+02  0.29203137242E+02  0.40854735333E+02  0.00000000000E+00 0.  1.
<mgrwt>
<rscale>  0 0.11590753E+03</rscale>
<asrwt>0</asrwt>
<pdfrwt beam="2">  1        1 0.60097653E-01 0.12548146E+03</pdfrwt>
<pdfrwt beam="1">  1       -1 0.74749667E-02 0.12548146E+03</pdfrwt>
<totfact> 0.56975812E+03</totfact>
</mgrwt>
</event>
<event>
 8    1  0.1755393E-005  0.2120664E+03  0.7546771E-02  0.1144056E+00
          1   -1    0    0  501    0  0.00000000000E+00  0.00000000000E+00  0.20969641629E+03  0.20969641629E+03  0.00000000000E+00 0. -1.
         -1   -1    0    0    0  501 -0.00000000000E+00 -0.00000000000E+00 -0.23407194057E+03  0.23407194057E+03  0.00000000000E+00 0.  1.
         23    2    1    2    0    0 -0.71342867126E+02  0.15574761999E+03 -0.10254962801E+03  0.21775207512E+03  0.86904626995E+02 0.  0.
         23    2    1    2    0    0  0.71342867126E+02 -0.15574761999E+03  0.78174103736E+02  0.22601628174E+03  0.12500017317E+03 0.  0.
          5    1    4    4  502    0  0.85711594067E+02 -0.14726326902E+03  0.27755259849E+02  0.17270029591E+03  0.47000000000E+01 0. -1.
         -5    1    4    4    0  502 -0.14368726941E+02 -0.84843509708E+01  0.50418843888E+02  0.53315985823E+02  0.47000000000E+01 0. -1.
        -11    1    3    3    0    0 -0.84034768908E+01  0.94703365861E+02 -0.19646044177E+02  0.97084051116E+02  0.00000000000E+00 0.  1.
         11    1    3    3    0    0 -0.62939390235E+02  0.61044254127E+02 -0.82903583835E+02  0.12066802401E+03  0.00000000000E+00 0. -1.
<mgrwt>
<rscale>  0 0.20688622E+03</rscale>
<asrwt>0</asrwt>
<pdfrwt beam="1">  1        1 0.32260987E-01 0.21206643E+03</pdfrwt>
<pdfrwt beam="2">  1       -1 0.36011068E-01 0.21206643E+03</pdfrwt>
<totfact> 0.10250685E+03</totfact>
</mgrwt>
</event>
<event>
 8    1  0.1224355E-005  0.1486336E+03  0.7546771E-02  0.1216091E+00
         -1   -1    0    0    0  501 -0.00000000000E+00  0.00000000000E+00  0.16795115401E+02  0.16795115401E+02  0.00000000000E+00 0.  1.
          1   -1    0    0  501    0  0.00000000000E+00 -0.00000000000E+00 -0.10020575675E+04  0.10020575675E+04  0.00000000000E+00 0. -1.
         23    2    1    2    0    0  0.60060993919E+02  0.53472865440E+02 -0.38941108618E+03  0.40474292386E+03  0.75559050072E+02 0.  0.
         23    2    1    2    0    0 -0.60060993919E+02 -0.53472865440E+02 -0.59585136597E+03  0.61410975909E+03  0.12500110221E+03 0.  0.
          5    1    4    4  502    0  0.18696499723E+02  0.28692019267E+02 -0.12720588226E+03  0.13181888163E+03  0.47000000000E+01 0. -1.
         -5    1    4    4    0  502 -0.78757493642E+02 -0.82164884708E+02 -0.46864548371E+03  0.48229087746E+03  0.47000000000E+01 0. -1.
        -11    1    3    3    0    0  0.18049475553E+02  0.57581567096E+02 -0.29810671003E+03  0.30415297303E+03  0.00000000000E+00 0.  1.
         11    1    3    3    0    0  0.42011518366E+02 -0.41087016553E+01 -0.91304376149E+02  0.10058995083E+03  0.00000000000E+00 0. -1.
<mgrwt>
<rscale>  0 0.13796696E+03</rscale>
<asrwt>0</asrwt>
<pdfrwt beam="2">  1        1 0.15416269E+00 0.14863360E+03</pdfrwt>
<pdfrwt beam="1">  1       -1 0.25838642E-02 0.14863360E+03</pdfrwt>
<totfact> 0.73013655E+03</totfact>
</mgrwt>
</event>
<event>
 7    1  0.1224355E-005  0.2046437E+03  0.7546771E-02  0.1166975E+00
         -2   -1    0    0    0  501 -0.00000000000E+00  0.00000000000E+00  0.21099097343E+02  0.21099097343E+02  0.00000000000E+00 0.  1.
          2   -1    0    0  501    0  0.00000000000E+00 -0.00000000000E+00 -0.13818878319E+04  0.13818878319E+04  0.00000000000E+00 0. -1.
         23    2    1    2    0    0  0.83862934733E+02  0.10179537740E+02 -0.34761874822E+03  0.36935620264E+03  0.91916241760E+02 0.  0.
          5    1    1    2  502    0 -0.66996310959E+02 -0.16716989968E+02 -0.10125686420E+04  0.10149311839E+04  0.47000000000E+01 0. -1.
         -5    1    1    2    0  502 -0.16866623774E+02  0.65374522279E+01 -0.60134431824E+00  0.18699542619E+02  0.47000000000E+01 0.  1.
        -11    1    3    3    0    0  0.37628066740E+02 -0.40882866095E+02 -0.16988498591E+03  0.17874056222E+03  0.00000000000E+00 0.  1.
         11    1    3    3    0    0  0.46234867993E+02  0.51062403835E+02 -0.17773376231E+03  0.19061564041E+03  0.00000000000E+00 0. -1.
<mgrwt>
<rscale>  0 0.18085808E+03</rscale>
<asrwt>0</asrwt>
<pdfrwt beam="2">  1        2 0.21259808E+00 0.20464373E+03</pdfrwt>
<pdfrwt beam="1">  1       -2 0.32460157E-02 0.20464373E+03</pdfrwt>
<totfact> 0.59086299E+03</totfact>
</mgrwt>
</event>
<event>
 8    1  0.1224355E-005  0.1569728E+03  0.7546771E-02  0.1200293E+00
         -1   -1    0    0    0  501 -0.00000000000E+00  0.00000000000E+00  0.10860945884E+03  0.10860945884E+03  0.00000000000E+00 0.  1.
          1   -1    0    0  501    0  0.00000000000E+00 -0.00000000000E+00 -0.19494152055E+03  0.19494152055E+03  0.00000000000E+00 0. -1.
         23    2    1    2    0    0 -0.67964721910E+02  0.66242531668E+02 -0.19071574425E+02  0.13277501505E+03  0.90874656781E+02 0.  0.
         23    2    1    2    0    0  0.67964721910E+02 -0.66242531668E+02 -0.67260487284E+02  0.17077596434E+03  0.12503271741E+03 0.  0.
          5    1    4    4  502    0 -0.14433102024E+01 -0.70960819195E+02  0.37836709153E+01  0.71231504061E+02  0.47000000000E+01 0. -1.
         -5    1    4    4    0  502  0.69408032113E+02  0.47182875268E+01 -0.71044158199E+02  0.99544460284E+02  0.47000000000E+01 0. -1.
        -11    1    3    3    0    0 -0.59193332068E+02  0.84851355510E+02  0.17931819894E+01  0.10347375800E+03  0.00000000000E+00 0.  1.
         11    1    3    3    0    0 -0.87713898424E+01 -0.18608823842E+02 -0.20864756415E+02  0.29301257052E+02  0.00000000000E+00 0. -1.
<mgrwt>
<rscale>  0 0.15014664E+03</rscale>
<asrwt>0</asrwt>
<pdfrwt beam="2">  1        1 0.29991003E-01 0.15697279E+03</pdfrwt>
<pdfrwt beam="1">  1       -1 0.16709148E-01 0.15697279E+03</pdfrwt>
<totfact> 0.39665445E+03</totfact>
</mgrwt>
</event>
<event>
 8    1  0.1273604E-005  0.2110713E+03  0.7546771E-02  0.1144356E+00
          2   -1    0    0  501    0  0.00000000000E+00  0.00000000000E+00  0.56252738146E+03  0.56252738146E+03  0.00000000000E+00 0. -1.
         -2   -1    0    0    0  501 -0.00000000000E+00 -0.00000000000E+00 -0.75744332963E+02  0.75744332963E+02  0.00000000000E+00 0.  1.
         23    2    1    2    0    0 -0.14314941134E+03  0.91840276677E+02  0.16944342352E+03  0.25714765257E+03  0.92127363275E+02 0.  0.
         23    2    1    2    0    0  0.14314941134E+03 -0.91840276677E+02  0.31733962497E+03  0.38112406185E+03  0.12499889021E+03 0.  0.
          5    1    4    4  502    0  0.13523072568E+03 -0.17904847621E+02  0.21003533522E+03  0.25048925082E+03  0.47000000000E+01 0.  1.
         -5    1    4    4    0  502  0.79186856604E+01 -0.73935429056E+02  0.10730428975E+03  0.13063481102E+03  0.47000000000E+01 0.  1.
        -11    1    3    3    0    0 -0.14684685068E+03  0.63064746150E+02  0.12012205295E+03  0.19992615478E+03  0.00000000000E+00 0.  1.
         11    1    3    3    0    0  0.36974393404E+01  0.28775530527E+02  0.49321370569E+02  0.57221497792E+02  0.00000000000E+00 0. -1.
<mgrwt>
<rscale>  0 0.20651471E+03</rscale>
<asrwt>0</asrwt>
<pdfrwt beam="1">  1        2 0.86542671E-01 0.21107135E+03</pdfrwt>
<pdfrwt beam="2">  1       -2 0.11652975E-01 0.21107135E+03</pdfrwt>
<totfact> 0.27941121E+03</totfact>
</mgrwt>
</event>
<event>
 8    1  0.1224355E-005  0.1407067E+03  0.7546771E-02  0.1222802E+00
         -1   -1    0    0    0  501 -0.00000000000E+00  0.00000000000E+00  0.29353333055E+02  0.29353333055E+02  0.00000000000E+00 0.  1.
          1   -1    0    0  501    0  0.00000000000E+00 -0.00000000000E+00 -0.57067807809E+03  0.57067807809E+03  0.00000000000E+00 0. -1.
         23    2    1    2    0    0  0.40477334654E+02 -0.50369565080E+02 -0.18278585662E+03  0.21487104010E+03  0.92646569201E+02 0.  0.
         23    2    1    2    0    0 -0.40477334654E+02  0.50369565080E+02 -0.35853888842E+03  0.38516037105E+03  0.12499147657E+03 0.  0.
          5    1    4    4  502    0 -0.48793940997E+02 -0.31076810787E+02 -0.13050229066E+03  0.14282700975E+03  0.47000000000E+01 0. -1.
         -5    1    4    4    0  502  0.83166063428E+01  0.81446375867E+02 -0.22803659776E+03  0.24233336130E+03  0.47000000000E+01 0. -1.
        -11    1    3    3    0    0  0.58884771749E+02 -0.53608296197E+02 -0.89785749123E+02  0.12001144325E+03  0.00000000000E+00 0.  1.
         11    1    3    3    0    0 -0.18407437095E+02  0.32387311175E+01 -0.93000107497E+02  0.94859596848E+02  0.00000000000E+00 0. -1.
<mgrwt>
<rscale>  0 0.13318727E+03</rscale>
<asrwt>0</asrwt>
<pdfrwt beam="2">  1        1 0.87796621E-01 0.14070671E+03</pdfrwt>
<pdfrwt beam="1">  1       -1 0.45158977E-02 0.14070671E+03</pdfrwt>
<totfact> 0.74364952E+03</totfact>
</mgrwt>
</event>
<event>
 8    1  0.1224355E-005  0.1455349E+03  0.7546771E-02  0.1214354E+00
          2   -1    0    0  501    0  0.00000000000E+00  0.00000000000E+00  0.65210024543E+03  0.65210024543E+03  0.00000000000E+00 0. -1.
         -2   -1    0    0    0  501 -0.00000000000E+00 -0.00000000000E+00 -0.10261584667E+03  0.10261584667E+03  0.00000000000E+00 0.  1.
         23    2    1    2    0    0 -0.76149892427E+02  0.22837567040E+02 -0.54408911011E+02  0.13353372033E+03  0.92469261283E+02 0.  0.
         23    2    1    2    0    0  0.76149892427E+02 -0.22837567040E+02  0.60389330976E+03  0.62118237177E+03  0.12190179998E+03 0.  0.
          5    1    4    4  502    0  0.30894560947E+02  0.11394010248E+02  0.51199855386E+03  0.51307787569E+03  0.47000000000E+01 0. -1.
         -5    1    4    4    0  502  0.45255331480E+02 -0.34231577288E+02  0.91894755901E+02  0.10810449608E+03  0.47000000000E+01 0.  1.
        -11    1    3    3    0    0 -0.90221506002E+02  0.12339883543E+02 -0.17591877351E+02  0.92745172488E+02  0.00000000000E+00 0.  1.
         11    1    3    3    0    0  0.14071613575E+02  0.10497683497E+02 -0.36817033660E+02  0.40788547840E+02  0.00000000000E+00 0. -1.
<mgrwt>
<rscale>  0 0.13924116E+03</rscale>
<asrwt>0</asrwt>
<pdfrwt beam="1">  1        2 0.10032311E+00 0.14553491E+03</pdfrwt>
<pdfrwt beam="2">  1       -2 0.15787054E-01 0.14553491E+03</pdfrwt>
<totfact> 0.14265958E+03</totfact>
</mgrwt>
</event>
<event>
 8    1  0.1224355E-005  0.1544070E+03  0.7546771E-02  0.1203531E+00
         -3   -1    0    0    0  501 -0.00000000000E+00  0.00000000000E+00  0.21691970788E+03  0.21691970788E+03  0.00000000000E+00 0.  1.
          3   -1    0    0  501    0  0.00000000000E+00 -0.00000000000E+00 -0.10609752148E+03  0.10609752148E+03  0.00000000000E+00 0. -1.
         23    2    1    2    0    0 -0.83546384798E+02  0.35154270156E+02  0.10889597042E+03  0.16859822688E+03  0.91384947397E+02 0.  0.
         23    2    1    2    0    0  0.83546384798E+02 -0.35154270156E+02  0.19262159793E+01  0.15441900249E+03  0.12500278756E+03 0.  0.
          5    1    4    4  502    0  0.27318878017E+02 -0.28173715415E+02 -0.59045407679E+02  0.71053004893E+02  0.47000000000E+01 0. -1.
         -5    1    4    4    0  502  0.56227506781E+02 -0.69805547416E+01  0.60971623658E+02  0.83365997594E+02  0.47000000000E+01 0. -1.
        -11    1    3    3    0    0 -0.10529304252E+02  0.49424295204E+02  0.24718304545E+02  0.56254971194E+02  0.00000000000E+00 0.  1.
         11    1    3    3    0    0 -0.73017080546E+02 -0.14270025047E+02  0.84177665873E+02  0.11234325569E+03  0.00000000000E+00 0. -1.
<mgrwt>
<rscale>  0 0.14753865E+03</rscale>
<asrwt>0</asrwt>
<pdfrwt beam="2">  1        3 0.16322696E-01 0.15440699E+03</pdfrwt>
<pdfrwt beam="1">  1       -3 0.33372263E-01 0.15440699E+03</pdfrwt>
<totfact> 0.66449056E+02</totfact>
</mgrwt>
</event>
<event>
 8    1  0.1224355E-005  0.1392976E+03  0.7546771E-02  0.1225586E+00
         -2   -1    0    0    0  501 -0.00000000000E+00  0.00000000000E+00  0.39939354233E+02  0.39939354233E+02  0.00000000000E+00 0.  1.
          2   -1    0    0  501    0  0.00000000000E+00 -0.00000000000E+00 -0.41681065766E+03  0.41681065766E+03  0.00000000000E+00 0. -1.
         23    2    1    2    0    0 -0.60394571388E+02 -0.11440433552E+02 -0.10861022393E+03  0.15447888841E+03  0.91044815608E+02 0.  0.
         23    2    1    2    0    0  0.60394571388E+02  0.11440433552E+02 -0.26826107950E+03  0.30227112348E+03  0.12500175017E+03 0.  0.
          5    1    4    4  502    0 -0.21275490657E+02  0.28823044374E+02 -0.22249500436E+02  0.42432825258E+02  0.47000000000E+01 0.  1.
         -5    1    4    4    0  502  0.81670062045E+02 -0.17382610822E+02 -0.24601157906E+03  0.25983829823E+03  0.47000000000E+01 0.  1.
        -11    1    3    3    0    0 -0.25785239046E+02 -0.50810016971E+02 -0.63564907538E+02  0.85364125062E+02  0.00000000000E+00 0.  1.
         11    1    3    3    0    0 -0.34609332342E+02  0.39369583419E+02 -0.45045316397E+02  0.69114763351E+02  0.00000000000E+00 0. -1.
<mgrwt>
<rscale>  0 0.13126838E+03</rscale>
<asrwt>0</asrwt>
<pdfrwt beam="2">  1        2 0.64124719E-01 0.13929761E+03</pdfrwt>
<pdfrwt beam="1">  1       -2 0.61445158E-02 0.13929761E+03</pdfrwt>
<totfact> 0.10350306E+04</totfact>
</mgrwt>
</event>
<event>
 8    1  0.1224355E-005  0.1287879E+03  0.7546771E-02  0.1244674E+00
         -1   -1    0    0    0  501 -0.00000000000E+00  0.00000000000E+00  0.13205142423E+03  0.13205142423E+03  0.00000000000E+00 0.  1.
          1   -1    0    0  501    0  0.00000000000E+00 -0.00000000000E+00 -0.12309492885E+03  0.12309492885E+03  0.00000000000E+00 0. -1.
         23    2    1    2    0    0 -0.15770886761E+02  0.26212984289E+02  0.65393437163E+02  0.11453537570E+03  0.88916867060E+02 0.  0.
         23    2    1    2    0    0  0.15770886761E+02 -0.26212984289E+02 -0.56436941784E+02  0.14061097738E+03  0.12510186709E+03 0.  0.
          5    1    4    4  502    0 -0.32177240689E+02 -0.60581414510E+02 -0.38346207256E+02  0.78727404462E+02  0.47000000000E+01 0. -1.
         -5    1    4    4    0  502  0.47948127451E+02  0.34368430221E+02 -0.18090734528E+02  0.61883572922E+02  0.47000000000E+01 0. -1.
        -11    1    3    3    0    0 -0.27968760363E+02  0.29575573432E+02 -0.67753054117E+01  0.41265855904E+02  0.00000000000E+00 0. -1.
         11    1    3    3    0    0  0.12197873601E+02 -0.33625891424E+01  0.72168742575E+02  0.73269519795E+02  0.00000000000E+00 0.  1.
<mgrwt>
<rscale>  0 0.11904890E+03</rscale>
<asrwt>0</asrwt>
<pdfrwt beam="2">  1        1 0.18937681E-01 0.12878788E+03</pdfrwt>
<pdfrwt beam="1">  1       -1 0.20315604E-01 0.12878788E+03</pdfrwt>
<totfact> 0.51245581E+03</totfact>
</mgrwt>
</event>
<event>
 8    1  0.1224355E-005  0.1422006E+03  0.7546771E-02  0.1222017E+00
         -4   -1    0    0    0  501 -0.00000000000E+00  0.00000000000E+00  0.85552577446E+03  0.85552577446E+03  0.00000000000E+00 0. -1.
          4   -1    0    0  501    0  0.00000000000E+00 -0.00000000000E+00 -0.19255004893E+02  0.19255004893E+02  0.00000000000E+00 0.  1.
         23    2    1    2    0    0  0.38795617783E+02 -0.55593192246E+02  0.43723949281E+03  0.45116896952E+03  0.88200691629E+02 0.  0.
         23    2    1    2    0    0 -0.38795617783E+02  0.55593192246E+02  0.39903127676E+03  0.42361180983E+03  0.12500121045E+03 0.  0.
          5    1    4    4  502    0  0.15180912017E+02 -0.16977754590E+02  0.12083677565E+02  0.26207050656E+02  0.47000000000E+01 0.  1.
         -5    1    4    4    0  502 -0.53976529800E+02  0.72570946836E+02  0.38694759919E+03  0.39740475917E+03  0.47000000000E+01 0.  1.
        -11    1    3    3    0    0 -0.85694182066E+00 -0.69252752393E+02  0.27856424710E+03  0.28704480108E+03  0.00000000000E+00 0.  1.
         11    1    3    3    0    0  0.39652559604E+02  0.13659560147E+02  0.15867524571E+03  0.16412416844E+03  0.00000000000E+00 0. -1.
<mgrwt>
<rscale>  0 0.13373481E+03</rscale>
<asrwt>0</asrwt>
<pdfrwt beam="2">  1        4 0.29623091E-02 0.14220058E+03</pdfrwt>
<pdfrwt beam="1">  1       -4 0.13161932E+00 0.14220058E+03</pdfrwt>
<totfact> 0.40926822E+02</totfact>
</mgrwt>
</event>
<event>
 8    1  0.1224355E-005  0.1403117E+03  0.7546771E-02  0.1224345E+00
         -4   -1    0    0    0  501 -0.00000000000E+00  0.00000000000E+00  0.35152939571E+03  0.35152939571E+03  0.00000000000E+00 0.  1.
          4   -1    0    0  501    0  0.00000000000E+00 -0.00000000000E+00 -0.48049914224E+02  0.48049914224E+02  0.00000000000E+00 0. -1.
         23    2    1    2    0    0  0.50988838874E+02 -0.38246812199E+02  0.18750667801E+03  0.21754342518E+03  0.90020593232E+02 0.  0.
         23    2    1    2    0    0 -0.50988838874E+02  0.38246812199E+02  0.11597280348E+03  0.18203588476E+03  0.12499876743E+03 0.  0.
          5    1    4    4  502    0 -0.59599510610E+02 -0.30400150348E+02  0.78373293325E+02  0.10315393309E+03  0.47000000000E+01 0. -1.
         -5    1    4    4    0  502  0.86106717360E+01  0.68646962547E+02  0.37599510151E+02  0.78881951663E+02  0.47000000000E+01 0. -1.
        -11    1    3    3    0    0  0.19701060665E+02  0.28915012359E+02  0.75972941008E+02  0.83642677483E+02  0.00000000000E+00 0.  1.
         11    1    3    3    0    0  0.31287778210E+02 -0.67161824558E+02  0.11153373700E+03  0.13390074769E+03  0.00000000000E+00 0. -1.
<mgrwt>
<rscale>  0 0.13211910E+03</rscale>
<asrwt>0</asrwt>
<pdfrwt beam="2">  1        4 0.73922947E-02 0.14031170E+03</pdfrwt>
<pdfrwt beam="1">  1       -4 0.54081444E-01 0.14031170E+03</pdfrwt>
<totfact> 0.69250772E+02</totfact>
</mgrwt>
</event>
<event>
 8    1  0.1224355E-005  0.1480028E+03  0.7546771E-02  0.1212172E+00
         -2   -1    0    0    0  501 -0.00000000000E+00  0.00000000000E+00  0.62435324043E+02  0.62435324043E+02  0.00000000000E+00 0.  1.
          2   -1    0    0  501    0  0.00000000000E+00 -0.00000000000E+00 -0.35889777438E+03  0.35889777438E+03  0.00000000000E+00 0. -1.
         23    2    1    2    0    0  0.79255890272E+02  0.35467058474E+00 -0.44933340309E+02  0.12949114432E+03  0.92018093068E+02 0.  0.
         23    2    1    2    0    0 -0.79255890272E+02 -0.35467058474E+00 -0.25152911003E+03  0.29184195411E+03  0.12499284400E+03 0.  0.
          5    1    4    4  502    0 -0.87375976641E+02 -0.78163457766E+01 -0.76757147215E+02  0.11665935969E+03  0.47000000000E+01 0.  1.
         -5    1    4    4    0  502  0.81200863692E+01  0.74616751918E+01 -0.17477196282E+03  0.17518259441E+03  0.47000000000E+01 0.  1.
        -11    1    3    3    0    0  0.42052257077E+02  0.44991185122E+02 -0.34057883485E+02  0.70374274358E+02  0.00000000000E+00 0.  1.
         11    1    3    3    0    0  0.37203633195E+02 -0.44636514537E+02 -0.10875456824E+02  0.59116869961E+02  0.00000000000E+00 0. -1.
<mgrwt>
<rscale>  0 0.14086322E+03</rscale>
<asrwt>0</asrwt>
<pdfrwt beam="2">  1        2 0.55215043E-01 0.14800281E+03</pdfrwt>
<pdfrwt beam="1">  1       -2 0.96054344E-02 0.14800281E+03</pdfrwt>
<totfact> 0.61199347E+03</totfact>
</mgrwt>
</event>
<event>
 8    1  0.1224355E-005  0.1434835E+03  0.7546771E-02  0.1218672E+00
         -2   -1    0    0    0  501 -0.00000000000E+00  0.00000000000E+00  0.12090457210E+03  0.12090457210E+03  0.00000000000E+00 0.  1.
          2   -1    0    0  501    0  0.00000000000E+00 -0.00000000000E+00 -0.13939908630E+03  0.13939908630E+03  0.00000000000E+00 0. -1.
         23    2    1    2    0    0 -0.15429889465E+02  0.68723859174E+02 -0.87661161780E+01  0.11649076502E+03  0.92369926016E+02 0.  0.
         23    2    1    2    0    0  0.15429889465E+02 -0.68723859174E+02 -0.97283980142E+01  0.14381289338E+03  0.12500582493E+03 0.  0.
          5    1    4    4  502    0  0.60228756919E+02 -0.10085575875E+02  0.19538823204E+02  0.64289016270E+02  0.47000000000E+01 0.  1.
         -5    1    4    4    0  502 -0.44798867454E+02 -0.58638283299E+02 -0.29267221218E+02  0.79523877114E+02  0.47000000000E+01 0.  1.
        -11    1    3    3    0    0 -0.12377906383E+02  0.48461444495E+02 -0.49827169644E+02  0.70600786141E+02  0.00000000000E+00 0. -1.
         11    1    3    3    0    0 -0.30519830817E+01  0.20262414679E+02  0.41061053466E+02  0.45889978874E+02  0.00000000000E+00 0.  1.
<mgrwt>
<rscale>  0 0.13610247E+03</rscale>
<asrwt>0</asrwt>
<pdfrwt beam="2">  1        2 0.21446013E-01 0.14348347E+03</pdfrwt>
<pdfrwt beam="1">  1       -2 0.18600703E-01 0.14348347E+03</pdfrwt>
<totfact> 0.58245572E+03</totfact>
</mgrwt>
</event>
<event>
 8    1  0.1224355E-005  0.1350841E+03  0.7546771E-02  0.1229105E+00
         -1   -1    0    0    0  501 -0.00000000000E+00  0.00000000000E+00  0.18168510498E+03  0.18168510498E+03  0.00000000000E+00 0.  1.
          1   -1    0    0  501    0  0.00000000000E+00 -0.00000000000E+00 -0.26290542769E+03  0.26290542769E+03  0.00000000000E+00 0. -1.
         23    2    1    2    0    0  0.15921074096E+02 -0.63240445719E+02  0.14372756344E+03  0.18219908817E+03  0.91027801597E+02 0.  0.
         23    2    1    2    0    0 -0.15921074096E+02  0.63240445719E+02 -0.22494788614E+03  0.26239144450E+03  0.11829997503E+03 0.  0.
          5    1    4    4  502    0  0.76912717982E+01  0.68495452751E+02 -0.22736634200E+03  0.23763065077E+03  0.47000000000E+01 0. -1.
         -5    1    4    4    0  502 -0.23612345894E+02 -0.52550070317E+01  0.24184558567E+01  0.24760793733E+02  0.47000000000E+01 0.  1.
        -11    1    3    3    0    0  0.45415849454E+02 -0.37781624615E+01  0.56479798369E+02  0.72573008185E+02  0.00000000000E+00 0.  1.
         11    1    3    3    0    0 -0.29494775358E+02 -0.59462283258E+02  0.87247765067E+02  0.10962607998E+03  0.00000000000E+00 0. -1.
<mgrwt>
<rscale>  0 0.12889487E+03</rscale>
<asrwt>0</asrwt>
<pdfrwt beam="2">  1        1 0.40446989E-01 0.13508412E+03</pdfrwt>
<pdfrwt beam="1">  1       -1 0.27951555E-01 0.13508412E+03</pdfrwt>
<totfact> 0.11811307E+03</totfact>
</mgrwt>
</event>
<event>
 8    1  0.1224355E-005  0.1396195E+03  0.7546771E-02  0.1225662E+00
         -1   -1    0    0    0  501 -0.00000000000E+00  0.00000000000E+00  0.19293671827E+02  0.19293671827E+02  0.00000000000E+00 0.  1.
          1   -1    0    0  501    0  0.00000000000E+00 -0.00000000000E+00 -0.10327078933E+04  0.10327078933E+04  0.00000000000E+00 0. -1.
         23    2    1    2    0    0 -0.10311785350E+02  0.61152671076E+02 -0.21021703739E+03  0.23675967861E+03  0.89543065124E+02 0.  0.
         23    2    1    2    0    0  0.10311785350E+02 -0.61152671076E+02 -0.80319718406E+03  0.81524188649E+03  0.12509050687E+03 0.  0.
          5    1    4    4  502    0  0.56780283541E+02  0.31847271586E+01 -0.25478830257E+03  0.26110019574E+03  0.47000000000E+01 0.  1.
         -5    1    4    4    0  502 -0.46468498191E+02 -0.64337398235E+02 -0.54840888149E+03  0.55414169075E+03  0.47000000000E+01 0.  1.
        -11    1    3    3    0    0 -0.36248913297E+02  0.71877061804E+02 -0.14717571228E+03  0.16775275263E+03  0.00000000000E+00 0.  1.
         11    1    3    3    0    0  0.25937127947E+02 -0.10724390728E+02 -0.63041325109E+02  0.69006925986E+02  0.00000000000E+00 0. -1.
<mgrwt>
<rscale>  0 0.13121645E+03</rscale>
<asrwt>0</asrwt>
<pdfrwt beam="2">  1        1 0.15887816E+00 0.13961954E+03</pdfrwt>
<pdfrwt beam="1">  1       -1 0.29682568E-02 0.13961954E+03</pdfrwt>
<totfact> 0.56521805E+03</totfact>
</mgrwt>
</event>
<event>
 8    1  0.1224355E-005  0.1325600E+03  0.7546771E-02  0.1236724E+00
         -1   -1    0    0    0  501 -0.00000000000E+00  0.00000000000E+00  0.10948408849E+03  0.10948408849E+03  0.00000000000E+00 0.  1.
          1   -1    0    0  501    0  0.00000000000E+00 -0.00000000000E+00 -0.12490726874E+03  0.12490726874E+03  0.00000000000E+00 0. -1.
         23    2    1    2    0    0  0.44092260411E+02  0.18843434362E+01 -0.63842332549E+01  0.10152353530E+03  0.91206313418E+02 0.  0.
         23    2    1    2    0    0 -0.44092260411E+02 -0.18843434362E+01 -0.90389469934E+01  0.13286782194E+03  0.12499790944E+03 0.  0.
          5    1    4    4  502    0  0.13027093342E+02  0.23702995679E+02  0.43215729836E+02  0.51197914707E+02  0.47000000000E+01 0.  1.
         -5    1    4    4    0  502 -0.57119353753E+02 -0.25587339115E+02 -0.52254676829E+02  0.81669907228E+02  0.47000000000E+01 0.  1.
        -11    1    3    3    0    0  0.34013202145E+02 -0.78989082255E+01  0.39977874262E+02  0.53080326881E+02  0.00000000000E+00 0.  1.
         11    1    3    3    0    0  0.10079058266E+02  0.97832516618E+01 -0.46362107516E+02  0.48443208419E+02  0.00000000000E+00 0. -1.
<mgrwt>
<rscale>  0 0.12394699E+03</rscale>
<asrwt>0</asrwt>
<pdfrwt beam="2">  1        1 0.19216503E-01 0.13256001E+03</pdfrwt>
<pdfrwt beam="1">  1       -1 0.16843706E-01 0.13256001E+03</pdfrwt>
<totfact> 0.67932957E+03</totfact>
</mgrwt>
</event>
<event>
 8    1  0.1224355E-005  0.1912971E+03  0.7546771E-02  0.1162135E+00
         -2   -1    0    0    0  501 -0.00000000000E+00  0.00000000000E+00  0.40908620714E+02  0.40908620714E+02  0.00000000000E+00 0.  1.
          2   -1    0    0  501    0  0.00000000000E+00 -0.00000000000E+00 -0.14460803589E+04  0.14460803589E+04  0.00000000000E+00 0. -1.
         23    2    1    2    0    0  0.80782019868E+02 -0.12018035172E+03 -0.18480687797E+03  0.25172181350E+03  0.90781262214E+02 0.  0.
         23    2    1    2    0    0 -0.80782019868E+02  0.12018035172E+03 -0.12203648602E+04  0.12352671661E+04  0.12500211188E+03 0.  0.
          5    1    4    4  502    0  0.41612310736E+01  0.83761090354E+02 -0.82269291065E+03  0.82696974028E+03  0.47000000000E+01 0.  1.
         -5    1    4    4    0  502 -0.84943250941E+02  0.36419261371E+02 -0.39767194959E+03  0.40829742587E+03  0.47000000000E+01 0.  1.
        -11    1    3    3    0    0  0.72162028910E+02 -0.68344173214E+02 -0.59489235128E+02  0.11583286893E+03  0.00000000000E+00 0.  1.
         11    1    3    3    0    0  0.86199909573E+01 -0.51836178510E+02 -0.12531764285E+03  0.13588894457E+03  0.00000000000E+00 0. -1.
<mgrwt>
<rscale>  0 0.18598301E+03</rscale>
<asrwt>0</asrwt>
<pdfrwt beam="2">  1        2 0.22247393E+00 0.19129710E+03</pdfrwt>
<pdfrwt beam="1">  1       -2 0.62936331E-02 0.19129710E+03</pdfrwt>
<totfact> 0.20083407E+03</totfact>
</mgrwt>
</event>
<event>
 8    1  0.1224355E-005  0.1340005E+03  0.7546771E-02  0.1234494E+00
         -1   -1    0    0    0  501 -0.00000000000E+00  0.00000000000E+00  0.28160287384E+02  0.28160287384E+02  0.00000000000E+00 0.  1.
          1   -1    0    0  501    0  0.00000000000E+00 -0.00000000000E+00 -0.50344591905E+03  0.50344591905E+03  0.00000000000E+00 0. -1.
         23    2    1    2    0    0 -0.68272229224E+01  0.47790759142E+02 -0.17736787521E+03  0.20493951648E+03  0.90610565753E+02 0.  0.
         23    2    1    2    0    0  0.68272229224E+01 -0.47790759142E+02 -0.29791775645E+03  0.32666668995E+03  0.12500227631E+03 0.  0.
          5    1    4    4  502    0  0.35127684397E+02 -0.72069632079E+02 -0.11716624239E+03  0.14204930283E+03  0.47000000000E+01 0. -1.
         -5    1    4    4    0  502 -0.28300461474E+02  0.24278872936E+02 -0.18075151407E+03  0.18461738712E+03  0.47000000000E+01 0. -1.
        -11    1    3    3    0    0 -0.31592917106E+02  0.96630540750E+01 -0.14603018987E+03  0.14972075133E+03  0.00000000000E+00 0. -1.
         11    1    3    3    0    0  0.24765694184E+02  0.38127705067E+02 -0.31337685340E+02  0.55218765149E+02  0.00000000000E+00 0.  1.
<mgrwt>
<rscale>  0 0.12536874E+03</rscale>
<asrwt>0</asrwt>
<pdfrwt beam="2">  1        1 0.77453206E-01 0.13400051E+03</pdfrwt>
<pdfrwt beam="1">  1       -1 0.43323526E-02 0.13400051E+03</pdfrwt>
<totfact> 0.93041084E+03</totfact>
</mgrwt>
</event>
<event>
 8    1  0.1224355E-005  0.1720243E+03  0.7546771E-02  0.1179540E+00
          1   -1    0    0  501    0  0.00000000000E+00  0.00000000000E+00  0.55824551420E+02  0.55824551420E+02  0.00000000000E+00 0. -1.
         -1   -1    0    0    0  501 -0.00000000000E+00 -0.00000000000E+00 -0.51470959992E+03  0.51470959992E+03  0.00000000000E+00 0.  1.
         23    2    1    2    0    0  0.88949055275E+02 -0.91961264221E+02 -0.28562063926E+03  0.32637661962E+03  0.92594490742E+02 0.  0.
         23    2    1    2    0    0 -0.88949055275E+02  0.91961264221E+02 -0.17326440924E+03  0.24415753171E+03  0.11499363561E+03 0.  0.
          5    1    4    4  502    0 -0.98352244188E+02  0.11121007445E+03 -0.13872250288E+03  0.20324090976E+03  0.47000000000E+01 0. -1.
         -5    1    4    4    0  502  0.94031889136E+01 -0.19248810227E+02 -0.34541906363E+02  0.40916621954E+02  0.47000000000E+01 0.  1.
        -11    1    3    3    0    0  0.61662203736E+02 -0.85157453335E+02 -0.27803403292E+03  0.29724895743E+03  0.00000000000E+00 0.  1.
         11    1    3    3    0    0  0.27286851539E+02 -0.68038108864E+01 -0.75866063376E+01  0.29127662200E+02  0.00000000000E+00 0. -1.
<mgrwt>
<rscale>  0 0.16838751E+03</rscale>
<asrwt>0</asrwt>
<pdfrwt beam="1">  1        1 0.85883929E-02 0.17202426E+03</pdfrwt>
<pdfrwt beam="2">  1       -1 0.79186089E-01 0.17202426E+03</pdfrwt>
<totfact> 0.12982577E+03</totfact>
</mgrwt>
</event>
<event>
 8    1  0.1224355E-005  0.1296868E+03  0.7546771E-02  0.1242322E+00
          4   -1    0    0  501    0  0.00000000000E+00  0.00000000000E+00  0.37742518380E+02  0.37742518380E+02  0.00000000000E+00 0. -1.
         -4   -1    0    0    0  501 -0.00000000000E+00 -0.00000000000E+00 -0.34871714661E+03  0.34871714661E+03  0.00000000000E+00 0.  1.
         23    2    1    2    0    0  0.35215123384E+01 -0.34363059306E+02 -0.16512869841E+03  0.19129382994E+03  0.90181048118E+02 0.  0.
         23    2    1    2    0    0 -0.35215123384E+01  0.34363059306E+02 -0.14584592982E+03  0.19516583505E+03  0.12500178812E+03 0.  0.
          5    1    4    4  502    0  0.47097906155E+02 -0.16752673085E+01 -0.14083855388E+02  0.49411175531E+02  0.47000000000E+01 0.  1.
         -5    1    4    4    0  502 -0.50619418494E+02  0.36038326615E+02 -0.13176207443E+03  0.14575465952E+03  0.47000000000E+01 0.  1.
        -11    1    3    3    0    0 -0.10138676460E+02  0.21407970404E+02 -0.10698770726E+03  0.10957857209E+03  0.00000000000E+00 0.  1.
         11    1    3    3    0    0  0.13660188799E+02 -0.55771029710E+02 -0.58140991156E+02  0.81715257851E+02  0.00000000000E+00 0. -1.
<mgrwt>
<rscale>  0 0.12047109E+03</rscale>
<asrwt>0</asrwt>
<pdfrwt beam="1">  1        4 0.58065412E-02 0.12968681E+03</pdfrwt>
<pdfrwt beam="2">  1       -4 0.53648793E-01 0.12968681E+03</pdfrwt>
<totfact> 0.10279665E+03</totfact>
</mgrwt>
</event>
<event>
 8    1  0.1224355E-005  0.1659458E+03  0.7546771E-02  0.1191070E+00
         -3   -1    0    0    0  501 -0.00000000000E+00  0.00000000000E+00  0.98689815766E+02  0.98689815766E+02  0.00000000000E+00 0.  1.
          3   -1    0    0  501    0  0.00000000000E+00 -0.00000000000E+00 -0.24499813533E+03  0.24499813533E+03  0.00000000000E+00 0. -1.
         23    2    1    2    0    0 -0.10188967422E+03 -0.39170697173E+02 -0.10709639776E+03  0.17317226509E+03  0.81259742511E+02 0.  0.
         23    2    1    2    0    0  0.10188967422E+03  0.39170697173E+02 -0.39211921809E+02  0.17051568601E+03  0.12498870003E+03 0.  0.
          5    1    4    4  502    0  0.12160409632E+03  0.58956258644E+02 -0.43100577486E+02  0.14192655303E+03  0.47000000000E+01 0. -1.
         -5    1    4    4    0  502 -0.19714422105E+02 -0.19785561471E+02  0.38886556770E+01  0.28589132981E+02  0.47000000000E+01 0. -1.
        -11    1    3    3    0    0 -0.95150168960E+02 -0.40307838689E+01 -0.55013373810E+02  0.10998305856E+03  0.00000000000E+00 0. -1.
         11    1    3    3    0    0 -0.67395052586E+01 -0.35139913304E+02 -0.52083023949E+02  0.63189206529E+02  0.00000000000E+00 0.  1.
<mgrwt>
<rscale>  0 0.15791630E+03</rscale>
<asrwt>0</asrwt>
<pdfrwt beam="2">  1        3 0.37692020E-01 0.16594585E+03</pdfrwt>
<pdfrwt beam="1">  1       -3 0.15183049E-01 0.16594585E+03</pdfrwt>
<totfact> 0.60357397E+02</totfact>
</mgrwt>
</event>
<event>
 8    1  0.1224355E-005  0.1694093E+03  0.7546771E-02  0.1182919E+00
         -2   -1    0    0    0  501 -0.00000000000E+00  0.00000000000E+00  0.93734737961E+02  0.93734737961E+02  0.00000000000E+00 0.  1.
          2   -1    0    0  501    0  0.00000000000E+00 -0.00000000000E+00 -0.29131626678E+03  0.29131626678E+03  0.00000000000E+00 0. -1.
         23    2    1    2    0    0 -0.94555666728E+02 -0.64291540213E+02 -0.52564526891E+02  0.16205003161E+03  0.10209312907E+03 0.  0.
         23    2    1    2    0    0  0.94555666728E+02  0.64291540213E+02 -0.14501700192E+03  0.22300097313E+03  0.12500130765E+03 0.  0.
          5    1    4    4  502    0  0.15523010018E+02 -0.30051894146E+02 -0.72337753555E+02  0.79993254535E+02  0.47000000000E+01 0. -1.
         -5    1    4    4    0  502  0.79032656710E+02  0.94343434359E+02 -0.72679248370E+02  0.14300771859E+03  0.47000000000E+01 0. -1.
        -11    1    3    3    0    0 -0.13385980881E+02 -0.43990738926E+02  0.21082208926E+02  0.50584870551E+02  0.00000000000E+00 0.  1.
         11    1    3    3    0    0 -0.81169685847E+02 -0.20300801287E+02 -0.73646735818E+02  0.11146516106E+03  0.00000000000E+00 0. -1.
<mgrwt>
<rscale>  0 0.16522656E+03</rscale>
<asrwt>0</asrwt>
<pdfrwt beam="2">  1        2 0.44817887E-01 0.16940928E+03</pdfrwt>
<pdfrwt beam="1">  1       -2 0.14420729E-01 0.16940928E+03</pdfrwt>
<totfact> 0.40179067E+03</totfact>
</mgrwt>
</event>
<event>
 8    1  0.1224355E-005  0.2790175E+03  0.7546771E-02  0.1098151E+00
         -3   -1    0    0    0  501 -0.00000000000E+00  0.00000000000E+00  0.11920619001E+03  0.11920619001E+03  0.00000000000E+00 0.  1.
          3   -1    0    0  501    0  0.00000000000E+00 -0.00000000000E+00 -0.67427499279E+03  0.67427499279E+03  0.00000000000E+00 0. -1.
         23    2    1    2    0    0  0.15250357084E+03  0.19739814939E+03 -0.16015972226E+03  0.30994839055E+03  0.90517952188E+02 0.  0.
         23    2    1    2    0    0 -0.15250357084E+03 -0.19739814939E+03 -0.39490908053E+03  0.48353279225E+03  0.12500964281E+03 0.  0.
          5    1    4    4  502    0 -0.45361560571E+02 -0.10095277664E+02 -0.14993568474E+03  0.15704262277E+03  0.47000000000E+01 0.  1.
         -5    1    4    4    0  502 -0.10714201027E+03 -0.18730287172E+03 -0.24497339579E+03  0.32649016948E+03  0.47000000000E+01 0.  1.
        -11    1    3    3    0    0  0.85063606100E+02  0.45683127061E+02 -0.80920714308E+02  0.12597986817E+03  0.00000000000E+00 0.  1.
         11    1    3    3    0    0  0.67439964744E+02  0.15171502233E+03 -0.79239007947E+02  0.18396852237E+03  0.00000000000E+00 0. -1.
<mgrwt>
<rscale>  0 0.27553908E+03</rscale>
<asrwt>0</asrwt>
<pdfrwt beam="2">  1        3 0.10373461E+00 0.27901753E+03</pdfrwt>
<pdfrwt beam="1">  1       -3 0.18339414E-01 0.27901753E+03</pdfrwt>
<totfact> 0.54496909E+01</totfact>
</mgrwt>
</event>
<event>
 8    1  0.1224355E-005  0.1261565E+03  0.7546771E-02  0.1249400E+00
         -1   -1    0    0    0  501 -0.00000000000E+00  0.00000000000E+00  0.27671856599E+02  0.27671856599E+02  0.00000000000E+00 0.  1.
          1   -1    0    0  501    0  0.00000000000E+00 -0.00000000000E+00 -0.44425464305E+03  0.44425464305E+03  0.00000000000E+00 0. -1.
         23    2    1    2    0    0  0.14044406061E+02 -0.96969248768E+01 -0.12868864106E+03  0.15760421850E+03  0.89370283971E+02 0.  0.
         23    2    1    2    0    0 -0.14044406061E+02  0.96969248768E+01 -0.28789414540E+03  0.31432228116E+03  0.12499672709E+03 0.  0.
          5    1    4    4  502    0 -0.59779241678E+02 -0.18859899677E+02 -0.94496233791E+02  0.11349397232E+03  0.47000000000E+01 0. -1.
         -5    1    4    4    0  502  0.45734835617E+02  0.28556824554E+02 -0.19339791161E+03  0.20082830884E+03  0.47000000000E+01 0. -1.
        -11    1    3    3    0    0  0.20406235278E+02  0.33199321116E+02 -0.28034103813E+02  0.48005419875E+02  0.00000000000E+00 0.  1.
         11    1    3    3    0    0 -0.63618292177E+01 -0.42896245993E+02 -0.10065453724E+03  0.10959879862E+03  0.00000000000E+00 0. -1.
<mgrwt>
<rscale>  0 0.11625857E+03</rscale>
<asrwt>0</asrwt>
<pdfrwt beam="2">  1        1 0.68346862E-01 0.12615648E+03</pdfrwt>
<pdfrwt beam="1">  1       -1 0.42572091E-02 0.12615648E+03</pdfrwt>
<totfact> 0.11167623E+04</totfact>
</mgrwt>
</event>
<event>
 8    1  0.1224355E-005  0.1366304E+03  0.7546771E-02  0.1234290E+00
          1   -1    0    0  501    0  0.00000000000E+00  0.00000000000E+00  0.72169344967E+02  0.72169344967E+02  0.00000000000E+00 0. -1.
         -1   -1    0    0    0  501 -0.00000000000E+00 -0.00000000000E+00 -0.19088580782E+03  0.19088580782E+03  0.00000000000E+00 0.  1.
         23    2    1    2    0    0  0.15557460247E+02 -0.52940212493E+02 -0.60489310871E+02  0.11453490751E+03  0.80091120857E+02 0.  0.
         23    2    1    2    0    0 -0.15557460247E+02  0.52940212493E+02 -0.58227151983E+02  0.14852024528E+03  0.12499264523E+03 0.  0.
          5    1    4    4  502    0 -0.36348170472E+02  0.37240039554E+02 -0.91882855079E+02  0.10570032687E+03  0.47000000000E+01 0. -1.
         -5    1    4    4    0  502  0.20790710225E+02  0.15700172939E+02  0.33655703095E+02  0.42819918412E+02  0.47000000000E+01 0. -1.
        -11    1    3    3    0    0  0.37966106836E+02 -0.61437731661E+02 -0.37726710722E+02  0.81482052268E+02  0.00000000000E+00 0.  1.
         11    1    3    3    0    0 -0.22408646590E+02  0.84975191676E+01 -0.22762600149E+02  0.33052855240E+02  0.00000000000E+00 0. -1.
<mgrwt>
<rscale>  0 0.12549973E+03</rscale>
<asrwt>0</asrwt>
<pdfrwt beam="1">  1        1 0.11102976E-01 0.13663038E+03</pdfrwt>
<pdfrwt beam="2">  1       -1 0.29367047E-01 0.13663038E+03</pdfrwt>
<totfact> 0.56195616E+03</totfact>
</mgrwt>
</event>
<event>
 8    1  0.1224355E-005  0.1556788E+03  0.7546771E-02  0.1202537E+00
         -1   -1    0    0    0  501 -0.00000000000E+00  0.00000000000E+00  0.12575736901E+03  0.12575736901E+03  0.00000000000E+00 0.  1.
          1   -1    0    0  501    0  0.00000000000E+00 -0.00000000000E+00 -0.17436551808E+03  0.17436551808E+03  0.00000000000E+00 0. -1.
         23    2    1    2    0    0  0.92070504283E+02  0.11620655948E+02  0.20249201303E+02  0.12989594780E+03  0.88605359308E+02 0.  0.
         23    2    1    2    0    0 -0.92070504283E+02 -0.11620655948E+02 -0.68857350377E+02  0.17022693929E+03  0.12499543493E+03 0.  0.
          5    1    4    4  502    0 -0.12579405842E+02 -0.14632807081E+02  0.34445189030E+02  0.39760804088E+02  0.47000000000E+01 0. -1.
         -5    1    4    4    0  502 -0.79491098441E+02  0.30121511323E+01 -0.10330253941E+03  0.13046613520E+03  0.47000000000E+01 0. -1.
        -11    1    3    3    0    0  0.38445146775E+02 -0.38226407965E+02  0.11345243347E+01  0.54227066322E+02  0.00000000000E+00 0. -1.
         11    1    3    3    0    0  0.53625357508E+02  0.49847063913E+02  0.19114676968E+02  0.75668881478E+02  0.00000000000E+00 0.  1.
<mgrwt>
<rscale>  0 0.14833219E+03</rscale>
<asrwt>0</asrwt>
<pdfrwt beam="2">  1        1 0.26825464E-01 0.15567876E+03</pdfrwt>
<pdfrwt beam="1">  1       -1 0.19347288E-01 0.15567876E+03</pdfrwt>
<totfact> 0.36081052E+03</totfact>
</mgrwt>
</event>
<event>
 8    1  0.1224355E-005  0.1256069E+03  0.7546771E-02  0.1256356E+00
         -1   -1    0    0    0  501 -0.00000000000E+00  0.00000000000E+00  0.18989374939E+03  0.18989374939E+03  0.00000000000E+00 0.  1.
          1   -1    0    0  501    0  0.00000000000E+00 -0.00000000000E+00 -0.66802773401E+02  0.66802773401E+02  0.00000000000E+00 0. -1.
         23    2    1    2    0    0  0.10489969483E+02  0.64119060204E+01  0.10123771915E+03  0.12920273000E+03  0.79329172825E+02 0.  0.
         23    2    1    2    0    0 -0.10489969483E+02 -0.64119060204E+01  0.21853256839E+02  0.12749379280E+03  0.12500380142E+03 0.  0.
          5    1    4    4  502    0 -0.65900502703E+02 -0.15658143574E+02  0.21152057278E+02  0.71116476599E+02  0.47000000000E+01 0.  1.
         -5    1    4    4    0  502  0.55410533221E+02  0.92462375536E+01  0.70119956091E+00  0.56377316197E+02  0.47000000000E+01 0.  1.
        -11    1    3    3    0    0  0.17269230511E+02 -0.34156654835E+02  0.39352008954E+02  0.54895209269E+02  0.00000000000E+00 0.  1.
         11    1    3    3    0    0 -0.67792610287E+01  0.40568560856E+02  0.61885710198E+02  0.74307520727E+02  0.00000000000E+00 0. -1.
<mgrwt>
<rscale>  0 0.11230703E+03</rscale>
<asrwt>0</asrwt>
<pdfrwt beam="2">  1        1 0.10277350E-01 0.12560694E+03</pdfrwt>
<pdfrwt beam="1">  1       -1 0.29214423E-01 0.12560694E+03</pdfrwt>
<totfact> 0.62398702E+03</totfact>
</mgrwt>
</event>
<event>
 8    1  0.1224355E-005  0.2876809E+03  0.7546771E-02  0.1093324E+00
          1   -1    0    0  501    0  0.00000000000E+00  0.00000000000E+00  0.12307718605E+03  0.12307718605E+03  0.00000000000E+00 0. -1.
         -1   -1    0    0    0  501 -0.00000000000E+00 -0.00000000000E+00 -0.64406658471E+03  0.64406658471E+03  0.00000000000E+00 0.  1.
         23    2    1    2    0    0 -0.22405429564E+03  0.13014301672E+03 -0.23486945312E+03  0.36140383577E+03  0.91167649431E+02 0.  0.
         23    2    1    2    0    0  0.22405429564E+03 -0.13014301672E+03 -0.28611994554E+03  0.40573993499E+03  0.12499095731E+03 0.  0.
          5    1    4    4  502    0  0.14163487550E+03 -0.10648382213E+03 -0.26237363054E+03  0.31664057595E+03  0.47000000000E+01 0. -1.
         -5    1    4    4    0  502  0.82419420140E+02 -0.23659194593E+02 -0.23746314998E+02  0.89099359038E+02  0.47000000000E+01 0. -1.
        -11    1    3    3    0    0 -0.19227328164E+03  0.96286678793E+02 -0.22975640204E+03  0.31468737443E+03  0.00000000000E+00 0. -1.
         11    1    3    3    0    0 -0.31781014004E+02  0.33856337930E+02 -0.51130510811E+01  0.46716461344E+02  0.00000000000E+00 0.  1.
<mgrwt>
<rscale>  0 0.28437404E+03</rscale>
<asrwt>0</asrwt>
<pdfrwt beam="1">  1        1 0.18934952E-01 0.28768085E+03</pdfrwt>
<pdfrwt beam="2">  1       -1 0.99087168E-01 0.28768085E+03</pdfrwt>
<totfact> 0.28296238E+02</totfact>
</mgrwt>
</event>
<event>
 8    1  0.1224355E-005  0.1264833E+03  0.7546771E-02  0.1247927E+00
         -3   -1    0    0    0  501 -0.00000000000E+00  0.00000000000E+00  0.10244080314E+03  0.10244080314E+03  0.00000000000E+00 0.  1.
          3   -1    0    0  501    0  0.00000000000E+00 -0.00000000000E+00 -0.12259766498E+03  0.12259766498E+03  0.00000000000E+00 0. -1.
         23    2    1    2    0    0  0.85836018098E+01  0.17323847286E+02  0.13981005852E+02  0.94029191469E+02  0.90951780735E+02 0.  0.
         23    2    1    2    0    0 -0.85836018098E+01 -0.17323847286E+02 -0.34137867699E+02  0.13100927665E+03  0.12499697057E+03 0.  0.
          5    1    4    4  502    0 -0.69727412378E+01 -0.14784114162E+02  0.46843625894E+02  0.49835774689E+02  0.47000000000E+01 0. -1.
         -5    1    4    4    0  502 -0.16108605721E+01 -0.25397331245E+01 -0.80981493593E+02  0.81173501961E+02  0.47000000000E+01 0. -1.
        -11    1    3    3    0    0  0.30165038215E+02  0.17506613324E+02  0.44569210969E+02  0.56593512058E+02  0.00000000000E+00 0.  1.
         11    1    3    3    0    0 -0.21581436405E+02 -0.18276603779E+00 -0.30588205117E+02  0.37435679412E+02  0.00000000000E+00 0. -1.
<mgrwt>
<rscale>  0 0.11711891E+03</rscale>
<asrwt>0</asrwt>
<pdfrwt beam="2">  1        3 0.18861179E-01 0.12648334E+03</pdfrwt>
<pdfrwt beam="1">  1       -3 0.15760124E-01 0.12648334E+03</pdfrwt>
<totfact> 0.19214573E+03</totfact>
</mgrwt>
</event>
<event>
 8    1  0.1224355E-005  0.1800485E+03  0.7546771E-02  0.1173903E+00
         -1   -1    0    0    0  501 -0.00000000000E+00  0.00000000000E+00  0.67459672954E+02  0.67459672954E+02  0.00000000000E+00 0.  1.
          1   -1    0    0  501    0  0.00000000000E+00 -0.00000000000E+00 -0.46407574531E+03  0.46407574531E+03  0.00000000000E+00 0. -1.
         23    2    1    2    0    0 -0.73652808770E+02 -0.10662756991E+03 -0.10370861579E+03  0.18771537045E+03  0.87677867281E+02 0.  0.
         23    2    1    2    0    0  0.73652808770E+02  0.10662756991E+03 -0.29290745657E+03  0.34382004781E+03  0.12499308884E+03 0.  0.
          5    1    4    4  502    0  0.89339341481E+02  0.39554659378E+02 -0.10439199203E+03  0.14305896342E+03  0.47000000000E+01 0. -1.
         -5    1    4    4    0  502 -0.15686532711E+02  0.67072910533E+02 -0.18851546454E+03  0.20076108439E+03  0.47000000000E+01 0. -1.
        -11    1    3    3    0    0 -0.47271658776E+02 -0.93847518696E+02 -0.31370472684E+02  0.10966345355E+03  0.00000000000E+00 0. -1.
         11    1    3    3    0    0 -0.26381149994E+02 -0.12780051215E+02 -0.72338143103E+02  0.78051916899E+02  0.00000000000E+00 0.  1.
<mgrwt>
<rscale>  0 0.17383891E+03</rscale>
<asrwt>0</asrwt>
<pdfrwt beam="2">  1        1 0.71396269E-01 0.18004846E+03</pdfrwt>
<pdfrwt beam="1">  1       -1 0.10378411E-01 0.18004846E+03</pdfrwt>
<totfact> 0.28243233E+03</totfact>
</mgrwt>
</event>
<event>
 8    1  0.1224355E-005  0.2795752E+03  0.7546771E-02  0.1098000E+00
          2   -1    0    0  501    0  0.00000000000E+00  0.00000000000E+00  0.11933693304E+04  0.11933693304E+04  0.00000000000E+00 0.  1.
         -2   -1    0    0    0  501 -0.00000000000E+00 -0.00000000000E+00 -0.67905428221E+02  0.67905428221E+02  0.00000000000E+00 0. -1.
         23    2    1    2    0    0 -0.52669210927E+02  0.24446583345E+03  0.36421201071E+03  0.45030821952E+03  0.87117818613E+02 0.  0.
         23    2    1    2    0    0  0.52669210927E+02 -0.24446583345E+03  0.76125189149E+03  0.81096653912E+03  0.12499878305E+03 0.  0.
          5    1    4    4  502    0  0.21594197466E+01 -0.62204877975E+02  0.38285834118E+03  0.38791327555E+03  0.47000000000E+01 0.  1.
         -5    1    4    4    0  502  0.50509791181E+02 -0.18226095548E+03  0.37839355031E+03  0.42305326357E+03  0.47000000000E+01 0.  1.
        -11    1    3    3    0    0 -0.47917775112E+02  0.21846011942E+03  0.26077788796E+03  0.34354918687E+03  0.00000000000E+00 0. -1.
         11    1    3    3    0    0 -0.47514358150E+01  0.26005714034E+02  0.10343412275E+03  0.10675903266E+03  0.00000000000E+00 0.  1.
<mgrwt>
<rscale>  0 0.27580981E+03</rscale>
<asrwt>0</asrwt>
<pdfrwt beam="1">  1        2 0.18359527E+00 0.27957519E+03</pdfrwt>
<pdfrwt beam="2">  1       -2 0.10446990E-01 0.27957519E+03</pdfrwt>
<totfact> 0.12479175E+03</totfact>
</mgrwt>
</event>
<event>
 8    1  0.1224355E-005  0.3485124E+03  0.7546771E-02  0.1064368E+00
          1   -1    0    0  501    0  0.00000000000E+00  0.00000000000E+00  0.15926891458E+03  0.15926891458E+03  0.00000000000E+00 0. -1.
         -1   -1    0    0    0  501 -0.00000000000E+00 -0.00000000000E+00 -0.76855593924E+03  0.76855593924E+03  0.00000000000E+00 0.  1.
         23    2    1    2    0    0 -0.12219989560E+02  0.32505929521E+03 -0.39096088675E+03  0.51657407157E+03  0.90473658595E+02 0.  0.
         23    2    1    2    0    0  0.12219989560E+02 -0.32505929521E+03 -0.21832613790E+03  0.41125078225E+03  0.12509208552E+03 0.  0.
          5    1    4    4  502    0  0.67060847989E+02 -0.18405204948E+03 -0.10618061523E+03  0.22286481845E+03  0.47000000000E+01 0. -1.
         -5    1    4    4    0  502 -0.54840858429E+02 -0.14100724573E+03 -0.11214552267E+03  0.18838596380E+03  0.47000000000E+01 0. -1.
        -11    1    3    3    0    0  0.37733134820E+02  0.15620915825E+03 -0.20489653974E+03  0.26039908330E+03  0.00000000000E+00 0.  1.
         11    1    3    3    0    0 -0.49953124380E+02  0.16885013696E+03 -0.18606434701E+03  0.25617498827E+03  0.00000000000E+00 0. -1.
<mgrwt>
<rscale>  0 0.34576101E+03</rscale>
<asrwt>0</asrwt>
<pdfrwt beam="1">  1        1 0.24502910E-01 0.34851242E+03</pdfrwt>
<pdfrwt beam="2">  1       -1 0.11823937E+00 0.34851242E+03</pdfrwt>
<totfact> 0.13420392E+02</totfact>
</mgrwt>
</event>
<event>
 7    1  0.1224355E-005  0.1238957E+03  0.7546771E-02  0.1265832E+00
          2   -1    0    0  501    0  0.00000000000E+00  0.00000000000E+00  0.53974955386E+03  0.53974955386E+03  0.00000000000E+00 0. -1.
         -2   -1    0    0    0  501 -0.00000000000E+00 -0.00000000000E+00 -0.17320475160E+02  0.17320475160E+02  0.00000000000E+00 0.  1.
         23    2    1    2    0    0 -0.48939636162E+02  0.18765642385E+02  0.33043804340E+03  0.35290146936E+03  0.11226267959E+03 0.  0.
          5    1    3    3  502    0 -0.73323208443E+02  0.44562697093E+02  0.20091627864E+03  0.21852132136E+03  0.47000000000E+01 0. -1.
         -5    1    3    3    0  502  0.24383572281E+02 -0.25797054708E+02  0.12952176476E+03  0.13438014799E+03  0.47000000000E+01 0.  1.
        -11    1    1    2    0    0  0.16087284275E+02 -0.28868472655E+02  0.11876340894E+03  0.12327585624E+03  0.00000000000E+00 0.  1.
         11    1    1    2    0    0  0.32852351888E+02  0.10102830270E+02  0.73227626368E+02  0.80892703425E+02  0.00000000000E+00 0. -1.
<mgrwt>
<rscale>  0 0.10720643E+03</rscale>
<asrwt>0</asrwt>
<pdfrwt beam="1">  1        2 0.83038380E-01 0.12389571E+03</pdfrwt>
<pdfrwt beam="2">  1       -2 0.26646889E-02 0.12389571E+03</pdfrwt>
<totfact> 0.26790056E+04</totfact>
</mgrwt>
</event>
<event>
 8    1  0.1224355E-005  0.1391519E+03  0.7546771E-02  0.1222767E+00
         -1   -1    0    0    0  501 -0.00000000000E+00  0.00000000000E+00  0.42563442898E+02  0.42563442898E+02  0.00000000000E+00 0.  1.
          1   -1    0    0  501    0  0.00000000000E+00 -0.00000000000E+00 -0.51276781600E+03  0.51276781600E+03  0.00000000000E+00 0. -1.
         23    2    1    2    0    0 -0.66295194775E+02  0.30995727654E+02 -0.81526354881E+02  0.14249491618E+03  0.91117872083E+02 0.  0.
         23    2    1    2    0    0  0.66295194775E+02 -0.30995727654E+02 -0.38867801822E+03  0.41283634272E+03  0.11835309899E+03 0.  0.
          5    1    4    4  502    0 -0.30779476519E+02 -0.17347497093E+02 -0.16114605178E+03  0.16504075810E+03  0.47000000000E+01 0.  1.
         -5    1    4    4    0  502  0.97074671294E+02 -0.13648230561E+02 -0.22753196644E+03  0.24779558462E+03  0.47000000000E+01 0. -1.
        -11    1    3    3    0    0  0.59247321043E+01 -0.13288310822E+02  0.10096183174E+02  0.17709166262E+02  0.00000000000E+00 0.  1.
         11    1    3    3    0    0 -0.72219926879E+02  0.44284038476E+02 -0.91622538055E+02  0.12478574992E+03  0.00000000000E+00 0. -1.
<mgrwt>
<rscale>  0 0.13321134E+03</rscale>
<asrwt>0</asrwt>
<pdfrwt beam="2">  1        1 0.78887350E-01 0.13915187E+03</pdfrwt>
<pdfrwt beam="1">  1       -1 0.65482225E-02 0.13915187E+03</pdfrwt>
<totfact> 0.49330999E+03</totfact>
</mgrwt>
</event>
<event>
 8    1  0.1224355E-005  0.1323628E+03  0.7546771E-02  0.1236286E+00
          1   -1    0    0  501    0  0.00000000000E+00  0.00000000000E+00  0.97096956865E+02  0.97096956865E+02  0.00000000000E+00 0. -1.
         -1   -1    0    0    0  501 -0.00000000000E+00 -0.00000000000E+00 -0.19868904034E+03  0.19868904034E+03  0.00000000000E+00 0.  1.
         23    2    1    2    0    0 -0.63952551886E+01 -0.43055748335E+02 -0.12457289065E+03  0.16144305752E+03  0.93009456422E+02 0.  0.
         23    2    1    2    0    0  0.63952551886E+01  0.43055748335E+02  0.22980807173E+02  0.13434293968E+03  0.12500084476E+03 0.  0.
          5    1    4    4  502    0  0.37828518892E+02 -0.32691245282E+02  0.89062482572E+01  0.51001231531E+02  0.47000000000E+01 0.  1.
         -5    1    4    4    0  502 -0.31433263704E+02  0.75746993617E+02  0.14074558916E+02  0.83341708153E+02  0.47000000000E+01 0.  1.
        -11    1    3    3    0    0 -0.28676278297E+02 -0.14542163101E+02 -0.12086317225E+03  0.12506682154E+03  0.00000000000E+00 0.  1.
         11    1    3    3    0    0  0.22281023108E+02 -0.28513585234E+02 -0.37097184032E+01  0.36376235983E+02  0.00000000000E+00 0. -1.
<mgrwt>
<rscale>  0 0.12422460E+03</rscale>
<asrwt>0</asrwt>
<pdfrwt beam="1">  1        1 0.14937993E-01 0.13236279E+03</pdfrwt>
<pdfrwt beam="2">  1       -1 0.30567545E-01 0.13236279E+03</pdfrwt>
<totfact> 0.35591820E+03</totfact>
</mgrwt>
</event>
<event>
 8    1  0.1224355E-005  0.2045798E+03  0.7546771E-02  0.1146976E+00
          1   -1    0    0  501    0  0.00000000000E+00  0.00000000000E+00  0.36405373520E+03  0.36405373520E+03  0.00000000000E+00 0. -1.
         -1   -1    0    0    0  501 -0.00000000000E+00 -0.00000000000E+00 -0.17721310419E+03  0.17721310419E+03  0.00000000000E+00 0.  1.
         23    2    1    2    0    0  0.11363762532E+03 -0.12936169630E+03 -0.71286351259E+02  0.21190013201E+03  0.10085615355E+03 0.  0.
         23    2    1    2    0    0 -0.11363762532E+03  0.12936169630E+03  0.25812698227E+03  0.32936670738E+03  0.11047592766E+03 0.  0.
          5    1    4    4  502    0 -0.13476193013E+02  0.19833481451E+02  0.13287106815E+03  0.13509916919E+03  0.47000000000E+01 0. -1.
         -5    1    4    4    0  502 -0.10016143231E+03  0.10952821485E+03  0.12525591412E+03  0.19426753818E+03  0.47000000000E+01 0.  1.
        -11    1    3    3    0    0  0.87710478610E+02 -0.14292087611E+03 -0.72329888650E+02  0.18262288378E+03  0.00000000000E+00 0.  1.
         11    1    3    3    0    0  0.25927146711E+02  0.13559179808E+02  0.10435373911E+01  0.29277248231E+02  0.00000000000E+00 0. -1.
<mgrwt>
<rscale>  0 0.20331040E+03</rscale>
<asrwt>0</asrwt>
<pdfrwt beam="1">  1        1 0.56008267E-01 0.20457979E+03</pdfrwt>
<pdfrwt beam="2">  1       -1 0.27263554E-01 0.20457979E+03</pdfrwt>
<totfact> 0.82448716E+02</totfact>
</mgrwt>
</event>
<event>
 8    1  0.1224355E-005  0.1578844E+03  0.7546771E-02  0.1199123E+00
          1   -1    0    0  501    0  0.00000000000E+00  0.00000000000E+00  0.43017869080E+02  0.43017869080E+02  0.00000000000E+00 0. -1.
         -1   -1    0    0    0  501 -0.00000000000E+00 -0.00000000000E+00 -0.52238763840E+03  0.52238763840E+03  0.00000000000E+00 0.  1.
         23    2    1    2    0    0  0.17011200650E+02 -0.94909751729E+02 -0.29023430129E+03  0.31903236780E+03  0.90821033565E+02 0.  0.
         23    2    1    2    0    0 -0.17011200650E+02  0.94909751729E+02 -0.18913546803E+03  0.24637313968E+03  0.12502102531E+03 0.  0.
          5    1    4    4  502    0 -0.25621741482E+02 -0.70659813146E+01  0.44463894153E+01  0.27354380039E+02  0.47000000000E+01 0.  1.
         -5    1    4    4    0  502  0.86105408322E+01  0.10197573304E+03 -0.19358185745E+03  0.21901875964E+03  0.47000000000E+01 0.  1.
        -11    1    3    3    0    0  0.25135445314E+02 -0.32240028945E+02 -0.22317682143E+03  0.22689006964E+03  0.00000000000E+00 0.  1.
         11    1    3    3    0    0 -0.81242446646E+01 -0.62669722784E+02 -0.67057479864E+02  0.92142298164E+02  0.00000000000E+00 0. -1.
<mgrwt>
<rscale>  0 0.15110396E+03</rscale>
<asrwt>0</asrwt>
<pdfrwt beam="1">  1        1 0.66181335E-02 0.15788445E+03</pdfrwt>
<pdfrwt beam="2">  1       -1 0.80367332E-01 0.15788445E+03</pdfrwt>
<totfact> 0.17861767E+03</totfact>
</mgrwt>
</event>
<event>
 8    1  0.1224355E-005  0.2035869E+03  0.7546771E-02  0.1150689E+00
          2   -1    0    0  501    0  0.00000000000E+00  0.00000000000E+00  0.11774705523E+04  0.11774705523E+04  0.00000000000E+00 0. -1.
         -2   -1    0    0    0  501 -0.00000000000E+00 -0.00000000000E+00 -0.32225053794E+02  0.32225053794E+02  0.00000000000E+00 0.  1.
         23    2    1    2    0    0 -0.96924184367E+02 -0.12817977699E+03  0.51236540145E+03  0.54487620371E+03  0.92452258099E+02 0.  0.
         23    2    1    2    0    0  0.96924184367E+02  0.12817977699E+03  0.63288009707E+03  0.66481940239E+03  0.12499307095E+03 0.  0.
          5    1    4    4  502    0 -0.10717348632E+02  0.29652681634E+02  0.29535101611E+03  0.29706641649E+03  0.47000000000E+01 0. -1.
         -5    1    4    4    0  502  0.10764153300E+03  0.98527095354E+02  0.33752908095E+03  0.36775298590E+03  0.47000000000E+01 0. -1.
        -11    1    3    3    0    0 -0.13332874467E+02 -0.24136185345E+02  0.18281399662E+02  0.33083690214E+02  0.00000000000E+00 0.  1.
         11    1    3    3    0    0 -0.83591309900E+02 -0.10404359164E+03  0.49408400178E+03  0.51179251350E+03  0.00000000000E+00 0. -1.
<mgrwt>
<rscale>  0 0.19887839E+03</rscale>
<asrwt>0</asrwt>
<pdfrwt beam="1">  1        2 0.18114928E+00 0.20358689E+03</pdfrwt>
<pdfrwt beam="2">  1       -2 0.49577015E-02 0.20358689E+03</pdfrwt>
<totfact> 0.40563974E+03</totfact>
</mgrwt>
</event>
<event>
 8    1  0.1224355E-005  0.1311426E+03  0.7546771E-02  0.1238857E+00
          2   -1    0    0  501    0  0.00000000000E+00  0.00000000000E+00  0.41670586157E+03  0.41670586157E+03  0.00000000000E+00 0. -1.
         -2   -1    0    0    0  501 -0.00000000000E+00 -0.00000000000E+00 -0.33331953225E+02  0.33331953225E+02  0.00000000000E+00 0.  1.
         23    2    1    2    0    0 -0.39523315788E+02  0.32559204769E+01  0.12421080662E+03  0.15958316295E+03  0.92009607692E+02 0.  0.
         23    2    1    2    0    0  0.39523315788E+02 -0.32559204769E+01  0.25916310173E+03  0.29045465184E+03  0.12500279186E+03 0.  0.
          5    1    4    4  502    0  0.61667064881E+02 -0.35910124754E+02  0.23082858600E+03  0.24165324344E+03  0.47000000000E+01 0. -1.
         -5    1    4    4    0  502 -0.22143749093E+02  0.32654204277E+02  0.28334515729E+02  0.48801408407E+02  0.47000000000E+01 0. -1.
        -11    1    3    3    0    0 -0.41144812817E+02  0.30593227125E+02  0.25731018053E+02  0.57366597055E+02  0.00000000000E+00 0.  1.
         11    1    3    3    0    0  0.16214970297E+01 -0.27337306648E+02  0.98479788570E+02  0.10221656590E+03  0.00000000000E+00 0. -1.
<mgrwt>
<rscale>  0 0.12260730E+03</rscale>
<asrwt>0</asrwt>
<pdfrwt beam="1">  1        2 0.64108590E-01 0.13114264E+03</pdfrwt>
<pdfrwt beam="2">  1       -2 0.51279931E-02 0.13114264E+03</pdfrwt>
<totfact> 0.13543712E+04</totfact>
</mgrwt>
</event>
<event>
 8    1  0.1224355E-005  0.1501087E+03  0.7546771E-02  0.1210015E+00
          2   -1    0    0  501    0  0.00000000000E+00  0.00000000000E+00  0.56756077390E+03  0.56756077390E+03  0.00000000000E+00 0. -1.
         -2   -1    0    0    0  501 -0.00000000000E+00 -0.00000000000E+00 -0.37034628770E+02  0.37034628770E+02  0.00000000000E+00 0.  1.
         23    2    1    2    0    0  0.78362679785E+02 -0.27656144352E+02  0.34530904241E+03  0.36618818634E+03  0.89162105964E+02 0.  0.
         23    2    1    2    0    0 -0.78362679785E+02  0.27656144352E+02  0.18521710272E+03  0.23840721633E+03  0.12500821475E+03 0.  0.
          5    1    4    4  502    0 -0.10690588753E+03  0.20796583585E+01  0.15925144070E+03  0.19187575442E+03  0.47000000000E+01 0.  1.
         -5    1    4    4    0  502  0.28543207744E+02  0.25576485993E+02  0.25965662020E+02  0.46531461918E+02  0.47000000000E+01 0.  1.
        -11    1    3    3    0    0  0.90666615873E+02 -0.16945244736E+02  0.33357814431E+03  0.34609529745E+03  0.00000000000E+00 0. -1.
         11    1    3    3    0    0 -0.12303936088E+02 -0.10710899616E+02  0.11730898103E+02  0.20092888895E+02  0.00000000000E+00 0.  1.
<mgrwt>
<rscale>  0 0.14249190E+03</rscale>
<asrwt>0</asrwt>
<pdfrwt beam="1">  1        2 0.87317036E-01 0.15010871E+03</pdfrwt>
<pdfrwt beam="2">  1       -2 0.56976356E-02 0.15010871E+03</pdfrwt>
<totfact> 0.83116709E+03</totfact>
</mgrwt>
</event>
<event>
 8    1  0.1224355E-005  0.1529959E+03  0.7546771E-02  0.1206588E+00
          2   -1    0    0  501    0  0.00000000000E+00  0.00000000000E+00  0.15655673271E+03  0.15655673271E+03  0.00000000000E+00 0. -1.
         -2   -1    0    0    0  501 -0.00000000000E+00 -0.00000000000E+00 -0.19060784364E+03  0.19060784364E+03  0.00000000000E+00 0.  1.
         23    2    1    2    0    0 -0.37265974510E+02 -0.79967308460E+02 -0.11933258148E+03  0.17200561933E+03  0.86960593360E+02 0.  0.
         23    2    1    2    0    0  0.37265974510E+02  0.79967308460E+02  0.85281470555E+02  0.17515895702E+03  0.12499683086E+03 0.  0.
          5    1    4    4  502    0  0.50069917122E+02  0.99259200573E+02  0.30311683573E+02  0.11532681241E+03  0.47000000000E+01 0. -1.
         -5    1    4    4    0  502 -0.12803942612E+02 -0.19291892113E+02  0.54969786983E+02  0.59832144610E+02  0.47000000000E+01 0. -1.
        -11    1    3    3    0    0 -0.17844135258E+02 -0.21082240063E+02  0.93530075510E+01  0.29160808621E+02  0.00000000000E+00 0. -1.
         11    1    3    3    0    0 -0.19421839252E+02 -0.58885068397E+02 -0.12868558904E+03  0.14284481071E+03  0.00000000000E+00 0.  1.
<mgrwt>
<rscale>  0 0.14513026E+03</rscale>
<asrwt>0</asrwt>
<pdfrwt beam="1">  1        2 0.24085651E-01 0.15299585E+03</pdfrwt>
<pdfrwt beam="2">  1       -2 0.29324283E-01 0.15299585E+03</pdfrwt>
<totfact> 0.23317717E+03</totfact>
</mgrwt>
</event>
<event>
 8    1  0.1224355E-005  0.1278404E+03  0.7546771E-02  0.1245549E+00
         -2   -1    0    0    0  501 -0.00000000000E+00  0.00000000000E+00  0.70576267853E+02  0.70576267853E+02  0.00000000000E+00 0.  1.
          2   -1    0    0  501    0  0.00000000000E+00 -0.00000000000E+00 -0.18135301578E+03  0.18135301578E+03  0.00000000000E+00 0. -1.
         23    2    1    2    0    0 -0.17319026099E+02 -0.20486142270E+02 -0.24130673640E+02  0.97492559942E+02  0.90569747397E+02 0.  0.
         23    2    1    2    0    0  0.17319026099E+02  0.20486142270E+02 -0.86646074286E+02  0.15443672369E+03  0.12499411484E+03 0.  0.
          5    1    4    4  502    0 -0.70375152627E+01  0.50751799261E+02 -0.10051559257E+03  0.11291920164E+03  0.47000000000E+01 0.  1.
         -5    1    4    4    0  502  0.24356541362E+02 -0.30265656991E+02  0.13869518280E+02  0.41517522054E+02  0.47000000000E+01 0.  1.
        -11    1    3    3    0    0 -0.21308379629E+02  0.12925517341E+01 -0.55289873046E+02  0.59267932256E+02  0.00000000000E+00 0. -1.
         11    1    3    3    0    0  0.39893535301E+01 -0.21778694004E+02  0.31159199406E+02  0.38224627686E+02  0.00000000000E+00 0.  1.
<mgrwt>
<rscale>  0 0.11852552E+03</rscale>
<asrwt>0</asrwt>
<pdfrwt beam="2">  1        2 0.27900464E-01 0.12784037E+03</pdfrwt>
<pdfrwt beam="1">  1       -2 0.10857887E-01 0.12784037E+03</pdfrwt>
<totfact> 0.10359279E+04</totfact>
</mgrwt>
</event>
<event>
 8    1  0.1224355E-005  0.1977073E+03  0.7546771E-02  0.1156534E+00
          2   -1    0    0  501    0  0.00000000000E+00  0.00000000000E+00  0.25664107342E+03  0.25664107342E+03  0.00000000000E+00 0.  1.
         -2   -1    0    0    0  501 -0.00000000000E+00 -0.00000000000E+00 -0.13978861000E+03  0.13978861000E+03  0.00000000000E+00 0. -1.
         23    2    1    2    0    0  0.41859709483E+02  0.14734734249E+03  0.24101104496E+02  0.17804698083E+03  0.87500797302E+02 0.  0.
         23    2    1    2    0    0 -0.41859709483E+02 -0.14734734249E+03  0.92751358922E+02  0.21838270259E+03  0.12499886237E+03 0.  0.
          5    1    4    4  502    0 -0.47749990100E+02 -0.12761771331E+03  0.12156013849E+03  0.18266170801E+03  0.47000000000E+01 0. -1.
         -5    1    4    4    0  502  0.58902806173E+01 -0.19729629183E+02 -0.28808779569E+02  0.35720994579E+02  0.47000000000E+01 0. -1.
        -11    1    3    3    0    0  0.58144776529E+01  0.13292403440E+03  0.35273668246E+02  0.13764751630E+03  0.00000000000E+00 0.  1.
         11    1    3    3    0    0  0.36045231830E+02  0.14423308092E+02 -0.11172563750E+02  0.40399464536E+02  0.00000000000E+00 0. -1.
<mgrwt>
<rscale>  0 0.19215284E+03</rscale>
<asrwt>0</asrwt>
<pdfrwt beam="1">  1        2 0.39483242E-01 0.19770733E+03</pdfrwt>
<pdfrwt beam="2">  1       -2 0.21505940E-01 0.19770733E+03</pdfrwt>
<totfact> 0.23694411E+03</totfact>
</mgrwt>
</event>
<event>
 8    1  0.1224355E-005  0.1649030E+03  0.7546771E-02  0.1188482E+00
          1   -1    0    0  501    0  0.00000000000E+00  0.00000000000E+00  0.24414185284E+03  0.24414185284E+03  0.00000000000E+00 0.  1.
         -1   -1    0    0    0  501 -0.00000000000E+00 -0.00000000000E+00 -0.99606633910E+02  0.99606633910E+02  0.00000000000E+00 0. -1.
         23    2    1    2    0    0  0.10755445072E+03  0.67442105509E+00  0.73186240147E+02  0.16407193782E+03  0.99974798415E+02 0.  0.
         23    2    1    2    0    0 -0.10755445072E+03 -0.67442105509E+00  0.71348978784E+02  0.17967654893E+03  0.12499828299E+03 0.  0.
          5    1    4    4  502    0 -0.40318047745E+02 -0.55003166552E+02  0.13921698332E+01  0.68373397177E+02  0.47000000000E+01 0.  1.
         -5    1    4    4    0  502 -0.67236402977E+02  0.54328745497E+02  0.69956808951E+02  0.11130315176E+03  0.47000000000E+01 0.  1.
        -11    1    3    3    0    0  0.31265474668E+02  0.32543767921E+02 -0.10604383472E+02  0.46358167409E+02  0.00000000000E+00 0. -1.
         11    1    3    3    0    0  0.76288976054E+02 -0.31869346866E+02  0.83790623619E+02  0.11771377041E+03  0.00000000000E+00 0.  1.
<mgrwt>
<rscale>  0 0.16019019E+03</rscale>
<asrwt>0</asrwt>
<pdfrwt beam="1">  1        1 0.37560285E-01 0.16490296E+03</pdfrwt>
<pdfrwt beam="2">  1       -1 0.15324098E-01 0.16490296E+03</pdfrwt>
<totfact> 0.34441202E+03</totfact>
</mgrwt>
</event>
<event>
 8    1  0.1224355E-005  0.1261322E+03  0.7546771E-02  0.1248688E+00
          2   -1    0    0  501    0  0.00000000000E+00  0.00000000000E+00  0.37462410319E+03  0.37462410319E+03  0.00000000000E+00 0. -1.
         -2   -1    0    0    0  501 -0.00000000000E+00 -0.00000000000E+00 -0.32569680585E+02  0.32569680585E+02  0.00000000000E+00 0.  1.
         23    2    1    2    0    0 -0.16103333308E+02  0.53019695497E+01  0.11532080098E+03  0.14773767492E+03  0.90775025346E+02 0.  0.
         23    2    1    2    0    0  0.16103333308E+02 -0.53019695497E+01  0.22673362162E+03  0.25945610886E+03  0.12498763548E+03 0.  0.
          5    1    4    4  502    0 -0.48411799055E+02 -0.21685611728E+02  0.14162855316E+03  0.15130996369E+03  0.47000000000E+01 0.  1.
         -5    1    4    4    0  502  0.64515132363E+02  0.16383642179E+02  0.85105068466E+02  0.10814614516E+03  0.47000000000E+01 0.  1.
        -11    1    3    3    0    0 -0.20927994073E+02  0.31456218650E+02  0.99609313693E+01  0.39072941806E+02  0.00000000000E+00 0.  1.
         11    1    3    3    0    0  0.48246607654E+01 -0.26154249100E+02  0.10535986961E+03  0.10866473311E+03  0.00000000000E+00 0. -1.
<mgrwt>
<rscale>  0 0.11667356E+03</rscale>
<asrwt>0</asrwt>
<pdfrwt beam="1">  1        2 0.57634474E-01 0.12613222E+03</pdfrwt>
<pdfrwt beam="2">  1       -2 0.50107204E-02 0.12613222E+03</pdfrwt>
<totfact> 0.15655615E+04</totfact>
</mgrwt>
</event>
<event>
 8    1  0.1224355E-005  0.1300977E+03  0.7546771E-02  0.1240867E+00
         -2   -1    0    0    0  501 -0.00000000000E+00  0.00000000000E+00  0.12576119225E+02  0.12576119225E+02  0.00000000000E+00 0.  1.
          2   -1    0    0  501    0  0.00000000000E+00 -0.00000000000E+00 -0.10393791624E+04  0.10393791624E+04  0.00000000000E+00 0. -1.
         23    2    1    2    0    0  0.22927587945E+02  0.27816403260E+02 -0.45270198674E+03  0.46329796734E+03  0.91686919266E+02 0.  0.
         23    2    1    2    0    0 -0.22927587945E+02 -0.27816403260E+02 -0.57410105644E+03  0.58865731429E+03  0.12500393626E+03 0.  0.
          5    1    4    4  502    0 -0.25759233422E+02 -0.76166946577E+02 -0.39031827604E+03  0.39854157684E+03  0.47000000000E+01 0. -1.
         -5    1    4    4    0  502  0.28316454766E+01  0.48350543317E+02 -0.18378278039E+03  0.19011573744E+03  0.47000000000E+01 0. -1.
        -11    1    3    3    0    0  0.30410275749E+02  0.57806929916E+02 -0.35010336062E+03  0.35614433751E+03  0.00000000000E+00 0. -1.
         11    1    3    3    0    0 -0.74826878042E+01 -0.29990526656E+02 -0.10259862611E+03  0.10715362983E+03  0.00000000000E+00 0.  1.
<mgrwt>
<rscale>  0 0.12136174E+03</rscale>
<asrwt>0</asrwt>
<pdfrwt beam="2">  1        2 0.15990450E+00 0.13009770E+03</pdfrwt>
<pdfrwt beam="1">  1       -2 0.19347874E-02 0.13009770E+03</pdfrwt>
<totfact> 0.19201138E+04</totfact>
</mgrwt>
</event>
<event>
 8    1  0.1224355E-005  0.1172594E+03  0.7546771E-02  0.1259138E+00
         -1   -1    0    0    0  501 -0.00000000000E+00  0.00000000000E+00  0.31395162775E+03  0.31395162775E+03  0.00000000000E+00 0.  1.
          1   -1    0    0  501    0  0.00000000000E+00 -0.00000000000E+00 -0.77890444801E+02  0.77890444801E+02  0.00000000000E+00 0. -1.
         23    2    1    2    0    0 -0.94107499046E+01  0.21334277542E+02  0.25635433024E+03  0.27283964261E+03  0.90444537313E+02 0.  0.
         23    2    1    2    0    0  0.94107499046E+01 -0.21334277542E+02 -0.20293147294E+02  0.11900242995E+03  0.11491759175E+03 0.  0.
          5    1    4    4  502    0  0.32852832090E+02  0.23920711045E+02 -0.46139667881E+02  0.61664154461E+02  0.47000000000E+01 0. -1.
         -5    1    4    4    0  502 -0.23442082185E+02 -0.45254988587E+02  0.25846520588E+02  0.57338275486E+02  0.47000000000E+01 0.  1.
        -11    1    3    3    0    0 -0.32276414897E+02  0.42072627738E+02  0.21373838742E+03  0.22021800839E+03  0.00000000000E+00 0.  1.
         11    1    3    3    0    0  0.22865664993E+02 -0.20738350196E+02  0.42615942825E+02  0.52621634213E+02  0.00000000000E+00 0. -1.
<mgrwt>
<rscale>  0 0.11077704E+03</rscale>
<asrwt>0</asrwt>
<pdfrwt beam="2">  1        1 0.11983146E-01 0.11725940E+03</pdfrwt>
<pdfrwt beam="1">  1       -1 0.48300250E-01 0.11725940E+03</pdfrwt>
<totfact> 0.21252495E+03</totfact>
</mgrwt>
</event>
<event>
 8    1  0.1224355E-005  0.1300271E+03  0.7546771E-02  0.1241368E+00
          4   -1    0    0  501    0  0.00000000000E+00  0.00000000000E+00  0.25312689678E+03  0.25312689678E+03  0.00000000000E+00 0. -1.
         -4   -1    0    0    0  501 -0.00000000000E+00 -0.00000000000E+00 -0.51215706705E+02  0.51215706705E+02  0.00000000000E+00 0.  1.
         23    2    1    2    0    0  0.14701986190E+02  0.32669726063E+02  0.88038460604E+02  0.13150148410E+03  0.90875796432E+02 0.  0.
         23    2    1    2    0    0 -0.14701986190E+02 -0.32669726063E+02  0.11387272948E+03  0.17284111939E+03  0.12499437841E+03 0.  0.
          5    1    4    4  502    0 -0.32392301895E+02 -0.71565086225E+02  0.10085872851E+03  0.12792730711E+03  0.47000000000E+01 0. -1.
         -5    1    4    4    0  502  0.17690315704E+02  0.38895360162E+02  0.13014000968E+02  0.44913812275E+02  0.47000000000E+01 0. -1.
        -11    1    3    3    0    0 -0.30603292042E+02  0.39968841614E+01  0.67254139580E+02  0.73997674676E+02  0.00000000000E+00 0.  1.
         11    1    3    3    0    0  0.45305278232E+02  0.28672841901E+02  0.20784321025E+02  0.57503809429E+02  0.00000000000E+00 0. -1.
<mgrwt>
<rscale>  0 0.12105414E+03</rscale>
<asrwt>0</asrwt>
<pdfrwt beam="1">  1        4 0.38942599E-01 0.13002713E+03</pdfrwt>
<pdfrwt beam="2">  1       -4 0.78793396E-02 0.13002713E+03</pdfrwt>
<totfact> 0.11871975E+03</totfact>
</mgrwt>
</event>
<event>
 8    1  0.1224355E-005  0.1455465E+03  0.7546771E-02  0.1216388E+00
          2   -1    0    0  501    0  0.00000000000E+00  0.00000000000E+00  0.62128656309E+03  0.62128656309E+03  0.00000000000E+00 0. -1.
         -2   -1    0    0    0  501 -0.00000000000E+00 -0.00000000000E+00 -0.39437096092E+02  0.39437096092E+02  0.00000000000E+00 0.  1.
         23    2    1    2    0    0  0.64623660846E+02  0.37198909218E+02  0.88991341500E+02  0.14682394754E+03  0.89876784112E+02 0.  0.
         23    2    1    2    0    0 -0.64623660846E+02 -0.37198909218E+02  0.49285812550E+03  0.51389971164E+03  0.12499522136E+03 0.  0.
          5    1    4    4  502    0 -0.96386100493E+02 -0.34593739138E+02  0.44173056570E+03  0.45346994369E+03  0.47000000000E+01 0.  1.
         -5    1    4    4    0  502  0.31762439646E+02 -0.26051700799E+01  0.51127559803E+02  0.60429767953E+02  0.47000000000E+01 0.  1.
        -11    1    3    3    0    0  0.67348181122E+02  0.60761737728E+02  0.81517911828E+02  0.12195464821E+03  0.00000000000E+00 0. -1.
         11    1    3    3    0    0 -0.27245202753E+01 -0.23562828510E+02  0.74734296718E+01  0.24869299331E+02  0.00000000000E+00 0.  1.
<mgrwt>
<rscale>  0 0.13775089E+03</rscale>
<asrwt>0</asrwt>
<pdfrwt beam="1">  1        2 0.95582541E-01 0.14554649E+03</pdfrwt>
<pdfrwt beam="2">  1       -2 0.60672460E-02 0.14554649E+03</pdfrwt>
<totfact> 0.68038216E+03</totfact>
</mgrwt>
</event>
<event>
 8    1  0.1224355E-005  0.1441610E+03  0.7546771E-02  0.1218652E+00
         -2   -1    0    0    0  501 -0.00000000000E+00  0.00000000000E+00  0.25624948437E+02  0.25624948437E+02  0.00000000000E+00 0. -1.
          2   -1    0    0  501    0  0.00000000000E+00 -0.00000000000E+00 -0.65347228065E+03  0.65347228065E+03  0.00000000000E+00 0.  1.
         23    2    1    2    0    0 -0.13171952410E+02  0.70597246573E+02 -0.28582059251E+03  0.30793059241E+03  0.89276912400E+02 0.  0.
         23    2    1    2    0    0  0.13171952410E+02 -0.70597246573E+02 -0.34202673971E+03  0.37116663668E+03  0.12499963982E+03 0.  0.
          5    1    4    4  502    0 -0.39884196230E+02 -0.50742971573E+02 -0.79262513753E+02  0.10232416313E+03  0.47000000000E+01 0. -1.
         -5    1    4    4    0  502  0.53056148640E+02 -0.19854275000E+02 -0.26276422595E+03  0.26884247355E+03  0.47000000000E+01 0. -1.
        -11    1    3    3    0    0  0.27948470679E+02  0.64913950312E+02 -0.20878333474E+03  0.22042100359E+03  0.00000000000E+00 0.  1.
         11    1    3    3    0    0 -0.41120423089E+02  0.56832962608E+01 -0.77037257769E+02  0.87509588823E+02  0.00000000000E+00 0. -1.
<mgrwt>
<rscale>  0 0.13611623E+03</rscale>
<asrwt>0</asrwt>
<pdfrwt beam="2">  1        2 0.10053420E+00 0.14416096E+03</pdfrwt>
<pdfrwt beam="1">  1       -2 0.39422995E-02 0.14416096E+03</pdfrwt>
<totfact> 0.12259019E+04</totfact>
</mgrwt>
</event>
<event>
 8    1  0.1240421E-005  0.1917647E+03  0.7546771E-02  0.1161741E+00
         -2   -1    0    0    0  501 -0.00000000000E+00  0.00000000000E+00  0.11796215945E+02  0.11796215945E+02  0.00000000000E+00 0.  1.
          2   -1    0    0  501    0  0.00000000000E+00 -0.00000000000E+00 -0.31553057698E+04  0.31553057698E+04  0.00000000000E+00 0. -1.
         23    2    1    2    0    0  0.11109401986E+03 -0.93843317896E+02 -0.95672708645E+03  0.97192744401E+03  0.90375820381E+02 0.  0.
         23    2    1    2    0    0 -0.11109401986E+03  0.93843317896E+02 -0.21867824674E+04  0.21951745417E+04  0.12500103748E+03 0.  0.
          5    1    4    4  502    0 -0.32350261349E+02  0.21053489652E+02 -0.13243760335E+03  0.13802752485E+03  0.47000000000E+01 0. -1.
         -5    1    4    4    0  502 -0.78743758515E+02  0.72789828243E+02 -0.20543448640E+04  0.20571470168E+04  0.47000000000E+01 0. -1.
        -11    1    3    3    0    0  0.75688904782E+02 -0.10893530508E+03 -0.72863443034E+03  0.74061045367E+03  0.00000000000E+00 0.  1.
         11    1    3    3    0    0  0.35405115082E+02  0.15091987186E+02 -0.22809265611E+03  0.23131699035E+03  0.00000000000E+00 0. -1.
<mgrwt>
<rscale>  0 0.18640822E+03</rscale>
<asrwt>0</asrwt>
<pdfrwt beam="2">  1        2 0.48543259E+00 0.19176472E+03</pdfrwt>
<pdfrwt beam="1">  1       -2 0.18147990E-02 0.19176472E+03</pdfrwt>
<totfact> 0.15204678E+03</totfact>
</mgrwt>
</event>
<event>
 8    1  0.1224355E-005  0.1328000E+03  0.7546771E-02  0.1236727E+00
         -2   -1    0    0    0  501 -0.00000000000E+00  0.00000000000E+00  0.18960340242E+03  0.18960340242E+03  0.00000000000E+00 0.  1.
          2   -1    0    0  501    0  0.00000000000E+00 -0.00000000000E+00 -0.77304272001E+02  0.77304272001E+02  0.00000000000E+00 0. -1.
         23    2    1    2    0    0 -0.20947408884E+02 -0.39629744681E+02  0.83856833678E+02  0.13109601851E+03  0.90249027210E+02 0.  0.
         23    2    1    2    0    0  0.20947408884E+02  0.39629744681E+02  0.28442296740E+02  0.13581165591E+03  0.12500612399E+03 0.  0.
          5    1    4    4  502    0  0.33742843976E+02  0.62030827896E+02 -0.25990149639E+02  0.75392181341E+02  0.47000000000E+01 0.  1.
         -5    1    4    4    0  502 -0.12795435092E+02 -0.22401083215E+02  0.54432446379E+02  0.60419474569E+02  0.47000000000E+01 0.  1.
        -11    1    3    3    0    0  0.28147961822E+02 -0.42984111773E+02  0.38938209263E+02  0.64468021222E+02  0.00000000000E+00 0. -1.
         11    1    3    3    0    0 -0.49095370706E+02  0.33543670926E+01  0.44918624415E+02  0.66627997289E+02  0.00000000000E+00 0.  1.
<mgrwt>
<rscale>  0 0.12394507E+03</rscale>
<asrwt>0</asrwt>
<pdfrwt beam="2">  1        2 0.11892965E-01 0.13280001E+03</pdfrwt>
<pdfrwt beam="1">  1       -2 0.29169754E-01 0.13280001E+03</pdfrwt>
<totfact> 0.52790768E+03</totfact>
</mgrwt>
</event>
<event>
 8    1  0.1224355E-005  0.1617970E+03  0.7546771E-02  0.1194249E+00
          2   -1    0    0  501    0  0.00000000000E+00  0.00000000000E+00  0.43837410296E+03  0.43837410296E+03  0.00000000000E+00 0. -1.
         -2   -1    0    0    0  501 -0.00000000000E+00 -0.00000000000E+00 -0.59126873098E+02  0.59126873098E+02  0.00000000000E+00 0.  1.
         23    2    1    2    0    0  0.98279332916E+02 -0.29879244206E+02  0.83427219246E+02  0.16032481835E+03  0.90511601214E+02 0.  0.
         23    2    1    2    0    0 -0.98279332916E+02  0.29879244206E+02  0.29582001062E+03  0.33717615771E+03  0.12500674436E+03 0.  0.
          5    1    4    4  502    0 -0.66704917053E+02 -0.93435237088E+01  0.44608621092E+02  0.80925067007E+02  0.47000000000E+01 0. -1.
         -5    1    4    4    0  502 -0.31574415864E+02  0.39222767915E+02  0.25121138953E+03  0.25625109071E+03  0.47000000000E+01 0. -1.
        -11    1    3    3    0    0  0.45266975534E+02  0.31165038184E+02  0.43849999459E+02  0.70307760109E+02  0.00000000000E+00 0. -1.
         11    1    3    3    0    0  0.53012357382E+02 -0.61044282391E+02  0.39577219787E+02  0.90017058238E+02  0.00000000000E+00 0.  1.
<mgrwt>
<rscale>  0 0.15517993E+03</rscale>
<asrwt>0</asrwt>
<pdfrwt beam="1">  1        2 0.67442168E-01 0.16179704E+03</pdfrwt>
<pdfrwt beam="2">  1       -2 0.90964423E-02 0.16179704E+03</pdfrwt>
<totfact> 0.54033684E+03</totfact>
</mgrwt>
</event>
<event>
 8    1  0.1224355E-005  0.2353429E+03  0.7546771E-02  0.1125965E+00
         -2   -1    0    0    0  501 -0.00000000000E+00  0.00000000000E+00  0.57366389513E+02  0.57366389513E+02  0.00000000000E+00 0.  1.
          2   -1    0    0  501    0  0.00000000000E+00 -0.00000000000E+00 -0.89862021074E+03  0.89862021074E+03  0.00000000000E+00 0. -1.
         23    2    1    2    0    0 -0.10578589747E+03 -0.16902632297E+03 -0.42615017349E+03  0.47881021798E+03  0.88852127209E+02 0.  0.
         23    2    1    2    0    0  0.10578589747E+03  0.16902632297E+03 -0.41510364774E+03  0.47717638228E+03  0.12500282988E+03 0.  0.
          5    1    4    4  502    0  0.10318045874E+02 -0.85283038384E+01 -0.11343346655E+03  0.11431725754E+03  0.47000000000E+01 0.  1.
         -5    1    4    4    0  502  0.95467851600E+02  0.17755462681E+03 -0.30167018119E+03  0.36285912474E+03  0.47000000000E+01 0.  1.
        -11    1    3    3    0    0 -0.49366210464E+02 -0.10570841447E+03 -0.15059555146E+03  0.19050016206E+03  0.00000000000E+00 0.  1.
         11    1    3    3    0    0 -0.56419687010E+02 -0.63317908505E+02 -0.27555462204E+03  0.28831005592E+03  0.00000000000E+00 0. -1.
<mgrwt>
<rscale>  0 0.23096151E+03</rscale>
<asrwt>0</asrwt>
<pdfrwt beam="2">  1        2 0.13824925E+00 0.23534286E+03</pdfrwt>
<pdfrwt beam="1">  1       -2 0.88255990E-02 0.23534286E+03</pdfrwt>
<totfact> 0.24568167E+03</totfact>
</mgrwt>
</event>
<event>
 8    1  0.1224355E-005  0.1685375E+03  0.7546771E-02  0.1186058E+00
          4   -1    0    0  501    0  0.00000000000E+00  0.00000000000E+00  0.12117995407E+04  0.12117995407E+04  0.00000000000E+00 0. -1.
         -4   -1    0    0    0  501 -0.00000000000E+00 -0.00000000000E+00 -0.21932887970E+02  0.21932887970E+02  0.00000000000E+00 0.  1.
         23    2    1    2    0    0 -0.32329469672E+02  0.10831778638E+03  0.38602428222E+03  0.41241186970E+03  0.91054194570E+02 0.  0.
         23    2    1    2    0    0  0.32329469672E+02 -0.10831778638E+03  0.80384237056E+03  0.82132055902E+03  0.12500786581E+03 0.  0.
          5    1    4    4  502    0 -0.72112976193E+01  0.15835470475E+02  0.20909046547E+02  0.27605129342E+02  0.47000000000E+01 0. -1.
         -5    1    4    4    0  502  0.39540767291E+02 -0.12415325685E+03  0.78293332401E+03  0.79371542968E+03  0.47000000000E+01 0. -1.
        -11    1    3    3    0    0 -0.41662771841E+02  0.57558213354E+02  0.10561148074E+03  0.12728911715E+03  0.00000000000E+00 0.  1.
         11    1    3    3    0    0  0.93333021695E+01  0.50759573021E+02  0.28041280149E+03  0.28512275255E+03  0.00000000000E+00 0. -1.
<mgrwt>
<rscale>  0 0.16235942E+03</rscale>
<asrwt>0</asrwt>
<pdfrwt beam="1">  1        4 0.18643065E+00 0.16853754E+03</pdfrwt>
<pdfrwt beam="2">  1       -4 0.33742914E-02 0.16853754E+03</pdfrwt>
<totfact> 0.13835951E+02</totfact>
</mgrwt>
</event>
<event>
 8    1  0.1224355E-005  0.1251725E+03  0.7546771E-02  0.1249269E+00
          2   -1    0    0  501    0  0.00000000000E+00  0.00000000000E+00  0.30837427993E+03  0.30837427993E+03  0.00000000000E+00 0.  1.
         -2   -1    0    0    0  501 -0.00000000000E+00 -0.00000000000E+00 -0.44940371128E+02  0.44940371128E+02  0.00000000000E+00 0. -1.
         23    2    1    2    0    0  0.23446517015E+01 -0.64142011461E+01  0.50132270553E+02  0.10599753473E+03  0.93142865809E+02 0.  0.
         23    2    1    2    0    0 -0.23446517015E+01  0.64142011461E+01  0.21330163825E+03  0.24731711633E+03  0.12498611034E+03 0.  0.
          5    1    4    4  502    0 -0.37057159131E+01 -0.13334817478E+02  0.22389965212E+03  0.22437623294E+03  0.47000000000E+01 0.  1.
         -5    1    4    4    0  502  0.13610642116E+01  0.19749018624E+02 -0.10598013872E+02  0.22940883384E+02  0.47000000000E+01 0.  1.
        -11    1    3    3    0    0 -0.22025985865E+02  0.17574026844E+02  0.63351480942E+02  0.69335421037E+02  0.00000000000E+00 0.  1.
         11    1    3    3    0    0  0.24370637566E+02 -0.23988227990E+02 -0.13219210388E+02  0.36662113698E+02  0.00000000000E+00 0. -1.
<mgrwt>
<rscale>  0 0.11633497E+03</rscale>
<asrwt>0</asrwt>
<pdfrwt beam="1">  1        2 0.47442196E-01 0.12517255E+03</pdfrwt>
<pdfrwt beam="2">  1       -2 0.69139034E-02 0.12517255E+03</pdfrwt>
<totfact> 0.11816524E+04</totfact>
</mgrwt>
</event>
<event>
 8    1  0.1224355E-005  0.1377401E+03  0.7546771E-02  0.1227653E+00
          4   -1    0    0  501    0  0.00000000000E+00  0.00000000000E+00  0.62037067365E+02  0.62037067365E+02  0.00000000000E+00 0.  1.
         -4   -1    0    0    0  501 -0.00000000000E+00 -0.00000000000E+00 -0.29153073584E+03  0.29153073584E+03  0.00000000000E+00 0. -1.
         23    2    1    2    0    0  0.51536226428E+02 -0.26277663779E+02 -0.17363676630E+03  0.20493294584E+03  0.92202426378E+02 0.  0.
         23    2    1    2    0    0 -0.51536226428E+02  0.26277663779E+02 -0.55856902177E+02  0.14863485737E+03  0.12500331618E+03 0.  0.
          5    1    4    4  502    0  0.41508411016E+02  0.41243705463E+01 -0.16624365779E+02  0.45148844449E+02  0.47000000000E+01 0. -1.
         -5    1    4    4    0  502 -0.93044637444E+02  0.22153293233E+02 -0.39232536397E+02  0.10348601292E+03  0.47000000000E+01 0. -1.
        -11    1    3    3    0    0  0.37279030254E+02  0.26722760329E+02 -0.11880533463E+03  0.12735203003E+03  0.00000000000E+00 0. -1.
         11    1    3    3    0    0  0.14257196174E+02 -0.53000424108E+02 -0.54831431672E+02  0.77580915808E+02  0.00000000000E+00 0.  1.
<mgrwt>
<rscale>  0 0.12986732E+03</rscale>
<asrwt>0</asrwt>
<pdfrwt beam="1">  1        4 0.95441642E-02 0.13774007E+03</pdfrwt>
<pdfrwt beam="2">  1       -4 0.44850882E-01 0.13774007E+03</pdfrwt>
<totfact> 0.65996753E+02</totfact>
</mgrwt>
</event>
<event>
 8    1  0.1224355E-005  0.1363514E+03  0.7546771E-02  0.1230372E+00
         -1   -1    0    0    0  501 -0.00000000000E+00  0.00000000000E+00  0.13800252641E+02  0.13800252641E+02  0.00000000000E+00 0.  1.
          1   -1    0    0  501    0  0.00000000000E+00 -0.00000000000E+00 -0.12932174837E+04  0.12932174837E+04  0.00000000000E+00 0. -1.
         23    2    1    2    0    0  0.16649285233E+02  0.51858802896E+02 -0.30094869452E+03  0.31909446644E+03  0.91019929938E+02 0.  0.
         23    2    1    2    0    0 -0.16649285233E+02 -0.51858802896E+02 -0.97846853657E+03  0.98792326993E+03  0.12500070428E+03 0.  0.
          5    1    4    4  502    0 -0.52424162649E+02 -0.48573562486E+02 -0.29782238122E+03  0.30631347433E+03  0.47000000000E+01 0. -1.
         -5    1    4    4    0  502  0.35774877416E+02 -0.32852404096E+01 -0.68064615535E+03  0.68160979560E+03  0.47000000000E+01 0. -1.
        -11    1    3    3    0    0  0.42943882329E+02  0.52309851278E+02 -0.27060652945E+03  0.27894155544E+03  0.00000000000E+00 0. -1.
         11    1    3    3    0    0 -0.26294597096E+02 -0.45104838200E+00 -0.30342165073E+02  0.40152911008E+02  0.00000000000E+00 0.  1.
<mgrwt>
<rscale>  0 0.12805438E+03</rscale>
<asrwt>0</asrwt>
<pdfrwt beam="2">  1        1 0.19895657E+00 0.13635142E+03</pdfrwt>
<pdfrwt beam="1">  1       -1 0.21231154E-02 0.13635142E+03</pdfrwt>
<totfact> 0.60584664E+03</totfact>
</mgrwt>
</event>
<event>
 8    1  0.1224355E-005  0.1297096E+03  0.7546771E-02  0.1242264E+00
         -3   -1    0    0    0  501 -0.00000000000E+00  0.00000000000E+00  0.47781295061E+02  0.47781295061E+02  0.00000000000E+00 0.  1.
          3   -1    0    0  501    0  0.00000000000E+00 -0.00000000000E+00 -0.31668343494E+03  0.31668343494E+03  0.00000000000E+00 0. -1.
         23    2    1    2    0    0  0.26586950170E+02 -0.22192520923E+02 -0.47053494670E+02  0.10747953692E+03  0.90213333777E+02 0.  0.
         23    2    1    2    0    0 -0.26586950170E+02  0.22192520923E+02 -0.22184864521E+03  0.25698519308E+03  0.12500077671E+03 0.  0.
          5    1    4    4  502    0 -0.73813534528E+02 -0.34556047729E+01 -0.14848065905E+03  0.16591858002E+03  0.47000000000E+01 0. -1.
         -5    1    4    4    0  502  0.47226584357E+02  0.25648125696E+02 -0.73367986160E+02  0.91066613064E+02  0.47000000000E+01 0. -1.
        -11    1    3    3    0    0  0.34511584676E+02  0.72373095686E+01 -0.63657854480E+02  0.72771907792E+02  0.00000000000E+00 0. -1.
         11    1    3    3    0    0 -0.79246345060E+01 -0.29429830492E+02  0.16604359811E+02  0.34707629126E+02  0.00000000000E+00 0.  1.
<mgrwt>
<rscale>  0 0.12050627E+03</rscale>
<asrwt>0</asrwt>
<pdfrwt beam="2">  1        3 0.48720530E-01 0.12970955E+03</pdfrwt>
<pdfrwt beam="1">  1       -3 0.73509682E-02 0.12970955E+03</pdfrwt>
<totfact> 0.11792863E+03</totfact>
</mgrwt>
</event>
<event>
 8    1  0.1224355E-005  0.1304707E+03  0.7546771E-02  0.1241440E+00
         -1   -1    0    0    0  501 -0.00000000000E+00  0.00000000000E+00  0.88267751736E+02  0.88267751736E+02  0.00000000000E+00 0.  1.
          1   -1    0    0  501    0  0.00000000000E+00 -0.00000000000E+00 -0.14787723650E+03  0.14787723650E+03  0.00000000000E+00 0. -1.
         23    2    1    2    0    0  0.32784781138E+02 -0.18019150435E+02 -0.38668123934E+02  0.10400432622E+03  0.89006429026E+02 0.  0.
         23    2    1    2    0    0 -0.32784781138E+02  0.18019150435E+02 -0.20941360831E+02  0.13214066201E+03  0.12499232899E+03 0.  0.
          5    1    4    4  502    0 -0.56301503406E+02  0.50087599986E+02  0.16538421926E+02  0.77293184421E+02  0.47000000000E+01 0. -1.
         -5    1    4    4    0  502  0.23516722268E+02 -0.32068449551E+02 -0.37479782757E+02  0.54847477593E+02  0.47000000000E+01 0. -1.
        -11    1    3    3    0    0  0.32973381230E+02  0.23074526192E+02  0.88240194618E+01  0.41201225081E+02  0.00000000000E+00 0.  1.
         11    1    3    3    0    0 -0.18860009233E+00 -0.41093676627E+02 -0.47492143396E+02  0.62803101142E+02  0.00000000000E+00 0. -1.
<mgrwt>
<rscale>  0 0.12101009E+03</rscale>
<asrwt>0</asrwt>
<pdfrwt beam="2">  1        1 0.22750344E-01 0.13047074E+03</pdfrwt>
<pdfrwt beam="1">  1       -1 0.13579654E-01 0.13047074E+03</pdfrwt>
<totfact> 0.76788761E+03</totfact>
</mgrwt>
</event>
<event>
 8    1  0.1224355E-005  0.2131370E+03  0.7546771E-02  0.1142584E+00
          2   -1    0    0  501    0  0.00000000000E+00  0.00000000000E+00  0.12419790322E+04  0.12419790322E+04  0.00000000000E+00 0.  1.
         -2   -1    0    0    0  501 -0.00000000000E+00 -0.00000000000E+00 -0.34669877926E+02  0.34669877926E+02  0.00000000000E+00 0. -1.
         23    2    1    2    0    0  0.87685676336E+02 -0.14870223530E+03  0.47223661471E+03  0.51129995152E+03  0.92839041039E+02 0.  0.
         23    2    1    2    0    0 -0.87685676336E+02  0.14870223530E+03  0.73507253958E+03  0.76534895862E+03  0.12500502947E+03 0.  0.
          5    1    4    4  502    0  0.30823020874E+02  0.47983171267E+02  0.17968481873E+03  0.18857668844E+03  0.47000000000E+01 0.  1.
         -5    1    4    4    0  502 -0.11850869721E+03  0.10071906403E+03  0.55538772085E+03  0.57677227018E+03  0.47000000000E+01 0.  1.
        -11    1    3    3    0    0  0.40047937169E+02 -0.10657684228E+03  0.18595561682E+03  0.21804117045E+03  0.00000000000E+00 0. -1.
         11    1    3    3    0    0  0.47637739167E+02 -0.42125393020E+02  0.28628099788E+03  0.29325878108E+03  0.00000000000E+00 0.  1.
<mgrwt>
<rscale>  0 0.20872004E+03</rscale>
<asrwt>0</asrwt>
<pdfrwt beam="1">  1        2 0.19107366E+00 0.21313702E+03</pdfrwt>
<pdfrwt beam="2">  1       -2 0.53338283E-02 0.21313702E+03</pdfrwt>
<totfact> 0.33416008E+03</totfact>
</mgrwt>
</event>
<event>
 8    1  0.1224355E-005  0.1295730E+03  0.7546771E-02  0.1242752E+00
         -2   -1    0    0    0  501 -0.00000000000E+00  0.00000000000E+00  0.35037714499E+02  0.35037714499E+02  0.00000000000E+00 0.  1.
          2   -1    0    0  501    0  0.00000000000E+00 -0.00000000000E+00 -0.40488813339E+03  0.40488813339E+03  0.00000000000E+00 0. -1.
         23    2    1    2    0    0  0.97709193304E+01  0.33900849223E+02 -0.90207367452E+02  0.13172236042E+03  0.89267422102E+02 0.  0.
         23    2    1    2    0    0 -0.97709193304E+01 -0.33900849223E+02 -0.27964305144E+03  0.30820348748E+03  0.12467724343E+03 0.  0.
          5    1    4    4  502    0 -0.26031321390E+02 -0.74330888911E+02 -0.12808206688E+03  0.15043209962E+03  0.47000000000E+01 0. -1.
         -5    1    4    4    0  502  0.16260402059E+02  0.40430039688E+02 -0.15156098457E+03  0.15777138786E+03  0.47000000000E+01 0.  1.
        -11    1    3    3    0    0  0.24818521663E+02  0.40958666966E+02 -0.88718866632E+01  0.48706075495E+02  0.00000000000E+00 0.  1.
         11    1    3    3    0    0 -0.15047602332E+02 -0.70578177429E+01 -0.81335480788E+02  0.83016284922E+02  0.00000000000E+00 0. -1.
<mgrwt>
<rscale>  0 0.12020938E+03</rscale>
<asrwt>0</asrwt>
<pdfrwt beam="2">  1        2 0.62290480E-01 0.12957297E+03</pdfrwt>
<pdfrwt beam="1">  1       -2 0.53904178E-02 0.12957297E+03</pdfrwt>
<totfact> 0.12944508E+04</totfact>
</mgrwt>
</event>
<event>
 8    1  0.1224355E-005  0.1324818E+03  0.7546771E-02  0.1232926E+00
          1   -1    0    0  501    0  0.00000000000E+00  0.00000000000E+00  0.13039606813E+03  0.13039606813E+03  0.00000000000E+00 0. -1.
         -1   -1    0    0    0  501 -0.00000000000E+00 -0.00000000000E+00 -0.12275878829E+03  0.12275878829E+03  0.00000000000E+00 0.  1.
         23    2    1    2    0    0  0.29287940159E+02  0.32586158962E+02 -0.33018197142E+02  0.11457534014E+03  0.10058660960E+03 0.  0.
         23    2    1    2    0    0 -0.29287940159E+02 -0.32586158962E+02  0.40655476977E+02  0.13857951628E+03  0.12502709038E+03 0.  0.
          5    1    4    4  502    0 -0.22216336720E+02 -0.41674448565E+02 -0.36847711719E+02  0.60084683068E+02  0.47000000000E+01 0. -1.
         -5    1    4    4    0  502 -0.70716034394E+01  0.90882896031E+01  0.77503188696E+02  0.78494833213E+02  0.47000000000E+01 0. -1.
        -11    1    3    3    0    0  0.51737163200E+02  0.35614099469E+02 -0.54647277478E+02  0.83255168445E+02  0.00000000000E+00 0.  1.
         11    1    3    3    0    0 -0.22449223041E+02 -0.30279405068E+01  0.21629080335E+02  0.31320171695E+02  0.00000000000E+00 0. -1.
<mgrwt>
<rscale>  0 0.12638142E+03</rscale>
<asrwt>0</asrwt>
<pdfrwt beam="1">  1        1 0.20060934E-01 0.13248175E+03</pdfrwt>
<pdfrwt beam="2">  1       -1 0.18885967E-01 0.13248175E+03</pdfrwt>
<totfact> 0.53627729E+03</totfact>
</mgrwt>
</event>
<event>
 8    1  0.1224355E-005  0.1597581E+03  0.7546771E-02  0.1196793E+00
          1   -1    0    0  501    0  0.00000000000E+00  0.00000000000E+00  0.48964200929E+03  0.48964200929E+03  0.00000000000E+00 0. -1.
         -1   -1    0    0    0  501 -0.00000000000E+00 -0.00000000000E+00 -0.54604453527E+02  0.54604453527E+02  0.00000000000E+00 0.  1.
         23    2    1    2    0    0  0.83557345471E+02 -0.53990068126E+02  0.84058295762E+02  0.15861829635E+03  0.90538441623E+02 0.  0.
         23    2    1    2    0    0 -0.83557345471E+02  0.53990068126E+02  0.35097926000E+03  0.38562816647E+03  0.12500353749E+03 0.  0.
          5    1    4    4  502    0 -0.92991563270E+02  0.50775764180E+02  0.35744860755E+03  0.37285011212E+03  0.47000000000E+01 0.  1.
         -5    1    4    4    0  502  0.94342177983E+01  0.32143039459E+01 -0.64693475473E+01  0.12778054352E+02  0.47000000000E+01 0.  1.
        -11    1    3    3    0    0  0.75340111370E+02 -0.17218014517E+02  0.13251556500E+02  0.78410433967E+02  0.00000000000E+00 0.  1.
         11    1    3    3    0    0  0.82172341010E+01 -0.36772053609E+02  0.70806739261E+02  0.80207862381E+02  0.00000000000E+00 0. -1.
<mgrwt>
<rscale>  0 0.15303432E+03</rscale>
<asrwt>0</asrwt>
<pdfrwt beam="1">  1        1 0.75329537E-01 0.15975807E+03</pdfrwt>
<pdfrwt beam="2">  1       -1 0.84006855E-02 0.15975807E+03</pdfrwt>
<totfact> 0.36231043E+03</totfact>
</mgrwt>
</event>
<event>
 8    1  0.1327452E-005  0.2121229E+03  0.7546771E-02  0.1143686E+00
         -1   -1    0    0    0  501 -0.00000000000E+00  0.00000000000E+00  0.37251182172E+03  0.37251182172E+03  0.00000000000E+00 0.  1.
          1   -1    0    0  501    0  0.00000000000E+00 -0.00000000000E+00 -0.11919253961E+03  0.11919253961E+03  0.00000000000E+00 0. -1.
         23    2    1    2    0    0 -0.82621087435E+02  0.15015149468E+03  0.18764469542E+03  0.26964746130E+03  0.90152682840E+02 0.  0.
         23    2    1    2    0    0  0.82621087435E+02 -0.15015149468E+03  0.65674586691E+02  0.22205690003E+03  0.12499760026E+03 0.  0.
          5    1    4    4  502    0  0.63152512695E+02 -0.11859091458E+03  0.10290257162E+03  0.16930172512E+03  0.47000000000E+01 0. -1.
         -5    1    4    4    0  502  0.19468574740E+02 -0.31560580096E+02 -0.37227984930E+02  0.52755174915E+02  0.47000000000E+01 0. -1.
        -11    1    3    3    0    0 -0.60570832219E+01  0.10269728906E+03  0.11137975239E+03  0.15162081216E+03  0.00000000000E+00 0.  1.
         11    1    3    3    0    0 -0.76564004213E+02  0.47454205620E+02  0.76264943027E+02  0.11802664914E+03  0.00000000000E+00 0. -1.
<mgrwt>
<rscale>  0 0.20734493E+03</rscale>
<asrwt>0</asrwt>
<pdfrwt beam="2">  1        1 0.18337314E-01 0.21212288E+03</pdfrwt>
<pdfrwt beam="1">  1       -1 0.57309511E-01 0.21212288E+03</pdfrwt>
<totfact> 0.90587791E+02</totfact>
</mgrwt>
</event>
<event>
 8    1  0.1224355E-005  0.1329930E+03  0.7546771E-02  0.1239264E+00
          1   -1    0    0  501    0  0.00000000000E+00  0.00000000000E+00  0.45605599282E+03  0.45605599282E+03  0.00000000000E+00 0. -1.
         -1   -1    0    0    0  501 -0.00000000000E+00 -0.00000000000E+00 -0.29648434736E+02  0.29648434736E+02  0.00000000000E+00 0.  1.
         23    2    1    2    0    0  0.32704264614E+02 -0.31497306501E+02  0.13342644344E+03  0.16395130847E+03  0.83760172523E+02 0.  0.
         23    2    1    2    0    0 -0.32704264614E+02  0.31497306501E+02  0.29298111464E+03  0.32175311908E+03  0.12500194742E+03 0.  0.
          5    1    4    4  502    0  0.10193317700E+02 -0.44218341566E+02  0.91994869613E+02  0.10268549796E+03  0.47000000000E+01 0.  1.
         -5    1    4    4    0  502 -0.42897582314E+02  0.75715648067E+02  0.20098624503E+03  0.21906762112E+03  0.47000000000E+01 0.  1.
        -11    1    3    3    0    0 -0.25584961976E+02 -0.21252384234E+02  0.30010523325E+02  0.44798277034E+02  0.00000000000E+00 0.  1.
         11    1    3    3    0    0  0.58289226589E+02 -0.10244922268E+02  0.10341592011E+03  0.11915303144E+03  0.00000000000E+00 0. -1.
<mgrwt>
<rscale>  0 0.12235363E+03</rscale>
<asrwt>0</asrwt>
<pdfrwt beam="1">  1        1 0.70162455E-01 0.13299299E+03</pdfrwt>
<pdfrwt beam="2">  1       -1 0.45612980E-02 0.13299299E+03</pdfrwt>
<totfact> 0.97957286E+03</totfact>
</mgrwt>
</event>
<event>
 8    1  0.1224355E-005  0.1436559E+03  0.7546771E-02  0.1217290E+00
          4   -1    0    0  501    0  0.00000000000E+00  0.00000000000E+00  0.18244247014E+03  0.18244247014E+03  0.00000000000E+00 0. -1.
         -4   -1    0    0    0  501 -0.00000000000E+00 -0.00000000000E+00 -0.11366779498E+03  0.11366779498E+03  0.00000000000E+00 0.  1.
         23    2    1    2    0    0 -0.50128471516E+02  0.50001099891E+02 -0.28620677651E+02  0.12255083307E+03  0.95846699737E+02 0.  0.
         23    2    1    2    0    0  0.50128471516E+02 -0.50001099891E+02  0.97395352816E+02  0.17355943205E+03  0.12499619217E+03 0.  0.
          5    1    4    4  502    0  0.64756221364E+02 -0.27515562441E+02  0.11931850905E+03  0.13859823586E+03  0.47000000000E+01 0. -1.
         -5    1    4    4    0  502 -0.14627749848E+02 -0.22485537450E+02 -0.21923156232E+02  0.34961196192E+02  0.47000000000E+01 0. -1.
        -11    1    3    3    0    0 -0.63483521832E+02  0.49897953571E+02 -0.51704589724E+02  0.95881843501E+02  0.00000000000E+00 0.  1.
         11    1    3    3    0    0  0.13355050316E+02  0.10314631966E+00  0.23083912072E+02  0.26668989570E+02  0.00000000000E+00 0. -1.
<mgrwt>
<rscale>  0 0.13709670E+03</rscale>
<asrwt>0</asrwt>
<pdfrwt beam="1">  1        4 0.28068072E-01 0.14365591E+03</pdfrwt>
<pdfrwt beam="2">  1       -4 0.17487353E-01 0.14365591E+03</pdfrwt>
<totfact> 0.58047183E+02</totfact>
</mgrwt>
</event>
<event>
 8    1  0.1224355E-005  0.1798668E+03  0.7546771E-02  0.1173489E+00
         -1   -1    0    0    0  501 -0.00000000000E+00  0.00000000000E+00  0.25866133914E+02  0.25866133914E+02  0.00000000000E+00 0.  1.
          1   -1    0    0  501    0  0.00000000000E+00 -0.00000000000E+00 -0.13293985397E+04  0.13293985397E+04  0.00000000000E+00 0. -1.
         23    2    1    2    0    0  0.56269644991E+01 -0.12920544220E+03 -0.34011911484E+03  0.37520486118E+03  0.91498451074E+02 0.  0.
         23    2    1    2    0    0 -0.56269644991E+01  0.12920544220E+03 -0.96341329093E+03  0.98005981242E+03  0.12500543088E+03 0.  0.
          5    1    4    4  502    0  0.19453804423E+01  0.78774036963E+02 -0.20124720511E+03  0.21617507018E+03  0.47000000000E+01 0.  1.
         -5    1    4    4    0  502 -0.75723449414E+01  0.50431405242E+02 -0.76216608583E+03  0.76388474224E+03  0.47000000000E+01 0.  1.
        -11    1    3    3    0    0  0.34615139525E+02 -0.98208804438E+02 -0.29690615555E+03  0.31463700094E+03  0.00000000000E+00 0. -1.
         11    1    3    3    0    0 -0.28988175026E+02 -0.30996637767E+02 -0.43212959291E+02  0.60567860247E+02  0.00000000000E+00 0.  1.
<mgrwt>
<rscale>  0 0.17424786E+03</rscale>
<asrwt>0</asrwt>
<pdfrwt beam="2">  1        1 0.20452275E+00 0.17986680E+03</pdfrwt>
<pdfrwt beam="1">  1       -1 0.39794072E-02 0.17986680E+03</pdfrwt>
<totfact> 0.23034836E+03</totfact>
</mgrwt>
</event>
<event>
 8    1  0.1224355E-005  0.1558116E+03  0.7546771E-02  0.1202163E+00
          1   -1    0    0  501    0  0.00000000000E+00  0.00000000000E+00  0.44107863002E+03  0.44107863002E+03  0.00000000000E+00 0. -1.
         -1   -1    0    0    0  501 -0.00000000000E+00 -0.00000000000E+00 -0.49444314331E+02  0.49444314331E+02  0.00000000000E+00 0.  1.
         23    2    1    2    0    0 -0.54558570071E+02 -0.75345247986E+02  0.11406941271E+03  0.17221564129E+03  0.89402752902E+02 0.  0.
         23    2    1    2    0    0  0.54558570071E+02  0.75345247986E+02  0.27756490297E+03  0.31830730306E+03  0.12499487931E+03 0.  0.
          5    1    4    4  502    0 -0.22132470042E+01  0.89606073899E+02  0.21240084645E+03  0.23058698253E+03  0.47000000000E+01 0.  1.
         -5    1    4    4    0  502  0.56771817076E+02 -0.14260825913E+02  0.65164056526E+02  0.87720320524E+02  0.47000000000E+01 0.  1.
        -11    1    3    3    0    0  0.21035344665E+02 -0.38309686934E+02  0.28468988241E+02  0.52159381991E+02  0.00000000000E+00 0.  1.
         11    1    3    3    0    0 -0.75593914736E+02 -0.37035561052E+02  0.85600424469E+02  0.12005625930E+03  0.00000000000E+00 0. -1.
<mgrwt>
<rscale>  0 0.14863289E+03</rscale>
<asrwt>0</asrwt>
<pdfrwt beam="1">  1        1 0.67858248E-01 0.15581163E+03</pdfrwt>
<pdfrwt beam="2">  1       -1 0.76068179E-02 0.15581163E+03</pdfrwt>
<totfact> 0.48145764E+03</totfact>
</mgrwt>
</event>
<event>
 8    1  0.1224355E-005  0.1412949E+03  0.7546771E-02  0.1222147E+00
         -1   -1    0    0    0  501 -0.00000000000E+00  0.00000000000E+00  0.14784962429E+02  0.14784962429E+02  0.00000000000E+00 0.  1.
          1   -1    0    0  501    0  0.00000000000E+00 -0.00000000000E+00 -0.11260762560E+04  0.11260762560E+04  0.00000000000E+00 0. -1.
         23    2    1    2    0    0 -0.12986240582E+02  0.64513486131E+02 -0.40035668667E+03  0.41602174204E+03  0.91967281971E+02 0.  0.
         23    2    1    2    0    0  0.12986240582E+02 -0.64513486131E+02 -0.71093460694E+03  0.72483947642E+03  0.12503447086E+03 0.  0.
          5    1    4    4  502    0 -0.36262032930E+02 -0.69874992749E+02 -0.56889661506E+03  0.57433692052E+03  0.47000000000E+01 0. -1.
         -5    1    4    4    0  502  0.49248273512E+02  0.53615066183E+01 -0.14203799188E+03  0.15050255591E+03  0.47000000000E+01 0. -1.
        -11    1    3    3    0    0  0.38255599879E+02  0.42206513763E+02 -0.21551646468E+03  0.22291753470E+03  0.00000000000E+00 0. -1.
         11    1    3    3    0    0 -0.51241840460E+02  0.22306972368E+02 -0.18484022199E+03  0.19310420735E+03  0.00000000000E+00 0.  1.
<mgrwt>
<rscale>  0 0.13364349E+03</rscale>
<asrwt>0</asrwt>
<pdfrwt beam="2">  1        1 0.17324257E+00 0.14129491E+03</pdfrwt>
<pdfrwt beam="1">  1       -1 0.22746087E-02 0.14129491E+03</pdfrwt>
<totfact> 0.71440223E+03</totfact>
</mgrwt>
</event>
<event>
 8    1  0.1224355E-005  0.1368913E+03  0.7546771E-02  0.1229488E+00
          2   -1    0    0  501    0  0.00000000000E+00  0.00000000000E+00  0.38637258421E+03  0.38637258421E+03  0.00000000000E+00 0. -1.
         -2   -1    0    0    0  501 -0.00000000000E+00 -0.00000000000E+00 -0.43263272953E+02  0.43263272953E+02  0.00000000000E+00 0.  1.
         23    2    1    2    0    0  0.52353411696E+02  0.19325957155E+02  0.81250472057E+02  0.13415443229E+03  0.91002198638E+02 0.  0.
         23    2    1    2    0    0 -0.52353411696E+02 -0.19325957155E+02  0.26185883920E+03  0.29548142488E+03  0.12499939377E+03 0.  0.
          5    1    4    4  502    0 -0.35259577609E+02  0.52157826305E+02  0.12675725488E+03  0.14160920988E+03  0.47000000000E+01 0. -1.
         -5    1    4    4    0  502 -0.17093834087E+02 -0.71483783460E+02  0.13510158432E+03  0.15387221500E+03  0.47000000000E+01 0. -1.
        -11    1    3    3    0    0  0.36147692246E+02 -0.20258836561E+02 -0.99674125200E+00  0.41449603215E+02  0.00000000000E+00 0.  1.
         11    1    3    3    0    0  0.16205719450E+02  0.39584793716E+02  0.82247213309E+02  0.92704829074E+02  0.00000000000E+00 0. -1.
<mgrwt>
<rscale>  0 0.12863963E+03</rscale>
<asrwt>0</asrwt>
<pdfrwt beam="1">  1        2 0.59441934E-01 0.13689127E+03</pdfrwt>
<pdfrwt beam="2">  1       -2 0.66558884E-02 0.13689127E+03</pdfrwt>
<totfact> 0.99262111E+03</totfact>
</mgrwt>
</event>
<event>
 8    1  0.1224355E-005  0.1484779E+03  0.7546771E-02  0.1212383E+00
         -2   -1    0    0    0  501 -0.00000000000E+00  0.00000000000E+00  0.12398147596E+02  0.12398147596E+02  0.00000000000E+00 0.  1.
          2   -1    0    0  501    0  0.00000000000E+00 -0.00000000000E+00 -0.23202036952E+04  0.23202036952E+04  0.00000000000E+00 0. -1.
         23    2    1    2    0    0  0.20181931432E+02 -0.77537235271E+02 -0.36520334439E+03  0.38433363724E+03  0.88991734192E+02 0.  0.
         23    2    1    2    0    0 -0.20181931432E+02  0.77537235271E+02 -0.19426022032E+04  0.19482682055E+04  0.12500539036E+03 0.  0.
          5    1    4    4  502    0 -0.73023710643E+02  0.48344546054E+02 -0.12011350503E+04  0.12043326602E+04  0.47000000000E+01 0. -1.
         -5    1    4    4    0  502  0.52841779211E+02  0.29192689217E+02 -0.74146715294E+03  0.74393554534E+03  0.47000000000E+01 0. -1.
        -11    1    3    3    0    0  0.41972806018E+02 -0.25823844497E+02 -0.26448558207E+03  0.26903756339E+03  0.00000000000E+00 0. -1.
         11    1    3    3    0    0 -0.21790874586E+02 -0.51713390773E+02 -0.10071776232E+03  0.11529607386E+03  0.00000000000E+00 0.  1.
<mgrwt>
<rscale>  0 0.14070536E+03</rscale>
<asrwt>0</asrwt>
<pdfrwt beam="2">  1        2 0.35695428E+00 0.14847788E+03</pdfrwt>
<pdfrwt beam="1">  1       -2 0.19074080E-02 0.14847788E+03</pdfrwt>
<totfact> 0.41687541E+03</totfact>
</mgrwt>
</event>
<event>
 7    1  0.1224355E-005  0.1711407E+03  0.7546771E-02  0.1208845E+00
          2   -1    0    0  501    0  0.00000000000E+00  0.00000000000E+00  0.43435899426E+03  0.43435899426E+03  0.00000000000E+00 0. -1.
         -2   -1    0    0    0  501 -0.00000000000E+00 -0.00000000000E+00 -0.38146244625E+02  0.38146244625E+02  0.00000000000E+00 0.  1.
         23    2    1    2    0    0  0.40978520056E+02  0.40232202703E+02  0.10431063997E+03  0.13413268763E+03  0.61749486151E+02 0.  0.
          5    1    1    2  502    0 -0.47439604064E+02 -0.11721054026E+02  0.30285066355E+03  0.30680370525E+03  0.47000000000E+01 0. -1.
         -5    1    1    2    0  502  0.64610840073E+01 -0.28511148677E+02 -0.10948553891E+02  0.31568846000E+02  0.47000000000E+01 0.  1.
        -11    1    3    3    0    0  0.31368719090E+02 -0.40403536830E+01  0.71538923580E+02  0.78218530939E+02  0.00000000000E+00 0. -1.
         11    1    3    3    0    0  0.96098009661E+01  0.44272556386E+02  0.32771716394E+02  0.55914156696E+02  0.00000000000E+00 0.  1.
<mgrwt>
<rscale>  0 0.14338553E+03</rscale>
<asrwt>0</asrwt>
<pdfrwt beam="1">  1        2 0.66824457E-01 0.17114071E+03</pdfrwt>
<pdfrwt beam="2">  1       -2 0.58686533E-02 0.17114071E+03</pdfrwt>
<totfact> 0.10767727E+04</totfact>
</mgrwt>
</event>
<event>
 8    1  0.1224355E-005  0.1475762E+03  0.7546771E-02  0.1212951E+00
         -2   -1    0    0    0  501 -0.00000000000E+00  0.00000000000E+00  0.30181087289E+02  0.30181087289E+02  0.00000000000E+00 0.  1.
          2   -1    0    0  501    0  0.00000000000E+00 -0.00000000000E+00 -0.85312688110E+03  0.85312688110E+03  0.00000000000E+00 0. -1.
         23    2    1    2    0    0 -0.53526746751E+02 -0.57360313246E+02 -0.14050189935E+03  0.18508995510E+03  0.91445008632E+02 0.  0.
         23    2    1    2    0    0  0.53526746751E+02  0.57360313246E+02 -0.68244389446E+03  0.69821801329E+03  0.12499362722E+03 0.  0.
          5    1    4    4  502    0  0.38307619050E+02 -0.35341767050E+02 -0.20317992849E+03  0.20981107578E+03  0.47000000000E+01 0. -1.
         -5    1    4    4    0  502  0.15219127702E+02  0.92702080296E+02 -0.47926396597E+03  0.48840693751E+03  0.47000000000E+01 0. -1.
        -11    1    3    3    0    0  0.11477275797E+02 -0.54147351222E+02 -0.67362265647E+02  0.87185654423E+02  0.00000000000E+00 0. -1.
         11    1    3    3    0    0 -0.65004022548E+02 -0.32129620231E+01 -0.73139633704E+02  0.97904300675E+02  0.00000000000E+00 0.  1.
<mgrwt>
<rscale>  0 0.14028094E+03</rscale>
<asrwt>0</asrwt>
<pdfrwt beam="2">  1        2 0.13125031E+00 0.14757617E+03</pdfrwt>
<pdfrwt beam="1">  1       -2 0.46432436E-02 0.14757617E+03</pdfrwt>
<totfact> 0.69472103E+03</totfact>
</mgrwt>
</event>
<event>
 8    1  0.1224355E-005  0.1453144E+03  0.7546771E-02  0.1212145E+00
          1   -1    0    0  501    0  0.00000000000E+00  0.00000000000E+00  0.24088468398E+04  0.24088468398E+04  0.00000000000E+00 0. -1.
         -1   -1    0    0    0  501 -0.00000000000E+00 -0.00000000000E+00 -0.11076257908E+02  0.11076257908E+02  0.00000000000E+00 0.  1.
         23    2    1    2    0    0  0.35685650806E+02  0.82722022212E+02  0.48712333633E+03  0.50375787504E+03  0.91468318176E+02 0.  0.
         23    2    1    2    0    0 -0.35685650806E+02 -0.82722022212E+02  0.19106472456E+04  0.19161652227E+04  0.11401695040E+03 0.  0.
          5    1    4    4  502    0  0.38060950635E+02 -0.43027010279E+02  0.10012134692E+04  0.10028711086E+04  0.47000000000E+01 0. -1.
         -5    1    4    4    0  502 -0.73746601441E+02 -0.39695011933E+02  0.90943377645E+03  0.91329411415E+03  0.47000000000E+01 0.  1.
        -11    1    3    3    0    0 -0.15742572609E+02  0.32059740308E+02  0.54552663024E+02  0.65204666888E+02  0.00000000000E+00 0.  1.
         11    1    3    3    0    0  0.51428223415E+02  0.50662281903E+02  0.43257067331E+03  0.43855320815E+03  0.00000000000E+00 0. -1.
<mgrwt>
<rscale>  0 0.14088360E+03</rscale>
<asrwt>0</asrwt>
<pdfrwt beam="1">  1        1 0.37059140E+00 0.14531436E+03</pdfrwt>
<pdfrwt beam="2">  1       -1 0.17040416E-02 0.14531436E+03</pdfrwt>
<totfact> 0.15938506E+03</totfact>
</mgrwt>
</event>
<event>
 8    1  0.1224355E-005  0.1342458E+03  0.7546771E-02  0.1237705E+00
          1   -1    0    0  501    0  0.00000000000E+00  0.00000000000E+00  0.18554325625E+03  0.18554325625E+03  0.00000000000E+00 0. -1.
         -1   -1    0    0    0  501 -0.00000000000E+00 -0.00000000000E+00 -0.71351773507E+02  0.71351773507E+02  0.00000000000E+00 0.  1.
         23    2    1    2    0    0 -0.34883102983E+02  0.34378935722E+02  0.41583335406E+02  0.10427171196E+03  0.82125964444E+02 0.  0.
         23    2    1    2    0    0  0.34883102983E+02 -0.34378935722E+02  0.72608147337E+02  0.15262331780E+03  0.12499276772E+03 0.  0.
          5    1    4    4  502    0  0.86022556686E+01 -0.32113821521E+02  0.10520192703E+03  0.11043021229E+03  0.47000000000E+01 0. -1.
         -5    1    4    4    0  502  0.26280847315E+02 -0.22651142014E+01 -0.32593779693E+02  0.42193105511E+02  0.47000000000E+01 0. -1.
        -11    1    3    3    0    0  0.31943014869E+01  0.47037268001E+02  0.43433348581E+02  0.64102760564E+02  0.00000000000E+00 0. -1.
         11    1    3    3    0    0 -0.38077404470E+02 -0.12658332279E+02 -0.18500131748E+01  0.40168951393E+02  0.00000000000E+00 0.  1.
<mgrwt>
<rscale>  0 0.12332868E+03</rscale>
<asrwt>0</asrwt>
<pdfrwt beam="1">  1        1 0.28545116E-01 0.13424580E+03</pdfrwt>
<pdfrwt beam="2">  1       -1 0.10977196E-01 0.13424580E+03</pdfrwt>
<totfact> 0.80423169E+03</totfact>
</mgrwt>
</event>
<event>
 8    1  0.1224355E-005  0.1854487E+03  0.7546771E-02  0.1167586E+00
         -2   -1    0    0    0  501 -0.00000000000E+00  0.00000000000E+00  0.15630361092E+03  0.15630361092E+03  0.00000000000E+00 0. -1.
          2   -1    0    0  501    0  0.00000000000E+00 -0.00000000000E+00 -0.21634960942E+03  0.21634960942E+03  0.00000000000E+00 0.  1.
         23    2    1    2    0    0 -0.35126939633E+02  0.13240988685E+03  0.27316123321E+02  0.16765720071E+03  0.92717238597E+02 0.  0.
         23    2    1    2    0    0  0.35126939633E+02 -0.13240988685E+03 -0.87362121825E+02  0.20499601963E+03  0.12499979084E+03 0.  0.
          5    1    4    4  502    0 -0.25125834907E+02 -0.36049467198E+02 -0.79528440632E+02  0.90982056112E+02  0.47000000000E+01 0.  1.
         -5    1    4    4    0  502  0.60252774540E+02 -0.96360419651E+02 -0.78336811930E+01  0.11401396351E+03  0.47000000000E+01 0.  1.
        -11    1    3    3    0    0 -0.66257887342E+02  0.81320958971E+02  0.99818464466E+01  0.10537003019E+03  0.00000000000E+00 0.  1.
         11    1    3    3    0    0  0.31130947709E+02  0.51088927878E+02  0.17334276874E+02  0.62287170522E+02  0.00000000000E+00 0. -1.
<mgrwt>
<rscale>  0 0.18022411E+03</rscale>
<asrwt>0</asrwt>
<pdfrwt beam="2">  1        2 0.33284555E-01 0.18544872E+03</pdfrwt>
<pdfrwt beam="1">  1       -2 0.24046709E-01 0.18544872E+03</pdfrwt>
<totfact> 0.23421737E+03</totfact>
</mgrwt>
</event>
<event>
 8    1  0.1224355E-005  0.1206303E+03  0.7546771E-02  0.1254845E+00
          4   -1    0    0  501    0  0.00000000000E+00  0.00000000000E+00  0.29120878115E+02  0.29120878115E+02  0.00000000000E+00 0. -1.
         -4   -1    0    0    0  501 -0.00000000000E+00 -0.00000000000E+00 -0.39789961589E+03  0.39789961589E+03  0.00000000000E+00 0.  1.
         23    2    1    2    0    0  0.16454707932E+02  0.12559991388E+02 -0.18423040829E+03  0.20654426584E+03  0.91055914786E+02 0.  0.
         23    2    1    2    0    0 -0.16454707932E+02 -0.12559991388E+02 -0.18454832949E+03  0.22047622817E+03  0.11884094611E+03 0.  0.
          5    1    4    4  502    0 -0.51546096819E+02 -0.47782705081E+02 -0.10099634298E+03  0.12313625907E+03  0.47000000000E+01 0. -1.
         -5    1    4    4    0  502  0.35091388887E+02  0.35222713693E+02 -0.83551986509E+02  0.97339969096E+02  0.47000000000E+01 0.  1.
        -11    1    3    3    0    0  0.40575013060E+02 -0.12471550327E+02 -0.15627146960E+03  0.16193407135E+03  0.00000000000E+00 0.  1.
         11    1    3    3    0    0 -0.24120305128E+02  0.25031541715E+02 -0.27958938684E+02  0.44610194490E+02  0.00000000000E+00 0. -1.
<mgrwt>
<rscale>  0 0.11315013E+03</rscale>
<asrwt>0</asrwt>
<pdfrwt beam="1">  1        4 0.44801354E-02 0.12063035E+03</pdfrwt>
<pdfrwt beam="2">  1       -4 0.61215321E-01 0.12063035E+03</pdfrwt>
<totfact> 0.11664002E+03</totfact>
</mgrwt>
</event>
<event>
 8    1  0.1224355E-005  0.1380570E+03  0.7546771E-02  0.1227992E+00
          2   -1    0    0  501    0  0.00000000000E+00  0.00000000000E+00  0.10814441770E+04  0.10814441770E+04  0.00000000000E+00 0.  1.
         -2   -1    0    0    0  501 -0.00000000000E+00 -0.00000000000E+00 -0.23507924686E+02  0.23507924686E+02  0.00000000000E+00 0. -1.
         23    2    1    2    0    0  0.36303974701E+02  0.46008376170E+02  0.13859653650E+03  0.17530419129E+03  0.89932253927E+02 0.  0.
         23    2    1    2    0    0 -0.36303974701E+02 -0.46008376170E+02  0.91933971579E+03  0.92964791037E+03  0.12499989991E+03 0.  0.
          5    1    4    4  502    0 -0.49437580721E+02 -0.27903871791E+02  0.89283377246E+03  0.89464905729E+03  0.47000000000E+01 0.  1.
         -5    1    4    4    0  502  0.13133606020E+02 -0.18104504378E+02  0.26505943322E+02  0.34998853085E+02  0.47000000000E+01 0.  1.
        -11    1    3    3    0    0 -0.12078368780E+02 -0.77417741397E+01  0.82611300283E+02  0.83847772742E+02  0.00000000000E+00 0.  1.
         11    1    3    3    0    0  0.48382343481E+02  0.53750150309E+02  0.55985236214E+02  0.91456418544E+02  0.00000000000E+00 0. -1.
<mgrwt>
<rscale>  0 0.12963950E+03</rscale>
<asrwt>0</asrwt>
<pdfrwt beam="1">  1        2 0.16637599E+00 0.13805696E+03</pdfrwt>
<pdfrwt beam="2">  1       -2 0.36166046E-02 0.13805696E+03</pdfrwt>
<totfact> 0.72903312E+03</totfact>
</mgrwt>
</event>
<event>
 8    1  0.1224355E-005  0.1330197E+03  0.7546771E-02  0.1235741E+00
          2   -1    0    0  501    0  0.00000000000E+00  0.00000000000E+00  0.63459765799E+02  0.63459765799E+02  0.00000000000E+00 0.  1.
         -2   -1    0    0    0  501 -0.00000000000E+00 -0.00000000000E+00 -0.30322976600E+03  0.30322976600E+03  0.00000000000E+00 0. -1.
         23    2    1    2    0    0  0.70198473807E+01  0.44963354512E+02 -0.20513666598E+03  0.22923516184E+03  0.91633652070E+02 0.  0.
         23    2    1    2    0    0 -0.70198473807E+01 -0.44963354512E+02 -0.34633334225E+02  0.13745436996E+03  0.12499301770E+03 0.  0.
          5    1    4    4  502    0 -0.46395372924E+02 -0.70873515959E+02 -0.29436370538E+02  0.89800756141E+02  0.47000000000E+01 0. -1.
         -5    1    4    4    0  502  0.39375525543E+02  0.25910161447E+02 -0.51969636873E+01  0.47653613814E+02  0.47000000000E+01 0. -1.
        -11    1    3    3    0    0  0.20498795698E+02  0.53103960351E+01 -0.13817782261E+01  0.21220514654E+02  0.00000000000E+00 0.  1.
         11    1    3    3    0    0 -0.13478948317E+02  0.39652958477E+02 -0.20375488775E+03  0.20801464719E+03  0.00000000000E+00 0. -1.
<mgrwt>
<rscale>  0 0.12457141E+03</rscale>
<asrwt>0</asrwt>
<pdfrwt beam="1">  1        2 0.97630410E-02 0.13301968E+03</pdfrwt>
<pdfrwt beam="2">  1       -2 0.46650733E-01 0.13301968E+03</pdfrwt>
<totfact> 0.27954935E+03</totfact>
</mgrwt>
</event>
<event>
 8    1  0.1224355E-005  0.1334703E+03  0.7546771E-02  0.1238515E+00
         -2   -1    0    0    0  501 -0.00000000000E+00  0.00000000000E+00  0.58079204021E+02  0.58079204021E+02  0.00000000000E+00 0.  1.
          2   -1    0    0  501    0  0.00000000000E+00 -0.00000000000E+00 -0.39788494764E+03  0.39788494764E+03  0.00000000000E+00 0. -1.
         23    2    1    2    0    0 -0.46713338525E+02 -0.21422823052E+01 -0.53428545129E+01  0.95853395347E+02  0.83502107373E+02 0.  0.
         23    2    1    2    0    0  0.46713338525E+02  0.21422823052E+01 -0.33446288910E+03  0.36011075631E+03  0.12501042858E+03 0.  0.
          5    1    4    4  502    0  0.12311635311E+02  0.62190846764E+02 -0.17608329307E+03  0.18720762240E+03  0.47000000000E+01 0. -1.
         -5    1    4    4    0  502  0.34401703213E+02 -0.60048564459E+02 -0.15837959603E+03  0.17290313391E+03  0.47000000000E+01 0. -1.
        -11    1    3    3    0    0 -0.36282995160E+02 -0.10249176086E+02  0.36195581891E+02  0.52264916499E+02  0.00000000000E+00 0.  1.
         11    1    3    3    0    0 -0.10430343365E+02  0.81068937808E+01 -0.41538436404E+02  0.43588478849E+02  0.00000000000E+00 0. -1.
<mgrwt>
<rscale>  0 0.12282069E+03</rscale>
<asrwt>0</asrwt>
<pdfrwt beam="2">  1        2 0.61213067E-01 0.13347034E+03</pdfrwt>
<pdfrwt beam="1">  1       -2 0.89352624E-02 0.13347034E+03</pdfrwt>
<totfact> 0.61015354E+03</totfact>
</mgrwt>
</event>
<event>
 8    1  0.1224355E-005  0.1448480E+03  0.7546771E-02  0.1217038E+00
          2   -1    0    0  501    0  0.00000000000E+00  0.00000000000E+00  0.11325416732E+04  0.11325416732E+04  0.00000000000E+00 0.  1.
         -2   -1    0    0    0  501 -0.00000000000E+00 -0.00000000000E+00 -0.15124169859E+02  0.15124169859E+02  0.00000000000E+00 0. -1.
         23    2    1    2    0    0 -0.55338610737E+02 -0.47866141172E+02  0.50913258348E+03  0.52237272571E+03  0.91124901621E+02 0.  0.
         23    2    1    2    0    0  0.55338610737E+02  0.47866141172E+02  0.60828491982E+03  0.62529311731E+03  0.12500963789E+03 0.  0.
          5    1    4    4  502    0  0.44157163911E+02 -0.36488314858E+02  0.19405632926E+03  0.20238873776E+03  0.47000000000E+01 0.  1.
         -5    1    4    4    0  502  0.11181446826E+02  0.84354456029E+02  0.41422859056E+03  0.42290437955E+03  0.47000000000E+01 0.  1.
        -11    1    3    3    0    0 -0.78521824258E+02 -0.44964228325E+02  0.44526076163E+03  0.45436175517E+03  0.00000000000E+00 0.  1.
         11    1    3    3    0    0  0.23183213521E+02 -0.29019128462E+01  0.63871821848E+02  0.68010970538E+02  0.00000000000E+00 0. -1.
<mgrwt>
<rscale>  0 0.13727924E+03</rscale>
<asrwt>0</asrwt>
<pdfrwt beam="1">  1        2 0.17423711E+00 0.14484799E+03</pdfrwt>
<pdfrwt beam="2">  1       -2 0.23267962E-02 0.14484799E+03</pdfrwt>
<totfact> 0.13065096E+04</totfact>
</mgrwt>
</event>
<event>
 8    1  0.1224355E-005  0.2000524E+03  0.7546771E-02  0.1153892E+00
         -2   -1    0    0    0  501 -0.00000000000E+00  0.00000000000E+00  0.73872537422E+02  0.73872537422E+02  0.00000000000E+00 0.  1.
          2   -1    0    0  501    0  0.00000000000E+00 -0.00000000000E+00 -0.58691616952E+03  0.58691616952E+03  0.00000000000E+00 0. -1.
         23    2    1    2    0    0 -0.11927207850E+03 -0.10085009237E+03 -0.11302842407E+03  0.21353809420E+03  0.91796095692E+02 0.  0.
         23    2    1    2    0    0  0.11927207850E+03  0.10085009237E+03 -0.40001520804E+03  0.44725061275E+03  0.12499749640E+03 0.  0.
          5    1    4    4  502    0  0.48559632101E+02  0.78519789172E+02 -0.33816872105E+03  0.35057605318E+03  0.47000000000E+01 0.  1.
         -5    1    4    4    0  502  0.70712446404E+02  0.22330303195E+02 -0.61846486982E+02  0.96674559576E+02  0.47000000000E+01 0.  1.
        -11    1    3    3    0    0 -0.10699346920E+03 -0.61597088401E+02 -0.11959811611E+03  0.17188808315E+03  0.00000000000E+00 0. -1.
         11    1    3    3    0    0 -0.12278609306E+02 -0.39253003966E+02  0.65696920430E+01  0.41650011049E+02  0.00000000000E+00 0.  1.
<mgrwt>
<rscale>  0 0.19515523E+03</rscale>
<asrwt>0</asrwt>
<pdfrwt beam="2">  1        2 0.90294795E-01 0.20005235E+03</pdfrwt>
<pdfrwt beam="1">  1       -2 0.11365006E-01 0.20005235E+03</pdfrwt>
<totfact> 0.27666942E+03</totfact>
</mgrwt>
</event>
<event>
 7    1  0.1224355E-005  0.1606535E+03  0.7546771E-02  0.1197976E+00
          2   -1    0    0  501    0  0.00000000000E+00  0.00000000000E+00  0.13638376336E+04  0.13638376336E+04  0.00000000000E+00 0. -1.
         -2   -1    0    0    0  501 -0.00000000000E+00 -0.00000000000E+00 -0.55283063520E+02  0.55283063520E+02  0.00000000000E+00 0.  1.
         23    2    1    2    0    0  0.81919756643E+02 -0.19740915818E+01  0.32430275705E+02  0.13292368274E+03  0.99509994905E+02 0.  0.
          5    1    1    2  502    0 -0.64778138926E+02  0.56467337170E+02  0.10253496752E+04  0.10289552050E+04  0.47000000000E+01 0. -1.
         -5    1    1    2    0  502 -0.17141617717E+02 -0.54493245589E+02  0.25077461920E+03  0.25724180941E+03  0.47000000000E+01 0.  1.
        -11    1    3    3    0    0  0.70852256582E+02  0.41003773905E+02  0.79687844145E+01  0.82248728028E+02  0.00000000000E+00 0.  1.
         11    1    3    3    0    0  0.11067500061E+02 -0.42977865486E+02  0.24461491290E+02  0.50674954716E+02  0.00000000000E+00 0. -1.
<mgrwt>
<rscale>  0 0.15205008E+03</rscale>
<asrwt>0</asrwt>
<pdfrwt beam="1">  1        2 0.20982115E+00 0.16065349E+03</pdfrwt>
<pdfrwt beam="2">  1       -2 0.85050877E-02 0.16065349E+03</pdfrwt>
<totfact> 0.13964229E+03</totfact>
</mgrwt>
</event>
<event>
 8    1  0.1224355E-005  0.1460931E+03  0.7546771E-02  0.1216102E+00
          2   -1    0    0  501    0  0.00000000000E+00  0.00000000000E+00  0.28875581970E+03  0.28875581970E+03  0.00000000000E+00 0. -1.
         -2   -1    0    0    0  501 -0.00000000000E+00 -0.00000000000E+00 -0.60430042675E+02  0.60430042675E+02  0.00000000000E+00 0.  1.
         23    2    1    2    0    0 -0.75498738629E+02 -0.46102798042E+01  0.80421078210E+02  0.14129408489E+03  0.88176835908E+02 0.  0.
         23    2    1    2    0    0  0.75498738629E+02  0.46102798042E+01  0.14790469882E+03  0.20789177749E+03  0.12498750737E+03 0.  0.
          5    1    4    4  502    0  0.73965064216E+02  0.46107761970E+02  0.14056518430E+03  0.16546122651E+03  0.47000000000E+01 0. -1.
         -5    1    4    4    0  502  0.15336744132E+01 -0.41497482165E+02  0.73395145147E+01  0.42430550981E+02  0.47000000000E+01 0. -1.
        -11    1    3    3    0    0 -0.16357096419E+02  0.26190391187E+02  0.66293901747E+02  0.73132568686E+02  0.00000000000E+00 0. -1.
         11    1    3    3    0    0 -0.59141642209E+02 -0.30800670991E+02  0.14127176462E+02  0.68161516206E+02  0.00000000000E+00 0.  1.
<mgrwt>
<rscale>  0 0.13795892E+03</rscale>
<asrwt>0</asrwt>
<pdfrwt beam="1">  1        2 0.44423972E-01 0.14609309E+03</pdfrwt>
<pdfrwt beam="2">  1       -2 0.92969298E-02 0.14609309E+03</pdfrwt>
<totfact> 0.81101385E+03</totfact>
</mgrwt>
</event>
<event>
 8    1  0.1224355E-005  0.1395620E+03  0.7546771E-02  0.1225311E+00
          2   -1    0    0  501    0  0.00000000000E+00  0.00000000000E+00  0.46840540469E+03  0.46840540469E+03  0.00000000000E+00 0. -1.
         -2   -1    0    0    0  501 -0.00000000000E+00 -0.00000000000E+00 -0.44952590434E+02  0.44952590434E+02  0.00000000000E+00 0.  1.
         23    2    1    2    0    0 -0.54595851676E+02 -0.29511127808E+02  0.62559665550E+02  0.12641946861E+03  0.90645223837E+02 0.  0.
         23    2    1    2    0    0  0.54595851676E+02  0.29511127808E+02  0.36089314871E+03  0.38693852652E+03  0.12500377928E+03 0.  0.
          5    1    4    4  502    0  0.28789488668E+02 -0.11151349797E+01  0.60509107857E+01  0.29812442120E+02  0.47000000000E+01 0.  1.
         -5    1    4    4    0  502  0.25806363008E+02  0.30626262787E+02  0.35484223792E+03  0.35712608440E+03  0.47000000000E+01 0.  1.
        -11    1    3    3    0    0  0.21411243839E+02 -0.26073680712E+02  0.20634757546E+02  0.39548342665E+02  0.00000000000E+00 0. -1.
         11    1    3    3    0    0 -0.76007095516E+02 -0.34374470958E+01  0.41924908004E+02  0.86871125942E+02  0.00000000000E+00 0.  1.
<mgrwt>
<rscale>  0 0.13145606E+03</rscale>
<asrwt>0</asrwt>
<pdfrwt beam="1">  1        2 0.72062367E-01 0.13956202E+03</pdfrwt>
<pdfrwt beam="2">  1       -2 0.69157835E-02 0.13956202E+03</pdfrwt>
<totfact> 0.76195413E+03</totfact>
</mgrwt>
</event>
<event>
 8    1  0.1224355E-005  0.1308969E+03  0.7546771E-02  0.1239825E+00
          2   -1    0    0  501    0  0.00000000000E+00  0.00000000000E+00  0.98289255019E+02  0.98289255019E+02  0.00000000000E+00 0. -1.
         -2   -1    0    0    0  501 -0.00000000000E+00 -0.00000000000E+00 -0.13451039433E+03  0.13451039433E+03  0.00000000000E+00 0.  1.
         23    2    1    2    0    0  0.48532873313E+01 -0.38529023898E+02 -0.99566010162E+01  0.99293769403E+02  0.90840952538E+02 0.  0.
         23    2    1    2    0    0 -0.48532873313E+01  0.38529023898E+02 -0.26264538296E+02  0.13350587995E+03  0.12500381566E+03 0.  0.
          5    1    4    4  502    0  0.25157048611E+02  0.77399478924E+02 -0.14677548153E+02  0.82831617468E+02  0.47000000000E+01 0. -1.
         -5    1    4    4    0  502 -0.30010335942E+02 -0.38870455026E+02 -0.11586990144E+02  0.50674262480E+02  0.47000000000E+01 0. -1.
        -11    1    3    3    0    0 -0.19273000284E+02 -0.50635292186E+02 -0.33310441127E+02  0.63600053795E+02  0.00000000000E+00 0.  1.
         11    1    3    3    0    0  0.24126287615E+02  0.12106268288E+02  0.23353840111E+02  0.35693715608E+02  0.00000000000E+00 0. -1.
<mgrwt>
<rscale>  0 0.12200535E+03</rscale>
<asrwt>0</asrwt>
<pdfrwt beam="1">  1        2 0.15121424E-01 0.13089688E+03</pdfrwt>
<pdfrwt beam="2">  1       -2 0.20693907E-01 0.13089688E+03</pdfrwt>
<totfact> 0.72130309E+03</totfact>
</mgrwt>
</event>
<event>
 7    1  0.1224355E-005  0.4105351E+03  0.7546771E-02  0.1040192E+00
          1   -1    0    0  501    0  0.00000000000E+00  0.00000000000E+00  0.14483771405E+04  0.14483771405E+04  0.00000000000E+00 0. -1.
         -1   -1    0    0    0  501 -0.00000000000E+00 -0.00000000000E+00 -0.29091025846E+02  0.29091025846E+02  0.00000000000E+00 0.  1.
         23    2    1    2    0    0 -0.60581778441E+02 -0.13396853806E+03  0.77977583190E+03  0.80330037009E+03  0.12499366183E+03 0.  0.
          5    1    3    3  502    0  0.26342341399E+02 -0.92882691381E+02  0.38071272637E+03  0.39279178113E+03  0.47000000000E+01 0. -1.
         -5    1    3    3    0  502 -0.86924119840E+02 -0.41085846681E+02  0.39906310553E+03  0.41050858895E+03  0.47000000000E+01 0. -1.
        -11    1    1    2    0    0  0.79125287482E+02  0.36561604012E+02  0.46808083428E+03  0.47612732481E+03  0.00000000000E+00 0. -1.
         11    1    1    2    0    0 -0.18543509042E+02  0.97406934050E+02  0.17142944847E+03  0.19804047145E+03  0.00000000000E+00 0.  1.
<mgrwt>
<rscale>  0 0.41053515E+03</rscale>
<asrwt>0</asrwt>
<pdfrwt beam="1">  1        1 0.22282720E+00 0.41053515E+03</pdfrwt>
<pdfrwt beam="2">  1       -1 0.44755436E-02 0.41053515E+03</pdfrwt>
<totfact> 0.16041600E+03</totfact>
</mgrwt>
</event>
<event>
 8    1  0.1224355E-005  0.2223521E+03  0.7546771E-02  0.1133961E+00
          3   -1    0    0  501    0  0.00000000000E+00  0.00000000000E+00  0.77174226791E+03  0.77174226791E+03  0.00000000000E+00 0. -1.
         -3   -1    0    0    0  501 -0.00000000000E+00 -0.00000000000E+00 -0.79585179597E+02  0.79585179597E+02  0.00000000000E+00 0.  1.
         23    2    1    2    0    0 -0.34208080748E+02 -0.18067836229E+03  0.13621045635E+03  0.25256444643E+03  0.10686743092E+03 0.  0.
         23    2    1    2    0    0  0.34208080748E+02  0.18067836229E+03  0.55594663196E+03  0.59876300108E+03  0.12500244190E+03 0.  0.
          5    1    4    4  502    0  0.57481944768E+01  0.17255540135E+03  0.34625217018E+03  0.38693806175E+03  0.47000000000E+01 0.  1.
         -5    1    4    4    0  502  0.28459886272E+02  0.81229609465E+01  0.20969446178E+03  0.21182493933E+03  0.47000000000E+01 0.  1.
        -11    1    3    3    0    0 -0.57407001814E+02 -0.87363670019E+02  0.11241372224E+03  0.15350836995E+03  0.00000000000E+00 0.  1.
         11    1    3    3    0    0  0.23198921066E+02 -0.93314692276E+02  0.23796734111E+02  0.99056076479E+02  0.00000000000E+00 0. -1.
<mgrwt>
<rscale>  0 0.21989529E+03</rscale>
<asrwt>0</asrwt>
<pdfrwt beam="1">  1        3 0.11872957E+00 0.22235214E+03</pdfrwt>
<pdfrwt beam="2">  1       -3 0.12243874E-01 0.22235214E+03</pdfrwt>
<totfact> 0.78671025E+01</totfact>
</mgrwt>
</event>
<event>
 8    1  0.1224355E-005  0.1415421E+03  0.7546771E-02  0.1222060E+00
          2   -1    0    0  501    0  0.00000000000E+00  0.00000000000E+00  0.61110611120E+03  0.61110611120E+03  0.00000000000E+00 0. -1.
         -2   -1    0    0    0  501 -0.00000000000E+00 -0.00000000000E+00 -0.98520353753E+02  0.98520353753E+02  0.00000000000E+00 0.  1.
         23    2    1    2    0    0 -0.58815726724E+02  0.30252872605E+02 -0.54468905520E+02  0.12517359144E+03  0.91252618122E+02 0.  0.
         23    2    1    2    0    0  0.58815726724E+02 -0.30252872605E+02  0.56705466297E+03  0.58445287352E+03  0.12513850150E+03 0.  0.
          5    1    4    4  502    0  0.94975855293E+02 -0.35871466007E+02  0.35709801217E+03  0.37127921495E+03  0.47000000000E+01 0. -1.
         -5    1    4    4    0  502 -0.36160128569E+02  0.56185934019E+01  0.20995665080E+03  0.21317365856E+03  0.47000000000E+01 0. -1.
        -11    1    3    3    0    0 -0.66870825356E+02 -0.71029299158E+01 -0.12474119555E+02  0.68394170481E+02  0.00000000000E+00 0. -1.
         11    1    3    3    0    0  0.80550986317E+01  0.37355802521E+02 -0.41994785965E+02  0.56779420957E+02  0.00000000000E+00 0.  1.
<mgrwt>
<rscale>  0 0.13370462E+03</rscale>
<asrwt>0</asrwt>
<pdfrwt beam="1">  1        2 0.94016323E-01 0.14154212E+03</pdfrwt>
<pdfrwt beam="2">  1       -2 0.15156978E-01 0.14154212E+03</pdfrwt>
<totfact> 0.16432310E+03</totfact>
</mgrwt>
</event>
<event>
 8    1  0.1224355E-005  0.1532437E+03  0.7546771E-02  0.1204921E+00
          1   -1    0    0  501    0  0.00000000000E+00  0.00000000000E+00  0.10620943541E+03  0.10620943541E+03  0.00000000000E+00 0. -1.
         -1   -1    0    0    0  501 -0.00000000000E+00 -0.00000000000E+00 -0.20027620571E+03  0.20027620571E+03  0.00000000000E+00 0.  1.
         23    2    1    2    0    0  0.35758659698E+02 -0.81128811860E+02 -0.83993443060E+02  0.15291122723E+03  0.92012928869E+02 0.  0.
         23    2    1    2    0    0 -0.35758659698E+02  0.81128811860E+02 -0.10073327241E+02  0.15357441388E+03  0.12499225104E+03 0.  0.
          5    1    4    4  502    0 -0.74834134580E+02  0.85203339370E+02 -0.10704616721E+02  0.11400191032E+03  0.47000000000E+01 0.  1.
         -5    1    4    4    0  502  0.39075474882E+02 -0.40745275098E+01  0.63128948048E+00  0.39572503561E+02  0.47000000000E+01 0.  1.
        -11    1    3    3    0    0 -0.34490370256E-01 -0.65715306336E+02 -0.63311551917E+01  0.66019589536E+02  0.00000000000E+00 0.  1.
         11    1    3    3    0    0  0.35793150069E+02 -0.15413505523E+02 -0.77662287868E+02  0.86891637695E+02  0.00000000000E+00 0. -1.
<mgrwt>
<rscale>  0 0.14643675E+03</rscale>
<asrwt>0</asrwt>
<pdfrwt beam="1">  1        1 0.16339913E-01 0.15324369E+03</pdfrwt>
<pdfrwt beam="2">  1       -1 0.30811724E-01 0.15324369E+03</pdfrwt>
<totfact> 0.31511030E+03</totfact>
</mgrwt>
</event>
<event>
 8    1  0.1224355E-005  0.1626613E+03  0.7546771E-02  0.1192496E+00
         -1   -1    0    0    0  501 -0.00000000000E+00  0.00000000000E+00  0.11573138313E+03  0.11573138313E+03  0.00000000000E+00 0.  1.
          1   -1    0    0  501    0  0.00000000000E+00 -0.00000000000E+00 -0.24423080037E+03  0.24423080037E+03  0.00000000000E+00 0. -1.
         23    2    1    2    0    0 -0.86889973184E+02 -0.57300387146E+02  0.17842014974E+02  0.14115970291E+03  0.93672420805E+02 0.  0.
         23    2    1    2    0    0  0.86889973184E+02  0.57300387146E+02 -0.14634143222E+03  0.21880248059E+03  0.12500203567E+03 0.  0.
          5    1    4    4  502    0  0.55038772025E+02 -0.34169352893E+02 -0.48630026330E+02  0.81140498914E+02  0.47000000000E+01 0.  1.
         -5    1    4    4    0  502  0.31851201159E+02  0.91469740039E+02 -0.97711405890E+02  0.13766198168E+03  0.47000000000E+01 0.  1.
        -11    1    3    3    0    0 -0.81633979675E+02 -0.75699573998E+02  0.33687098127E+02  0.11631574580E+03  0.00000000000E+00 0.  1.
         11    1    3    3    0    0 -0.52559935088E+01  0.18399186852E+02 -0.15845083152E+02  0.24843957106E+02  0.00000000000E+00 0. -1.
<mgrwt>
<rscale>  0 0.15668111E+03</rscale>
<asrwt>0</asrwt>
<pdfrwt beam="2">  1        1 0.37573969E-01 0.16266134E+03</pdfrwt>
<pdfrwt beam="1">  1       -1 0.17804828E-01 0.16266134E+03</pdfrwt>
<totfact> 0.27118381E+03</totfact>
</mgrwt>
</event>
<event>
 8    1  0.1224355E-005  0.1335026E+03  0.7546771E-02  0.1237835E+00
          3   -1    0    0  501    0  0.00000000000E+00  0.00000000000E+00  0.73816999147E+03  0.73816999147E+03  0.00000000000E+00 0. -1.
         -3   -1    0    0    0  501 -0.00000000000E+00 -0.00000000000E+00 -0.18267940816E+02  0.18267940816E+02  0.00000000000E+00 0.  1.
         23    2    1    2    0    0 -0.86820275225E+01 -0.46031470126E+02  0.25766082759E+03  0.27530398075E+03  0.84905276050E+02 0.  0.
         23    2    1    2    0    0  0.86820275225E+01  0.46031470126E+02  0.46224122307E+03  0.48113395153E+03  0.12501462783E+03 0.  0.
          5    1    4    4  502    0  0.73167190440E+01 -0.50901679382E+01  0.40135526190E+03  0.40148173115E+03  0.47000000000E+01 0. -1.
         -5    1    4    4    0  502  0.13653084785E+01  0.51121638064E+02  0.60885961164E+02  0.79652220386E+02  0.47000000000E+01 0. -1.
        -11    1    3    3    0    0  0.29763097877E+02 -0.48153773014E+02  0.12608663215E+03  0.13821167338E+03  0.00000000000E+00 0.  1.
         11    1    3    3    0    0 -0.38445125400E+02  0.21223028876E+01  0.13157419544E+03  0.13709230737E+03  0.00000000000E+00 0. -1.
<mgrwt>
<rscale>  0 0.12324704E+03</rscale>
<asrwt>0</asrwt>
<pdfrwt beam="1">  1        3 0.11356459E+00 0.13350255E+03</pdfrwt>
<pdfrwt beam="2">  1       -3 0.28104530E-02 0.13350255E+03</pdfrwt>
<totfact> 0.87824152E+02</totfact>
</mgrwt>
</event>
<event>
 6    1  0.1519233E-005  0.1810163E+03  0.7546771E-02  0.1228049E+00
          2   -1    0    0  501    0  0.00000000000E+00  0.00000000000E+00  0.23715973117E+04  0.23715973117E+04  0.00000000000E+00 0. -1.
         -2   -1    0    0    0  501 -0.00000000000E+00 -0.00000000000E+00 -0.91257899557E+01  0.91257899557E+01  0.00000000000E+00 0.  1.
          5    1    1    2  502    0 -0.33054479035E+02 -0.11499106221E+02  0.20982108969E+04  0.20985080143E+04  0.47000000000E+01 0. -1.
         -5    1    1    2    0  502  0.39406796036E+02 -0.28080834950E+02  0.16723206345E+03  0.17415533845E+03  0.47000000000E+01 0.  1.
        -11    1    1    2    0    0 -0.90261293777E+01  0.94020493747E+01  0.53241183133E+02  0.54813256840E+02  0.00000000000E+00 0.  1.
         11    1    1    2    0    0  0.26738123770E+01  0.30177891797E+02  0.43787378214E+02  0.53246492061E+02  0.00000000000E+00 0. -1.
<mgrwt>
<rscale>  0 0.12960110E+03</rscale>
<asrwt>0</asrwt>
<pdfrwt beam="1">  1        2 0.36486063E+00 0.18101632E+03</pdfrwt>
<pdfrwt beam="2">  1       -2 0.14039696E-02 0.18101632E+03</pdfrwt>
<totfact> 0.61145215E+03</totfact>
</mgrwt>
</event>
<event>
 8    1  0.1224355E-005  0.1377949E+03  0.7546771E-02  0.1228831E+00
         -1   -1    0    0    0  501 -0.00000000000E+00  0.00000000000E+00  0.38197724754E+02  0.38197724754E+02  0.00000000000E+00 0.  1.
          1   -1    0    0  501    0  0.00000000000E+00 -0.00000000000E+00 -0.75964481633E+03  0.75964481633E+03  0.00000000000E+00 0. -1.
         23    2    1    2    0    0  0.22183668259E+02 -0.53573215288E+02 -0.59372653026E+02  0.12158075592E+03  0.88851357608E+02 0.  0.
         23    2    1    2    0    0 -0.22183668259E+02  0.53573215288E+02 -0.66207443855E+03  0.67626178517E+03  0.12500094143E+03 0.  0.
          5    1    4    4  502    0 -0.61916576577E+02  0.18096887002E+02 -0.18069882645E+03  0.19192528665E+03  0.47000000000E+01 0. -1.
         -5    1    4    4    0  502  0.39732908318E+02  0.35476328286E+02 -0.48137561210E+03  0.48433649852E+03  0.47000000000E+01 0. -1.
        -11    1    3    3    0    0  0.39061297443E+02 -0.60670460007E+02 -0.15168004795E+02  0.73734374921E+02  0.00000000000E+00 0. -1.
         11    1    3    3    0    0 -0.16877629184E+02  0.70972447192E+01 -0.44204648231E+02  0.47846380999E+02  0.00000000000E+00 0.  1.
<mgrwt>
<rscale>  0 0.12907782E+03</rscale>
<asrwt>0</asrwt>
<pdfrwt beam="2">  1        1 0.11686843E+00 0.13779492E+03</pdfrwt>
<pdfrwt beam="1">  1       -1 0.58765733E-02 0.13779492E+03</pdfrwt>
<totfact> 0.33653201E+03</totfact>
</mgrwt>
</event>
<event>
 8    1  0.1224355E-005  0.2381709E+03  0.7546771E-02  0.1123779E+00
         -1   -1    0    0    0  501 -0.00000000000E+00  0.00000000000E+00  0.64021108677E+02  0.64021108677E+02  0.00000000000E+00 0.  1.
          1   -1    0    0  501    0  0.00000000000E+00 -0.00000000000E+00 -0.88043848763E+03  0.88043848763E+03  0.00000000000E+00 0. -1.
         23    2    1    2    0    0 -0.17592993013E+03  0.10074359438E+03 -0.27999374001E+03  0.35753907517E+03  0.91307632241E+02 0.  0.
         23    2    1    2    0    0  0.17592993013E+03 -0.10074359438E+03 -0.53642363895E+03  0.58692052114E+03  0.12499906235E+03 0.  0.
          5    1    4    4  502    0  0.95053243953E+02 -0.12167999473E+03 -0.35146686787E+03  0.38391690444E+03  0.47000000000E+01 0. -1.
         -5    1    4    4    0  502  0.80876686176E+02  0.20936400347E+02 -0.18495677108E+03  0.20300361670E+03  0.47000000000E+01 0. -1.
        -11    1    3    3    0    0 -0.10553992561E+03  0.66088973637E+02 -0.23785740558E+03  0.26848198025E+03  0.00000000000E+00 0. -1.
         11    1    3    3    0    0 -0.70390004521E+02  0.34654620743E+02 -0.42136334431E+02  0.89057094915E+02  0.00000000000E+00 0.  1.
<mgrwt>
<rscale>  0 0.23411207E+03</rscale>
<asrwt>0</asrwt>
<pdfrwt beam="2">  1        1 0.13545206E+00 0.23817090E+03</pdfrwt>
<pdfrwt beam="1">  1       -1 0.98494021E-02 0.23817090E+03</pdfrwt>
<totfact> 0.12365976E+03</totfact>
</mgrwt>
</event>
<event>
 8    1  0.1224355E-005  0.1621868E+03  0.7546771E-02  0.1193764E+00
         -1   -1    0    0    0  501 -0.00000000000E+00  0.00000000000E+00  0.53749343248E+03  0.53749343248E+03  0.00000000000E+00 0.  1.
          1   -1    0    0  501    0  0.00000000000E+00 -0.00000000000E+00 -0.55226030154E+02  0.55226030154E+02  0.00000000000E+00 0. -1.
         23    2    1    2    0    0  0.92712268959E+02 -0.45645869492E+02  0.37211367017E+03  0.39666233607E+03  0.90516932741E+02 0.  0.
         23    2    1    2    0    0 -0.92712268959E+02  0.45645869492E+02  0.11015373216E+03  0.19605712657E+03  0.12500176780E+03 0.  0.
          5    1    4    4  502    0 -0.32672438178E+02 -0.20146915418E+02 -0.15754391395E+02  0.41757361813E+02  0.47000000000E+01 0.  1.
         -5    1    4    4    0  502 -0.60039830781E+02  0.65792784909E+02  0.12590812356E+03  0.15429976476E+03  0.47000000000E+01 0.  1.
        -11    1    3    3    0    0  0.10608797925E+03 -0.19781994536E+02  0.30397705249E+03  0.32256477658E+03  0.00000000000E+00 0.  1.
         11    1    3    3    0    0 -0.13375710294E+02 -0.25863874956E+02  0.68136617675E+02  0.74097559486E+02  0.00000000000E+00 0. -1.
<mgrwt>
<rscale>  0 0.15559300E+03</rscale>
<asrwt>0</asrwt>
<pdfrwt beam="2">  1        1 0.84963127E-02 0.16218678E+03</pdfrwt>
<pdfrwt beam="1">  1       -1 0.82691294E-01 0.16218678E+03</pdfrwt>
<totfact> 0.12026302E+03</totfact>
</mgrwt>
</event>
<event>
 8    1  0.1224355E-005  0.1519136E+03  0.7546771E-02  0.1206899E+00
          1   -1    0    0  501    0  0.00000000000E+00  0.00000000000E+00  0.18198978148E+04  0.18198978148E+04  0.00000000000E+00 0. -1.
         -1   -1    0    0    0  501 -0.00000000000E+00 -0.00000000000E+00 -0.13073772264E+02  0.13073772264E+02  0.00000000000E+00 0.  1.
         23    2    1    2    0    0 -0.16635331330E+02 -0.84708814774E+02  0.43608287111E+03  0.45383812217E+03  0.91369869826E+02 0.  0.
         23    2    1    2    0    0  0.16635331330E+02  0.84708814774E+02  0.13707411714E+04  0.13791334649E+04  0.12500174956E+03 0.  0.
          5    1    4    4  502    0  0.60501384190E+01  0.68703469068E+02  0.13445536649E+04  0.13463296100E+04  0.47000000000E+01 0. -1.
         -5    1    4    4    0  502  0.10585192911E+02  0.16005345706E+02  0.26187506470E+02  0.32803854884E+02  0.47000000000E+01 0. -1.
        -11    1    3    3    0    0 -0.16277201553E+02 -0.10669874463E+02  0.11001344341E+02  0.22356723570E+02  0.00000000000E+00 0.  1.
         11    1    3    3    0    0 -0.35812977685E+00 -0.74038940311E+02  0.42508152677E+03  0.43148139860E+03  0.00000000000E+00 0. -1.
<mgrwt>
<rscale>  0 0.14488798E+03</rscale>
<asrwt>0</asrwt>
<pdfrwt beam="1">  1        1 0.27998408E+00 0.15191364E+03</pdfrwt>
<pdfrwt beam="2">  1       -1 0.20113510E-02 0.15191364E+03</pdfrwt>
<totfact> 0.29914484E+03</totfact>
</mgrwt>
</event>
<event>
 8    1  0.1224355E-005  0.1363196E+03  0.7546771E-02  0.1229938E+00
         -1   -1    0    0    0  501 -0.00000000000E+00  0.00000000000E+00  0.91171018709E+02  0.91171018709E+02  0.00000000000E+00 0.  1.
          1   -1    0    0  501    0  0.00000000000E+00 -0.00000000000E+00 -0.18776421935E+03  0.18776421935E+03  0.00000000000E+00 0. -1.
         23    2    1    2    0    0 -0.50503196184E+02  0.20179214541E+02  0.75804952352E+01  0.10736834156E+03  0.92264420758E+02 0.  0.
         23    2    1    2    0    0  0.50503196184E+02 -0.20179214541E+02 -0.10417369588E+03  0.17156689650E+03  0.12500107014E+03 0.  0.
          5    1    4    4  502    0  0.55143196461E+01 -0.20661930691E+02  0.25862945791E+02  0.33886650263E+02  0.47000000000E+01 0. -1.
         -5    1    4    4    0  502  0.44988876538E+02  0.48271614976E+00 -0.13003664167E+03  0.13768024623E+03  0.47000000000E+01 0. -1.
        -11    1    3    3    0    0 -0.33123583120E+02  0.51333103476E+02 -0.17747245798E+02  0.63617796288E+02  0.00000000000E+00 0. -1.
         11    1    3    3    0    0 -0.17379613064E+02 -0.31153888934E+02  0.25327741033E+02  0.43750545275E+02  0.00000000000E+00 0.  1.
<mgrwt>
<rscale>  0 0.12834134E+03</rscale>
<asrwt>0</asrwt>
<pdfrwt beam="2">  1        1 0.28886803E-01 0.13631963E+03</pdfrwt>
<pdfrwt beam="1">  1       -1 0.14026311E-01 0.13631963E+03</pdfrwt>
<totfact> 0.54297219E+03</totfact>
</mgrwt>
</event>
<event>
 7    1  0.1224355E-005  0.3475651E+03  0.7546771E-02  0.1102659E+00
         -2   -1    0    0    0  501 -0.00000000000E+00  0.00000000000E+00  0.13794797715E+03  0.13794797715E+03  0.00000000000E+00 0.  1.
          2   -1    0    0  501    0  0.00000000000E+00 -0.00000000000E+00 -0.40616058057E+03  0.40616058057E+03  0.00000000000E+00 0. -1.
         23    2    1    2    0    0 -0.11605863915E+02 -0.70727563817E+02 -0.10061694655E+03  0.15824614467E+03  0.98898877692E+02 0.  0.
          5    1    1    2  502    0 -0.11577426161E+03  0.10205984116E+03 -0.19803581972E+03  0.25111783433E+03  0.47000000000E+01 0. -1.
         -5    1    1    2    0  502  0.12738012552E+03 -0.31332277344E+02  0.30440162844E+02  0.13474457873E+03  0.47000000000E+01 0.  1.
        -11    1    3    3    0    0 -0.44770235303E+02 -0.75748169310E+02 -0.65566452559E+02  0.10973203190E+03  0.00000000000E+00 0.  1.
         11    1    3    3    0    0  0.33164371388E+02  0.50206054928E+01 -0.35050493987E+02  0.48514112769E+02  0.00000000000E+00 0. -1.
<mgrwt>
<rscale>  0 0.26760314E+03</rscale>
<asrwt>0</asrwt>
<pdfrwt beam="2">  1        2 0.62486242E-01 0.34756510E+03</pdfrwt>
<pdfrwt beam="1">  1       -2 0.21222766E-01 0.34756510E+03</pdfrwt>
<totfact> 0.14930808E+03</totfact>
</mgrwt>
</event>
<event>
 8    1  0.1224355E-005  0.1284874E+03  0.7546771E-02  0.1244454E+00
         -2   -1    0    0    0  501 -0.00000000000E+00  0.00000000000E+00  0.47988058511E+02  0.47988058511E+02  0.00000000000E+00 0.  1.
          2   -1    0    0  501    0  0.00000000000E+00 -0.00000000000E+00 -0.39319537129E+03  0.39319537129E+03  0.00000000000E+00 0. -1.
         23    2    1    2    0    0 -0.26924270614E+02 -0.12628562995E+02 -0.28325993082E+02  0.99243705639E+02  0.90346855360E+02 0.  0.
         23    2    1    2    0    0  0.26924270614E+02  0.12628562995E+02 -0.31688131969E+03  0.34193972416E+03  0.12499842893E+03 0.  0.
          5    1    4    4  502    0 -0.34350997822E+02 -0.20970227325E+02 -0.42338634633E+02  0.58603681352E+02  0.47000000000E+01 0.  1.
         -5    1    4    4    0  502  0.61275268436E+02  0.33598790321E+02 -0.27454268506E+03  0.28333604281E+03  0.47000000000E+01 0.  1.
        -11    1    3    3    0    0 -0.48405250822E+02 -0.38238400499E+02 -0.18005870472E+02  0.64260835283E+02  0.00000000000E+00 0.  1.
         11    1    3    3    0    0  0.21480980208E+02  0.25609837503E+02 -0.10320122610E+02  0.34982870356E+02  0.00000000000E+00 0. -1.
<mgrwt>
<rscale>  0 0.11918130E+03</rscale>
<asrwt>0</asrwt>
<pdfrwt beam="2">  1        2 0.60491597E-01 0.12848737E+03</pdfrwt>
<pdfrwt beam="1">  1       -2 0.73827781E-02 0.12848737E+03</pdfrwt>
<totfact> 0.82773118E+03</totfact>
</mgrwt>
</event>
<event>
 8    1  0.1224355E-005  0.1471321E+03  0.7546771E-02  0.1213367E+00
          2   -1    0    0  501    0  0.00000000000E+00  0.00000000000E+00  0.25413932315E+03  0.25413932315E+03  0.00000000000E+00 0. -1.
         -2   -1    0    0    0  501 -0.00000000000E+00 -0.00000000000E+00 -0.76086353400E+02  0.76086353400E+02  0.00000000000E+00 0.  1.
         23    2    1    2    0    0  0.62575093477E+02  0.45910040451E+02  0.36167270368E+02  0.12582557803E+03  0.92198863893E+02 0.  0.
         23    2    1    2    0    0 -0.62575093477E+02 -0.45910040451E+02  0.14188569938E+03  0.20440009852E+03  0.12499789777E+03 0.  0.
          5    1    4    4  502    0 -0.56274341813E+02 -0.20946126425E+01  0.14896741863E+03  0.15932536133E+03  0.47000000000E+01 0. -1.
         -5    1    4    4    0  502 -0.63007516634E+01 -0.43815427808E+02 -0.70817192475E+01  0.45074737193E+02  0.47000000000E+01 0. -1.
        -11    1    3    3    0    0  0.46976703146E+02  0.51312978866E+02 -0.15765009038E+02  0.71332797145E+02  0.00000000000E+00 0.  1.
         11    1    3    3    0    0  0.15598390331E+02 -0.54029384150E+01  0.51932279406E+02  0.54492780886E+02  0.00000000000E+00 0. -1.
<mgrwt>
<rscale>  0 0.13997205E+03</rscale>
<asrwt>0</asrwt>
<pdfrwt beam="1">  1        2 0.39098357E-01 0.14713208E+03</pdfrwt>
<pdfrwt beam="2">  1       -2 0.11705593E-01 0.14713208E+03</pdfrwt>
<totfact> 0.64586692E+03</totfact>
</mgrwt>
</event>
<event>
 8    1  0.1224355E-005  0.1230146E+03  0.7546771E-02  0.1250712E+00
         -2   -1    0    0    0  501 -0.00000000000E+00  0.00000000000E+00  0.10466962437E+03  0.10466962437E+03  0.00000000000E+00 0.  1.
          2   -1    0    0  501    0  0.00000000000E+00 -0.00000000000E+00 -0.16240057744E+03  0.16240057744E+03  0.00000000000E+00 0. -1.
         23    2    1    2    0    0 -0.27918693758E+02 -0.60741126927E+01  0.46063661401E+02  0.10611709048E+03  0.91228436813E+02 0.  0.
         23    2    1    2    0    0  0.27918693758E+02  0.60741126927E+01 -0.10379461448E+03  0.16095311133E+03  0.11965046489E+03 0.  0.
          5    1    4    4  502    0 -0.20088484397E+02 -0.25859889068E+02 -0.97264410596E+02  0.10273624792E+03  0.47000000000E+01 0. -1.
         -5    1    4    4    0  502  0.48007178155E+02  0.31934001761E+02 -0.65302038792E+01  0.58216863413E+02  0.47000000000E+01 0.  1.
        -11    1    3    3    0    0  0.32466306025E+02  0.78523895392E+01  0.19640893028E+02  0.38749009372E+02  0.00000000000E+00 0.  1.
         11    1    3    3    0    0 -0.60384999783E+02 -0.13926502232E+02  0.26422768373E+02  0.67368081104E+02  0.00000000000E+00 0. -1.
<mgrwt>
<rscale>  0 0.11549936E+03</rscale>
<asrwt>0</asrwt>
<pdfrwt beam="2">  1        2 0.24984704E-01 0.12301456E+03</pdfrwt>
<pdfrwt beam="1">  1       -2 0.16103019E-01 0.12301456E+03</pdfrwt>
<totfact> 0.61795777E+03</totfact>
</mgrwt>
</event>
<event>
 8    1  0.1224355E-005  0.1814795E+03  0.7546771E-02  0.1171665E+00
          1   -1    0    0  501    0  0.00000000000E+00  0.00000000000E+00  0.52892733123E+02  0.52892733123E+02  0.00000000000E+00 0. -1.
         -1   -1    0    0    0  501 -0.00000000000E+00 -0.00000000000E+00 -0.58382903930E+03  0.58382903930E+03  0.00000000000E+00 0.  1.
         23    2    1    2    0    0  0.10286739915E+03 -0.82027701786E+02 -0.32247421357E+03  0.36033211410E+03  0.92408702842E+02 0.  0.
         23    2    1    2    0    0 -0.10286739915E+03  0.82027701786E+02 -0.20846209260E+03  0.27638965832E+03  0.12499821402E+03 0.  0.
          5    1    4    4  502    0 -0.83617174177E+02 -0.12082343345E+02 -0.85606489529E+02  0.12036766961E+03  0.47000000000E+01 0. -1.
         -5    1    4    4    0  502 -0.19250224971E+02  0.94110045131E+02 -0.12285560307E+03  0.15602198871E+03  0.47000000000E+01 0. -1.
        -11    1    3    3    0    0  0.93173354902E+02 -0.16611520548E+02 -0.19123021551E+03  0.21336872311E+03  0.00000000000E+00 0.  1.
         11    1    3    3    0    0  0.96940442461E+01 -0.65416181238E+02 -0.13124399806E+03  0.14696339098E+03  0.00000000000E+00 0. -1.
<mgrwt>
<rscale>  0 0.17606677E+03</rscale>
<asrwt>0</asrwt>
<pdfrwt beam="1">  1        1 0.81373439E-02 0.18147947E+03</pdfrwt>
<pdfrwt beam="2">  1       -1 0.89819849E-01 0.18147947E+03</pdfrwt>
<totfact> 0.10740862E+03</totfact>
</mgrwt>
</event>
<event>
 8    1  0.1224355E-005  0.1149147E+03  0.7546771E-02  0.1261640E+00
         -1   -1    0    0    0  501 -0.00000000000E+00  0.00000000000E+00  0.26167089785E+03  0.26167089785E+03  0.00000000000E+00 0.  1.
          1   -1    0    0  501    0  0.00000000000E+00 -0.00000000000E+00 -0.18452107609E+03  0.18452107609E+03  0.00000000000E+00 0. -1.
         23    2    1    2    0    0 -0.80460557793E+01  0.21995734717E+02  0.23365282166E+03  0.25203075354E+03  0.91527636822E+02 0.  0.
         23    2    1    2    0    0  0.80460557793E+01 -0.21995734717E+02 -0.15650299991E+03  0.19416122040E+03  0.11250261848E+03 0.  0.
          5    1    4    4  502    0 -0.42818015973E+02  0.21972359192E+01 -0.11836186615E+03  0.12597552022E+03  0.47000000000E+01 0. -1.
         -5    1    4    4    0  502  0.50864071752E+02 -0.24192970636E+02 -0.38141133759E+02  0.68185700171E+02  0.47000000000E+01 0.  1.
        -11    1    3    3    0    0 -0.28231173243E+02  0.51450051115E+02  0.15034463893E+03  0.16139274258E+03  0.00000000000E+00 0.  1.
         11    1    3    3    0    0  0.20185117463E+02 -0.29454316398E+02  0.83308182729E+02  0.90638010962E+02  0.00000000000E+00 0. -1.
<mgrwt>
<rscale>  0 0.10942410E+03</rscale>
<asrwt>0</asrwt>
<pdfrwt beam="2">  1        1 0.28387858E-01 0.11491471E+03</pdfrwt>
<pdfrwt beam="1">  1       -1 0.40257061E-01 0.11491471E+03</pdfrwt>
<totfact> 0.97963813E+02</totfact>
</mgrwt>
</event>
<event>
 8    1  0.1224355E-005  0.1275479E+03  0.7546771E-02  0.1246477E+00
         -1   -1    0    0    0  501 -0.00000000000E+00  0.00000000000E+00  0.15592151410E+03  0.15592151410E+03  0.00000000000E+00 0.  1.
          1   -1    0    0  501    0  0.00000000000E+00 -0.00000000000E+00 -0.78255280149E+02  0.78255280149E+02  0.00000000000E+00 0. -1.
         23    2    1    2    0    0  0.18145936734E+02  0.17734980741E+02  0.31179230259E+02  0.98421432188E+02  0.89837794677E+02 0.  0.
         23    2    1    2    0    0 -0.18145936734E+02 -0.17734980741E+02  0.46487003691E+02  0.13575536206E+03  0.12499868901E+03 0.  0.
          5    1    4    4  502    0 -0.26042916916E+02  0.12558800655E+02 -0.36578538768E+02  0.46861887433E+02  0.47000000000E+01 0.  1.
         -5    1    4    4    0  502  0.78969801816E+01 -0.30293781396E+02  0.83065542459E+02  0.88893474627E+02  0.47000000000E+01 0.  1.
        -11    1    3    3    0    0  0.55041418294E+01 -0.12236345199E+02 -0.27911617908E+02  0.30969051250E+02  0.00000000000E+00 0. -1.
         11    1    3    3    0    0  0.12641794905E+02  0.29971325940E+02  0.59090848167E+02  0.67452380937E+02  0.00000000000E+00 0.  1.
<mgrwt>
<rscale>  0 0.11797398E+03</rscale>
<asrwt>0</asrwt>
<pdfrwt beam="2">  1        1 0.12039274E-01 0.12754794E+03</pdfrwt>
<pdfrwt beam="1">  1       -1 0.23987925E-01 0.12754794E+03</pdfrwt>
<totfact> 0.70247464E+03</totfact>
</mgrwt>
</event>
<event>
 8    1  0.1224355E-005  0.1547519E+03  0.7546771E-02  0.1202955E+00
         -1   -1    0    0    0  501 -0.00000000000E+00  0.00000000000E+00  0.88714529951E+02  0.88714529951E+02  0.00000000000E+00 0.  1.
          1   -1    0    0  501    0  0.00000000000E+00 -0.00000000000E+00 -0.37113434347E+03  0.37113434347E+03  0.00000000000E+00 0. -1.
         23    2    1    2    0    0 -0.49604935467E+01 -0.91100144455E+02  0.91295984669E+01  0.12977429911E+03  0.91837771777E+02 0.  0.
         23    2    1    2    0    0  0.49604935467E+01  0.91100144455E+02 -0.29154941198E+03  0.33007457431E+03  0.12499728862E+03 0.  0.
          5    1    4    4  502    0  0.20148532422E+02  0.52073805439E+02 -0.28113717211E+03  0.28666678237E+03  0.47000000000E+01 0.  1.
         -5    1    4    4    0  502 -0.15188038875E+02  0.39026339016E+02 -0.10412239870E+02  0.43407791939E+02  0.47000000000E+01 0.  1.
        -11    1    3    3    0    0 -0.21794255330E+02 -0.56566427212E+02 -0.36002574018E+02  0.70504862165E+02  0.00000000000E+00 0. -1.
         11    1    3    3    0    0  0.16833761783E+02 -0.34533717243E+02  0.45132172485E+02  0.59269436944E+02  0.00000000000E+00 0.  1.
<mgrwt>
<rscale>  0 0.14799769E+03</rscale>
<asrwt>0</asrwt>
<pdfrwt beam="2">  1        1 0.57097591E-01 0.15475195E+03</pdfrwt>
<pdfrwt beam="1">  1       -1 0.13648389E-01 0.15475195E+03</pdfrwt>
<totfact> 0.24441713E+03</totfact>
</mgrwt>
</event>
<event>
 8    1  0.1224355E-005  0.1755378E+03  0.7546771E-02  0.1178346E+00
          2   -1    0    0  501    0  0.00000000000E+00  0.00000000000E+00  0.18442549069E+04  0.18442549069E+04  0.00000000000E+00 0. -1.
         -2   -1    0    0    0  501 -0.00000000000E+00 -0.00000000000E+00 -0.17700014477E+02  0.17700014477E+02  0.00000000000E+00 0.  1.
         23    2    1    2    0    0 -0.12291572000E+03 -0.89638391138E+01  0.47223091662E+03  0.49630235239E+03  0.90140788434E+02 0.  0.
         23    2    1    2    0    0  0.12291572000E+03  0.89638391138E+01  0.13543239758E+04  0.13656525690E+04  0.12499953248E+03 0.  0.
          5    1    4    4  502    0  0.10370790442E+02 -0.35860559375E+02  0.12983683798E+03  0.13517850240E+03  0.47000000000E+01 0. -1.
         -5    1    4    4    0  502  0.11254492956E+03  0.44824398489E+02  0.12244871379E+04  0.12304740666E+04  0.47000000000E+01 0. -1.
        -11    1    3    3    0    0 -0.32176302946E+02 -0.44664664727E+02  0.16061673886E+03  0.16978805479E+03  0.00000000000E+00 0. -1.
         11    1    3    3    0    0 -0.90739417051E+02  0.35700825614E+02  0.31161417776E+03  0.32651429760E+03  0.00000000000E+00 0.  1.
<mgrwt>
<rscale>  0 0.16952353E+03</rscale>
<asrwt>0</asrwt>
<pdfrwt beam="1">  1        2 0.28373137E+00 0.17553777E+03</pdfrwt>
<pdfrwt beam="2">  1       -2 0.27230806E-02 0.17553777E+03</pdfrwt>
<totfact> 0.43745324E+03</totfact>
</mgrwt>
</event>
<event>
 8    1  0.1224355E-005  0.1820225E+03  0.7546771E-02  0.1171017E+00
         -2   -1    0    0    0  501 -0.00000000000E+00  0.00000000000E+00  0.50161081888E+02  0.50161081888E+02  0.00000000000E+00 0.  1.
          2   -1    0    0  501    0  0.00000000000E+00 -0.00000000000E+00 -0.61226630433E+03  0.61226630433E+03  0.00000000000E+00 0. -1.
         23    2    1    2    0    0 -0.87311723122E+02 -0.99422863234E+02 -0.20047738278E+03  0.25757324777E+03  0.92976094954E+02 0.  0.
         23    2    1    2    0    0  0.87311723122E+02  0.99422863234E+02 -0.36162783966E+03  0.40485413844E+03  0.12499574501E+03 0.  0.
          5    1    4    4  502    0  0.10796788285E+03  0.34907359744E+02 -0.24125945846E+03  0.26665296509E+03  0.47000000000E+01 0.  1.
         -5    1    4    4    0  502 -0.20656159732E+02  0.64515503489E+02 -0.12036838120E+03  0.13820117336E+03  0.47000000000E+01 0.  1.
        -11    1    3    3    0    0 -0.90405289992E+02 -0.63197102245E+02 -0.19006552861E+03  0.21975417028E+03  0.00000000000E+00 0. -1.
         11    1    3    3    0    0  0.30935668707E+01 -0.36225760988E+02 -0.10411854178E+02  0.37819077495E+02  0.00000000000E+00 0.  1.
<mgrwt>
<rscale>  0 0.17671911E+03</rscale>
<asrwt>0</asrwt>
<pdfrwt beam="2">  1        2 0.94194815E-01 0.18202247E+03</pdfrwt>
<pdfrwt beam="1">  1       -2 0.77170896E-02 0.18202247E+03</pdfrwt>
<totfact> 0.48343127E+03</totfact>
</mgrwt>
</event>
<event>
 8    1  0.1224355E-005  0.1415248E+03  0.7546771E-02  0.1221693E+00
          1   -1    0    0  501    0  0.00000000000E+00  0.00000000000E+00  0.19231303035E+03  0.19231303035E+03  0.00000000000E+00 0. -1.
         -1   -1    0    0    0  501 -0.00000000000E+00 -0.00000000000E+00 -0.92523101387E+02  0.92523101387E+02  0.00000000000E+00 0.  1.
         23    2    1    2    0    0 -0.33376448002E+02  0.57360951103E+02  0.35117426289E+01  0.11366735458E+03  0.92215341289E+02 0.  0.
         23    2    1    2    0    0  0.33376448002E+02 -0.57360951103E+02  0.96278186337E+02  0.17116877716E+03  0.12499998047E+03 0.  0.
          5    1    4    4  502    0  0.79478818176E+02 -0.27219956698E+02  0.72195687811E+02  0.11086981519E+03  0.47000000000E+01 0.  1.
         -5    1    4    4    0  502 -0.46102370174E+02 -0.30140994404E+02  0.24082498526E+02  0.60298961969E+02  0.47000000000E+01 0.  1.
        -11    1    3    3    0    0  0.95674800891E+01  0.24751665398E+02  0.40399632537E+02  0.48335410667E+02  0.00000000000E+00 0.  1.
         11    1    3    3    0    0 -0.42943928091E+02  0.32609285704E+02 -0.36887889908E+02  0.65331943916E+02  0.00000000000E+00 0. -1.
<mgrwt>
<rscale>  0 0.13396195E+03</rscale>
<asrwt>0</asrwt>
<pdfrwt beam="1">  1        1 0.29586620E-01 0.14152477E+03</pdfrwt>
<pdfrwt beam="2">  1       -1 0.14234323E-01 0.14152477E+03</pdfrwt>
<totfact> 0.51621341E+03</totfact>
</mgrwt>
</event>
<event>
 8    1  0.1224355E-005  0.1253956E+03  0.7546771E-02  0.1249482E+00
         -1   -1    0    0    0  501 -0.00000000000E+00  0.00000000000E+00  0.23067600490E+03  0.23067600490E+03  0.00000000000E+00 0.  1.
          1   -1    0    0  501    0  0.00000000000E+00 -0.00000000000E+00 -0.65098640157E+02  0.65098640157E+02  0.00000000000E+00 0. -1.
         23    2    1    2    0    0  0.88087247674E+01  0.46294413717E+01  0.13999772074E+03  0.16779660626E+03  0.91963655316E+02 0.  0.
         23    2    1    2    0    0 -0.88087247674E+01 -0.46294413717E+01  0.25579643998E+02  0.12797803880E+03  0.12500013947E+03 0.  0.
          5    1    4    4  502    0  0.13066400208E+02 -0.57515710892E+02 -0.10594873761E+02  0.60109310126E+02  0.47000000000E+01 0. -1.
         -5    1    4    4    0  502 -0.21875124975E+02  0.52886269520E+02  0.36174517759E+02  0.67868728672E+02  0.47000000000E+01 0. -1.
        -11    1    3    3    0    0 -0.24299081629E+02 -0.28762746428E+02  0.29910775972E+02  0.48087373284E+02  0.00000000000E+00 0. -1.
         11    1    3    3    0    0  0.33107806397E+02  0.33392187799E+02  0.11008694477E+03  0.11970923297E+03  0.00000000000E+00 0.  1.
<mgrwt>
<rscale>  0 0.11621114E+03</rscale>
<asrwt>0</asrwt>
<pdfrwt beam="2">  1        1 0.10015176E-01 0.12539561E+03</pdfrwt>
<pdfrwt beam="1">  1       -1 0.35488616E-01 0.12539561E+03</pdfrwt>
<totfact> 0.46445063E+03</totfact>
</mgrwt>
</event>
<event>
 8    1  0.1224355E-005  0.1390293E+03  0.7546771E-02  0.1225584E+00
          1   -1    0    0  501    0  0.00000000000E+00  0.00000000000E+00  0.22342520696E+03  0.22342520696E+03  0.00000000000E+00 0. -1.
         -1   -1    0    0    0  501 -0.00000000000E+00 -0.00000000000E+00 -0.73602274319E+02  0.73602274319E+02  0.00000000000E+00 0.  1.
         23    2    1    2    0    0  0.26596826064E+02  0.54752290314E+02  0.32676998339E+02  0.11522451599E+03  0.92215499859E+02 0.  0.
         23    2    1    2    0    0 -0.26596826064E+02 -0.54752290314E+02  0.11714593430E+03  0.18180296528E+03  0.12499577518E+03 0.  0.
          5    1    4    4  502    0  0.15467300720E+02 -0.79682487103E+02  0.40671114077E+02  0.90910756585E+02  0.47000000000E+01 0.  1.
         -5    1    4    4    0  502 -0.42064126784E+02  0.24930196789E+02  0.76474820224E+02  0.90892208700E+02  0.47000000000E+01 0.  1.
        -11    1    3    3    0    0  0.24156902802E+00  0.71486397426E+02  0.20879205480E+01  0.71517290111E+02  0.00000000000E+00 0.  1.
         11    1    3    3    0    0  0.26355257036E+02 -0.16734107112E+02  0.30589077791E+02  0.43707225883E+02  0.00000000000E+00 0. -1.
<mgrwt>
<rscale>  0 0.13126966E+03</rscale>
<asrwt>0</asrwt>
<pdfrwt beam="1">  1        1 0.34373109E-01 0.13902931E+03</pdfrwt>
<pdfrwt beam="2">  1       -1 0.11323427E-01 0.13902931E+03</pdfrwt>
<totfact> 0.61016437E+03</totfact>
</mgrwt>
</event>
<event>
 8    1  0.1224355E-005  0.1389946E+03  0.7546771E-02  0.1223294E+00
         -2   -1    0    0    0  501 -0.00000000000E+00  0.00000000000E+00  0.10655352917E+02  0.10655352917E+02  0.00000000000E+00 0.  1.
          2   -1    0    0  501    0  0.00000000000E+00 -0.00000000000E+00 -0.16212924365E+04  0.16212924365E+04  0.00000000000E+00 0. -1.
         23    2    1    2    0    0  0.60163485238E+02 -0.85528835581E+01 -0.53920481156E+03  0.55153740456E+03  0.98787059138E+02 0.  0.
         23    2    1    2    0    0 -0.60163485238E+02  0.85528835581E+01 -0.10714322720E+04  0.10804103849E+04  0.12500675737E+03 0.  0.
          5    1    4    4  502    0 -0.15133353526E+02  0.63926174350E+02 -0.43228468536E+03  0.43727304210E+03  0.47000000000E+01 0. -1.
         -5    1    4    4    0  502 -0.45030131712E+02 -0.55373290792E+02 -0.63914758669E+03  0.64313734277E+03  0.47000000000E+01 0. -1.
        -11    1    3    3    0    0  0.53011090048E+02  0.40237734214E+02 -0.32186761962E+03  0.32867615594E+03  0.00000000000E+00 0.  1.
         11    1    3    3    0    0  0.71523951904E+01 -0.48790617772E+02 -0.21733719194E+03  0.22286124863E+03  0.00000000000E+00 0. -1.
<mgrwt>
<rscale>  0 0.13284506E+03</rscale>
<asrwt>0</asrwt>
<pdfrwt beam="2">  1        2 0.24942957E+00 0.13899455E+03</pdfrwt>
<pdfrwt beam="1">  1       -2 0.16392853E-02 0.13899455E+03</pdfrwt>
<totfact> 0.11878647E+04</totfact>
</mgrwt>
</event>
<event>
 8    1  0.1224355E-005  0.2118091E+03  0.7546771E-02  0.1144248E+00
         -1   -1    0    0    0  501 -0.00000000000E+00  0.00000000000E+00  0.78524794543E+03  0.78524794543E+03  0.00000000000E+00 0.  1.
          1   -1    0    0  501    0  0.00000000000E+00 -0.00000000000E+00 -0.67123487511E+02  0.67123487511E+02  0.00000000000E+00 0. -1.
         23    2    1    2    0    0 -0.16988825643E+03  0.19376336791E+02  0.54821474356E+03  0.58083430451E+03  0.87129915284E+02 0.  0.
         23    2    1    2    0    0  0.16988825643E+03 -0.19376336791E+02  0.16990971435E+03  0.27153712843E+03  0.12500255591E+03 0.  0.
          5    1    4    4  502    0  0.15465132552E+02 -0.16635545953E+02  0.98718650158E+02  0.10140697019E+03  0.47000000000E+01 0. -1.
         -5    1    4    4    0  502  0.15442312387E+03 -0.27407908386E+01  0.71191064197E+02  0.17013015824E+03  0.47000000000E+01 0. -1.
        -11    1    3    3    0    0 -0.10761737594E+03  0.46414992884E+02  0.41620165577E+03  0.43238833175E+03  0.00000000000E+00 0.  1.
         11    1    3    3    0    0 -0.62270880487E+02 -0.27038656093E+02  0.13201308779E+03  0.14844597276E+03  0.00000000000E+00 0. -1.
<mgrwt>
<rscale>  0 0.20664854E+03</rscale>
<asrwt>0</asrwt>
<pdfrwt beam="2">  1        1 0.10326691E-01 0.21180911E+03</pdfrwt>
<pdfrwt beam="1">  1       -1 0.12080737E+00 0.21180911E+03</pdfrwt>
<totfact> 0.40056885E+02</totfact>
</mgrwt>
</event>
<event>
 8    1  0.1224355E-005  0.1404001E+03  0.7546771E-02  0.1223739E+00
          1   -1    0    0  501    0  0.00000000000E+00  0.00000000000E+00  0.18062120692E+03  0.18062120692E+03  0.00000000000E+00 0. -1.
         -1   -1    0    0    0  501 -0.00000000000E+00 -0.00000000000E+00 -0.11839092163E+03  0.11839092163E+03  0.00000000000E+00 0.  1.
         23    2    1    2    0    0 -0.44097101738E+02  0.46290261919E+02 -0.47130162076E+02  0.12104610943E+03  0.91343120703E+02 0.  0.
         23    2    1    2    0    0  0.44097101738E+02 -0.46290261919E+02  0.10936044737E+03  0.17796601912E+03  0.12499941513E+03 0.  0.
          5    1    4    4  502    0  0.48572726727E+02  0.31770785414E+02  0.26612104660E+02  0.64023329357E+02  0.47000000000E+01 0.  1.
         -5    1    4    4    0  502 -0.44756249882E+01 -0.78061047333E+02  0.82748342712E+02  0.11394268977E+03  0.47000000000E+01 0.  1.
        -11    1    3    3    0    0 -0.25384022458E+02 -0.16017954695E+02 -0.47262807392E+02  0.55988359784E+02  0.00000000000E+00 0.  1.
         11    1    3    3    0    0 -0.18713079280E+02  0.62308216613E+02  0.13264531667E+00  0.65057749642E+02  0.00000000000E+00 0. -1.
<mgrwt>
<rscale>  0 0.13253741E+03</rscale>
<asrwt>0</asrwt>
<pdfrwt beam="1">  1        1 0.27787878E-01 0.14040013E+03</pdfrwt>
<pdfrwt beam="2">  1       -1 0.18213988E-01 0.14040013E+03</pdfrwt>
<totfact> 0.37820780E+03</totfact>
</mgrwt>
</event>
<event>
 8    1  0.1224355E-005  0.1799092E+03  0.7546771E-02  0.1173455E+00
          3   -1    0    0  501    0  0.00000000000E+00  0.00000000000E+00  0.49901565626E+03  0.49901565626E+03  0.00000000000E+00 0. -1.
         -3   -1    0    0    0  501 -0.00000000000E+00 -0.00000000000E+00 -0.57654579589E+02  0.57654579589E+02  0.00000000000E+00 0.  1.
         23    2    1    2    0    0  0.11093784743E+01 -0.12939490955E+03  0.18658817190E+03  0.24477835760E+03  0.91416766071E+02 0.  0.
         23    2    1    2    0    0 -0.11093784743E+01  0.12939490955E+03  0.25477290478E+03  0.31189187825E+03  0.12499214925E+03 0.  0.
          5    1    4    4  502    0  0.35858679422E+02  0.13620249250E+03  0.18575215071E+03  0.23315856267E+03  0.47000000000E+01 0. -1.
         -5    1    4    4    0  502 -0.36968057896E+02 -0.68075829540E+01  0.69020754063E+02  0.78733315577E+02  0.47000000000E+01 0. -1.
        -11    1    3    3    0    0  0.22710057029E+02 -0.13207611735E+03  0.14254403994E+03  0.19564930561E+03  0.00000000000E+00 0.  1.
         11    1    3    3    0    0 -0.21600678554E+02  0.26812077973E+01  0.44044131962E+02  0.49129051992E+02  0.00000000000E+00 0. -1.
<mgrwt>
<rscale>  0 0.17428179E+03</rscale>
<asrwt>0</asrwt>
<pdfrwt beam="1">  1        3 0.76771637E-01 0.17990917E+03</pdfrwt>
<pdfrwt beam="2">  1       -3 0.88699357E-02 0.17990917E+03</pdfrwt>
<totfact> 0.35454188E+02</totfact>
</mgrwt>
</event>
<event>
 8    1  0.1224355E-005  0.1750511E+03  0.7546771E-02  0.1178565E+00
         -1   -1    0    0    0  501 -0.00000000000E+00  0.00000000000E+00  0.25537947871E+02  0.25537947871E+02  0.00000000000E+00 0.  1.
          1   -1    0    0  501    0  0.00000000000E+00 -0.00000000000E+00 -0.13485487323E+04  0.13485487323E+04  0.00000000000E+00 0. -1.
         23    2    1    2    0    0  0.11402109592E+03  0.44886437987E+02 -0.30699533362E+03  0.34310157200E+03  0.91961683409E+02 0.  0.
         23    2    1    2    0    0 -0.11402109592E+03 -0.44886437987E+02 -0.10160154508E+04  0.10309851082E+04  0.12500917708E+03 0.  0.
          5    1    4    4  502    0 -0.81805849590E+02 -0.87879441094E+02 -0.64902354169E+03  0.66005199860E+03  0.47000000000E+01 0. -1.
         -5    1    4    4    0  502 -0.32215246331E+02  0.42993003108E+02 -0.36699190913E+03  0.37093310958E+03  0.47000000000E+01 0. -1.
        -11    1    3    3    0    0  0.52467988564E+02 -0.68179454892E+01 -0.21274564575E+03  0.21922610244E+03  0.00000000000E+00 0. -1.
         11    1    3    3    0    0  0.61553107356E+02  0.51704383476E+02 -0.94249687866E+02  0.12387546956E+03  0.00000000000E+00 0.  1.
<mgrwt>
<rscale>  0 0.16931433E+03</rscale>
<asrwt>0</asrwt>
<pdfrwt beam="2">  1        1 0.20746900E+00 0.17505113E+03</pdfrwt>
<pdfrwt beam="1">  1       -1 0.39289157E-02 0.17505113E+03</pdfrwt>
<totfact> 0.22784856E+03</totfact>
</mgrwt>
</event>
<event>
 8    1  0.1224355E-005  0.1277872E+03  0.7546771E-02  0.1245133E+00
          1   -1    0    0  501    0  0.00000000000E+00  0.00000000000E+00  0.59804463611E+03  0.59804463611E+03  0.00000000000E+00 0. -1.
         -1   -1    0    0    0  501 -0.00000000000E+00 -0.00000000000E+00 -0.23302528722E+02  0.23302528722E+02  0.00000000000E+00 0.  1.
         23    2    1    2    0    0  0.22477605877E+02  0.14108263672E+02  0.14959867851E+03  0.17741417005E+03  0.91606425828E+02 0.  0.
         23    2    1    2    0    0 -0.22477605877E+02 -0.14108263672E+02  0.42514342888E+03  0.44393299478E+03  0.12500113146E+03 0.  0.
          5    1    4    4  502    0  0.32256055929E+02  0.24333245229E+02  0.58766317991E+02  0.71471183687E+02  0.47000000000E+01 0.  1.
         -5    1    4    4    0  502 -0.54733661805E+02 -0.38441508901E+02  0.36637711089E+03  0.37246181109E+03  0.47000000000E+01 0.  1.
        -11    1    3    3    0    0  0.42085757968E+02  0.23015939499E+02  0.14827038668E+03  0.15583661977E+03  0.00000000000E+00 0. -1.
         11    1    3    3    0    0 -0.19608152092E+02 -0.89076758275E+01  0.13282918338E+01  0.21577550285E+02  0.00000000000E+00 0.  1.
<mgrwt>
<rscale>  0 0.11877416E+03</rscale>
<asrwt>0</asrwt>
<pdfrwt beam="1">  1        1 0.92006856E-01 0.12778720E+03</pdfrwt>
<pdfrwt beam="2">  1       -1 0.35850049E-02 0.12778720E+03</pdfrwt>
<totfact> 0.97365099E+03</totfact>
</mgrwt>
</event>
<event>
 8    1  0.1224355E-005  0.2274772E+03  0.7546771E-02  0.1131442E+00
         -1   -1    0    0    0  501 -0.00000000000E+00  0.00000000000E+00  0.34619656568E+03  0.34619656568E+03  0.00000000000E+00 0.  1.
          1   -1    0    0  501    0  0.00000000000E+00 -0.00000000000E+00 -0.16478429535E+03  0.16478429535E+03  0.00000000000E+00 0. -1.
         23    2    1    2    0    0 -0.29271285935E+02 -0.18778909611E+03  0.18888994338E+03  0.28338081493E+03  0.92215631874E+02 0.  0.
         23    2    1    2    0    0  0.29271285935E+02  0.18778909611E+03 -0.74776730519E+01  0.22760004611E+03  0.12499725036E+03 0.  0.
          5    1    4    4  502    0  0.37110869924E+02  0.37782212664E+01 -0.20644089171E+02  0.42892424042E+02  0.47000000000E+01 0. -1.
         -5    1    4    4    0  502 -0.78395839888E+01  0.18401087484E+03  0.13166416119E+02  0.18470762207E+03  0.47000000000E+01 0. -1.
        -11    1    3    3    0    0 -0.34709617245E+02 -0.87833389929E+02  0.14731075191E+03  0.17498548381E+03  0.00000000000E+00 0.  1.
         11    1    3    3    0    0  0.54383313095E+01 -0.99955706177E+02  0.41579191471E+02  0.10839533112E+03  0.00000000000E+00 0. -1.
<mgrwt>
<rscale>  0 0.22330630E+03</rscale>
<asrwt>0</asrwt>
<pdfrwt beam="2">  1        1 0.25351430E-01 0.22747718E+03</pdfrwt>
<pdfrwt beam="1">  1       -1 0.53261010E-01 0.22747718E+03</pdfrwt>
<totfact> 0.68685948E+02</totfact>
</mgrwt>
</event>
<event>
 7    1  0.1224355E-005  0.2708514E+03  0.7546771E-02  0.1100793E+00
          2   -1    0    0  501    0  0.00000000000E+00  0.00000000000E+00  0.16747150684E+03  0.16747150684E+03  0.00000000000E+00 0. -1.
         -2   -1    0    0    0  501 -0.00000000000E+00 -0.00000000000E+00 -0.10951191940E+03  0.10951191940E+03  0.00000000000E+00 0.  1.
         23    2    1    2    0    0  0.33760392680E+01 -0.50478721564E+02 -0.62919024009E+01  0.10412722285E+03  0.90793124908E+02 0.  0.
          5    1    1    2  502    0  0.99539012910E+01  0.82496343983E+02  0.94977622761E+02  0.12628367173E+03  0.47000000000E+01 0. -1.
         -5    1    1    2    0  502 -0.13329940559E+02 -0.32017622419E+02 -0.30726132919E+02  0.46572531656E+02  0.47000000000E+01 0.  1.
        -11    1    3    3    0    0 -0.19318527097E+02  0.17539304088E+02  0.13994211115E+02  0.29608624112E+02  0.00000000000E+00 0. -1.
         11    1    3    3    0    0  0.22694566365E+02 -0.68018025652E+02 -0.20286113516E+02  0.74518598737E+02  0.00000000000E+00 0.  1.
<mgrwt>
<rscale>  0 0.27085144E+03</rscale>
<asrwt>0</asrwt>
<pdfrwt beam="1">  1        2 0.25764847E-01 0.27085144E+03</pdfrwt>
<pdfrwt beam="2">  1       -2 0.16847988E-01 0.27085144E+03</pdfrwt>
<totfact> 0.58086960E+03</totfact>
</mgrwt>
</event>
<event>
 8    1  0.1224355E-005  0.1789110E+03  0.7546771E-02  0.1174626E+00
          1   -1    0    0  501    0  0.00000000000E+00  0.00000000000E+00  0.10121829386E+04  0.10121829386E+04  0.00000000000E+00 0. -1.
         -1   -1    0    0    0  501 -0.00000000000E+00 -0.00000000000E+00 -0.29050198846E+02  0.29050198846E+02  0.00000000000E+00 0.  1.
         23    2    1    2    0    0 -0.10256230756E+03  0.76608426893E+02  0.35494526275E+03  0.38806498020E+03  0.90666483885E+02 0.  0.
         23    2    1    2    0    0  0.10256230756E+03 -0.76608426893E+02  0.62818747696E+03  0.65316815721E+03  0.12498502861E+03 0.  0.
          5    1    4    4  502    0  0.89902523031E+02 -0.10921797891E+03  0.45852007645E+03  0.47986850394E+03  0.47000000000E+01 0. -1.
         -5    1    4    4    0  502  0.12659784533E+02  0.32609552020E+02  0.16966740051E+03  0.17329965327E+03  0.47000000000E+01 0. -1.
        -11    1    3    3    0    0 -0.17230744034E+02  0.26888621761E+02  0.17399456459E+02  0.36368084982E+02  0.00000000000E+00 0. -1.
         11    1    3    3    0    0 -0.85331563529E+02  0.49719805132E+02  0.33754580629E+03  0.35169689521E+03  0.00000000000E+00 0.  1.
<mgrwt>
<rscale>  0 0.17312624E+03</rscale>
<asrwt>0</asrwt>
<pdfrwt beam="1">  1        1 0.15572042E+00 0.17891097E+03</pdfrwt>
<pdfrwt beam="2">  1       -1 0.44692621E-02 0.17891097E+03</pdfrwt>
<totfact> 0.32314708E+03</totfact>
</mgrwt>
</event>
<event>
 7    1  0.1224355E-005  0.1364197E+03  0.7546771E-02  0.1238273E+00
          1   -1    0    0  501    0  0.00000000000E+00  0.00000000000E+00  0.59426340011E+03  0.59426340011E+03  0.00000000000E+00 0. -1.
         -1   -1    0    0    0  501 -0.00000000000E+00 -0.00000000000E+00 -0.22743682311E+02  0.22743682311E+02  0.00000000000E+00 0.  1.
         23    2    1    2    0    0 -0.12726052857E+02  0.53808130619E+01  0.16192284712E+03  0.18528966037E+03  0.89007551648E+02 0.  0.
          5    1    1    2  502    0 -0.40378508502E+02  0.27747630678E+01  0.34574030798E+03  0.34813298296E+03  0.47000000000E+01 0. -1.
         -5    1    1    2    0  502  0.53104561359E+02 -0.81555761297E+01  0.63856562695E+02  0.83584439092E+02  0.47000000000E+01 0.  1.
        -11    1    3    3    0    0 -0.48022360814E+02  0.13550004160E+02  0.65898633314E+02  0.82658209657E+02  0.00000000000E+00 0. -1.
         11    1    3    3    0    0  0.35296307958E+02 -0.81691910985E+01  0.96024213807E+02  0.10263145072E+03  0.00000000000E+00 0.  1.
<mgrwt>
<rscale>  0 0.12297227E+03</rscale>
<asrwt>0</asrwt>
<pdfrwt beam="1">  1        1 0.91425127E-01 0.13641971E+03</pdfrwt>
<pdfrwt beam="2">  1       -1 0.34990285E-02 0.13641971E+03</pdfrwt>
<totfact> 0.10220926E+04</totfact>
</mgrwt>
</event>
<event>
 8    1  0.1224355E-005  0.1691244E+03  0.7546771E-02  0.1185179E+00
         -2   -1    0    0    0  501 -0.00000000000E+00  0.00000000000E+00  0.28110958729E+02  0.28110958729E+02  0.00000000000E+00 0.  1.
          2   -1    0    0  501    0  0.00000000000E+00 -0.00000000000E+00 -0.95102397523E+03  0.95102397523E+03  0.00000000000E+00 0. -1.
         23    2    1    2    0    0 -0.53718911083E+02  0.10046570144E+03 -0.30278042802E+03  0.33635386542E+03  0.92080707065E+02 0.  0.
         23    2    1    2    0    0  0.53718911083E+02 -0.10046570144E+03 -0.62013258848E+03  0.64278106854E+03  0.12499598476E+03 0.  0.
          5    1    4    4  502    0 -0.35747499078E+02 -0.56808496073E+02 -0.30195012678E+03  0.30935587594E+03  0.47000000000E+01 0.  1.
         -5    1    4    4    0  502  0.89466410161E+02 -0.43657205371E+02 -0.31818246170E+03  0.33342519260E+03  0.47000000000E+01 0.  1.
        -11    1    3    3    0    0  0.67614622394E+01  0.25219889441E+02 -0.98184525088E+01  0.27895558871E+02  0.00000000000E+00 0.  1.
         11    1    3    3    0    0 -0.60480373323E+02  0.75245812003E+02 -0.29296197551E+03  0.30845830655E+03  0.00000000000E+00 0. -1.
<mgrwt>
<rscale>  0 0.16315608E+03</rscale>
<asrwt>0</asrwt>
<pdfrwt beam="2">  1        2 0.14631138E+00 0.16912444E+03</pdfrwt>
<pdfrwt beam="1">  1       -2 0.43247630E-02 0.16912444E+03</pdfrwt>
<totfact> 0.67396858E+03</totfact>
</mgrwt>
</event>
<event>
 8    1  0.1224355E-005  0.1994915E+03  0.7546771E-02  0.1154265E+00
          1   -1    0    0  501    0  0.00000000000E+00  0.00000000000E+00  0.13871880583E+04  0.13871880583E+04  0.00000000000E+00 0. -1.
         -1   -1    0    0    0  501 -0.00000000000E+00 -0.00000000000E+00 -0.28452473548E+02  0.28452473548E+02  0.00000000000E+00 0.  1.
         23    2    1    2    0    0 -0.53599364883E+02  0.14594409448E+03  0.44621782171E+03  0.48157119888E+03  0.92886514372E+02 0.  0.
         23    2    1    2    0    0  0.53599364883E+02 -0.14594409448E+03  0.91251776301E+03  0.93406933293E+03  0.12499712113E+03 0.  0.
          5    1    4    4  502    0  0.51261330048E+02 -0.13997559237E+03  0.50717668801E+03  0.52865033177E+03  0.47000000000E+01 0. -1.
         -5    1    4    4    0  502  0.23380348355E+01 -0.59685021049E+01  0.40534107500E+03  0.40541900116E+03  0.47000000000E+01 0. -1.
        -11    1    3    3    0    0 -0.20313512707E+02  0.54925107029E+01  0.12523451091E+02  0.24487615228E+02  0.00000000000E+00 0.  1.
         11    1    3    3    0    0 -0.33285852177E+02  0.14045158377E+03  0.43369437061E+03  0.45708358365E+03  0.00000000000E+00 0. -1.
<mgrwt>
<rscale>  0 0.19472795E+03</rscale>
<asrwt>0</asrwt>
<pdfrwt beam="1">  1        1 0.21341350E+00 0.19949148E+03</pdfrwt>
<pdfrwt beam="2">  1       -1 0.43773047E-02 0.19949148E+03</pdfrwt>
<totfact> 0.18304352E+03</totfact>
</mgrwt>
</event>
<event>
 6    1  0.1224355E-005  0.1446200E+03  0.7546771E-02  0.1291275E+00
          2   -1    0    0  501    0  0.00000000000E+00  0.00000000000E+00  0.85896757137E+03  0.85896757137E+03  0.00000000000E+00 0. -1.
         -2   -1    0    0    0  501 -0.00000000000E+00 -0.00000000000E+00 -0.90953577928E+01  0.90953577928E+01  0.00000000000E+00 0.  1.
          5    1    1    2  502    0  0.66734988638E+02 -0.17488662737E+02  0.45582728323E+03  0.46104231278E+03  0.47000000000E+01 0. -1.
         -5    1    1    2    0  502 -0.69951998837E+02  0.19435904422E+02  0.32221046116E+03  0.33032212733E+03  0.47000000000E+01 0.  1.
        -11    1    1    2    0    0  0.58758492239E+01  0.10939624445E+02  0.46765152923E+02  0.48385747023E+02  0.00000000000E+00 0. -1.
         11    1    1    2    0    0 -0.26588390256E+01 -0.12886866130E+02  0.25069316268E+02  0.28312742039E+02  0.00000000000E+00 0.  1.
<mgrwt>
<rscale>  0 0.94956248E+02</rscale>
<asrwt>0</asrwt>
<pdfrwt beam="1">  1        2 0.13214879E+00 0.14462000E+03</pdfrwt>
<pdfrwt beam="2">  1       -2 0.13992865E-02 0.14462000E+03</pdfrwt>
<totfact> 0.39936475E+04</totfact>
</mgrwt>
</event>
<event>
 8    1  0.1224355E-005  0.1288851E+03  0.7546771E-02  0.1235798E+00
          1   -1    0    0  501    0  0.00000000000E+00  0.00000000000E+00  0.32884344843E+02  0.32884344843E+02  0.00000000000E+00 0. -1.
         -1   -1    0    0    0  501 -0.00000000000E+00 -0.00000000000E+00 -0.45325409093E+03  0.45325409093E+03  0.00000000000E+00 0.  1.
         23    2    1    2    0    0  0.49045417217E+01 -0.64395653675E+02 -0.23365153572E+03  0.25925728339E+03  0.91926297135E+02 0.  0.
         23    2    1    2    0    0 -0.49045417217E+01  0.64395653675E+02 -0.18671821037E+03  0.22688115239E+03  0.11153704534E+03 0.  0.
          5    1    4    4  502    0  0.86558672473E+01 -0.19967934092E+02 -0.87548370322E+00  0.22282255304E+02  0.47000000000E+01 0. -1.
         -5    1    4    4    0  502 -0.13560408969E+02  0.84363587767E+02 -0.18584272667E+03  0.20459889708E+03  0.47000000000E+01 0.  1.
        -11    1    3    3    0    0 -0.41011162124E+02 -0.43327059554E+02 -0.15140199959E+03  0.16273203430E+03  0.00000000000E+00 0.  1.
         11    1    3    3    0    0  0.45915703846E+02 -0.21068594121E+02 -0.82249536127E+02  0.96525249085E+02  0.00000000000E+00 0. -1.
<mgrwt>
<rscale>  0 0.12453460E+03</rscale>
<asrwt>0</asrwt>
<pdfrwt beam="1">  1        1 0.50591304E-02 0.12888509E+03</pdfrwt>
<pdfrwt beam="2">  1       -1 0.69731393E-01 0.12888509E+03</pdfrwt>
<totfact> 0.33914058E+03</totfact>
</mgrwt>
</event>
<event>
 8    1  0.1224355E-005  0.3229948E+03  0.7546771E-02  0.1075585E+00
         -1   -1    0    0    0  501 -0.00000000000E+00  0.00000000000E+00  0.11249019487E+03  0.11249019487E+03  0.00000000000E+00 0.  1.
          1   -1    0    0  501    0  0.00000000000E+00 -0.00000000000E+00 -0.10159125938E+04  0.10159125938E+04  0.00000000000E+00 0. -1.
         23    2    1    2    0    0  0.14525276524E+03  0.26000417049E+03 -0.63898101138E+03  0.71096432539E+03  0.92048925034E+02 0.  0.
         23    2    1    2    0    0 -0.14525276524E+03 -0.26000417049E+03 -0.26444138758E+03  0.41743846331E+03  0.12500035482E+03 0.  0.
          5    1    4    4  502    0 -0.15221965953E+03 -0.15398768950E+03 -0.18141199451E+03  0.28251625620E+03  0.47000000000E+01 0. -1.
         -5    1    4    4    0  502  0.69668942965E+01 -0.10601648099E+03 -0.83029393071E+02  0.13492220711E+03  0.47000000000E+01 0. -1.
        -11    1    3    3    0    0  0.43747875158E+02  0.14833276720E+02 -0.86415937256E+02  0.97987840526E+02  0.00000000000E+00 0. -1.
         11    1    3    3    0    0  0.10150489008E+03  0.24517089377E+03 -0.55256507412E+03  0.61297648487E+03  0.00000000000E+00 0.  1.
<mgrwt>
<rscale>  0 0.32014013E+03</rscale>
<asrwt>0</asrwt>
<pdfrwt beam="2">  1        1 0.15629424E+00 0.32299477E+03</pdfrwt>
<pdfrwt beam="1">  1       -1 0.17306184E-01 0.32299477E+03</pdfrwt>
<totfact> 0.39729638E+02</totfact>
</mgrwt>
</event>
<event>
 8    1  0.1224355E-005  0.1304524E+03  0.7546771E-02  0.1238999E+00
         -2   -1    0    0    0  501 -0.00000000000E+00  0.00000000000E+00  0.42016123686E+02  0.42016123686E+02  0.00000000000E+00 0.  1.
          2   -1    0    0  501    0  0.00000000000E+00 -0.00000000000E+00 -0.32984919849E+03  0.32984919849E+03  0.00000000000E+00 0. -1.
         23    2    1    2    0    0  0.28312937310E+02  0.24297127170E+02 -0.94789209482E+02  0.13887655501E+03  0.94391368726E+02 0.  0.
         23    2    1    2    0    0 -0.28312937310E+02 -0.24297127170E+02 -0.19304386533E+03  0.23298876717E+03  0.12500343547E+03 0.  0.
          5    1    4    4  502    0 -0.67042153804E+02 -0.33705318997E+02 -0.17191056209E+03  0.18763270044E+03  0.47000000000E+01 0. -1.
         -5    1    4    4    0  502  0.38729216494E+02  0.94081918266E+01 -0.21133303238E+02  0.45356066733E+02  0.47000000000E+01 0. -1.
        -11    1    3    3    0    0 -0.29457273557E+02  0.31654766553E+02 -0.39037714274E+02  0.58255457656E+02  0.00000000000E+00 0. -1.
         11    1    3    3    0    0  0.57770210867E+02 -0.73576393831E+01 -0.55751495208E+02  0.80621097356E+02  0.00000000000E+00 0.  1.
<mgrwt>
<rscale>  0 0.12251879E+03</rscale>
<asrwt>0</asrwt>
<pdfrwt beam="2">  1        2 0.50746031E-01 0.13045241E+03</pdfrwt>
<pdfrwt beam="1">  1       -2 0.64640189E-02 0.13045241E+03</pdfrwt>
<totfact> 0.12233618E+04</totfact>
</mgrwt>
</event>
<event>
 8    1  0.1224355E-005  0.1468904E+03  0.7546771E-02  0.1214651E+00
          1   -1    0    0  501    0  0.00000000000E+00  0.00000000000E+00  0.16164795270E+03  0.16164795270E+03  0.00000000000E+00 0. -1.
         -1   -1    0    0    0  501 -0.00000000000E+00 -0.00000000000E+00 -0.10840089238E+03  0.10840089238E+03  0.00000000000E+00 0.  1.
         23    2    1    2    0    0 -0.38328355132E+02  0.66949103717E+02  0.23611250748E+02  0.12019868413E+03  0.89100994427E+02 0.  0.
         23    2    1    2    0    0  0.38328355132E+02 -0.66949103717E+02  0.29635809565E+02  0.14985016095E+03  0.12500217692E+03 0.  0.
          5    1    4    4  502    0  0.29770145815E+02  0.31032679311E+02 -0.88034990020E+01  0.44146125104E+02  0.47000000000E+01 0. -1.
         -5    1    4    4    0  502  0.85582093176E+01 -0.97981783027E+02  0.38439308567E+02  0.10570403585E+03  0.47000000000E+01 0. -1.
        -11    1    3    3    0    0 -0.32592131661E+02  0.17401430515E+02 -0.29543563814E+02  0.47306225732E+02  0.00000000000E+00 0.  1.
         11    1    3    3    0    0 -0.57362234717E+01  0.49547673201E+02  0.53154814563E+02  0.72892458393E+02  0.00000000000E+00 0. -1.
<mgrwt>
<rscale>  0 0.13902207E+03</rscale>
<asrwt>0</asrwt>
<pdfrwt beam="1">  1        1 0.24868916E-01 0.14689040E+03</pdfrwt>
<pdfrwt beam="2">  1       -1 0.16677061E-01 0.14689040E+03</pdfrwt>
<totfact> 0.50126432E+03</totfact>
</mgrwt>
</event>
<event>
 7    1  0.1224355E-005  0.2112264E+03  0.7546771E-02  0.1142919E+00
          3   -1    0    0  501    0  0.00000000000E+00  0.00000000000E+00  0.39553366729E+03  0.39553366729E+03  0.00000000000E+00 0. -1.
         -3   -1    0    0    0  501 -0.00000000000E+00 -0.00000000000E+00 -0.11842192350E+03  0.11842192350E+03  0.00000000000E+00 0.  1.
         23    2    1    2    0    0  0.15319577632E+03 -0.28502913676E+02  0.21568057072E+03  0.29397747219E+03  0.12499313421E+03 0.  0.
          5    1    3    3  502    0  0.26997779043E+02 -0.63055054290E+02  0.78290561993E+02  0.10419367563E+03  0.47000000000E+01 0. -1.
         -5    1    3    3    0  502  0.12619799727E+03  0.34552140614E+02  0.13739000873E+03  0.18978379656E+03  0.47000000000E+01 0. -1.
        -11    1    1    2    0    0  0.69211071164E+01 -0.25263477843E+02  0.42626315898E+02  0.50031468532E+02  0.00000000000E+00 0. -1.
         11    1    1    2    0    0 -0.16011688343E+03  0.53766391519E+02  0.18804857171E+02  0.16994665007E+03  0.00000000000E+00 0.  1.
<mgrwt>
<rscale>  0 0.20829989E+03</rscale>
<asrwt>0</asrwt>
<pdfrwt beam="1">  1        3 0.60851333E-01 0.21122638E+03</pdfrwt>
<pdfrwt beam="2">  1       -3 0.18218758E-01 0.21122638E+03</pdfrwt>
<totfact> 0.17380656E+02</totfact>
</mgrwt>
</event>
<event>
 8    1  0.1224355E-005  0.1426361E+03  0.7546771E-02  0.1220192E+00
         -1   -1    0    0    0  501 -0.00000000000E+00  0.00000000000E+00  0.37785886649E+03  0.37785886649E+03  0.00000000000E+00 0.  1.
          1   -1    0    0  501    0  0.00000000000E+00 -0.00000000000E+00 -0.43781828817E+02  0.43781828817E+02  0.00000000000E+00 0. -1.
         23    2    1    2    0    0  0.37391893978E+02 -0.57633178936E+02  0.15407652191E+03  0.19197738798E+03  0.91629721385E+02 0.  0.
         23    2    1    2    0    0 -0.37391893978E+02  0.57633178936E+02  0.18000051576E+03  0.22966330732E+03  0.12500124803E+03 0.  0.
          5    1    4    4  502    0 -0.75457472851E+02  0.58540477604E+02  0.16000781722E+03  0.18640120520E+03  0.47000000000E+01 0.  1.
         -5    1    4    4    0  502  0.38065578873E+02 -0.90729866784E+00  0.19992698538E+02  0.43262102129E+02  0.47000000000E+01 0.  1.
        -11    1    3    3    0    0 -0.14520756717E+02  0.12313534441E+02  0.56164486977E+01  0.19849937079E+02  0.00000000000E+00 0.  1.
         11    1    3    3    0    0  0.51912650695E+02 -0.69946713377E+02  0.14846007322E+03  0.17212745090E+03  0.00000000000E+00 0. -1.
<mgrwt>
<rscale>  0 0.13501939E+03</rscale>
<asrwt>0</asrwt>
<pdfrwt beam="2">  1        1 0.67356662E-02 0.14263607E+03</pdfrwt>
<pdfrwt beam="1">  1       -1 0.58132131E-01 0.14263607E+03</pdfrwt>
<totfact> 0.32829277E+03</totfact>
</mgrwt>
</event>
<event>
 8    1  0.1224355E-005  0.1677156E+03  0.7546771E-02  0.1187257E+00
          1   -1    0    0  501    0  0.00000000000E+00  0.00000000000E+00  0.11576865663E+03  0.11576865663E+03  0.00000000000E+00 0. -1.
         -1   -1    0    0    0  501 -0.00000000000E+00 -0.00000000000E+00 -0.20905470146E+03  0.20905470146E+03  0.00000000000E+00 0.  1.
         23    2    1    2    0    0  0.70395373701E+02  0.86880204642E+02 -0.42604677840E+02  0.14961740452E+03  0.89813866222E+02 0.  0.
         23    2    1    2    0    0 -0.70395373701E+02 -0.86880204642E+02 -0.50681366994E+02  0.17520595356E+03  0.12499938643E+03 0.  0.
          5    1    4    4  502    0 -0.10089371871E+02 -0.97583118308E+02 -0.44362276217E+01  0.98315972857E+02  0.47000000000E+01 0. -1.
         -5    1    4    4    0  502 -0.60306001829E+02  0.10702913666E+02 -0.46245139372E+02  0.76889980707E+02  0.47000000000E+01 0. -1.
        -11    1    3    3    0    0  0.33918210181E+01  0.19072534631E+02  0.25816893607E+02  0.32276586291E+02  0.00000000000E+00 0. -1.
         11    1    3    3    0    0  0.67003552682E+02  0.67807670011E+02 -0.68421571447E+02  0.11734081823E+03  0.00000000000E+00 0.  1.
<mgrwt>
<rscale>  0 0.16128165E+03</rscale>
<asrwt>0</asrwt>
<pdfrwt beam="1">  1        1 0.17810563E-01 0.16771561E+03</pdfrwt>
<pdfrwt beam="2">  1       -1 0.32162262E-01 0.16771561E+03</pdfrwt>
<totfact> 0.26323137E+03</totfact>
</mgrwt>
</event>
<event>
 6    1  0.1224355E-005  0.1831277E+03  0.7546771E-02  0.1248813E+00
          2   -1    0    0  501    0  0.00000000000E+00  0.00000000000E+00  0.31580212710E+03  0.31580212710E+03  0.00000000000E+00 0. -1.
         -2   -1    0    0    0  501 -0.00000000000E+00 -0.00000000000E+00 -0.36094819181E+02  0.36094819181E+02  0.00000000000E+00 0.  1.
          5    1    1    2  502    0 -0.82507217205E+02  0.62793337127E+00  0.19535708883E+03  0.21211863979E+03  0.47000000000E+01 0. -1.
         -5    1    1    2    0  502  0.78890907644E+02 -0.12476466032E+02  0.51133051402E+02  0.94953233011E+02  0.47000000000E+01 0.  1.
        -11    1    1    2    0    0  0.10219254753E+02 -0.15719184337E+01  0.24660259285E+01  0.10629458084E+02  0.00000000000E+00 0. -1.
         11    1    1    2    0    0 -0.66029451923E+01  0.13420451094E+02  0.30751141761E+02  0.34195615397E+02  0.00000000000E+00 0.  1.
<mgrwt>
<rscale>  0 0.11660064E+03</rscale>
<asrwt>0</asrwt>
<pdfrwt beam="1">  1        2 0.48584941E-01 0.18312768E+03</pdfrwt>
<pdfrwt beam="2">  1       -2 0.55530493E-02 0.18312768E+03</pdfrwt>
<totfact> 0.16583169E+04</totfact>
</mgrwt>
</event>
<event>
 8    1  0.1224355E-005  0.1317121E+03  0.7546771E-02  0.1239872E+00
          1   -1    0    0  501    0  0.00000000000E+00  0.00000000000E+00  0.13846288306E+03  0.13846288306E+03  0.00000000000E+00 0. -1.
         -1   -1    0    0    0  501 -0.00000000000E+00 -0.00000000000E+00 -0.11325588795E+03  0.11325588795E+03  0.00000000000E+00 0.  1.
         23    2    1    2    0    0 -0.33579652173E+02  0.24418530310E+02 -0.39925279485E+02  0.10478245657E+03  0.87529866903E+02 0.  0.
         23    2    1    2    0    0  0.33579652173E+02 -0.24418530310E+02  0.65132274596E+02  0.14693631445E+03  0.12499683854E+03 0.  0.
          5    1    4    4  502    0 -0.32641639704E+02 -0.39335930307E+02  0.59615988168E+02  0.78669867808E+02  0.47000000000E+01 0. -1.
         -5    1    4    4    0  502  0.66221291877E+02  0.14917399997E+02  0.55162864275E+01  0.68266446637E+02  0.47000000000E+01 0. -1.
        -11    1    3    3    0    0  0.26093756867E+00  0.15309019853E+02 -0.61667972108E+02  0.63540325473E+02  0.00000000000E+00 0.  1.
         11    1    3    3    0    0 -0.33840589741E+02  0.91095104573E+01  0.21742692623E+02  0.41242131096E+02  0.00000000000E+00 0. -1.
<mgrwt>
<rscale>  0 0.12197628E+03</rscale>
<asrwt>0</asrwt>
<pdfrwt beam="1">  1        1 0.21301982E-01 0.13171206E+03</pdfrwt>
<pdfrwt beam="2">  1       -1 0.17423983E-01 0.13171206E+03</pdfrwt>
<totfact> 0.56470138E+03</totfact>
</mgrwt>
</event>
<event>
 8    1  0.1224355E-005  0.1287658E+03  0.7546771E-02  0.1242393E+00
          2   -1    0    0  501    0  0.00000000000E+00  0.00000000000E+00  0.22647346540E+03  0.22647346540E+03  0.00000000000E+00 0.  1.
         -2   -1    0    0    0  501 -0.00000000000E+00 -0.00000000000E+00 -0.57611426948E+02  0.57611426948E+02  0.00000000000E+00 0. -1.
         23    2    1    2    0    0  0.12416548239E+02 -0.28285711861E+02  0.59085214230E+02  0.11487623437E+03  0.93548033203E+02 0.  0.
         23    2    1    2    0    0 -0.12416548239E+02  0.28285711861E+02  0.10977682422E+03  0.16920865798E+03  0.12500546641E+03 0.  0.
          5    1    4    4  502    0 -0.36918805672E+02  0.26848829049E+02 -0.99035043042E+01  0.46947068396E+02  0.47000000000E+01 0. -1.
         -5    1    4    4    0  502  0.24502257433E+02  0.14368828129E+01  0.11968032852E+03  0.12226158958E+03  0.47000000000E+01 0. -1.
        -11    1    3    3    0    0 -0.10345514143E+02  0.14529658227E+02  0.63716262784E+02  0.66165722049E+02  0.00000000000E+00 0.  1.
         11    1    3    3    0    0  0.22762062382E+02 -0.42815370088E+02 -0.46310485537E+01  0.48710512319E+02  0.00000000000E+00 0. -1.
<mgrwt>
<rscale>  0 0.12042799E+03</rscale>
<asrwt>0</asrwt>
<pdfrwt beam="1">  1        2 0.34842071E-01 0.12876575E+03</pdfrwt>
<pdfrwt beam="2">  1       -2 0.88632965E-02 0.12876575E+03</pdfrwt>
<totfact> 0.11211536E+04</totfact>
</mgrwt>
</event>
<event>
 8    1  0.1224355E-005  0.1695928E+03  0.7546771E-02  0.1184325E+00
         -2   -1    0    0    0  501 -0.00000000000E+00  0.00000000000E+00  0.16122153139E+02  0.16122153139E+02  0.00000000000E+00 0.  1.
          2   -1    0    0  501    0  0.00000000000E+00 -0.00000000000E+00 -0.19870679665E+04  0.19870679665E+04  0.00000000000E+00 0. -1.
         23    2    1    2    0    0 -0.73979624345E+02  0.87648564205E+02 -0.47197733697E+03  0.49465831476E+03  0.93642864783E+02 0.  0.
         23    2    1    2    0    0  0.73979624345E+02 -0.87648564205E+02 -0.14989684764E+04  0.15085318049E+04  0.12492580793E+03 0.  0.
          5    1    4    4  502    0 -0.15386336343E+02  0.22357410711E+02 -0.21558762296E+03  0.21734007070E+03  0.47000000000E+01 0.  1.
         -5    1    4    4    0  502  0.89365960688E+02 -0.11000597492E+03 -0.12833808535E+04  0.12911917342E+04  0.47000000000E+01 0.  1.
        -11    1    3    3    0    0 -0.33326791210E+02  0.99629472962E+02 -0.35611861573E+03  0.37129122716E+03  0.00000000000E+00 0.  1.
         11    1    3    3    0    0 -0.40652833135E+02 -0.11980908758E+02 -0.11585872124E+03  0.12336708761E+03  0.00000000000E+00 0. -1.
<mgrwt>
<rscale>  0 0.16393478E+03</rscale>
<asrwt>0</asrwt>
<pdfrwt beam="2">  1        2 0.30570281E+00 0.16959279E+03</pdfrwt>
<pdfrwt beam="1">  1       -2 0.24803309E-02 0.16959279E+03</pdfrwt>
<totfact> 0.42341749E+03</totfact>
</mgrwt>
</event>
<event>
 8    1  0.1224355E-005  0.1784875E+03  0.7546771E-02  0.1174832E+00
         -2   -1    0    0    0  501 -0.00000000000E+00  0.00000000000E+00  0.32016314651E+03  0.32016314651E+03  0.00000000000E+00 0.  1.
          2   -1    0    0  501    0  0.00000000000E+00 -0.00000000000E+00 -0.97164068379E+02  0.97164068379E+02  0.00000000000E+00 0. -1.
         23    2    1    2    0    0 -0.27873310628E+02 -0.12430792709E+03  0.16901171513E+03  0.23085353997E+03  0.92190101869E+02 0.  0.
         23    2    1    2    0    0  0.27873310628E+02  0.12430792709E+03  0.53987362993E+02  0.18647367491E+03  0.12501365482E+03 0.  0.
          5    1    4    4  502    0 -0.34083823457E+02  0.28848947940E+02 -0.21547961024E+02  0.49803347709E+02  0.47000000000E+01 0.  1.
         -5    1    4    4    0  502  0.61957134085E+02  0.95458979147E+02  0.75535324016E+02  0.13667032720E+03  0.47000000000E+01 0.  1.
        -11    1    3    3    0    0 -0.54516312232E+02 -0.50329757958E+02  0.55007049968E+02  0.92362808433E+02  0.00000000000E+00 0. -1.
         11    1    3    3    0    0  0.26643001605E+02 -0.73978169129E+02  0.11400466517E+03  0.13849073154E+03  0.00000000000E+00 0.  1.
<mgrwt>
<rscale>  0 0.17292405E+03</rscale>
<asrwt>0</asrwt>
<pdfrwt beam="2">  1        2 0.14948318E-01 0.17848752E+03</pdfrwt>
<pdfrwt beam="1">  1       -2 0.49255868E-01 0.17848752E+03</pdfrwt>
<totfact> 0.15246388E+03</totfact>
</mgrwt>
</event>
<event>
 8    1  0.1224355E-005  0.1298003E+03  0.7546771E-02  0.1241101E+00
         -1   -1    0    0    0  501 -0.00000000000E+00  0.00000000000E+00  0.95300166426E+01  0.95300166426E+01  0.00000000000E+00 0.  1.
          1   -1    0    0  501    0  0.00000000000E+00 -0.00000000000E+00 -0.14519208904E+04  0.14519208904E+04  0.00000000000E+00 0. -1.
         23    2    1    2    0    0  0.70379469954E+01 -0.34275507473E+02 -0.45663573058E+03  0.46718669661E+03  0.92319423380E+02 0.  0.
         23    2    1    2    0    0 -0.70379469954E+01  0.34275507473E+02 -0.98575514318E+03  0.99426421044E+03  0.12499509888E+03 0.  0.
          5    1    4    4  502    0 -0.21203055292E+02 -0.42913748362E+02 -0.27500877020E+03  0.27918286666E+03  0.47000000000E+01 0. -1.
         -5    1    4    4    0  502  0.14165108297E+02  0.77189255836E+02 -0.71074637298E+03  0.71508134377E+03  0.47000000000E+01 0. -1.
        -11    1    3    3    0    0 -0.42641858002E+02 -0.14705862851E+02 -0.19344165035E+03  0.19863097076E+03  0.00000000000E+00 0.  1.
         11    1    3    3    0    0  0.49679804997E+02 -0.19569644623E+02 -0.26319408023E+03  0.26855572585E+03  0.00000000000E+00 0. -1.
<mgrwt>
<rscale>  0 0.12121793E+03</rscale>
<asrwt>0</asrwt>
<pdfrwt beam="2">  1        1 0.22337250E+00 0.12980030E+03</pdfrwt>
<pdfrwt beam="1">  1       -1 0.14661560E-02 0.12980030E+03</pdfrwt>
<totfact> 0.80926357E+03</totfact>
</mgrwt>
</event>
<event>
 8    1  0.1224355E-005  0.1366761E+03  0.7546771E-02  0.1228903E+00
         -1   -1    0    0    0  501 -0.00000000000E+00  0.00000000000E+00  0.53771283978E+02  0.53771283978E+02  0.00000000000E+00 0.  1.
          1   -1    0    0  501    0  0.00000000000E+00 -0.00000000000E+00 -0.42978015025E+03  0.42978015025E+03  0.00000000000E+00 0. -1.
         23    2    1    2    0    0 -0.21573375750E+01  0.55232051109E+02 -0.31682289837E+02  0.11309072736E+03  0.93437206458E+02 0.  0.
         23    2    1    2    0    0  0.21573375750E+01 -0.55232051109E+02 -0.34432657644E+03  0.37046070687E+03  0.12500044207E+03 0.  0.
          5    1    4    4  502    0 -0.16893709359E+02 -0.73067068366E+01 -0.30459917745E+03  0.30519098002E+03  0.47000000000E+01 0.  1.
         -5    1    4    4    0  502  0.19051046934E+02 -0.47925344273E+02 -0.39727398984E+02  0.65269726849E+02  0.47000000000E+01 0.  1.
        -11    1    3    3    0    0  0.22689218664E+02  0.44760316397E+02  0.20614977789E+02  0.54251855975E+02  0.00000000000E+00 0.  1.
         11    1    3    3    0    0 -0.24846556239E+02  0.10471734712E+02 -0.52297267626E+02  0.58838871386E+02  0.00000000000E+00 0. -1.
<mgrwt>
<rscale>  0 0.12902948E+03</rscale>
<asrwt>0</asrwt>
<pdfrwt beam="2">  1        1 0.66120024E-01 0.13667606E+03</pdfrwt>
<pdfrwt beam="1">  1       -1 0.82725052E-02 0.13667606E+03</pdfrwt>
<totfact> 0.43558473E+03</totfact>
</mgrwt>
</event>
<event>
 8    1  0.1224355E-005  0.1278212E+03  0.7546771E-02  0.1243822E+00
         -1   -1    0    0    0  501 -0.00000000000E+00  0.00000000000E+00  0.52999272375E+03  0.52999272375E+03  0.00000000000E+00 0.  1.
          1   -1    0    0  501    0  0.00000000000E+00 -0.00000000000E+00 -0.55314690150E+02  0.55314690150E+02  0.00000000000E+00 0. -1.
         23    2    1    2    0    0 -0.51655513043E+01  0.26205967106E+02  0.44292061027E+03  0.45360017080E+03  0.94132950213E+02 0.  0.
         23    2    1    2    0    0  0.51655513043E+01 -0.26205967106E+02  0.31757423326E+02  0.13170724310E+03  0.12499931326E+03 0.  0.
          5    1    4    4  502    0 -0.37706804598E+02 -0.40300469967E+01 -0.33216038019E+02  0.50630421423E+02  0.47000000000E+01 0. -1.
         -5    1    4    4    0  502  0.42872355903E+02 -0.22175920109E+02  0.64973461345E+02  0.81076821672E+02  0.47000000000E+01 0. -1.
        -11    1    3    3    0    0 -0.48253650824E+02  0.22677485899E+02  0.28063150078E+03  0.28565140016E+03  0.00000000000E+00 0.  1.
         11    1    3    3    0    0  0.43088099519E+02  0.35284812070E+01  0.16228910950E+03  0.16794877064E+03  0.00000000000E+00 0. -1.
<mgrwt>
<rscale>  0 0.11956152E+03</rscale>
<asrwt>0</asrwt>
<pdfrwt beam="2">  1        1 0.85099527E-02 0.12782122E+03</pdfrwt>
<pdfrwt beam="1">  1       -1 0.81537339E-01 0.12782122E+03</pdfrwt>
<totfact> 0.12265196E+03</totfact>
</mgrwt>
</event>
<event>
 8    1  0.1224355E-005  0.1708914E+03  0.7546771E-02  0.1182468E+00
         -4   -1    0    0    0  501 -0.00000000000E+00  0.00000000000E+00  0.65779834060E+02  0.65779834060E+02  0.00000000000E+00 0.  1.
          4   -1    0    0  501    0  0.00000000000E+00 -0.00000000000E+00 -0.41215583491E+03  0.41215583491E+03  0.00000000000E+00 0. -1.
         23    2    1    2    0    0 -0.10791124926E+03  0.43956973140E+02 -0.21373992556E+03  0.26161139177E+03  0.95805591278E+02 0.  0.
         23    2    1    2    0    0  0.10791124926E+03 -0.43956973140E+02 -0.13263607529E+03  0.21632427720E+03  0.12500724473E+03 0.  0.
          5    1    4    4  502    0  0.68308852632E+02 -0.21883587433E+02  0.42903321085E+01  0.72010330484E+02  0.47000000000E+01 0. -1.
         -5    1    4    4    0  502  0.39602396623E+02 -0.22073385707E+02 -0.13692640740E+03  0.14431394672E+03  0.47000000000E+01 0. -1.
        -11    1    3    3    0    0 -0.53296007766E+02  0.50023477414E+02 -0.49129426714E+02  0.88071069629E+02  0.00000000000E+00 0.  1.
         11    1    3    3    0    0 -0.54615241489E+02 -0.60665042745E+01 -0.16461049885E+03  0.17354032214E+03  0.00000000000E+00 0. -1.
<mgrwt>
<rscale>  0 0.16564432E+03</rscale>
<asrwt>0</asrwt>
<pdfrwt beam="2">  1        4 0.63408590E-01 0.17089138E+03</pdfrwt>
<pdfrwt beam="1">  1       -4 0.10119974E-01 0.17089138E+03</pdfrwt>
<totfact> 0.30425724E+02</totfact>
</mgrwt>
</event>
<event>
 8    1  0.1224355E-005  0.1504250E+03  0.7546771E-02  0.1206787E+00
          2   -1    0    0  501    0  0.00000000000E+00  0.00000000000E+00  0.73947443032E+02  0.73947443032E+02  0.00000000000E+00 0. -1.
         -2   -1    0    0    0  501 -0.00000000000E+00 -0.00000000000E+00 -0.26595505326E+03  0.26595505326E+03  0.00000000000E+00 0.  1.
         23    2    1    2    0    0  0.76249103633E+02 -0.34461344257E+02 -0.81541504623E+02  0.15327332188E+03  0.99207782816E+02 0.  0.
         23    2    1    2    0    0 -0.76249103633E+02  0.34461344257E+02 -0.11046610561E+03  0.18662917441E+03  0.12500471272E+03 0.  0.
          5    1    4    4  502    0 -0.48945122716E+02  0.65460922876E+02 -0.16001487407E+02  0.83419991973E+02  0.47000000000E+01 0.  1.
         -5    1    4    4    0  502 -0.27303980918E+02 -0.30999578619E+02 -0.94464618200E+02  0.10320918244E+03  0.47000000000E+01 0.  1.
        -11    1    3    3    0    0  0.21392573417E+02 -0.33995909367E+02  0.14470773559E+02  0.42693879403E+02  0.00000000000E+00 0. -1.
         11    1    3    3    0    0  0.54856530216E+02 -0.46543488974E+00 -0.96012278182E+02  0.11057944248E+03  0.00000000000E+00 0.  1.
<mgrwt>
<rscale>  0 0.14497554E+03</rscale>
<asrwt>0</asrwt>
<pdfrwt beam="1">  1        2 0.11376530E-01 0.15042503E+03</pdfrwt>
<pdfrwt beam="2">  1       -2 0.40916162E-01 0.15042503E+03</pdfrwt>
<totfact> 0.30069808E+03</totfact>
</mgrwt>
</event>
<event>
 8    1  0.1224355E-005  0.1541783E+03  0.7546771E-02  0.1203349E+00
          1   -1    0    0  501    0  0.00000000000E+00  0.00000000000E+00  0.10854075795E+03  0.10854075795E+03  0.00000000000E+00 0. -1.
         -1   -1    0    0    0  501 -0.00000000000E+00 -0.00000000000E+00 -0.18936700834E+03  0.18936700834E+03  0.00000000000E+00 0.  1.
         23    2    1    2    0    0 -0.90247021378E+02  0.13277891943E+01 -0.57557691087E+02  0.14198348252E+03  0.93274506772E+02 0.  0.
         23    2    1    2    0    0  0.90247021378E+02 -0.13277891943E+01 -0.23268559302E+02  0.15592428377E+03  0.12499867409E+03 0.  0.
          5    1    4    4  502    0  0.42156483811E+01  0.11045269117E+02  0.44072778222E+02  0.45872316720E+02  0.47000000000E+01 0. -1.
         -5    1    4    4    0  502  0.86031372997E+02 -0.12373058311E+02 -0.67341337524E+02  0.11005196705E+03  0.47000000000E+01 0. -1.
        -11    1    3    3    0    0 -0.65481482146E+01  0.23531717722E+02  0.15295309730E+02  0.28819550373E+02  0.00000000000E+00 0. -1.
         11    1    3    3    0    0 -0.83698873164E+02 -0.22203928527E+02 -0.72853000817E+02  0.11316393215E+03  0.00000000000E+00 0.  1.
<mgrwt>
<rscale>  0 0.14768315E+03</rscale>
<asrwt>0</asrwt>
<pdfrwt beam="1">  1        1 0.16698578E-01 0.15417833E+03</pdfrwt>
<pdfrwt beam="2">  1       -1 0.29133386E-01 0.15417833E+03</pdfrwt>
<totfact> 0.33682476E+03</totfact>
</mgrwt>
</event>
<event>
 8    1  0.1224355E-005  0.1697735E+03  0.7546771E-02  0.1184507E+00
          2   -1    0    0  501    0  0.00000000000E+00  0.00000000000E+00  0.10828297408E+04  0.10828297408E+04  0.00000000000E+00 0. -1.
         -2   -1    0    0    0  501 -0.00000000000E+00 -0.00000000000E+00 -0.23641339555E+02  0.23641339555E+02  0.00000000000E+00 0.  1.
         23    2    1    2    0    0 -0.19725340367E+02  0.11316815466E+03  0.41409827844E+03  0.43941462222E+03  0.91715351698E+02 0.  0.
         23    2    1    2    0    0  0.19725340367E+02 -0.11316815466E+03  0.64509012276E+03  0.66705645808E+03  0.12500772580E+03 0.  0.
          5    1    4    4  502    0  0.21209650953E+02 -0.10480663975E+00  0.13876930893E+02  0.25778275524E+02  0.47000000000E+01 0.  1.
         -5    1    4    4    0  502 -0.14843105861E+01 -0.11306334802E+03  0.63121319187E+03  0.64127818256E+03  0.47000000000E+01 0.  1.
        -11    1    3    3    0    0 -0.37417344274E+02  0.28926919501E+02  0.24657851515E+03  0.25107327309E+03  0.00000000000E+00 0. -1.
         11    1    3    3    0    0  0.17692003906E+02  0.84241235155E+02  0.16751976329E+03  0.18834134913E+03  0.00000000000E+00 0.  1.
<mgrwt>
<rscale>  0 0.16376793E+03</rscale>
<asrwt>0</asrwt>
<pdfrwt beam="1">  1        2 0.16658915E+00 0.16977353E+03</pdfrwt>
<pdfrwt beam="2">  1       -2 0.36371300E-02 0.16977353E+03</pdfrwt>
<totfact> 0.72794205E+03</totfact>
</mgrwt>
</event>
<event>
 8    1  0.1224355E-005  0.1547044E+03  0.7546771E-02  0.1202923E+00
         -1   -1    0    0    0  501 -0.00000000000E+00  0.00000000000E+00  0.40740244349E+02  0.40740244349E+02  0.00000000000E+00 0.  1.
          1   -1    0    0  501    0  0.00000000000E+00 -0.00000000000E+00 -0.49795627286E+03  0.49795627286E+03  0.00000000000E+00 0. -1.
         23    2    1    2    0    0 -0.21365901243E+02 -0.87691389940E+02 -0.22437997016E+03  0.25915032771E+03  0.93092640623E+02 0.  0.
         23    2    1    2    0    0  0.21365901243E+02  0.87691389940E+02 -0.23283605836E+03  0.27954618950E+03  0.12564696729E+03 0.  0.
          5    1    4    4  502    0  0.28327495724E+02  0.11862877772E+03 -0.19382292381E+03  0.22905163111E+03  0.47000000000E+01 0. -1.
         -5    1    4    4    0  502 -0.69615944809E+01 -0.30937387783E+02 -0.39013134541E+02  0.50494558392E+02  0.47000000000E+01 0. -1.
        -11    1    3    3    0    0 -0.33643334014E+02 -0.75221498457E+02 -0.22696520251E+03  0.24146086827E+03  0.00000000000E+00 0. -1.
         11    1    3    3    0    0  0.12277432771E+02 -0.12469891484E+02  0.25852323522E+01  0.17689459443E+02  0.00000000000E+00 0.  1.
<mgrwt>
<rscale>  0 0.14802363E+03</rscale>
<asrwt>0</asrwt>
<pdfrwt beam="2">  1        1 0.76608658E-01 0.15470437E+03</pdfrwt>
<pdfrwt beam="1">  1       -1 0.62677299E-02 0.15470437E+03</pdfrwt>
<totfact> 0.55032403E+03</totfact>
</mgrwt>
</event>
<event>
 8    1  0.1224355E-005  0.1479159E+03  0.7546771E-02  0.1212655E+00
          1   -1    0    0  501    0  0.00000000000E+00  0.00000000000E+00  0.29243174448E+03  0.29243174448E+03  0.00000000000E+00 0. -1.
         -1   -1    0    0    0  501 -0.00000000000E+00 -0.00000000000E+00 -0.67882044246E+02  0.67882044246E+02  0.00000000000E+00 0.  1.
         23    2    1    2    0    0 -0.18025323475E+02 -0.77005083135E+02  0.47099002235E+02  0.12929894997E+03  0.90803124052E+02 0.  0.
         23    2    1    2    0    0  0.18025323475E+02  0.77005083135E+02  0.17745069800E+03  0.23101483876E+03  0.12499764153E+03 0.  0.
          5    1    4    4  502    0 -0.76387501647E+01 -0.33241129198E+02  0.36473054674E+02  0.50156723295E+02  0.47000000000E+01 0. -1.
         -5    1    4    4    0  502  0.25664073640E+02  0.11024621233E+03  0.14097764333E+03  0.18085811546E+03  0.47000000000E+01 0. -1.
        -11    1    3    3    0    0  0.27358128042E+02 -0.69094435149E+02  0.30570267845E+02  0.80355767775E+02  0.00000000000E+00 0. -1.
         11    1    3    3    0    0 -0.45383451517E+02 -0.79106479862E+01  0.16528734390E+02  0.48943182199E+02  0.00000000000E+00 0.  1.
<mgrwt>
<rscale>  0 0.14050175E+03</rscale>
<asrwt>0</asrwt>
<pdfrwt beam="1">  1        1 0.44989499E-01 0.14791587E+03</pdfrwt>
<pdfrwt beam="2">  1       -1 0.10443392E-01 0.14791587E+03</pdfrwt>
<totfact> 0.49683246E+03</totfact>
</mgrwt>
</event>
<event>
 8    1  0.1224355E-005  0.1484052E+03  0.7546771E-02  0.1203741E+00
         -2   -1    0    0    0  501 -0.00000000000E+00  0.00000000000E+00  0.41578853640E+03  0.41578853640E+03  0.00000000000E+00 0.  1.
          2   -1    0    0  501    0  0.00000000000E+00 -0.00000000000E+00 -0.53144624066E+02  0.53144624066E+02  0.00000000000E+00 0. -1.
         23    2    1    2    0    0 -0.15392833711E+02 -0.78488709877E+02  0.13784853078E+03  0.19956898107E+03  0.12011720884E+03 0.  0.
         23    2    1    2    0    0  0.15392833711E+02  0.78488709877E+02  0.22479538155E+03  0.26936417940E+03  0.12500672249E+03 0.  0.
          5    1    4    4  502    0 -0.32842706262E+02  0.91898567626E+02  0.13866024609E+03  0.16962530451E+03  0.47000000000E+01 0.  1.
         -5    1    4    4    0  502  0.48235539973E+02 -0.13409857749E+02  0.86135135470E+02  0.99738874887E+02  0.47000000000E+01 0.  1.
        -11    1    3    3    0    0 -0.16558353365E+02  0.29479166964E+02  0.50066412562E+02  0.60413955489E+02  0.00000000000E+00 0.  1.
         11    1    3    3    0    0  0.11655196541E+01 -0.10796787684E+03  0.87782118220E+02  0.13915502558E+03  0.00000000000E+00 0. -1.
<mgrwt>
<rscale>  0 0.14737078E+03</rscale>
<asrwt>0</asrwt>
<pdfrwt beam="2">  1        2 0.81760963E-02 0.14840518E+03</pdfrwt>
<pdfrwt beam="1">  1       -2 0.63967465E-01 0.14840518E+03</pdfrwt>
<totfact> 0.18552211E+03</totfact>
</mgrwt>
</event>
<event>
 8    1  0.1224355E-005  0.1598437E+03  0.7546771E-02  0.1196927E+00
         -2   -1    0    0    0  501 -0.00000000000E+00  0.00000000000E+00  0.49271016305E+02  0.49271016305E+02  0.00000000000E+00 0.  1.
          2   -1    0    0  501    0  0.00000000000E+00 -0.00000000000E+00 -0.43876209059E+03  0.43876209059E+03  0.00000000000E+00 0. -1.
         23    2    1    2    0    0  0.74584683762E+02  0.66104027440E+02 -0.16638045963E+03  0.21357299283E+03  0.89433486041E+02 0.  0.
         23    2    1    2    0    0 -0.74584683762E+02 -0.66104027440E+02 -0.22311061466E+03  0.27446011407E+03  0.12496955767E+03 0.  0.
          5    1    4    4  502    0 -0.68146888042E+02 -0.86154133646E+02 -0.22728658138E+03  0.25248329285E+03  0.47000000000E+01 0. -1.
         -5    1    4    4    0  502 -0.64377957202E+01  0.20050106205E+02  0.41759667201E+01  0.21976821213E+02  0.47000000000E+01 0. -1.
        -11    1    3    3    0    0  0.11421135934E+02 -0.48021314924E+01  0.81863230428E+01  0.14849871981E+02  0.00000000000E+00 0.  1.
         11    1    3    3    0    0  0.63163547828E+02  0.70906158933E+02 -0.17456678267E+03  0.19872312085E+03  0.00000000000E+00 0. -1.
<mgrwt>
<rscale>  0 0.15292275E+03</rscale>
<asrwt>0</asrwt>
<pdfrwt beam="2">  1        2 0.67501861E-01 0.15984370E+03</pdfrwt>
<pdfrwt beam="1">  1       -2 0.75801563E-02 0.15984370E+03</pdfrwt>
<totfact> 0.71631838E+03</totfact>
</mgrwt>
</event>
<event>
 8    1  0.1224355E-005  0.1376541E+03  0.7546771E-02  0.1227156E+00
         -1   -1    0    0    0  501 -0.00000000000E+00  0.00000000000E+00  0.46011472406E+03  0.46011472406E+03  0.00000000000E+00 0.  1.
          1   -1    0    0  501    0  0.00000000000E+00 -0.00000000000E+00 -0.39517039614E+02  0.39517039614E+02  0.00000000000E+00 0. -1.
         23    2    1    2    0    0 -0.56445652315E+02  0.11813827115E+02  0.28859912907E+03  0.30891659479E+03  0.93884647635E+02 0.  0.
         23    2    1    2    0    0  0.56445652315E+02 -0.11813827115E+02  0.13199855537E+03  0.19071516888E+03  0.12499191511E+03 0.  0.
          5    1    4    4  502    0 -0.31933226831E+02 -0.22033446226E+02  0.11270878510E+02  0.40673411842E+02  0.47000000000E+01 0. -1.
         -5    1    4    4    0  502  0.88378879147E+02  0.10219619111E+02  0.12072767686E+03  0.15004175704E+03  0.47000000000E+01 0. -1.
        -11    1    3    3    0    0  0.14962214869E+02 -0.19161482118E+02  0.28703250925E+02  0.37615248031E+02  0.00000000000E+00 0. -1.
         11    1    3    3    0    0 -0.71407867184E+02  0.30975309233E+02  0.25989587814E+03  0.27130134676E+03  0.00000000000E+00 0.  1.
<mgrwt>
<rscale>  0 0.13020248E+03</rscale>
<asrwt>0</asrwt>
<pdfrwt beam="2">  1        1 0.60795449E-02 0.13765412E+03</pdfrwt>
<pdfrwt beam="1">  1       -1 0.70786877E-01 0.13765412E+03</pdfrwt>
<totfact> 0.25733134E+03</totfact>
</mgrwt>
</event>
<event>
 8    1  0.1224355E-005  0.1368613E+03  0.7546771E-02  0.1227263E+00
         -1   -1    0    0    0  501 -0.00000000000E+00  0.00000000000E+00  0.97756558577E+02  0.97756558577E+02  0.00000000000E+00 0.  1.
          1   -1    0    0  501    0  0.00000000000E+00 -0.00000000000E+00 -0.15940315348E+03  0.15940315348E+03  0.00000000000E+00 0. -1.
         23    2    1    2    0    0  0.55332498534E+02  0.35409780774E+02 -0.38855116722E+02  0.11841364417E+03  0.90534706387E+02 0.  0.
         23    2    1    2    0    0 -0.55332498534E+02 -0.35409780774E+02 -0.22791478179E+02  0.13874606789E+03  0.12006449062E+03 0.  0.
          5    1    4    4  502    0 -0.80436045768E+02 -0.37484638194E+02  0.17907786132E+02  0.90652271695E+02  0.47000000000E+01 0. -1.
         -5    1    4    4    0  502  0.25103547234E+02  0.20748574195E+01 -0.40699264311E+02  0.48093796196E+02  0.47000000000E+01 0.  1.
        -11    1    3    3    0    0  0.10997889218E+02  0.60102569342E+02 -0.20456054616E+02  0.64433862054E+02  0.00000000000E+00 0.  1.
         11    1    3    3    0    0  0.44334609316E+02 -0.24692788568E+02 -0.18399062107E+02  0.53979782112E+02  0.00000000000E+00 0. -1.
<mgrwt>
<rscale>  0 0.13012978E+03</rscale>
<asrwt>0</asrwt>
<pdfrwt beam="2">  1        1 0.24523562E-01 0.13686132E+03</pdfrwt>
<pdfrwt beam="1">  1       -1 0.15039471E-01 0.13686132E+03</pdfrwt>
<totfact> 0.59773232E+03</totfact>
</mgrwt>
</event>
<event>
 8    1  0.1224355E-005  0.1352289E+03  0.7546771E-02  0.1228088E+00
          2   -1    0    0  501    0  0.00000000000E+00  0.00000000000E+00  0.69037207319E+03  0.69037207319E+03  0.00000000000E+00 0. -1.
         -2   -1    0    0    0  501 -0.00000000000E+00 -0.00000000000E+00 -0.25410368479E+02  0.25410368479E+02  0.00000000000E+00 0.  1.
         23    2    1    2    0    0 -0.51010089526E+02  0.77562754827E+01  0.18650343567E+03  0.21858109586E+03  0.10164632266E+03 0.  0.
         23    2    1    2    0    0  0.51010089526E+02 -0.77562754827E+01  0.47845826905E+03  0.49720134581E+03  0.12499869604E+03 0.  0.
          5    1    4    4  502    0  0.88183676645E+02  0.53870578055E+01  0.39488285195E+03  0.40467263063E+03  0.47000000000E+01 0.  1.
         -5    1    4    4    0  502 -0.37173587119E+02 -0.13143333288E+02  0.83575417095E+02  0.92528715175E+02  0.47000000000E+01 0.  1.
        -11    1    3    3    0    0 -0.79764756404E+02  0.20766258340E+02  0.13597354257E+03  0.15900458524E+03  0.00000000000E+00 0. -1.
         11    1    3    3    0    0  0.28754666878E+02 -0.13009982857E+02  0.50529893099E+02  0.59576510621E+02  0.00000000000E+00 0.  1.
<mgrwt>
<rscale>  0 0.12957486E+03</rscale>
<asrwt>0</asrwt>
<pdfrwt beam="1">  1        2 0.10621107E+00 0.13522893E+03</pdfrwt>
<pdfrwt beam="2">  1       -2 0.39092880E-02 0.13522893E+03</pdfrwt>
<totfact> 0.11588068E+04</totfact>
</mgrwt>
</event>
<event>
 8    1  0.1224355E-005  0.1496021E+03  0.7546771E-02  0.1213561E+00
          1   -1    0    0  501    0  0.00000000000E+00  0.00000000000E+00  0.85147882188E+02  0.85147882188E+02  0.00000000000E+00 0. -1.
         -1   -1    0    0    0  501 -0.00000000000E+00 -0.00000000000E+00 -0.20962554373E+03  0.20962554373E+03  0.00000000000E+00 0.  1.
         23    2    1    2    0    0 -0.41108742728E+02  0.71178332108E+02 -0.77416651525E+02  0.13794382108E+03  0.79239359857E+02 0.  0.
         23    2    1    2    0    0  0.41108742728E+02 -0.71178332108E+02 -0.47061010018E+02  0.15682960484E+03  0.12499801038E+03 0.  0.
          5    1    4    4  502    0  0.61186169371E+02 -0.50148898534E+00 -0.55476408327E+02  0.82726783416E+02  0.47000000000E+01 0.  1.
         -5    1    4    4    0  502 -0.20077426644E+02 -0.70676843122E+02  0.84153983086E+01  0.74102821424E+02  0.47000000000E+01 0.  1.
        -11    1    3    3    0    0 -0.34312787281E+02  0.83651008840E+02 -0.82949045785E+02  0.12270045985E+03  0.00000000000E+00 0.  1.
         11    1    3    3    0    0 -0.67959554461E+01 -0.12472676732E+02  0.55323942603E+01  0.15243361229E+02  0.00000000000E+00 0. -1.
<mgrwt>
<rscale>  0 0.13982757E+03</rscale>
<asrwt>0</asrwt>
<pdfrwt beam="1">  1        1 0.13099674E-01 0.14960209E+03</pdfrwt>
<pdfrwt beam="2">  1       -1 0.32250083E-01 0.14960209E+03</pdfrwt>
<totfact> 0.38827100E+03</totfact>
</mgrwt>
</event>
<event>
 8    1  0.1224355E-005  0.1527552E+03  0.7546771E-02  0.1205825E+00
         -2   -1    0    0    0  501 -0.00000000000E+00  0.00000000000E+00  0.40335892172E+02  0.40335892172E+02  0.00000000000E+00 0.  1.
          2   -1    0    0  501    0  0.00000000000E+00 -0.00000000000E+00 -0.48711138692E+03  0.48711138692E+03  0.00000000000E+00 0. -1.
         23    2    1    2    0    0  0.87779314980E+02 -0.18849426116E+01 -0.17968466509E+03  0.21975967885E+03  0.91098718054E+02 0.  0.
         23    2    1    2    0    0 -0.87779314980E+02  0.18849426116E+01 -0.26709082966E+03  0.30768760025E+03  0.12500154763E+03 0.  0.
          5    1    4    4  502    0 -0.23296512662E+01 -0.46537723593E+02 -0.45663342103E+02  0.65409615534E+02  0.47000000000E+01 0. -1.
         -5    1    4    4    0  502 -0.85449663714E+02  0.48422666204E+02 -0.22142748756E+03  0.24227798472E+03  0.47000000000E+01 0. -1.
        -11    1    3    3    0    0  0.67988604050E+02  0.25130439502E+02 -0.55930562520E+02  0.91554448794E+02  0.00000000000E+00 0.  1.
         11    1    3    3    0    0  0.19790710931E+02 -0.27015382113E+02 -0.12375410257E+03  0.12820523005E+03  0.00000000000E+00 0. -1.
<mgrwt>
<rscale>  0 0.14572640E+03</rscale>
<asrwt>0</asrwt>
<pdfrwt beam="2">  1        2 0.74940212E-01 0.15275519E+03</pdfrwt>
<pdfrwt beam="1">  1       -2 0.62055220E-02 0.15275519E+03</pdfrwt>
<totfact> 0.86627237E+03</totfact>
</mgrwt>
</event>
<event>
 8    1  0.1224355E-005  0.1337123E+03  0.7546771E-02  0.1235080E+00
          1   -1    0    0  501    0  0.00000000000E+00  0.00000000000E+00  0.24458366980E+03  0.24458366980E+03  0.00000000000E+00 0. -1.
         -1   -1    0    0    0  501 -0.00000000000E+00 -0.00000000000E+00 -0.58395833293E+02  0.58395833293E+02  0.00000000000E+00 0.  1.
         23    2    1    2    0    0  0.74271815825E+01 -0.46902773630E+02  0.56434048965E+02  0.11665984524E+03  0.90386306530E+02 0.  0.
         23    2    1    2    0    0 -0.74271815825E+01  0.46902773630E+02  0.12975378754E+03  0.18631965786E+03  0.12499574521E+03 0.  0.
          5    1    4    4  502    0  0.47704321855E+02  0.39662665954E+02  0.23884291469E+02  0.66643670165E+02  0.47000000000E+01 0.  1.
         -5    1    4    4    0  502 -0.55131503437E+02  0.72401076765E+01  0.10586949608E+03  0.11967598769E+03  0.47000000000E+01 0.  1.
        -11    1    3    3    0    0  0.42683857111E+02 -0.26942094743E+02  0.57005628368E+02  0.76140854951E+02  0.00000000000E+00 0. -1.
         11    1    3    3    0    0 -0.35256675529E+02 -0.19960678887E+02 -0.57157940258E+00  0.40518990288E+02  0.00000000000E+00 0.  1.
<mgrwt>
<rscale>  0 0.12499322E+03</rscale>
<asrwt>0</asrwt>
<pdfrwt beam="1">  1        1 0.37628256E-01 0.13371226E+03</pdfrwt>
<pdfrwt beam="2">  1       -1 0.89839745E-02 0.13371226E+03</pdfrwt>
<totfact> 0.77479160E+03</totfact>
</mgrwt>
</event>
<event>
 8    1  0.1224355E-005  0.1409625E+03  0.7546771E-02  0.1221409E+00
          1   -1    0    0  501    0  0.00000000000E+00  0.00000000000E+00  0.14173239807E+03  0.14173239807E+03  0.00000000000E+00 0. -1.
         -1   -1    0    0    0  501 -0.00000000000E+00 -0.00000000000E+00 -0.18048766699E+03  0.18048766699E+03  0.00000000000E+00 0.  1.
         23    2    1    2    0    0 -0.63809503535E+02  0.13192504761E+02 -0.11402756634E+03  0.16241906945E+03  0.95561358890E+02 0.  0.
         23    2    1    2    0    0  0.63809503535E+02 -0.13192504761E+02  0.75272297415E+02  0.15980099562E+03  0.12499897807E+03 0.  0.
          5    1    4    4  502    0  0.56769418541E+02 -0.40965459859E+02 -0.89330275061E+01  0.70730649391E+02  0.47000000000E+01 0. -1.
         -5    1    4    4    0  502  0.70400849937E+01  0.27772955098E+02  0.84205324921E+02  0.89070346225E+02  0.47000000000E+01 0. -1.
        -11    1    3    3    0    0 -0.18673631123E+02  0.30182891015E+02  0.32218730301E+01  0.35638348378E+02  0.00000000000E+00 0. -1.
         11    1    3    3    0    0 -0.45135872412E+02 -0.16990386254E+02 -0.11724943937E+03  0.12678072107E+03  0.00000000000E+00 0.  1.
<mgrwt>
<rscale>  0 0.13416071E+03</rscale>
<asrwt>0</asrwt>
<pdfrwt beam="1">  1        1 0.21804984E-01 0.14096255E+03</pdfrwt>
<pdfrwt beam="2">  1       -1 0.27767333E-01 0.14096255E+03</pdfrwt>
<totfact> 0.25842106E+03</totfact>
</mgrwt>
</event>
<event>
 8    1  0.1224355E-005  0.1779210E+03  0.7546771E-02  0.1175471E+00
         -2   -1    0    0    0  501 -0.00000000000E+00  0.00000000000E+00  0.43609853910E+02  0.43609853910E+02  0.00000000000E+00 0.  1.
          2   -1    0    0  501    0  0.00000000000E+00 -0.00000000000E+00 -0.66054319942E+03  0.66054319942E+03  0.00000000000E+00 0. -1.
         23    2    1    2    0    0 -0.93096200374E+02  0.85815827579E+02 -0.22889966358E+03  0.27727365835E+03  0.91947630957E+02 0.  0.
         23    2    1    2    0    0  0.93096200374E+02 -0.85815827579E+02 -0.38803368192E+03  0.42687939498E+03  0.12499848304E+03 0.  0.
          5    1    4    4  502    0  0.97926490480E+02 -0.78565579943E+02 -0.39518010580E+03  0.41467041601E+03  0.47000000000E+01 0. -1.
         -5    1    4    4    0  502 -0.48302901055E+01 -0.72502476358E+01  0.71464238782E+01  0.12208978972E+02  0.47000000000E+01 0. -1.
        -11    1    3    3    0    0 -0.64373142587E+02  0.70281132083E+02 -0.78803019914E+02  0.12366590056E+03  0.00000000000E+00 0.  1.
         11    1    3    3    0    0 -0.28723057788E+02  0.15534695496E+02 -0.15009664367E+03  0.15360775779E+03  0.00000000000E+00 0. -1.
<mgrwt>
<rscale>  0 0.17229961E+03</rscale>
<asrwt>0</asrwt>
<pdfrwt beam="2">  1        2 0.10162203E+00 0.17792099E+03</pdfrwt>
<pdfrwt beam="1">  1       -2 0.67092084E-02 0.17792099E+03</pdfrwt>
<totfact> 0.54859890E+03</totfact>
</mgrwt>
</event>
<event>
 8    1  0.1224355E-005  0.1253328E+03  0.7546771E-02  0.1252078E+00
         -1   -1    0    0    0  501 -0.00000000000E+00  0.00000000000E+00  0.22886606886E+02  0.22886606886E+02  0.00000000000E+00 0.  1.
          1   -1    0    0  501    0  0.00000000000E+00 -0.00000000000E+00 -0.54066703382E+03  0.54066703382E+03  0.00000000000E+00 0. -1.
         23    2    1    2    0    0 -0.72089096159E+01  0.55245398918E+01 -0.13822229783E+03  0.16383787655E+03  0.87492612582E+02 0.  0.
         23    2    1    2    0    0  0.72089096159E+01 -0.55245398918E+01 -0.37955812910E+03  0.39971576415E+03  0.12500331926E+03 0.  0.
          5    1    4    4  502    0  0.56201585262E+02  0.59558057678E+01 -0.94489246236E+02  0.11020162187E+03  0.47000000000E+01 0. -1.
         -5    1    4    4    0  502 -0.48992675646E+02 -0.11480345660E+02 -0.28506888287E+03  0.28951414228E+03  0.47000000000E+01 0. -1.
        -11    1    3    3    0    0 -0.46782291561E+02 -0.39128928844E+01 -0.66899241224E+02  0.81727608621E+02  0.00000000000E+00 0.  1.
         11    1    3    3    0    0  0.39573381945E+02  0.94374327763E+01 -0.71323056602E+02  0.82110267927E+02  0.00000000000E+00 0. -1.
<mgrwt>
<rscale>  0 0.11471583E+03</rscale>
<asrwt>0</asrwt>
<pdfrwt beam="2">  1        1 0.83179537E-01 0.12533283E+03</pdfrwt>
<pdfrwt beam="1">  1       -1 0.35210167E-02 0.12533283E+03</pdfrwt>
<totfact> 0.11425213E+04</totfact>
</mgrwt>
</event>
<event>
 8    1  0.1224355E-005  0.1454046E+03  0.7546771E-02  0.1216547E+00
         -2   -1    0    0    0  501 -0.00000000000E+00  0.00000000000E+00  0.78674416505E+02  0.78674416505E+02  0.00000000000E+00 0.  1.
          2   -1    0    0  501    0  0.00000000000E+00 -0.00000000000E+00 -0.22756417232E+03  0.22756417232E+03  0.00000000000E+00 0. -1.
         23    2    1    2    0    0  0.70501722999E+02 -0.23380050438E+02 -0.97261994019E+02  0.15194044592E+03  0.90049341602E+02 0.  0.
         23    2    1    2    0    0 -0.70501722999E+02  0.23380050438E+02 -0.51627761799E+02  0.15429814290E+03  0.12500148563E+03 0.  0.
          5    1    4    4  502    0 -0.84653783497E+02  0.11913882271E+02  0.13350587739E+02  0.86651785002E+02  0.47000000000E+01 0.  1.
         -5    1    4    4    0  502  0.14152060498E+02  0.11466168166E+02 -0.64978349537E+02  0.67646357902E+02  0.47000000000E+01 0.  1.
        -11    1    3    3    0    0  0.24195589685E+02  0.18465974412E+02  0.62462974611E+01  0.31071449969E+02  0.00000000000E+00 0.  1.
         11    1    3    3    0    0  0.46306133314E+02 -0.41846024850E+02 -0.10350829148E+03  0.12086899596E+03  0.00000000000E+00 0. -1.
<mgrwt>
<rscale>  0 0.13763523E+03</rscale>
<asrwt>0</asrwt>
<pdfrwt beam="2">  1        2 0.35009872E-01 0.14540458E+03</pdfrwt>
<pdfrwt beam="1">  1       -2 0.12103757E-01 0.14540458E+03</pdfrwt>
<totfact> 0.68855597E+03</totfact>
</mgrwt>
</event>
<event>
 8    1  0.1224355E-005  0.1348843E+03  0.7546771E-02  0.1233416E+00
          2   -1    0    0  501    0  0.00000000000E+00  0.00000000000E+00  0.27101517114E+03  0.27101517114E+03  0.00000000000E+00 0. -1.
         -2   -1    0    0    0  501 -0.00000000000E+00 -0.00000000000E+00 -0.72773910945E+02  0.72773910945E+02  0.00000000000E+00 0.  1.
         23    2    1    2    0    0 -0.41517584444E+02  0.29075993475E+02 -0.13157983424E+01  0.10292234536E+03  0.89566481648E+02 0.  0.
         23    2    1    2    0    0  0.41517584444E+02 -0.29075993475E+02  0.19955705853E+03  0.24086673672E+03  0.12499856812E+03 0.  0.
          5    1    4    4  502    0  0.69467805802E+02 -0.41743193332E+01  0.47968592321E+02  0.84653864851E+02  0.47000000000E+01 0.  1.
         -5    1    4    4    0  502 -0.27950221358E+02 -0.24901674141E+02  0.15158846621E+03  0.15621287187E+03  0.47000000000E+01 0.  1.
        -11    1    3    3    0    0 -0.52784895940E+02  0.23557100208E+02 -0.34589507391E+02  0.67361830670E+02  0.00000000000E+00 0.  1.
         11    1    3    3    0    0  0.11267311496E+02  0.55188932670E+01  0.33273709049E+02  0.35560514692E+02  0.00000000000E+00 0. -1.
<mgrwt>
<rscale>  0 0.12606354E+03</rscale>
<asrwt>0</asrwt>
<pdfrwt beam="1">  1        2 0.41694641E-01 0.13488427E+03</pdfrwt>
<pdfrwt beam="2">  1       -2 0.11195986E-01 0.13488427E+03</pdfrwt>
<totfact> 0.64389623E+03</totfact>
</mgrwt>
</event>
<event>
 8    1  0.1224355E-005  0.1401153E+03  0.7546771E-02  0.1223941E+00
         -1   -1    0    0    0  501 -0.00000000000E+00  0.00000000000E+00  0.22047149697E+03  0.22047149697E+03  0.00000000000E+00 0.  1.
          1   -1    0    0  501    0  0.00000000000E+00 -0.00000000000E+00 -0.93270103226E+02  0.93270103226E+02  0.00000000000E+00 0. -1.
         23    2    1    2    0    0 -0.40084091351E+02  0.49012047179E+02  0.13277847382E+03  0.17351533314E+03  0.92024630278E+02 0.  0.
         23    2    1    2    0    0  0.40084091351E+02 -0.49012047179E+02 -0.55770800781E+01  0.14022626705E+03  0.12499354783E+03 0.  0.
          5    1    4    4  502    0  0.19613900499E+02  0.40786131626E+02  0.10289885634E+02  0.46649602058E+02  0.47000000000E+01 0.  1.
         -5    1    4    4    0  502  0.20470190852E+02 -0.89798178804E+02 -0.15866965712E+02  0.93576664992E+02  0.47000000000E+01 0.  1.
        -11    1    3    3    0    0 -0.43091269758E+02  0.71840788893E+02  0.12224326398E+03  0.14819369780E+03  0.00000000000E+00 0.  1.
         11    1    3    3    0    0  0.30071784063E+01 -0.22828741714E+02  0.10535209837E+02  0.25321635344E+02  0.00000000000E+00 0. -1.
<mgrwt>
<rscale>  0 0.13239754E+03</rscale>
<asrwt>0</asrwt>
<pdfrwt beam="2">  1        1 0.14349247E-01 0.14011532E+03</pdfrwt>
<pdfrwt beam="1">  1       -1 0.33918692E-01 0.14011532E+03</pdfrwt>
<totfact> 0.31525733E+03</totfact>
</mgrwt>
</event>
<event>
 8    1  0.1224355E-005  0.1260908E+03  0.7546771E-02  0.1242958E+00
         -1   -1    0    0    0  501 -0.00000000000E+00  0.00000000000E+00  0.26885517801E+02  0.26885517801E+02  0.00000000000E+00 0.  1.
          1   -1    0    0  501    0  0.00000000000E+00 -0.00000000000E+00 -0.52359783451E+03  0.52359783451E+03  0.00000000000E+00 0. -1.
         23    2    1    2    0    0  0.13453003159E+01  0.67852420930E+01 -0.15744940985E+03  0.18854662053E+03  0.10349715989E+03 0.  0.
         23    2    1    2    0    0 -0.13453003159E+01 -0.67852420930E+01 -0.33926290686E+03  0.36193673179E+03  0.12590086776E+03 0.  0.
          5    1    4    4  502    0 -0.22516585694E+02 -0.17130588661E+02 -0.79606991641E+01  0.29764348310E+02  0.47000000000E+01 0. -1.
         -5    1    4    4    0  502  0.21171285378E+02  0.10345346568E+02 -0.33130220770E+03  0.33217238348E+03  0.47000000000E+01 0. -1.
        -11    1    3    3    0    0 -0.27519656191E+02  0.41493303076E+02 -0.43999373269E+02  0.66445244563E+02  0.00000000000E+00 0.  1.
         11    1    3    3    0    0  0.28864956507E+02 -0.34708060983E+02 -0.11345003658E+03  0.12210137596E+03  0.00000000000E+00 0. -1.
<mgrwt>
<rscale>  0 0.12008437E+03</rscale>
<asrwt>0</asrwt>
<pdfrwt beam="2">  1        1 0.80553515E-01 0.12609075E+03</pdfrwt>
<pdfrwt beam="1">  1       -1 0.41362334E-02 0.12609075E+03</pdfrwt>
<totfact> 0.94206552E+03</totfact>
</mgrwt>
</event>
<event>
 8    1  0.1224355E-005  0.1253191E+03  0.7546771E-02  0.1249751E+00
          2   -1    0    0  501    0  0.00000000000E+00  0.00000000000E+00  0.55701509556E+03  0.55701509556E+03  0.00000000000E+00 0. -1.
         -2   -1    0    0    0  501 -0.00000000000E+00 -0.00000000000E+00 -0.21375312590E+02  0.21375312590E+02  0.00000000000E+00 0.  1.
         23    2    1    2    0    0 -0.89236634660E+01  0.37459322090E+00  0.20372942324E+03  0.22360968395E+03  0.91737891698E+02 0.  0.
         23    2    1    2    0    0  0.89236634660E+01 -0.37459322090E+00  0.33191035973E+03  0.35478072420E+03  0.12500041311E+03 0.  0.
          5    1    4    4  502    0  0.30728971491E+02 -0.47358545271E+02  0.82968183751E+02  0.10046348100E+03  0.47000000000E+01 0.  1.
         -5    1    4    4    0  502 -0.21805308025E+02  0.46983952050E+02  0.24894217598E+03  0.25431724321E+03  0.47000000000E+01 0.  1.
        -11    1    3    3    0    0 -0.44395483514E+02  0.30105950063E+01  0.16556165265E+03  0.17143711228E+03  0.00000000000E+00 0. -1.
         11    1    3    3    0    0  0.35471820048E+02 -0.26360017854E+01  0.38167770588E+02  0.52172571669E+02  0.00000000000E+00 0.  1.
<mgrwt>
<rscale>  0 0.11605458E+03</rscale>
<asrwt>0</asrwt>
<pdfrwt beam="1">  1        2 0.85694619E-01 0.12531909E+03</pdfrwt>
<pdfrwt beam="2">  1       -2 0.32885101E-02 0.12531909E+03</pdfrwt>
<totfact> 0.19024521E+04</totfact>
</mgrwt>
</event>
<event>
 8    1  0.1224355E-005  0.1396908E+03  0.7546771E-02  0.1224710E+00
         -2   -1    0    0    0  501 -0.00000000000E+00  0.00000000000E+00  0.44928663144E+02  0.44928663144E+02  0.00000000000E+00 0.  1.
          2   -1    0    0  501    0  0.00000000000E+00 -0.00000000000E+00 -0.37244231210E+03  0.37244231210E+03  0.00000000000E+00 0. -1.
         23    2    1    2    0    0  0.59125260769E+02  0.19815381336E+02 -0.94658073541E+02  0.14582865127E+03  0.91746383286E+02 0.  0.
         23    2    1    2    0    0 -0.59125260769E+02 -0.19815381336E+02 -0.23285557542E+03  0.27154232398E+03  0.12500027564E+03 0.  0.
          5    1    4    4  502    0 -0.43831324450E+01  0.28301266643E+02 -0.16420334470E+01  0.29068192538E+02  0.47000000000E+01 0. -1.
         -5    1    4    4    0  502 -0.54742128324E+02 -0.48116647979E+02 -0.23121354197E+03  0.24247413144E+03  0.47000000000E+01 0. -1.
        -11    1    3    3    0    0  0.19997890729E+02  0.31770009413E+02  0.52149914674E+01  0.37900465271E+02  0.00000000000E+00 0.  1.
         11    1    3    3    0    0  0.39127370040E+02 -0.11954628077E+02 -0.99873065008E+02  0.10792818600E+03  0.00000000000E+00 0. -1.
<mgrwt>
<rscale>  0 0.13186810E+03</rscale>
<asrwt>0</asrwt>
<pdfrwt beam="2">  1        2 0.57298816E-01 0.13969078E+03</pdfrwt>
<pdfrwt beam="1">  1       -2 0.69121021E-02 0.13969078E+03</pdfrwt>
<totfact> 0.97571655E+03</totfact>
</mgrwt>
</event>
<event>
 8    1  0.1224355E-005  0.1270145E+03  0.7546771E-02  0.1246932E+00
         -3   -1    0    0    0  501 -0.00000000000E+00  0.00000000000E+00  0.10729935067E+03  0.10729935067E+03  0.00000000000E+00 0.  1.
          3   -1    0    0  501    0  0.00000000000E+00 -0.00000000000E+00 -0.11833573941E+03  0.11833573941E+03  0.00000000000E+00 0. -1.
         23    2    1    2    0    0  0.14199839263E+02 -0.17502964451E+02  0.17892543967E+02  0.95367780728E+02  0.90922391475E+02 0.  0.
         23    2    1    2    0    0 -0.14199839263E+02  0.17502964451E+02 -0.28928932708E+02  0.13026730936E+03  0.12499879815E+03 0.  0.
          5    1    4    4  502    0 -0.34361197442E+02 -0.45718879059E+02 -0.27725444052E+02  0.63731452517E+02  0.47000000000E+01 0. -1.
         -5    1    4    4    0  502  0.20161358179E+02  0.63221843510E+02 -0.12034886554E+01  0.66535856839E+02  0.47000000000E+01 0. -1.
        -11    1    3    3    0    0 -0.38421120307E+02 -0.13405741724E+02  0.10892937655E+02  0.42125437535E+02  0.00000000000E+00 0. -1.
         11    1    3    3    0    0  0.52620959569E+02 -0.40972227268E+01  0.69996063123E+01  0.53242343192E+02  0.00000000000E+00 0.  1.
<mgrwt>
<rscale>  0 0.11770506E+03</rscale>
<asrwt>0</asrwt>
<pdfrwt beam="2">  1        3 0.18205498E-01 0.12701452E+03</pdfrwt>
<pdfrwt beam="1">  1       -3 0.16507592E-01 0.12701452E+03</pdfrwt>
<totfact> 0.18886244E+03</totfact>
</mgrwt>
</event>
<event>
 8    1  0.1224355E-005  0.1386816E+03  0.7546771E-02  0.1225578E+00
          2   -1    0    0  501    0  0.00000000000E+00  0.00000000000E+00  0.79360549963E+02  0.79360549963E+02  0.00000000000E+00 0. -1.
         -2   -1    0    0    0  501 -0.00000000000E+00 -0.00000000000E+00 -0.19731523689E+03  0.19731523689E+03  0.00000000000E+00 0.  1.
         23    2    1    2    0    0  0.52983128583E+02 -0.28287687212E+02 -0.58698540647E+02  0.12586502178E+03  0.93750092647E+02 0.  0.
         23    2    1    2    0    0 -0.52983128583E+02  0.28287687212E+02 -0.59256146277E+02  0.15081076507E+03  0.12500076331E+03 0.  0.
          5    1    4    4  502    0 -0.29644689830E+01  0.49180335506E+02 -0.78752056048E+02  0.93013277593E+02  0.47000000000E+01 0.  1.
         -5    1    4    4    0  502 -0.50018659600E+02 -0.20892648293E+02  0.19495909770E+02  0.57797487477E+02  0.47000000000E+01 0.  1.
        -11    1    3    3    0    0  0.13162880069E+02  0.31092920150E+02 -0.64964226989E+00  0.33770595645E+02  0.00000000000E+00 0. -1.
         11    1    3    3    0    0  0.39820248514E+02 -0.59380607362E+02 -0.58048898377E+02  0.92094426135E+02  0.00000000000E+00 0.  1.
<mgrwt>
<rscale>  0 0.13127334E+03</rscale>
<asrwt>0</asrwt>
<pdfrwt beam="1">  1        2 0.12209315E-01 0.13868164E+03</pdfrwt>
<pdfrwt beam="2">  1       -2 0.30356190E-01 0.13868164E+03</pdfrwt>
<totfact> 0.47756075E+03</totfact>
</mgrwt>
</event>
<event>
 8    1  0.1224355E-005  0.1675821E+03  0.7546771E-02  0.1187285E+00
          2   -1    0    0  501    0  0.00000000000E+00  0.00000000000E+00  0.11053332880E+04  0.11053332880E+04  0.00000000000E+00 0. -1.
         -2   -1    0    0    0  501 -0.00000000000E+00 -0.00000000000E+00 -0.27721366114E+02  0.27721366114E+02  0.00000000000E+00 0.  1.
         23    2    1    2    0    0 -0.28821472245E+02  0.10783184564E+03  0.24737621085E+03  0.28607466760E+03  0.90472877438E+02 0.  0.
         23    2    1    2    0    0  0.28821472245E+02 -0.10783184564E+03  0.83023571103E+03  0.84697998650E+03  0.12500150991E+03 0.  0.
          5    1    4    4  502    0  0.56508057730E+02 -0.11056772040E+02  0.44700445190E+03  0.45072217919E+03  0.47000000000E+01 0.  1.
         -5    1    4    4    0  502 -0.27686585485E+02 -0.96775073597E+02  0.38323125913E+03  0.39625780732E+03  0.47000000000E+01 0.  1.
        -11    1    3    3    0    0  0.25606999284E+02  0.59375481527E+02  0.15823595984E+03  0.17093795718E+03  0.00000000000E+00 0.  1.
         11    1    3    3    0    0 -0.54428471529E+02  0.48456364110E+02  0.89140251009E+02  0.11513671042E+03  0.00000000000E+00 0. -1.
<mgrwt>
<rscale>  0 0.16125725E+03</rscale>
<asrwt>0</asrwt>
<pdfrwt beam="1">  1        2 0.17005124E+00 0.16758210E+03</pdfrwt>
<pdfrwt beam="2">  1       -2 0.42648264E-02 0.16758210E+03</pdfrwt>
<totfact> 0.55669855E+03</totfact>
</mgrwt>
</event>
<event>
 8    1  0.1224355E-005  0.2138009E+03  0.7546771E-02  0.1142253E+00
          1   -1    0    0  501    0  0.00000000000E+00  0.00000000000E+00  0.63262081110E+03  0.63262081110E+03  0.00000000000E+00 0. -1.
         -1   -1    0    0    0  501 -0.00000000000E+00 -0.00000000000E+00 -0.84761650032E+02  0.84761650032E+02  0.00000000000E+00 0.  1.
         23    2    1    2    0    0 -0.41299652544E+02  0.16846508150E+03  0.97124616868E+02  0.21851128589E+03  0.90707474188E+02 0.  0.
         23    2    1    2    0    0  0.41299652544E+02 -0.16846508150E+03  0.45073454420E+03  0.49887117524E+03  0.12499870067E+03 0.  0.
          5    1    4    4  502    0  0.20656873159E+02 -0.16509901305E+03  0.44716314297E+03  0.47713871877E+03  0.47000000000E+01 0. -1.
         -5    1    4    4    0  502  0.20642779385E+02 -0.33660684557E+01  0.35714012268E+01  0.21732456472E+02  0.47000000000E+01 0. -1.
        -11    1    3    3    0    0  0.87211110346E+01  0.13249104376E+03  0.78022562177E+02  0.15400472286E+03  0.00000000000E+00 0. -1.
         11    1    3    3    0    0 -0.50020763578E+02  0.35974037738E+02  0.19102054691E+02  0.64506563027E+02  0.00000000000E+00 0.  1.
<mgrwt>
<rscale>  0 0.20913504E+03</rscale>
<asrwt>0</asrwt>
<pdfrwt beam="1">  1        1 0.97326276E-01 0.21380089E+03</pdfrwt>
<pdfrwt beam="2">  1       -1 0.13040254E-01 0.21380089E+03</pdfrwt>
<totfact> 0.13096199E+03</totfact>
</mgrwt>
</event>
<event>
 8    1  0.1224355E-005  0.1330910E+03  0.7546771E-02  0.1230244E+00
          2   -1    0    0  501    0  0.00000000000E+00  0.00000000000E+00  0.40614853672E+03  0.40614853672E+03  0.00000000000E+00 0. -1.
         -2   -1    0    0    0  501 -0.00000000000E+00 -0.00000000000E+00 -0.38293821486E+02  0.38293821486E+02  0.00000000000E+00 0.  1.
         23    2    1    2    0    0 -0.57425204724E+02  0.41800806239E+02  0.14241614100E+03  0.18264899621E+03  0.89628885187E+02 0.  0.
         23    2    1    2    0    0  0.57425204724E+02 -0.41800806239E+02  0.22543857423E+03  0.26179336199E+03  0.11255332999E+03 0.  0.
          5    1    4    4  502    0 -0.79269216656E+01 -0.41339090139E+02  0.17230682265E+03  0.17743586895E+03  0.47000000000E+01 0. -1.
         -5    1    4    4    0  502  0.65352126390E+02 -0.46171609999E+00  0.53131751586E+02  0.84357493040E+02  0.47000000000E+01 0.  1.
        -11    1    3    3    0    0  0.13266086012E+02  0.41462900183E+02  0.50010608610E+02  0.66304012724E+02  0.00000000000E+00 0.  1.
         11    1    3    3    0    0 -0.70691290736E+02  0.33790605525E+00  0.92405532391E+02  0.11634498349E+03  0.00000000000E+00 0. -1.
<mgrwt>
<rscale>  0 0.12813873E+03</rscale>
<asrwt>0</asrwt>
<pdfrwt beam="1">  1        2 0.62484387E-01 0.13309100E+03</pdfrwt>
<pdfrwt beam="2">  1       -2 0.58913574E-02 0.13309100E+03</pdfrwt>
<totfact> 0.11305635E+04</totfact>
</mgrwt>
</event>
<event>
 8    1  0.1224355E-005  0.1437863E+03  0.7546771E-02  0.1218575E+00
          2   -1    0    0  501    0  0.00000000000E+00  0.00000000000E+00  0.14351451382E+03  0.14351451382E+03  0.00000000000E+00 0. -1.
         -2   -1    0    0    0  501 -0.00000000000E+00 -0.00000000000E+00 -0.11916281511E+03  0.11916281511E+03  0.00000000000E+00 0.  1.
         23    2    1    2    0    0 -0.70300381371E+02  0.10087840658E+02 -0.56215207934E+01  0.11580023545E+03  0.91291756933E+02 0.  0.
         23    2    1    2    0    0  0.70300381371E+02 -0.10087840658E+02  0.29973219501E+02  0.14687709349E+03  0.12502231222E+03 0.  0.
          5    1    4    4  502    0  0.63533237803E+02  0.28530086616E+02  0.64037209138E+02  0.94727463295E+02  0.47000000000E+01 0.  1.
         -5    1    4    4    0  502  0.67671435677E+01 -0.38617927273E+02 -0.34063989637E+02  0.52149630190E+02  0.47000000000E+01 0.  1.
        -11    1    3    3    0    0 -0.11248805971E+01  0.39777612639E+02 -0.75236382257E+01  0.40498505599E+02  0.00000000000E+00 0.  1.
         11    1    3    3    0    0 -0.69175500774E+02 -0.29689771981E+02  0.19021174323E+01  0.75301729850E+02  0.00000000000E+00 0. -1.
<mgrwt>
<rscale>  0 0.13617184E+03</rscale>
<asrwt>0</asrwt>
<pdfrwt beam="1">  1        2 0.22079156E-01 0.14378625E+03</pdfrwt>
<pdfrwt beam="2">  1       -2 0.18332741E-01 0.14378625E+03</pdfrwt>
<totfact> 0.57771641E+03</totfact>
</mgrwt>
</event>
<event>
 7    1  0.1224355E-005  0.1321749E+03  0.7546771E-02  0.1240608E+00
         -4   -1    0    0    0  501 -0.00000000000E+00  0.00000000000E+00  0.60433486364E+02  0.60433486364E+02  0.00000000000E+00 0.  1.
          4   -1    0    0  501    0  0.00000000000E+00 -0.00000000000E+00 -0.25614697370E+03  0.25614697370E+03  0.00000000000E+00 0. -1.
         23    2    1    2    0    0  0.13699515013E+01 -0.14505746573E+02 -0.19715486947E+02  0.96477083971E+02  0.93310416650E+02 0.  0.
          5    1    1    2  502    0  0.35066881962E+02 -0.13472132420E+02 -0.16925179488E+03  0.17343426603E+03  0.47000000000E+01 0. -1.
         -5    1    1    2    0  502 -0.36436833463E+02  0.27977878992E+02 -0.67462055122E+01  0.46669110068E+02  0.47000000000E+01 0.  1.
        -11    1    3    3    0    0 -0.29106404113E+01 -0.42080619692E+02  0.20997766544E+02  0.47118537553E+02  0.00000000000E+00 0. -1.
         11    1    3    3    0    0  0.42805919126E+01  0.27574873120E+02 -0.40713253491E+02  0.49358546418E+02  0.00000000000E+00 0.  1.
<mgrwt>
<rscale>  0 0.12152119E+03</rscale>
<asrwt>0</asrwt>
<pdfrwt beam="2">  1        4 0.39407227E-01 0.13217488E+03</pdfrwt>
<pdfrwt beam="1">  1       -4 0.92974593E-02 0.13217488E+03</pdfrwt>
<totfact> 0.88389528E+02</totfact>
</mgrwt>
</event>
<event>
 8    1  0.1224355E-005  0.1427884E+03  0.7546771E-02  0.1220132E+00
          1   -1    0    0  501    0  0.00000000000E+00  0.00000000000E+00  0.31194110738E+03  0.31194110738E+03  0.00000000000E+00 0. -1.
         -1   -1    0    0    0  501 -0.00000000000E+00 -0.00000000000E+00 -0.53049300256E+02  0.53049300256E+02  0.00000000000E+00 0.  1.
         23    2    1    2    0    0  0.31434904756E+02  0.61427150205E+02  0.10816949016E+03  0.15737121354E+03  0.91124158321E+02 0.  0.
         23    2    1    2    0    0 -0.31434904756E+02 -0.61427150205E+02  0.15072231696E+03  0.20761919409E+03  0.12500825935E+03 0.  0.
          5    1    4    4  502    0 -0.82423309051E+01 -0.69791709984E+02  0.18208349569E+02  0.72749246012E+02  0.47000000000E+01 0. -1.
         -5    1    4    4    0  502 -0.23192573851E+02  0.83645597788E+01  0.13251396739E+03  0.13486994808E+03  0.47000000000E+01 0. -1.
        -11    1    3    3    0    0  0.48448548517E+02 -0.11372995005E+01  0.56704088729E+02  0.74591614690E+02  0.00000000000E+00 0. -1.
         11    1    3    3    0    0 -0.17013643761E+02  0.62564449706E+02  0.51465401433E+02  0.82779598850E+02  0.00000000000E+00 0.  1.
<mgrwt>
<rscale>  0 0.13506210E+03</rscale>
<asrwt>0</asrwt>
<pdfrwt beam="1">  1        1 0.47990938E-01 0.14278835E+03</pdfrwt>
<pdfrwt beam="2">  1       -1 0.81614310E-02 0.14278835E+03</pdfrwt>
<totfact> 0.66604272E+03</totfact>
</mgrwt>
</event>
<event>
 7    1  0.1224355E-005  0.2334542E+03  0.7546771E-02  0.1132199E+00
         -1   -1    0    0    0  501 -0.00000000000E+00  0.00000000000E+00  0.22524830564E+03  0.22524830564E+03  0.00000000000E+00 0.  1.
          1   -1    0    0  501    0  0.00000000000E+00 -0.00000000000E+00 -0.20921944938E+03  0.20921944938E+03  0.00000000000E+00 0. -1.
         23    2    1    2    0    0  0.16832614879E+03 -0.20628449160E+02  0.50755588330E+02  0.19844480581E+03  0.89693845518E+02 0.  0.
          5    1    1    2  502    0  0.24237820096E+02  0.21138811466E+02 -0.28615158038E+02  0.43304024556E+02  0.47000000000E+01 0. -1.
         -5    1    1    2    0  502 -0.19256396889E+03 -0.51036230669E+00 -0.61115740333E+01  0.19271892465E+03  0.47000000000E+01 0.  1.
        -11    1    3    3    0    0  0.29100430640E+02  0.31335309684E+02  0.17221909678E+02  0.46101310930E+02  0.00000000000E+00 0.  1.
         11    1    3    3    0    0  0.13922571815E+03 -0.51963758844E+02  0.33533678652E+02  0.15234349488E+03  0.00000000000E+00 0. -1.
<mgrwt>
<rscale>  0 0.22227393E+03</rscale>
<asrwt>0</asrwt>
<pdfrwt beam="2">  1        1 0.32187607E-01 0.23345425E+03</pdfrwt>
<pdfrwt beam="1">  1       -1 0.34653586E-01 0.23345425E+03</pdfrwt>
<totfact> 0.11005181E+03</totfact>
</mgrwt>
</event>
<event>
 8    1  0.1224355E-005  0.1299333E+03  0.7546771E-02  0.1241902E+00
         -1   -1    0    0    0  501 -0.00000000000E+00  0.00000000000E+00  0.83028239599E+02  0.83028239599E+02  0.00000000000E+00 0.  1.
          1   -1    0    0  501    0  0.00000000000E+00 -0.00000000000E+00 -0.19262700470E+03  0.19262700470E+03  0.00000000000E+00 0. -1.
         23    2    1    2    0    0 -0.32501783609E+02  0.14295945193E+02  0.12142424363E+02  0.97600274678E+02  0.90097919849E+02 0.  0.
         23    2    1    2    0    0  0.32501783609E+02 -0.14295945193E+02 -0.12174118947E+03  0.17805496962E+03  0.12498765942E+03 0.  0.
          5    1    4    4  502    0  0.24700313245E+02  0.34845599405E+01  0.21598909912E+02  0.33329424564E+02  0.47000000000E+01 0.  1.
         -5    1    4    4    0  502  0.78014703639E+01 -0.17780505133E+02 -0.14334009938E+03  0.14472554506E+03  0.47000000000E+01 0.  1.
        -11    1    3    3    0    0  0.16205105793E+02 -0.26835695596E+02 -0.46072499904E+01  0.31685750178E+02  0.00000000000E+00 0. -1.
         11    1    3    3    0    0 -0.48706889402E+02  0.41131640788E+02  0.16749674354E+02  0.65914524500E+02  0.00000000000E+00 0.  1.
<mgrwt>
<rscale>  0 0.12072751E+03</rscale>
<asrwt>0</asrwt>
<pdfrwt beam="2">  1        1 0.29634923E-01 0.12993327E+03</pdfrwt>
<pdfrwt beam="1">  1       -1 0.12773576E-01 0.12993327E+03</pdfrwt>
<totfact> 0.60637388E+03</totfact>
</mgrwt>
</event>
<event>
 8    1  0.1224355E-005  0.1346897E+03  0.7546771E-02  0.1233008E+00
         -3   -1    0    0    0  501 -0.00000000000E+00  0.00000000000E+00  0.30901383504E+02  0.30901383504E+02  0.00000000000E+00 0.  1.
          3   -1    0    0  501    0  0.00000000000E+00 -0.00000000000E+00 -0.51358129339E+03  0.51358129339E+03  0.00000000000E+00 0. -1.
         23    2    1    2    0    0  0.32446893172E+02  0.38226389119E+02 -0.12788051712E+03  0.16497784364E+03  0.91379453545E+02 0.  0.
         23    2    1    2    0    0 -0.32446893172E+02 -0.38226389119E+02 -0.35479939276E+03  0.37950483326E+03  0.12500900631E+03 0.  0.
          5    1    4    4  502    0 -0.37603938596E+02 -0.36668307380E+02 -0.44153711668E+02  0.68776894508E+02  0.47000000000E+01 0.  1.
         -5    1    4    4    0  502  0.51570454240E+01 -0.15580817397E+01 -0.31064568110E+03  0.31072793875E+03  0.47000000000E+01 0.  1.
        -11    1    3    3    0    0  0.64629905591E+02  0.24846552132E+02 -0.88996512882E+02  0.11275972311E+03  0.00000000000E+00 0. -1.
         11    1    3    3    0    0 -0.32183012419E+02  0.13379836987E+02 -0.38884004242E+02  0.52218120534E+02  0.00000000000E+00 0.  1.
<mgrwt>
<rscale>  0 0.12632833E+03</rscale>
<asrwt>0</asrwt>
<pdfrwt beam="2">  1        3 0.79012505E-01 0.13468968E+03</pdfrwt>
<pdfrwt beam="1">  1       -3 0.47540591E-02 0.13468968E+03</pdfrwt>
<totfact> 0.87422450E+02</totfact>
</mgrwt>
</event>
<event>
 8    1  0.1224355E-005  0.1260784E+03  0.7546771E-02  0.1248136E+00
          1   -1    0    0  501    0  0.00000000000E+00  0.00000000000E+00  0.67833296319E+03  0.67833296319E+03  0.00000000000E+00 0. -1.
         -1   -1    0    0    0  501 -0.00000000000E+00 -0.00000000000E+00 -0.23031007701E+02  0.23031007701E+02  0.00000000000E+00 0.  1.
         23    2    1    2    0    0 -0.29163480710E+01 -0.16182315711E+02  0.12392343732E+03  0.15523312627E+03  0.92032237549E+02 0.  0.
         23    2    1    2    0    0  0.29163480710E+01  0.16182315711E+02  0.53137851817E+03  0.54613084462E+03  0.12500158975E+03 0.  0.
          5    1    4    4  502    0  0.10374134410E+02 -0.18063444565E+02  0.10043939484E+02  0.23598334997E+02  0.47000000000E+01 0. -1.
         -5    1    4    4    0  502 -0.74577863386E+01  0.34245760276E+02  0.52133457869E+03  0.52253250962E+03  0.47000000000E+01 0. -1.
        -11    1    3    3    0    0 -0.22754307733E+02 -0.43409736069E+02  0.10665442906E+03  0.11737687568E+03  0.00000000000E+00 0.  1.
         11    1    3    3    0    0  0.19837959662E+02  0.27227420358E+02  0.17269008257E+02  0.37856250595E+02  0.00000000000E+00 0. -1.
<mgrwt>
<rscale>  0 0.11699611E+03</rscale>
<asrwt>0</asrwt>
<pdfrwt beam="1">  1        1 0.10435890E+00 0.12607843E+03</pdfrwt>
<pdfrwt beam="2">  1       -1 0.35432325E-02 0.12607843E+03</pdfrwt>
<totfact> 0.83143630E+03</totfact>
</mgrwt>
</event>
<event>
 8    1  0.1224355E-005  0.1336230E+03  0.7546771E-02  0.1234639E+00
          2   -1    0    0  501    0  0.00000000000E+00  0.00000000000E+00  0.52952585858E+03  0.52952585858E+03  0.00000000000E+00 0. -1.
         -2   -1    0    0    0  501 -0.00000000000E+00 -0.00000000000E+00 -0.28458495517E+02  0.28458495517E+02  0.00000000000E+00 0.  1.
         23    2    1    2    0    0 -0.28805238273E+02  0.37450216321E+02  0.14774413306E+03  0.18023787112E+03  0.91788348274E+02 0.  0.
         23    2    1    2    0    0  0.28805238273E+02 -0.37450216321E+02  0.35332323001E+03  0.37774648298E+03  0.12499136004E+03 0.  0.
          5    1    4    4  502    0 -0.31498994323E+01  0.26615234527E+02  0.25271804517E+03  0.25417866340E+03  0.47000000000E+01 0. -1.
         -5    1    4    4    0  502  0.31955137706E+02 -0.64065450848E+02  0.10060518484E+03  0.12356781958E+03  0.47000000000E+01 0. -1.
        -11    1    3    3    0    0  0.18180097920E+02  0.49171484081E+02  0.57425110504E+02  0.77755990918E+02  0.00000000000E+00 0.  1.
         11    1    3    3    0    0 -0.46985336193E+02 -0.11721267760E+02  0.90319022553E+02  0.10248188020E+03  0.00000000000E+00 0. -1.
<mgrwt>
<rscale>  0 0.12527577E+03</rscale>
<asrwt>0</asrwt>
<pdfrwt beam="1">  1        2 0.81465510E-01 0.13362298E+03</pdfrwt>
<pdfrwt beam="2">  1       -2 0.43782305E-02 0.13362298E+03</pdfrwt>
<totfact> 0.13240968E+04</totfact>
</mgrwt>
</event>
<event>
 8    1  0.1224355E-005  0.1269456E+03  0.7546771E-02  0.1246414E+00
          2   -1    0    0  501    0  0.00000000000E+00  0.00000000000E+00  0.55184093922E+03  0.55184093922E+03  0.00000000000E+00 0. -1.
         -2   -1    0    0    0  501 -0.00000000000E+00 -0.00000000000E+00 -0.23858071595E+02  0.23858071595E+02  0.00000000000E+00 0.  1.
         23    2    1    2    0    0  0.21189540631E+02  0.64918112603E+01  0.15490516421E+03  0.18161504780E+03  0.92180667398E+02 0.  0.
         23    2    1    2    0    0 -0.21189540631E+02 -0.64918112603E+01  0.37307770341E+03  0.39408396301E+03  0.12499622745E+03 0.  0.
          5    1    4    4  502    0  0.42975281360E+02 -0.33406138673E+02  0.20397233072E+03  0.21116260703E+03  0.47000000000E+01 0.  1.
         -5    1    4    4    0  502 -0.64164821991E+02  0.26914327413E+02  0.16910537269E+03  0.18292135598E+03  0.47000000000E+01 0.  1.
        -11    1    3    3    0    0 -0.42094010527E+01  0.33610807753E+02  0.15333313788E+02  0.37182199595E+02  0.00000000000E+00 0.  1.
         11    1    3    3    0    0  0.25398941683E+02 -0.27118996493E+02  0.13957185043E+03  0.14443284821E+03  0.00000000000E+00 0. -1.
<mgrwt>
<rscale>  0 0.11801134E+03</rscale>
<asrwt>0</asrwt>
<pdfrwt beam="1">  1        2 0.84898596E-01 0.12694565E+03</pdfrwt>
<pdfrwt beam="2">  1       -2 0.36704730E-02 0.12694565E+03</pdfrwt>
<totfact> 0.16365223E+04</totfact>
</mgrwt>
</event>
<event>
 8    1  0.1236970E-005  0.1328256E+03  0.7546771E-02  0.1239887E+00
          3   -1    0    0  501    0  0.00000000000E+00  0.00000000000E+00  0.88262823682E+02  0.88262823682E+02  0.00000000000E+00 0. -1.
         -3   -1    0    0    0  501 -0.00000000000E+00 -0.00000000000E+00 -0.15743344362E+03  0.15743344362E+03  0.00000000000E+00 0.  1.
         23    2    1    2    0    0  0.39777153521E+02 -0.20865556825E+02 -0.61408334758E+02  0.11264407135E+03  0.83066899713E+02 0.  0.
         23    2    1    2    0    0 -0.39777153521E+02  0.20865556825E+02 -0.77622851832E+01  0.13305219596E+03  0.12500016150E+03 0.  0.
          5    1    4    4  502    0  0.24518831261E+02  0.44029769231E+00  0.42157607526E+02  0.48997151150E+02  0.47000000000E+01 0. -1.
         -5    1    4    4    0  502 -0.64295984782E+02  0.20425259133E+02 -0.49919892709E+02  0.84055044809E+02  0.47000000000E+01 0. -1.
        -11    1    3    3    0    0  0.59633625816E+02  0.69817877227E+01 -0.35645003735E+02  0.69824644496E+02  0.00000000000E+00 0.  1.
         11    1    3    3    0    0 -0.19856472295E+02 -0.27847344548E+02 -0.25763331023E+02  0.42819426850E+02  0.00000000000E+00 0. -1.
<mgrwt>
<rscale>  0 0.12196716E+03</rscale>
<asrwt>0</asrwt>
<pdfrwt beam="1">  1        3 0.13578896E-01 0.13282558E+03</pdfrwt>
<pdfrwt beam="2">  1       -3 0.24220529E-01 0.13282558E+03</pdfrwt>
<totfact> 0.16037639E+03</totfact>
</mgrwt>
</event>
<event>
 8    1  0.1224355E-005  0.1260369E+03  0.7546771E-02  0.1248624E+00
         -1   -1    0    0    0  501 -0.00000000000E+00  0.00000000000E+00  0.99693518438E+02  0.99693518438E+02  0.00000000000E+00 0.  1.
          1   -1    0    0  501    0  0.00000000000E+00 -0.00000000000E+00 -0.12229155965E+03  0.12229155965E+03  0.00000000000E+00 0. -1.
         23    2    1    2    0    0  0.36261032926E+01  0.15837568407E+02  0.55684863671E+01  0.92839182597E+02  0.91236662514E+02 0.  0.
         23    2    1    2    0    0 -0.36261032926E+01 -0.15837568407E+02 -0.28166527583E+02  0.12914589549E+03  0.12498532653E+03 0.  0.
          5    1    4    4  502    0  0.28698056027E+02  0.10202079330E+01  0.41319090197E+02  0.50536882162E+02  0.47000000000E+01 0.  1.
         -5    1    4    4    0  502 -0.32324159320E+02 -0.16857776340E+02 -0.69485617779E+02  0.78609013332E+02  0.47000000000E+01 0.  1.
        -11    1    3    3    0    0 -0.23177866586E+02 -0.22091097436E+02 -0.21981956634E+02  0.38838595531E+02  0.00000000000E+00 0. -1.
         11    1    3    3    0    0  0.26803969879E+02  0.37928665843E+02  0.27550443001E+02  0.54000587065E+02  0.00000000000E+00 0.  1.
<mgrwt>
<rscale>  0 0.11671067E+03</rscale>
<asrwt>0</asrwt>
<pdfrwt beam="2">  1        1 0.18814086E-01 0.12603694E+03</pdfrwt>
<pdfrwt beam="1">  1       -1 0.15337464E-01 0.12603694E+03</pdfrwt>
<totfact> 0.80563180E+03</totfact>
</mgrwt>
</event>
<event>
 8    1  0.1224355E-005  0.1564663E+03  0.7546771E-02  0.1197424E+00
          2   -1    0    0  501    0  0.00000000000E+00  0.00000000000E+00  0.45350418772E+03  0.45350418772E+03  0.00000000000E+00 0. -1.
         -2   -1    0    0    0  501 -0.00000000000E+00 -0.00000000000E+00 -0.63774968741E+02  0.63774968741E+02  0.00000000000E+00 0.  1.
         23    2    1    2    0    0  0.64069271211E+02  0.68944917212E+02  0.62238968548E+02  0.15433070661E+03  0.10529009770E+03 0.  0.
         23    2    1    2    0    0 -0.64069271211E+02 -0.68944917212E+02  0.32749025043E+03  0.36294844985E+03  0.12499375984E+03 0.  0.
          5    1    4    4  502    0 -0.87932413040E+02 -0.28200672171E+02  0.28366824115E+03  0.29835741689E+03  0.47000000000E+01 0. -1.
         -5    1    4    4    0  502  0.23863141829E+02 -0.40744245041E+02  0.43822009280E+02  0.64591032963E+02  0.47000000000E+01 0. -1.
        -11    1    3    3    0    0  0.24700128090E+02 -0.16731197704E+02 -0.14114690398E+02  0.33003845068E+02  0.00000000000E+00 0.  1.
         11    1    3    3    0    0  0.39369143121E+02  0.85676114915E+02  0.76353658946E+02  0.12132686154E+03  0.00000000000E+00 0. -1.
<mgrwt>
<rscale>  0 0.15250812E+03</rscale>
<asrwt>0</asrwt>
<pdfrwt beam="1">  1        2 0.69769873E-01 0.15646633E+03</pdfrwt>
<pdfrwt beam="2">  1       -2 0.98115339E-02 0.15646633E+03</pdfrwt>
<totfact> 0.46165650E+03</totfact>
</mgrwt>
</event>
<event>
 8    1  0.1224355E-005  0.1575413E+03  0.7546771E-02  0.1200093E+00
          3   -1    0    0  501    0  0.00000000000E+00  0.00000000000E+00  0.22027759236E+03  0.22027759236E+03  0.00000000000E+00 0. -1.
         -3   -1    0    0    0  501 -0.00000000000E+00 -0.00000000000E+00 -0.14092409044E+03  0.14092409044E+03  0.00000000000E+00 0.  1.
         23    2    1    2    0    0  0.82272461836E+02  0.49250642197E+02 -0.66502455235E+02  0.14650839826E+03  0.88587530020E+02 0.  0.
         23    2    1    2    0    0 -0.82272461836E+02 -0.49250642197E+02  0.14585595715E+03  0.21469328454E+03  0.12499944983E+03 0.  0.
          5    1    4    4  502    0 -0.47011681039E+01 -0.14321330633E+02  0.12629000165E+03  0.12727315510E+03  0.47000000000E+01 0. -1.
         -5    1    4    4    0  502 -0.77571293732E+02 -0.34929311564E+02  0.19565955510E+02  0.87420129448E+02  0.47000000000E+01 0. -1.
        -11    1    3    3    0    0  0.95175281120E+02  0.24285809681E+02 -0.66115785029E+02  0.11840368118E+03  0.00000000000E+00 0.  1.
         11    1    3    3    0    0 -0.12902819283E+02  0.24964832517E+02 -0.38667020580E+00  0.28104717075E+02  0.00000000000E+00 0. -1.
<mgrwt>
<rscale>  0 0.15030943E+03</rscale>
<asrwt>0</asrwt>
<pdfrwt beam="1">  1        3 0.33888860E-01 0.15754125E+03</pdfrwt>
<pdfrwt beam="2">  1       -3 0.21680629E-01 0.15754125E+03</pdfrwt>
<totfact> 0.39342289E+02</totfact>
</mgrwt>
</event>
<event>
 8    1  0.1224355E-005  0.1310686E+03  0.7546771E-02  0.1235338E+00
         -1   -1    0    0    0  501 -0.00000000000E+00  0.00000000000E+00  0.33972970179E+03  0.33972970179E+03  0.00000000000E+00 0.  1.
          1   -1    0    0  501    0  0.00000000000E+00 -0.00000000000E+00 -0.49205732948E+02  0.49205732948E+02  0.00000000000E+00 0. -1.
         23    2    1    2    0    0  0.25631904011E+02 -0.29924088708E+02  0.20732103690E+03  0.23368815302E+03  0.10037776115E+03 0.  0.
         23    2    1    2    0    0 -0.25631904011E+02  0.29924088708E+02  0.83202931942E+02  0.15524728172E+03  0.12500617988E+03 0.  0.
          5    1    4    4  502    0 -0.34119659140E+02  0.69071644615E+02  0.85078733346E+02  0.11487177241E+03  0.47000000000E+01 0.  1.
         -5    1    4    4    0  502  0.84877551293E+01 -0.39147555907E+02 -0.18758014039E+01  0.40375509303E+02  0.47000000000E+01 0.  1.
        -11    1    3    3    0    0 -0.18633339996E+02  0.12861232374E+02  0.63722728996E+01  0.23520597771E+02  0.00000000000E+00 0. -1.
         11    1    3    3    0    0  0.44265244006E+02 -0.42785321082E+02  0.20094876400E+03  0.21016755525E+03  0.00000000000E+00 0.  1.
<mgrwt>
<rscale>  0 0.12482826E+03</rscale>
<asrwt>0</asrwt>
<pdfrwt beam="2">  1        1 0.75701130E-02 0.13106865E+03</pdfrwt>
<pdfrwt beam="1">  1       -1 0.52266106E-01 0.13106865E+03</pdfrwt>
<totfact> 0.34030703E+03</totfact>
</mgrwt>
</event>
<event>
 8    1  0.1224355E-005  0.1550472E+03  0.7546771E-02  0.1202712E+00
         -1   -1    0    0    0  501 -0.00000000000E+00  0.00000000000E+00  0.76532700235E+02  0.76532700235E+02  0.00000000000E+00 0.  1.
          1   -1    0    0  501    0  0.00000000000E+00 -0.00000000000E+00 -0.27790964109E+03  0.27790964109E+03  0.00000000000E+00 0. -1.
         23    2    1    2    0    0  0.78304801123E+02 -0.47858825226E+02 -0.13114107405E+03  0.18422858155E+03  0.91214472129E+02 0.  0.
         23    2    1    2    0    0 -0.78304801123E+02  0.47858825226E+02 -0.70235866804E+02  0.17021375977E+03  0.12497014844E+03 0.  0.
          5    1    4    4  502    0 -0.10218262934E+03  0.16401804562E+02 -0.18954183262E+02  0.10531695017E+03  0.47000000000E+01 0.  1.
         -5    1    4    4    0  502  0.23877828214E+02  0.31457020664E+02 -0.51281683543E+02  0.64896809600E+02  0.47000000000E+01 0.  1.
        -11    1    3    3    0    0  0.78756590366E+02 -0.71032835125E+02 -0.11098552601E+03  0.15351238118E+03  0.00000000000E+00 0.  1.
         11    1    3    3    0    0 -0.45178924342E+00  0.23174009899E+02 -0.20155548044E+02  0.30716200372E+02  0.00000000000E+00 0. -1.
<mgrwt>
<rscale>  0 0.14819193E+03</rscale>
<asrwt>0</asrwt>
<pdfrwt beam="2">  1        1 0.42755329E-01 0.15504724E+03</pdfrwt>
<pdfrwt beam="1">  1       -1 0.11774262E-01 0.15504724E+03</pdfrwt>
<totfact> 0.44112310E+03</totfact>
</mgrwt>
</event>
<event>
 7    1  0.1224355E-005  0.1299903E+03  0.7546771E-02  0.1262142E+00
         -2   -1    0    0    0  501 -0.00000000000E+00  0.00000000000E+00  0.15714112118E+03  0.15714112118E+03  0.00000000000E+00 0.  1.
          2   -1    0    0  501    0  0.00000000000E+00 -0.00000000000E+00 -0.52710847594E+03  0.52710847594E+03  0.00000000000E+00 0. -1.
         23    2    1    2    0    0 -0.45389850166E+02 -0.43067236038E+02 -0.51197819504E+03  0.52822262711E+03  0.11394053832E+03 0.  0.
          5    1    3    3  502    0  0.21992673277E+02 -0.19032371854E+02 -0.34813959681E+03  0.34938399752E+03  0.47000000000E+01 0. -1.
         -5    1    3    3    0  502 -0.67382523443E+02 -0.24034864183E+02 -0.16383859823E+03  0.17883862959E+03  0.47000000000E+01 0.  1.
        -11    1    1    2    0    0  0.10684865224E+02  0.20314627825E+02  0.56272909021E+02  0.60774095947E+02  0.00000000000E+00 0. -1.
         11    1    1    2    0    0  0.34704984943E+02  0.22752608212E+02  0.85737931264E+02  0.95252874066E+02  0.00000000000E+00 0.  1.
<mgrwt>
<rscale>  0 0.10915549E+03</rscale>
<asrwt>0</asrwt>
<pdfrwt beam="2">  1        2 0.81093613E-01 0.12999027E+03</pdfrwt>
<pdfrwt beam="1">  1       -2 0.24175557E-01 0.12999027E+03</pdfrwt>
<totfact> 0.88295733E+02</totfact>
</mgrwt>
</event>
<event>
 8    1  0.1224355E-005  0.1255832E+03  0.7546771E-02  0.1249909E+00
         -3   -1    0    0    0  501 -0.00000000000E+00  0.00000000000E+00  0.30318585885E+03  0.30318585885E+03  0.00000000000E+00 0.  1.
          3   -1    0    0  501    0  0.00000000000E+00 -0.00000000000E+00 -0.39197628562E+02  0.39197628562E+02  0.00000000000E+00 0. -1.
         23    2    1    2    0    0  0.95131292624E+01  0.75048181726E+01  0.12862980282E+03  0.15774047980E+03  0.90496468826E+02 0.  0.
         23    2    1    2    0    0 -0.95131292624E+01 -0.75048181726E+01  0.13535842747E+03  0.18464300761E+03  0.12499725777E+03 0.  0.
          5    1    4    4  502    0  0.38701156311E+02 -0.42301422332E+02  0.33398378463E+02  0.66518655391E+02  0.47000000000E+01 0.  1.
         -5    1    4    4    0  502 -0.48214285573E+02  0.34796604159E+02  0.10196004901E+03  0.11812435222E+03  0.47000000000E+01 0.  1.
        -11    1    3    3    0    0 -0.11635346234E+01  0.43519177331E+02  0.31894371764E+02  0.53967801128E+02  0.00000000000E+00 0. -1.
         11    1    3    3    0    0  0.10676663886E+02 -0.36014359158E+02  0.96735431057E+02  0.10377267867E+03  0.00000000000E+00 0.  1.
<mgrwt>
<rscale>  0 0.11596346E+03</rscale>
<asrwt>0</asrwt>
<pdfrwt beam="2">  1        3 0.60304046E-02 0.12558319E+03</pdfrwt>
<pdfrwt beam="1">  1       -3 0.46643977E-01 0.12558319E+03</pdfrwt>
<totfact> 0.17557290E+03</totfact>
</mgrwt>
</event>
<event>
 8    1  0.1224355E-005  0.1266266E+03  0.7546771E-02  0.1247907E+00
         -1   -1    0    0    0  501 -0.00000000000E+00  0.00000000000E+00  0.10660854338E+03  0.10660854338E+03  0.00000000000E+00 0.  1.
          1   -1    0    0  501    0  0.00000000000E+00 -0.00000000000E+00 -0.12897562933E+03  0.12897562933E+03  0.00000000000E+00 0. -1.
         23    2    1    2    0    0 -0.20101962473E+02 -0.24130183172E+01  0.31591476616E+02  0.97940382203E+02  0.90467593749E+02 0.  0.
         23    2    1    2    0    0  0.20101962473E+02  0.24130183172E+01 -0.53958562564E+02  0.13764379051E+03  0.12499750013E+03 0.  0.
          5    1    4    4  502    0  0.12512690165E+02  0.63017978691E+02 -0.19245613567E+02  0.67233300491E+02  0.47000000000E+01 0. -1.
         -5    1    4    4    0  502  0.75892723081E+01 -0.60604960373E+02 -0.34712948997E+02  0.70410490015E+02  0.47000000000E+01 0. -1.
        -11    1    3    3    0    0  0.23529189636E+02 -0.19883538646E+02 -0.12736787022E+02  0.33334720903E+02  0.00000000000E+00 0. -1.
         11    1    3    3    0    0 -0.43631152110E+02  0.17470520328E+02  0.44328263638E+02  0.64605661301E+02  0.00000000000E+00 0.  1.
<mgrwt>
<rscale>  0 0.11713048E+03</rscale>
<asrwt>0</asrwt>
<pdfrwt beam="2">  1        1 0.19842404E-01 0.12662656E+03</pdfrwt>
<pdfrwt beam="1">  1       -1 0.16401315E-01 0.12662656E+03</pdfrwt>
<totfact> 0.67790161E+03</totfact>
</mgrwt>
</event>
<event>
 8    1  0.1224355E-005  0.1252469E+03  0.7546771E-02  0.1251119E+00
         -2   -1    0    0    0  501 -0.00000000000E+00  0.00000000000E+00  0.49890884836E+02  0.49890884836E+02  0.00000000000E+00 0.  1.
          2   -1    0    0  501    0  0.00000000000E+00 -0.00000000000E+00 -0.25997531633E+03  0.25997531633E+03  0.00000000000E+00 0. -1.
         23    2    1    2    0    0  0.47989870971E+01  0.62223525655E+01 -0.39262831012E+02  0.98048344367E+02  0.89499497123E+02 0.  0.
         23    2    1    2    0    0 -0.47989870971E+01 -0.62223525655E+01 -0.17082160048E+03  0.21181785680E+03  0.12500014928E+03 0.  0.
          5    1    4    4  502    0  0.28099710020E+02  0.51079020207E+02 -0.89756206318E+02  0.10713041856E+03  0.47000000000E+01 0. -1.
         -5    1    4    4    0  502 -0.32898697117E+02 -0.57301372773E+02 -0.81065394163E+02  0.10468743824E+03  0.47000000000E+01 0. -1.
        -11    1    3    3    0    0 -0.13812967247E+02  0.28208921152E+02  0.16355729627E+02  0.35412585169E+02  0.00000000000E+00 0.  1.
         11    1    3    3    0    0  0.18611954344E+02 -0.21986568587E+02 -0.55618560639E+02  0.62635759198E+02  0.00000000000E+00 0. -1.
<mgrwt>
<rscale>  0 0.11526495E+03</rscale>
<asrwt>0</asrwt>
<pdfrwt beam="2">  1        2 0.39996203E-01 0.12524690E+03</pdfrwt>
<pdfrwt beam="1">  1       -2 0.76755207E-02 0.12524690E+03</pdfrwt>
<totfact> 0.12061608E+04</totfact>
</mgrwt>
</event>
<event>
 8    1  0.1224355E-005  0.1414217E+03  0.7546771E-02  0.1222110E+00
          1   -1    0    0  501    0  0.00000000000E+00  0.00000000000E+00  0.61865673649E+03  0.61865673649E+03  0.00000000000E+00 0. -1.
         -1   -1    0    0    0  501 -0.00000000000E+00 -0.00000000000E+00 -0.26384659555E+02  0.26384659555E+02  0.00000000000E+00 0.  1.
         23    2    1    2    0    0  0.61247083420E+02 -0.25005899976E+02  0.23180190707E+03  0.25782204345E+03  0.91452619997E+02 0.  0.
         23    2    1    2    0    0 -0.61247083420E+02  0.25005899976E+02  0.36047016986E+03  0.38721935260E+03  0.12499433349E+03 0.  0.
          5    1    4    4  502    0 -0.77988286585E+02  0.12051782884E+02  0.35651963440E+03  0.36517907666E+03  0.47000000000E+01 0.  1.
         -5    1    4    4    0  502  0.16741203165E+02  0.12954117092E+02  0.39505354606E+01  0.22040275939E+02  0.47000000000E+01 0.  1.
        -11    1    3    3    0    0  0.12498516539E+02  0.24597498099E+02  0.17877553824E+02  0.32876386042E+02  0.00000000000E+00 0.  1.
         11    1    3    3    0    0  0.48748566881E+02 -0.49603398075E+02  0.21392435325E+03  0.22494565741E+03  0.00000000000E+00 0. -1.
<mgrwt>
<rscale>  0 0.13366985E+03</rscale>
<asrwt>0</asrwt>
<pdfrwt beam="1">  1        1 0.95177949E-01 0.14142165E+03</pdfrwt>
<pdfrwt beam="2">  1       -1 0.40591788E-02 0.14142165E+03</pdfrwt>
<totfact> 0.77989312E+03</totfact>
</mgrwt>
</event>
<event>
 8    1  0.1224355E-005  0.1435076E+03  0.7546771E-02  0.1219991E+00
         -3   -1    0    0    0  501 -0.00000000000E+00  0.00000000000E+00  0.10833109604E+02  0.10833109604E+02  0.00000000000E+00 0.  1.
          3   -1    0    0  501    0  0.00000000000E+00 -0.00000000000E+00 -0.15339875988E+04  0.15339875988E+04  0.00000000000E+00 0. -1.
         23    2    1    2    0    0 -0.67447443435E+02 -0.79888465952E+01 -0.59232481562E+03  0.60299360104E+03  0.90219822610E+02 0.  0.
         23    2    1    2    0    0  0.67447443435E+02  0.79888465952E+01 -0.93082967354E+03  0.94182710734E+03  0.12641771898E+03 0.  0.
          5    1    4    4  502    0  0.16921523738E+02 -0.27161372196E+02 -0.75102746962E+03  0.75172363820E+03  0.47000000000E+01 0. -1.
         -5    1    4    4    0  502  0.50525919697E+02  0.35150218791E+02 -0.17980220392E+03  0.19010346914E+03  0.47000000000E+01 0.  1.
        -11    1    3    3    0    0 -0.30192441436E+02  0.41101569496E+02 -0.24643566472E+03  0.25165742464E+03  0.00000000000E+00 0.  1.
         11    1    3    3    0    0 -0.37255001999E+02 -0.49090416091E+02 -0.34588915091E+03  0.35133617639E+03  0.00000000000E+00 0. -1.
<mgrwt>
<rscale>  0 0.13516240E+03</rscale>
<asrwt>0</asrwt>
<pdfrwt beam="2">  1        3 0.23599806E+00 0.14350756E+03</pdfrwt>
<pdfrwt beam="1">  1       -3 0.16666325E-02 0.14350756E+03</pdfrwt>
<totfact> 0.29709276E+02</totfact>
</mgrwt>
</event>
<event>
 8    1  0.1224355E-005  0.1136844E+03  0.7546771E-02  0.1262594E+00
          2   -1    0    0  501    0  0.00000000000E+00  0.00000000000E+00  0.47538898294E+03  0.47538898294E+03  0.00000000000E+00 0. -1.
         -2   -1    0    0    0  501 -0.00000000000E+00 -0.00000000000E+00 -0.25932087520E+02  0.25932087520E+02  0.00000000000E+00 0.  1.
         23    2    1    2    0    0  0.26403514561E+02  0.90765059757E+01  0.12464566098E+03  0.15718959516E+03  0.91610586094E+02 0.  0.
         23    2    1    2    0    0 -0.26403514561E+02 -0.90765059757E+01  0.32481123444E+03  0.34413147530E+03  0.11020256680E+03 0.  0.
          5    1    4    4  502    0 -0.25450521941E+01  0.41654950098E+02  0.23066496872E+03  0.23445688293E+03  0.47000000000E+01 0. -1.
         -5    1    4    4    0  502 -0.23858462367E+02 -0.50731456074E+02  0.94146265719E+02  0.10967459237E+03  0.47000000000E+01 0.  1.
        -11    1    3    3    0    0  0.38979913403E+01  0.45245311977E+02  0.94981276727E+02  0.10527951140E+03  0.00000000000E+00 0.  1.
         11    1    3    3    0    0  0.22505523221E+02 -0.36168806001E+02  0.29664384253E+02  0.51910083761E+02  0.00000000000E+00 0. -1.
<mgrwt>
<rscale>  0 0.10891400E+03</rscale>
<asrwt>0</asrwt>
<pdfrwt beam="1">  1        2 0.73136760E-01 0.11368436E+03</pdfrwt>
<pdfrwt beam="2">  1       -2 0.39895523E-02 0.11368436E+03</pdfrwt>
<totfact> 0.16881595E+04</totfact>
</mgrwt>
</event>
<event>
 8    1  0.1224355E-005  0.1551429E+03  0.7546771E-02  0.1202416E+00
          1   -1    0    0  501    0  0.00000000000E+00  0.00000000000E+00  0.52164434050E+03  0.52164434050E+03  0.00000000000E+00 0. -1.
         -1   -1    0    0    0  501 -0.00000000000E+00 -0.00000000000E+00 -0.43199027720E+02  0.43199027720E+02  0.00000000000E+00 0.  1.
         23    2    1    2    0    0 -0.69114238014E+02  0.60557264543E+02  0.13204744233E+03  0.18528993476E+03  0.91934067190E+02 0.  0.
         23    2    1    2    0    0  0.69114238014E+02 -0.60557264543E+02  0.34639787045E+03  0.37955343346E+03  0.12500145606E+03 0.  0.
          5    1    4    4  502    0  0.71876300933E+02 -0.73935467071E+02  0.34980001949E+03  0.36471194053E+03  0.47000000000E+01 0. -1.
         -5    1    4    4    0  502 -0.27620629184E+01  0.13378202528E+02 -0.34021490448E+01  0.14841492936E+02  0.47000000000E+01 0. -1.
        -11    1    3    3    0    0 -0.38721444475E+01 -0.22941430165E+02  0.16578041446E+02  0.28568062217E+02  0.00000000000E+00 0.  1.
         11    1    3    3    0    0 -0.65242093567E+02  0.83498694709E+02  0.11546940089E+03  0.15672187254E+03  0.00000000000E+00 0. -1.
<mgrwt>
<rscale>  0 0.14842991E+03</rscale>
<asrwt>0</asrwt>
<pdfrwt beam="1">  1        1 0.80252971E-01 0.15514292E+03</pdfrwt>
<pdfrwt beam="2">  1       -1 0.66460046E-02 0.15514292E+03</pdfrwt>
<totfact> 0.47421923E+03</totfact>
</mgrwt>
</event>
<event>
 8    1  0.1224355E-005  0.1429771E+03  0.7546771E-02  0.1219964E+00
          1   -1    0    0  501    0  0.00000000000E+00  0.00000000000E+00  0.52371819047E+03  0.52371819047E+03  0.00000000000E+00 0. -1.
         -1   -1    0    0    0  501 -0.00000000000E+00 -0.00000000000E+00 -0.31592786968E+02  0.31592786968E+02  0.00000000000E+00 0.  1.
         23    2    1    2    0    0  0.69389848431E+02 -0.11974443034E+01  0.21429491374E+03  0.24284943092E+03  0.90758752207E+02 0.  0.
         23    2    1    2    0    0 -0.69389848431E+02  0.11974443034E+01  0.27783048976E+03  0.31246154653E+03  0.12500420824E+03 0.  0.
          5    1    4    4  502    0 -0.85574326558E+02  0.42169938217E+02  0.15708870511E+03  0.18384836232E+03  0.47000000000E+01 0.  1.
         -5    1    4    4    0  502  0.16184478127E+02 -0.40972493914E+02  0.12074178465E+03  0.12861318420E+03  0.47000000000E+01 0.  1.
        -11    1    3    3    0    0  0.30966287371E+02 -0.56460715636E+01  0.73538008183E+01  0.32324409725E+02  0.00000000000E+00 0.  1.
         11    1    3    3    0    0  0.38423561060E+02  0.44486272603E+01  0.20694111292E+03  0.21052502119E+03  0.00000000000E+00 0. -1.
<mgrwt>
<rscale>  0 0.13518104E+03</rscale>
<asrwt>0</asrwt>
<pdfrwt beam="1">  1        1 0.80572023E-01 0.14297705E+03</pdfrwt>
<pdfrwt beam="2">  1       -1 0.48604292E-02 0.14297705E+03</pdfrwt>
<totfact> 0.74862176E+03</totfact>
</mgrwt>
</event>
<event>
 8    1  0.1224355E-005  0.1508168E+03  0.7546771E-02  0.1208544E+00
         -1   -1    0    0    0  501 -0.00000000000E+00  0.00000000000E+00  0.30852865055E+03  0.30852865055E+03  0.00000000000E+00 0.  1.
          1   -1    0    0  501    0  0.00000000000E+00 -0.00000000000E+00 -0.61512666280E+02  0.61512666280E+02  0.00000000000E+00 0. -1.
         23    2    1    2    0    0  0.70941463892E+01 -0.84077884789E+02  0.12458182811E+03  0.17578420264E+03  0.90884742276E+02 0.  0.
         23    2    1    2    0    0 -0.70941463892E+01  0.84077884789E+02  0.12243415616E+03  0.19425711419E+03  0.12500514468E+03 0.  0.
          5    1    4    4  502    0  0.14255247062E+01  0.27538637007E+02 -0.24080738578E+02  0.36910440519E+02  0.47000000000E+01 0. -1.
         -5    1    4    4    0  502 -0.85196710954E+01  0.56539247782E+02  0.14651489474E+03  0.15734667367E+03  0.47000000000E+01 0. -1.
        -11    1    3    3    0    0  0.46972924416E+02 -0.33411025553E+02  0.74182492784E+02  0.93945699701E+02  0.00000000000E+00 0.  1.
         11    1    3    3    0    0 -0.39878778026E+02 -0.50666859236E+02  0.50399335322E+02  0.81838502934E+02  0.00000000000E+00 0. -1.
<mgrwt>
<rscale>  0 0.14361668E+03</rscale>
<asrwt>0</asrwt>
<pdfrwt beam="2">  1        1 0.94634873E-02 0.15081679E+03</pdfrwt>
<pdfrwt beam="1">  1       -1 0.47465945E-01 0.15081679E+03</pdfrwt>
<totfact> 0.30323902E+03</totfact>
</mgrwt>
</event>
<event>
 8    1  0.1224355E-005  0.1359240E+03  0.7546771E-02  0.1231534E+00
          1   -1    0    0  501    0  0.00000000000E+00  0.00000000000E+00  0.21807422793E+03  0.21807422793E+03  0.00000000000E+00 0. -1.
         -1   -1    0    0    0  501 -0.00000000000E+00 -0.00000000000E+00 -0.66307911860E+02  0.66307911860E+02  0.00000000000E+00 0.  1.
         23    2    1    2    0    0 -0.13690676867E+02 -0.51752181765E+02  0.63553958641E+02  0.12234279810E+03  0.89793828510E+02 0.  0.
         23    2    1    2    0    0  0.13690676867E+02  0.51752181765E+02  0.88212357427E+02  0.16203934168E+03  0.12493840603E+03 0.  0.
          5    1    4    4  502    0  0.37932837938E+02  0.65418382894E+02  0.70310127453E+01  0.76091984826E+02  0.47000000000E+01 0.  1.
         -5    1    4    4    0  502 -0.24242161071E+02 -0.13666201129E+02  0.81181344681E+02  0.85947356859E+02  0.47000000000E+01 0.  1.
        -11    1    3    3    0    0 -0.26306346202E+02 -0.64889128805E+01 -0.14879218192E+02  0.30911502307E+02  0.00000000000E+00 0.  1.
         11    1    3    3    0    0  0.12615669335E+02 -0.45263268885E+02  0.78433176833E+02  0.91431295797E+02  0.00000000000E+00 0. -1.
<mgrwt>
<rscale>  0 0.12728959E+03</rscale>
<asrwt>0</asrwt>
<pdfrwt beam="1">  1        1 0.33549881E-01 0.13592398E+03</pdfrwt>
<pdfrwt beam="2">  1       -1 0.10201217E-01 0.13592398E+03</pdfrwt>
<totfact> 0.73678162E+03</totfact>
</mgrwt>
</event>
<event>
 8    1  0.1224355E-005  0.1524061E+03  0.7546771E-02  0.1202562E+00
          2   -1    0    0  501    0  0.00000000000E+00  0.00000000000E+00  0.54169865654E+03  0.54169865654E+03  0.00000000000E+00 0. -1.
         -2   -1    0    0    0  501 -0.00000000000E+00 -0.00000000000E+00 -0.62392308254E+02  0.62392308254E+02  0.00000000000E+00 0.  1.
         23    2    1    2    0    0 -0.63963708709E+02 -0.78220890280E+02  0.45122167591E+02  0.14393498302E+03  0.92040239134E+02 0.  0.
         23    2    1    2    0    0  0.63963708709E+02  0.78220890280E+02  0.43418418070E+03  0.46015598178E+03  0.11409540347E+03 0.  0.
          5    1    4    4  502    0  0.30140732928E+02  0.99968627479E+02  0.36814924410E+03  0.38269850561E+03  0.47000000000E+01 0. -1.
         -5    1    4    4    0  502  0.33822975781E+02 -0.21747737200E+02  0.66034936599E+02  0.77457476176E+02  0.47000000000E+01 0.  1.
        -11    1    3    3    0    0 -0.82142681177E+02 -0.82676948411E+02  0.45759108890E+02  0.12520700426E+03  0.00000000000E+00 0.  1.
         11    1    3    3    0    0  0.18178972468E+02  0.44560581311E+01 -0.63694129826E+00  0.18727978756E+02  0.00000000000E+00 0. -1.
<mgrwt>
<rscale>  0 0.14831245E+03</rscale>
<asrwt>0</asrwt>
<pdfrwt beam="1">  1        2 0.83338252E-01 0.15240612E+03</pdfrwt>
<pdfrwt beam="2">  1       -2 0.95988170E-02 0.15240612E+03</pdfrwt>
<totfact> 0.39235849E+03</totfact>
</mgrwt>
</event>
<event>
 8    1  0.1224355E-005  0.3420950E+03  0.7546771E-02  0.1067111E+00
          4   -1    0    0  501    0  0.00000000000E+00  0.00000000000E+00  0.13741118157E+04  0.13741118157E+04  0.00000000000E+00 0.  1.
         -4   -1    0    0    0  501 -0.00000000000E+00 -0.00000000000E+00 -0.84124949413E+02  0.84124949413E+02  0.00000000000E+00 0. -1.
         23    2    1    2    0    0 -0.21386544161E+03 -0.23592492181E+03  0.73881646808E+03  0.80953204535E+03  0.89963120840E+02 0.  0.
         23    2    1    2    0    0  0.21386544161E+03  0.23592492181E+03  0.55117039821E+03  0.64870471976E+03  0.12502003731E+03 0.  0.
          5    1    4    4  502    0  0.19094742752E+01 -0.72460050789E+01  0.62652930264E+02  0.63274247149E+02  0.47000000000E+01 0.  1.
         -5    1    4    4    0  502  0.21195596733E+03  0.24317092689E+03  0.48851746795E+03  0.58543047261E+03  0.47000000000E+01 0.  1.
        -11    1    3    3    0    0 -0.10354487920E+03 -0.51971852093E+02  0.28157837251E+03  0.30448151879E+03  0.00000000000E+00 0.  1.
         11    1    3    3    0    0 -0.11032056241E+03 -0.18395306972E+03  0.45723809556E+03  0.50505052656E+03  0.00000000000E+00 0. -1.
<mgrwt>
<rscale>  0 0.33926030E+03</rscale>
<asrwt>0</asrwt>
<pdfrwt beam="1">  1        4 0.21140180E+00 0.34209502E+03</pdfrwt>
<pdfrwt beam="2">  1       -4 0.12942301E-01 0.34209502E+03</pdfrwt>
<totfact> 0.11010996E+01</totfact>
</mgrwt>
</event>
<event>
 8    1  0.1224355E-005  0.1575504E+03  0.7546771E-02  0.1199045E+00
         -1   -1    0    0    0  501 -0.00000000000E+00  0.00000000000E+00  0.16636228639E+02  0.16636228639E+02  0.00000000000E+00 0.  1.
          1   -1    0    0  501    0  0.00000000000E+00 -0.00000000000E+00 -0.13733593020E+04  0.13733593020E+04  0.00000000000E+00 0. -1.
         23    2    1    2    0    0  0.89600904275E+02  0.34198671334E+02 -0.43942527184E+03  0.45926604659E+03  0.92913189821E+02 0.  0.
         23    2    1    2    0    0 -0.89600904275E+02 -0.34198671334E+02 -0.91729780147E+03  0.93072948400E+03  0.12499697856E+03 0.  0.
          5    1    4    4  502    0 -0.86146880834E+02  0.29426831864E+02 -0.61812458885E+03  0.62480982775E+03  0.47000000000E+01 0. -1.
         -5    1    4    4    0  502 -0.34540234407E+01 -0.63625503198E+02 -0.29917321261E+03  0.30591965625E+03  0.47000000000E+01 0. -1.
        -11    1    3    3    0    0  0.18096148360E+02 -0.31195472333E+02 -0.13889398214E+03  0.14349970855E+03  0.00000000000E+00 0.  1.
         11    1    3    3    0    0  0.71504755915E+02  0.65394143666E+02 -0.30053128971E+03  0.31576633804E+03  0.00000000000E+00 0. -1.
<mgrwt>
<rscale>  0 0.15116829E+03</rscale>
<asrwt>0</asrwt>
<pdfrwt beam="2">  1        1 0.21128602E+00 0.15755036E+03</pdfrwt>
<pdfrwt beam="1">  1       -1 0.25594201E-02 0.15755036E+03</pdfrwt>
<totfact> 0.41043442E+03</totfact>
</mgrwt>
</event>
<event>
 8    1  0.1224355E-005  0.1370784E+03  0.7546771E-02  0.1229012E+00
         -1   -1    0    0    0  501 -0.00000000000E+00  0.00000000000E+00  0.88420256725E+02  0.88420256725E+02  0.00000000000E+00 0.  1.
          1   -1    0    0  501    0  0.00000000000E+00 -0.00000000000E+00 -0.18632531481E+03  0.18632531481E+03  0.00000000000E+00 0. -1.
         23    2    1    2    0    0 -0.46116961646E+02  0.32222525289E+02 -0.18860384187E+01  0.10738330668E+03  0.91446990796E+02 0.  0.
         23    2    1    2    0    0  0.46116961646E+02 -0.32222525289E+02 -0.96019019664E+02  0.16736226485E+03  0.12500164107E+03 0.  0.
          5    1    4    4  502    0  0.86681369718E+01 -0.58605571939E+02  0.15743147289E+01  0.59450131436E+02  0.47000000000E+01 0.  1.
         -5    1    4    4    0  502  0.37448824675E+02  0.26383046650E+02 -0.97593334393E+02  0.10791213341E+03  0.47000000000E+01 0.  1.
        -11    1    3    3    0    0 -0.24460698146E+02 -0.28967277914E+01  0.41026710544E+02  0.47852980720E+02  0.00000000000E+00 0.  1.
         11    1    3    3    0    0 -0.21656263500E+02  0.35119253080E+02 -0.42912748962E+02  0.59530325963E+02  0.00000000000E+00 0. -1.
<mgrwt>
<rscale>  0 0.12895676E+03</rscale>
<asrwt>0</asrwt>
<pdfrwt beam="2">  1        1 0.28665433E-01 0.13707836E+03</pdfrwt>
<pdfrwt beam="1">  1       -1 0.13603117E-01 0.13707836E+03</pdfrwt>
<totfact> 0.57520039E+03</totfact>
</mgrwt>
</event>
<event>
 8    1  0.1224355E-005  0.1251016E+03  0.7546771E-02  0.1250840E+00
          2   -1    0    0  501    0  0.00000000000E+00  0.00000000000E+00  0.20109002607E+03  0.20109002607E+03  0.00000000000E+00 0. -1.
         -2   -1    0    0    0  501 -0.00000000000E+00 -0.00000000000E+00 -0.58584817996E+02  0.58584817996E+02  0.00000000000E+00 0.  1.
         23    2    1    2    0    0 -0.21239882043E+01  0.43161160420E+01  0.45918091557E+02  0.10162588432E+03  0.90532916928E+02 0.  0.
         23    2    1    2    0    0  0.21239882043E+01 -0.43161160420E+01  0.96587116521E+02  0.15804895975E+03  0.12500904934E+03 0.  0.
          5    1    4    4  502    0 -0.16873954035E+02 -0.27788546271E+02  0.11685098253E+03  0.12138029390E+03  0.47000000000E+01 0. -1.
         -5    1    4    4    0  502  0.18997942240E+02  0.23472430229E+02 -0.20263866007E+02  0.36668665857E+02  0.47000000000E+01 0. -1.
        -11    1    3    3    0    0 -0.74679798368E+01 -0.34129028381E+02 -0.73647475537E+01  0.35704352782E+02  0.00000000000E+00 0.  1.
         11    1    3    3    0    0  0.53439916325E+01  0.38445144423E+02  0.53282839111E+02  0.65921531535E+02  0.00000000000E+00 0. -1.
<mgrwt>
<rscale>  0 0.11542550E+03</rscale>
<asrwt>0</asrwt>
<pdfrwt beam="1">  1        2 0.30936927E-01 0.12510157E+03</pdfrwt>
<pdfrwt beam="2">  1       -2 0.90130490E-02 0.12510157E+03</pdfrwt>
<totfact> 0.12379812E+04</totfact>
</mgrwt>
</event>
<event>
 8    1  0.1224355E-005  0.1387266E+03  0.7546771E-02  0.1226161E+00
          1   -1    0    0  501    0  0.00000000000E+00  0.00000000000E+00  0.15669939089E+03  0.15669939089E+03  0.00000000000E+00 0. -1.
         -1   -1    0    0    0  501 -0.00000000000E+00 -0.00000000000E+00 -0.12073495549E+03  0.12073495549E+03  0.00000000000E+00 0.  1.
         23    2    1    2    0    0 -0.43417698726E+02  0.41706848072E+02 -0.42770316949E+02  0.11792185508E+03  0.91933161350E+02 0.  0.
         23    2    1    2    0    0  0.43417698726E+02 -0.41706848072E+02  0.78734752347E+02  0.15951249130E+03  0.12498206237E+03 0.  0.
          5    1    4    4  502    0  0.30900990173E+02 -0.71669597686E+02  0.44627332444E+01  0.78316080177E+02  0.47000000000E+01 0. -1.
         -5    1    4    4    0  502  0.12516708553E+02  0.29962749614E+02  0.74272019103E+02  0.81196411122E+02  0.47000000000E+01 0. -1.
        -11    1    3    3    0    0 -0.64485320944E+02  0.55408918313E+01 -0.11644419663E+02  0.65762075765E+02  0.00000000000E+00 0. -1.
         11    1    3    3    0    0  0.21067622219E+02  0.36165956241E+02 -0.31125897286E+02  0.52159779319E+02  0.00000000000E+00 0.  1.
<mgrwt>
<rscale>  0 0.13087642E+03</rscale>
<asrwt>0</asrwt>
<pdfrwt beam="1">  1        1 0.24107599E-01 0.13872661E+03</pdfrwt>
<pdfrwt beam="2">  1       -1 0.18574609E-01 0.13872661E+03</pdfrwt>
<totfact> 0.43776399E+03</totfact>
</mgrwt>
</event>
<event>
 8    1  0.1224355E-005  0.1521604E+03  0.7546771E-02  0.1206339E+00
         -1   -1    0    0    0  501 -0.00000000000E+00  0.00000000000E+00  0.11212477621E+02  0.11212477621E+02  0.00000000000E+00 0.  1.
          1   -1    0    0  501    0  0.00000000000E+00 -0.00000000000E+00 -0.20799713545E+04  0.20799713545E+04  0.00000000000E+00 0. -1.
         23    2    1    2    0    0 -0.82754116245E+00 -0.86783649726E+02 -0.52962776833E+03  0.54454963294E+03  0.92177237204E+02 0.  0.
         23    2    1    2    0    0  0.82754116245E+00  0.86783649726E+02 -0.15391311085E+04  0.15466341992E+04  0.12498275924E+03 0.  0.
          5    1    4    4  502    0 -0.21979814853E+02 -0.27128541717E+02 -0.30049348524E+03  0.30255163974E+03  0.47000000000E+01 0. -1.
         -5    1    4    4    0  502  0.22807356016E+02  0.11391219144E+03 -0.12386376233E+04  0.12440825594E+04  0.47000000000E+01 0. -1.
        -11    1    3    3    0    0  0.15557196936E+02 -0.10259522058E+03 -0.44093944179E+03  0.45298498539E+03  0.00000000000E+00 0. -1.
         11    1    3    3    0    0 -0.16384738099E+02  0.15811570855E+02 -0.88688326539E+02  0.91564647544E+02  0.00000000000E+00 0.  1.
<mgrwt>
<rscale>  0 0.14532440E+03</rscale>
<asrwt>0</asrwt>
<pdfrwt beam="2">  1        1 0.31999548E+00 0.15216037E+03</pdfrwt>
<pdfrwt beam="1">  1       -1 0.17249972E-02 0.15216037E+03</pdfrwt>
<totfact> 0.25485200E+03</totfact>
</mgrwt>
</event>
<event>
 8    1  0.1224355E-005  0.1653896E+03  0.7546771E-02  0.1189781E+00
         -2   -1    0    0    0  501 -0.00000000000E+00  0.00000000000E+00  0.48005308126E+02  0.48005308126E+02  0.00000000000E+00 0.  1.
          2   -1    0    0  501    0  0.00000000000E+00 -0.00000000000E+00 -0.75654867362E+03  0.75654867362E+03  0.00000000000E+00 0. -1.
         23    2    1    2    0    0  0.10537780611E+03 -0.24936304841E+02 -0.98147287168E+02  0.17214817197E+03  0.90971434044E+02 0.  0.
         23    2    1    2    0    0 -0.10537780611E+03  0.24936304841E+02 -0.61039607833E+03  0.63240580978E+03  0.12500973757E+03 0.  0.
          5    1    4    4  502    0  0.27278915123E+02  0.15962039094E+02 -0.13634777849E+03  0.14004189588E+03  0.47000000000E+01 0.  1.
         -5    1    4    4    0  502 -0.13265672124E+03  0.89742657469E+01 -0.47404829984E+03  0.49236391391E+03  0.47000000000E+01 0.  1.
        -11    1    3    3    0    0  0.10799259744E+03 -0.92162890245E+01 -0.46216841608E+02  0.11782757544E+03  0.00000000000E+00 0.  1.
         11    1    3    3    0    0 -0.26147913271E+01 -0.15720015817E+02 -0.51930445560E+02  0.54320596527E+02  0.00000000000E+00 0. -1.
<mgrwt>
<rscale>  0 0.15904342E+03</rscale>
<asrwt>0</asrwt>
<pdfrwt beam="2">  1        2 0.11639209E+00 0.16538965E+03</pdfrwt>
<pdfrwt beam="1">  1       -2 0.73854328E-02 0.16538965E+03</pdfrwt>
<totfact> 0.40078117E+03</totfact>
</mgrwt>
</event>
<event>
 8    1  0.1224355E-005  0.1229576E+03  0.7546771E-02  0.1245864E+00
         -1   -1    0    0    0  501 -0.00000000000E+00  0.00000000000E+00  0.27097029769E+02  0.27097029769E+02  0.00000000000E+00 0.  1.
          1   -1    0    0  501    0  0.00000000000E+00 -0.00000000000E+00 -0.79065692704E+03  0.79065692704E+03  0.00000000000E+00 0. -1.
         23    2    1    2    0    0 -0.42779092523E+02  0.32934608438E+02 -0.10879692978E+03  0.15154594069E+03  0.90634767174E+02 0.  0.
         23    2    1    2    0    0  0.42779092523E+02 -0.32934608438E+02 -0.65476296749E+03  0.66620801611E+03  0.11047098238E+03 0.  0.
          5    1    4    4  502    0  0.31410316365E+02 -0.15357657016E+02 -0.63801787782E+03  0.63899246319E+03  0.47000000000E+01 0. -1.
         -5    1    4    4    0  502  0.11368776158E+02 -0.17576951422E+02 -0.16745089673E+02  0.27215552921E+02  0.47000000000E+01 0.  1.
        -11    1    3    3    0    0 -0.23851314697E+02 -0.22029815432E+02 -0.80685971646E+02  0.86973697181E+02  0.00000000000E+00 0. -1.
         11    1    3    3    0    0 -0.18927777826E+02  0.54964423870E+02 -0.28110958130E+02  0.64572243509E+02  0.00000000000E+00 0.  1.
<mgrwt>
<rscale>  0 0.11833837E+03</rscale>
<asrwt>0</asrwt>
<pdfrwt beam="2">  1        1 0.12163950E+00 0.12295762E+03</pdfrwt>
<pdfrwt beam="1">  1       -1 0.41687748E-02 0.12295762E+03</pdfrwt>
<totfact> 0.52417885E+03</totfact>
</mgrwt>
</event>
<event>
 8    1  0.1224355E-005  0.1346482E+03  0.7546771E-02  0.1233601E+00
         -2   -1    0    0    0  501 -0.00000000000E+00  0.00000000000E+00  0.38804515667E+03  0.38804515667E+03  0.00000000000E+00 0.  1.
          2   -1    0    0  501    0  0.00000000000E+00 -0.00000000000E+00 -0.36462494642E+02  0.36462494642E+02  0.00000000000E+00 0. -1.
         23    2    1    2    0    0 -0.40508821147E+02 -0.29396811456E+02  0.16080733481E+03  0.19100096071E+03  0.90095676627E+02 0.  0.
         23    2    1    2    0    0  0.40508821147E+02  0.29396811456E+02  0.19077532722E+03  0.23350669061E+03  0.12500004787E+03 0.  0.
          5    1    4    4  502    0 -0.45177474716E+01 -0.11941431134E+02  0.16731285050E+03  0.16786508798E+03  0.47000000000E+01 0.  1.
         -5    1    4    4    0  502  0.45026568619E+02  0.41338242589E+02  0.23462476719E+02  0.65641602630E+02  0.47000000000E+01 0.  1.
        -11    1    3    3    0    0 -0.53293902304E+02 -0.26851776372E+02  0.16642894108E+03  0.17680455409E+03  0.00000000000E+00 0.  1.
         11    1    3    3    0    0  0.12785081157E+02 -0.25450350838E+01 -0.56216062700E+01  0.14196406616E+02  0.00000000000E+00 0. -1.
<mgrwt>
<rscale>  0 0.12594420E+03</rscale>
<asrwt>0</asrwt>
<pdfrwt beam="2">  1        2 0.56096148E-02 0.13464824E+03</pdfrwt>
<pdfrwt beam="1">  1       -2 0.59699252E-01 0.13464824E+03</pdfrwt>
<totfact> 0.34404509E+03</totfact>
</mgrwt>
</event>
<event>
 8    1  0.1224355E-005  0.1518551E+03  0.7546771E-02  0.1207205E+00
          2   -1    0    0  501    0  0.00000000000E+00  0.00000000000E+00  0.92212967482E+03  0.92212967482E+03  0.00000000000E+00 0. -1.
         -2   -1    0    0    0  501 -0.00000000000E+00 -0.00000000000E+00 -0.20811481885E+02  0.20811481885E+02  0.00000000000E+00 0.  1.
         23    2    1    2    0    0  0.25211894446E+02  0.82448555381E+02  0.38993320970E+03  0.40948584378E+03  0.90539186647E+02 0.  0.
         23    2    1    2    0    0 -0.25211894446E+02 -0.82448555381E+02  0.51138498323E+03  0.53345531293E+03  0.12500626348E+03 0.  0.
          5    1    4    4  502    0  0.15521654133E+02 -0.72313215531E+02  0.46439974749E+03  0.47027581094E+03  0.47000000000E+01 0.  1.
         -5    1    4    4    0  502 -0.40733548579E+02 -0.10135339850E+02  0.46985235745E+02  0.63179501990E+02  0.47000000000E+01 0.  1.
        -11    1    3    3    0    0 -0.99297223323E+01  0.88618067771E+02  0.26858959384E+03  0.28300553217E+03  0.00000000000E+00 0.  1.
         11    1    3    3    0    0  0.35141616778E+02 -0.61695123904E+01  0.12134361587E+03  0.12648031161E+03  0.00000000000E+00 0. -1.
<mgrwt>
<rscale>  0 0.14465035E+03</rscale>
<asrwt>0</asrwt>
<pdfrwt beam="1">  1        2 0.14186607E+00 0.15185509E+03</pdfrwt>
<pdfrwt beam="2">  1       -2 0.32017672E-02 0.15185509E+03</pdfrwt>
<totfact> 0.10929086E+04</totfact>
</mgrwt>
</event>
<event>
 8    1  0.1224355E-005  0.1381864E+03  0.7546771E-02  0.1227877E+00
          2   -1    0    0  501    0  0.00000000000E+00  0.00000000000E+00  0.42166036398E+03  0.42166036398E+03  0.00000000000E+00 0. -1.
         -2   -1    0    0    0  501 -0.00000000000E+00 -0.00000000000E+00 -0.54207390478E+02  0.54207390478E+02  0.00000000000E+00 0.  1.
         23    2    1    2    0    0 -0.42881751522E+02 -0.40406821170E+02  0.30297842735E+02  0.11149284850E+03  0.89672404791E+02 0.  0.
         23    2    1    2    0    0  0.42881751522E+02  0.40406821170E+02  0.33715513077E+03  0.36437490596E+03  0.12499573625E+03 0.  0.
          5    1    4    4  502    0 -0.13198516370E+02  0.53275057845E+00  0.26197537050E+03  0.26235027999E+03  0.47000000000E+01 0.  1.
         -5    1    4    4    0  502  0.56080267892E+02  0.39874070592E+02  0.75179760263E+02  0.10202462598E+03  0.47000000000E+01 0.  1.
        -11    1    3    3    0    0 -0.67006452250E+02 -0.24400486597E+02  0.24972709356E+01  0.71354640714E+02  0.00000000000E+00 0.  1.
         11    1    3    3    0    0  0.24124700728E+02 -0.16006334574E+02  0.27800571800E+02  0.40138207784E+02  0.00000000000E+00 0. -1.
<mgrwt>
<rscale>  0 0.12971679E+03</rscale>
<asrwt>0</asrwt>
<pdfrwt beam="1">  1        2 0.64870823E-01 0.13818643E+03</pdfrwt>
<pdfrwt beam="2">  1       -2 0.83395988E-02 0.13818643E+03</pdfrwt>
<totfact> 0.63951418E+03</totfact>
</mgrwt>
</event>
<event>
 8    1  0.1224355E-005  0.1587122E+03  0.7546771E-02  0.1197793E+00
          2   -1    0    0  501    0  0.00000000000E+00  0.00000000000E+00  0.12783171598E+04  0.12783171598E+04  0.00000000000E+00 0. -1.
         -2   -1    0    0    0  501 -0.00000000000E+00 -0.00000000000E+00 -0.17716093654E+02  0.17716093654E+02  0.00000000000E+00 0.  1.
         23    2    1    2    0    0 -0.15574049698E+02  0.96550280964E+02  0.43217347588E+03  0.45253942278E+03  0.91942961292E+02 0.  0.
         23    2    1    2    0    0  0.15574049698E+02 -0.96550280964E+02  0.82842759023E+03  0.84349383065E+03  0.12500024922E+03 0.  0.
          5    1    4    4  502    0 -0.49499748549E+02 -0.74372150582E+02  0.44038031167E+03  0.44937551201E+03  0.47000000000E+01 0.  1.
         -5    1    4    4    0  502  0.65073798248E+02 -0.22178130382E+02  0.38804727856E+03  0.39411831864E+03  0.47000000000E+01 0.  1.
        -11    1    3    3    0    0  0.17080320448E+02 -0.11722943181E+02  0.80901574611E+02  0.83511852560E+02  0.00000000000E+00 0.  1.
         11    1    3    3    0    0 -0.32654370146E+02  0.10827322414E+03  0.35127190127E+03  0.36902757022E+03  0.00000000000E+00 0. -1.
<mgrwt>
<rscale>  0 0.15220228E+03</rscale>
<asrwt>0</asrwt>
<pdfrwt beam="1">  1        2 0.19666411E+00 0.15871222E+03</pdfrwt>
<pdfrwt beam="2">  1       -2 0.27255539E-02 0.15871222E+03</pdfrwt>
<totfact> 0.86374323E+03</totfact>
</mgrwt>
</event>
<event>
 8    1  0.1224355E-005  0.1417839E+03  0.7546771E-02  0.1221591E+00
          1   -1    0    0  501    0  0.00000000000E+00  0.00000000000E+00  0.55761241241E+03  0.55761241241E+03  0.00000000000E+00 0. -1.
         -1   -1    0    0    0  501 -0.00000000000E+00 -0.00000000000E+00 -0.29169607690E+02  0.29169607690E+02  0.00000000000E+00 0.  1.
         23    2    1    2    0    0  0.23067685544E+02  0.62846165259E+02  0.22850903023E+03  0.25502466752E+03  0.91320564733E+02 0.  0.
         23    2    1    2    0    0 -0.23067685544E+02 -0.62846165259E+02  0.29993377448E+03  0.33175735257E+03  0.12498365216E+03 0.  0.
          5    1    4    4  502    0 -0.27582399749E+02 -0.17613641605E+02  0.51605325188E+01  0.33462669385E+02  0.47000000000E+01 0. -1.
         -5    1    4    4    0  502  0.45147142048E+01 -0.45232523655E+02  0.29477324196E+03  0.29829468319E+03  0.47000000000E+01 0. -1.
        -11    1    3    3    0    0  0.17029825220E+02  0.43219643515E+02  0.22980152174E+03  0.23444976419E+03  0.00000000000E+00 0. -1.
         11    1    3    3    0    0  0.60378603245E+01  0.19626521745E+02 -0.12924915065E+01  0.20574903338E+02  0.00000000000E+00 0.  1.
<mgrwt>
<rscale>  0 0.13403286E+03</rscale>
<asrwt>0</asrwt>
<pdfrwt beam="1">  1        1 0.85786517E-01 0.14178389E+03</pdfrwt>
<pdfrwt beam="2">  1       -1 0.44876324E-02 0.14178389E+03</pdfrwt>
<totfact> 0.77460878E+03</totfact>
</mgrwt>
</event>
<event>
 8    1  0.1224355E-005  0.2019465E+03  0.7546771E-02  0.1152281E+00
         -2   -1    0    0    0  501 -0.00000000000E+00  0.00000000000E+00  0.23576478447E+02  0.23576478447E+02  0.00000000000E+00 0.  1.
          2   -1    0    0  501    0  0.00000000000E+00 -0.00000000000E+00 -0.15777074207E+04  0.15777074207E+04  0.00000000000E+00 0. -1.
         23    2    1    2    0    0  0.18605364072E+02  0.15751537085E+03 -0.68592487978E+03  0.70990061623E+03  0.91152030057E+02 0.  0.
         23    2    1    2    0    0 -0.18605364072E+02 -0.15751537085E+03 -0.86820606251E+03  0.89138328296E+03  0.12500055415E+03 0.  0.
          5    1    4    4  502    0 -0.64289366524E+02 -0.73376603779E+02 -0.31048498934E+03  0.32548466513E+03  0.47000000000E+01 0. -1.
         -5    1    4    4    0  502  0.45684002452E+02 -0.84138767073E+02 -0.55772107317E+03  0.56589861783E+03  0.47000000000E+01 0. -1.
        -11    1    3    3    0    0 -0.12345801207E+02  0.42123102538E+02 -0.70967410555E+02  0.83445478822E+02  0.00000000000E+00 0.  1.
         11    1    3    3    0    0  0.30951165280E+02  0.11539226831E+03 -0.61495746923E+03  0.62645513740E+03  0.00000000000E+00 0. -1.
<mgrwt>
<rscale>  0 0.19701652E+03</rscale>
<asrwt>0</asrwt>
<pdfrwt beam="2">  1        2 0.24272423E+00 0.20194650E+03</pdfrwt>
<pdfrwt beam="1">  1       -2 0.36271504E-02 0.20194650E+03</pdfrwt>
<totfact> 0.39383935E+03</totfact>
</mgrwt>
</event>
<event>
 8    1  0.1224355E-005  0.1220525E+03  0.7546771E-02  0.1253432E+00
          1   -1    0    0  501    0  0.00000000000E+00  0.00000000000E+00  0.44286444959E+02  0.44286444959E+02  0.00000000000E+00 0. -1.
         -1   -1    0    0    0  501 -0.00000000000E+00 -0.00000000000E+00 -0.26383036996E+03  0.26383036996E+03  0.00000000000E+00 0.  1.
         23    2    1    2    0    0 -0.25371099850E+02 -0.14851462995E+02 -0.11242185425E+03  0.14572235647E+03  0.87932207987E+02 0.  0.
         23    2    1    2    0    0  0.25371099850E+02  0.14851462995E+02 -0.10712207075E+03  0.16239445845E+03  0.11845912136E+03 0.  0.
          5    1    4    4  502    0 -0.41745354347E+02  0.24786733825E+02 -0.22187035601E+02  0.53585551523E+02  0.47000000000E+01 0. -1.
         -5    1    4    4    0  502  0.67116454196E+02 -0.99352708304E+01 -0.84935035151E+02  0.10880890693E+03  0.47000000000E+01 0.  1.
        -11    1    3    3    0    0 -0.48132120309E+02 -0.34105744245E+02 -0.93034006912E+02  0.11016001651E+03  0.00000000000E+00 0.  1.
         11    1    3    3    0    0  0.22761020460E+02  0.19254281250E+02 -0.19387847334E+02  0.35562339955E+02  0.00000000000E+00 0. -1.
<mgrwt>
<rscale>  0 0.11394605E+03</rscale>
<asrwt>0</asrwt>
<pdfrwt beam="1">  1        1 0.68132993E-02 0.12205254E+03</pdfrwt>
<pdfrwt beam="2">  1       -1 0.40589287E-01 0.12205254E+03</pdfrwt>
<totfact> 0.61426581E+03</totfact>
</mgrwt>
</event>
<event>
 8    1  0.1293519E-005  0.1674340E+03  0.7546771E-02  0.1186532E+00
         -2   -1    0    0    0  501 -0.00000000000E+00  0.00000000000E+00  0.65833028102E+02  0.65833028102E+02  0.00000000000E+00 0.  1.
          2   -1    0    0  501    0  0.00000000000E+00 -0.00000000000E+00 -0.37432568152E+03  0.37432568152E+03  0.00000000000E+00 0. -1.
         23    2    1    2    0    0 -0.39052499375E+02 -0.10432650899E+03 -0.14736123626E+03  0.20778512737E+03  0.95132576020E+02 0.  0.
         23    2    1    2    0    0  0.39052499375E+02  0.10432650899E+03 -0.16113141716E+03  0.23237358225E+03  0.12500011979E+03 0.  0.
          5    1    4    4  502    0  0.16201358405E+02  0.12406548187E+03 -0.87783850394E+02  0.15291442769E+03  0.47000000000E+01 0. -1.
         -5    1    4    4    0  502  0.22851140970E+02 -0.19738972879E+02 -0.73347566762E+02  0.79459154563E+02  0.47000000000E+01 0. -1.
        -11    1    3    3    0    0  0.22862983572E+01 -0.68966084138E+02 -0.13557284829E+03  0.15212345354E+03  0.00000000000E+00 0.  1.
         11    1    3    3    0    0 -0.41338797732E+02 -0.35360424848E+02 -0.11788387969E+02  0.55661673837E+02  0.00000000000E+00 0. -1.
<mgrwt>
<rscale>  0 0.16193278E+03</rscale>
<asrwt>0</asrwt>
<pdfrwt beam="2">  1        2 0.57588566E-01 0.16743401E+03</pdfrwt>
<pdfrwt beam="1">  1       -2 0.10128158E-01 0.16743401E+03</pdfrwt>
<totfact> 0.54191372E+03</totfact>
</mgrwt>
</event>
<event>
 8    1  0.1224355E-005  0.2099662E+03  0.7546771E-02  0.1145303E+00
         -2   -1    0    0    0  501 -0.00000000000E+00  0.00000000000E+00  0.59838695518E+02  0.59838695518E+02  0.00000000000E+00 0.  1.
          2   -1    0    0  501    0  0.00000000000E+00 -0.00000000000E+00 -0.68351442414E+03  0.68351442414E+03  0.00000000000E+00 0. -1.
         23    2    1    2    0    0  0.12301689521E+03  0.11549739546E+03 -0.33865585559E+03  0.38934445531E+03  0.91806925102E+02 0.  0.
         23    2    1    2    0    0 -0.12301689521E+03 -0.11549739546E+03 -0.28501987303E+03  0.35400866434E+03  0.12495199693E+03 0.  0.
          5    1    4    4  502    0 -0.12394500779E+03 -0.10273532988E+03 -0.15583346179E+03  0.22410504406E+03  0.47000000000E+01 0. -1.
         -5    1    4    4    0  502  0.92811257921E+00 -0.12762065584E+02 -0.12918641124E+03  0.12990362028E+03  0.47000000000E+01 0. -1.
        -11    1    3    3    0    0  0.33678943824E+02  0.60279355621E+02 -0.59723825057E+02  0.91295165538E+02  0.00000000000E+00 0.  1.
         11    1    3    3    0    0  0.89337951387E+02  0.55218039840E+02 -0.27893203053E+03  0.29804928978E+03  0.00000000000E+00 0. -1.
<mgrwt>
<rscale>  0 0.20534885E+03</rscale>
<asrwt>0</asrwt>
<pdfrwt beam="2">  1        2 0.10515606E+00 0.20996620E+03</pdfrwt>
<pdfrwt beam="1">  1       -2 0.92059539E-02 0.20996620E+03</pdfrwt>
<totfact> 0.32387896E+03</totfact>
</mgrwt>
</event>
<event>
 8    1  0.1224355E-005  0.1678734E+03  0.7546771E-02  0.1186766E+00
          2   -1    0    0  501    0  0.00000000000E+00  0.00000000000E+00  0.94528842676E+03  0.94528842676E+03  0.00000000000E+00 0. -1.
         -2   -1    0    0    0  501 -0.00000000000E+00 -0.00000000000E+00 -0.39239143591E+02  0.39239143591E+02  0.00000000000E+00 0.  1.
         23    2    1    2    0    0  0.29548284955E+02 -0.10807219414E+03  0.14347122763E+03  0.20369035416E+03  0.91395114363E+02 0.  0.
         23    2    1    2    0    0 -0.29548284955E+02  0.10807219414E+03  0.76257805553E+03  0.78083721619E+03  0.12501506754E+03 0.  0.
          5    1    4    4  502    0 -0.36194136653E+02  0.46166648470E+02  0.10554261133E+03  0.12084166403E+03  0.47000000000E+01 0. -1.
         -5    1    4    4    0  502  0.66458516983E+01  0.61905545670E+02  0.65703544420E+03  0.65999555216E+03  0.47000000000E+01 0. -1.
        -11    1    3    3    0    0  0.23096285490E+02  0.10712790233E+02  0.29148600936E+02  0.38701979466E+02  0.00000000000E+00 0.  1.
         11    1    3    3    0    0  0.64519994648E+01 -0.11878498437E+03  0.11432262670E+03  0.16498837469E+03  0.00000000000E+00 0. -1.
<mgrwt>
<rscale>  0 0.16172219E+03</rscale>
<asrwt>0</asrwt>
<pdfrwt beam="1">  1        2 0.14542897E+00 0.16787337E+03</pdfrwt>
<pdfrwt beam="2">  1       -2 0.60367920E-02 0.16787337E+03</pdfrwt>
<totfact> 0.41034803E+03</totfact>
</mgrwt>
</event>
<event>
 8    1  0.1224355E-005  0.1299001E+03  0.7546771E-02  0.1241588E+00
         -1   -1    0    0    0  501 -0.00000000000E+00  0.00000000000E+00  0.10532097425E+03  0.10532097425E+03  0.00000000000E+00 0.  1.
          1   -1    0    0  501    0  0.00000000000E+00 -0.00000000000E+00 -0.12332246811E+03  0.12332246811E+03  0.00000000000E+00 0. -1.
         23    2    1    2    0    0  0.27457572809E+01 -0.35254831502E+02 -0.23384389438E+00  0.97533862627E+02  0.90897510135E+02 0.  0.
         23    2    1    2    0    0 -0.27457572809E+01  0.35254831502E+02 -0.17767649965E+02  0.13110957974E+03  0.12499436062E+03 0.  0.
          5    1    4    4  502    0  0.37930610210E+01  0.40977466182E+02  0.48688369194E+02  0.63923292635E+02  0.47000000000E+01 0. -1.
         -5    1    4    4    0  502 -0.65388183019E+01 -0.57226346795E+01 -0.66456019159E+02  0.67186287104E+02  0.47000000000E+01 0. -1.
        -11    1    3    3    0    0  0.54880000479E+01  0.21255697060E+02  0.26954581347E+02  0.34763087573E+02  0.00000000000E+00 0.  1.
         11    1    3    3    0    0 -0.27422427670E+01 -0.56510528562E+02 -0.27188425242E+02  0.62770775054E+02  0.00000000000E+00 0. -1.
<mgrwt>
<rscale>  0 0.12091930E+03</rscale>
<asrwt>0</asrwt>
<pdfrwt beam="2">  1        1 0.18972687E-01 0.12990009E+03</pdfrwt>
<pdfrwt beam="1">  1       -1 0.16203227E-01 0.12990009E+03</pdfrwt>
<totfact> 0.73290127E+03</totfact>
</mgrwt>
</event>
<event>
 8    1  0.1224355E-005  0.1861525E+03  0.7546771E-02  0.1167013E+00
         -2   -1    0    0    0  501 -0.00000000000E+00  0.00000000000E+00  0.48478945635E+02  0.48478945635E+02  0.00000000000E+00 0. -1.
          2   -1    0    0  501    0  0.00000000000E+00 -0.00000000000E+00 -0.64340341185E+03  0.64340341185E+03  0.00000000000E+00 0.  1.
         23    2    1    2    0    0 -0.57393295520E+01 -0.13782351038E+03 -0.25011042296E+03  0.30002846391E+03  0.91834609866E+02 0.  0.
         23    2    1    2    0    0  0.57393295520E+01  0.13782351038E+03 -0.34481404325E+03  0.39185389357E+03  0.12499795824E+03 0.  0.
          5    1    4    4  502    0  0.59646266516E+01  0.15670969110E+03 -0.25068736730E+03  0.29573594671E+03  0.47000000000E+01 0. -1.
         -5    1    4    4    0  502 -0.22529709963E+00 -0.18886180723E+02 -0.94126675955E+02  0.96117946854E+02  0.47000000000E+01 0. -1.
        -11    1    3    3    0    0  0.42713524234E+02 -0.67814759929E+02 -0.13209400487E+03  0.15450602881E+03  0.00000000000E+00 0.  1.
         11    1    3    3    0    0 -0.48452853786E+02 -0.70008750449E+02 -0.11801641809E+03  0.14552243511E+03  0.00000000000E+00 0. -1.
<mgrwt>
<rscale>  0 0.18081850E+03</rscale>
<asrwt>0</asrwt>
<pdfrwt beam="2">  1        2 0.98985129E-01 0.18615249E+03</pdfrwt>
<pdfrwt beam="1">  1       -2 0.74583002E-02 0.18615249E+03</pdfrwt>
<totfact> 0.48151203E+03</totfact>
</mgrwt>
</event>
<event>
 8    1  0.1224355E-005  0.1306452E+03  0.7546771E-02  0.1239557E+00
          1   -1    0    0  501    0  0.00000000000E+00  0.00000000000E+00  0.30852601688E+02  0.30852601688E+02  0.00000000000E+00 0. -1.
         -1   -1    0    0    0  501 -0.00000000000E+00 -0.00000000000E+00 -0.49176345913E+03  0.49176345913E+03  0.00000000000E+00 0.  1.
         23    2    1    2    0    0  0.37842935812E+02 -0.32908372100E+01 -0.29489545273E+03  0.31135965005E+03  0.92404470877E+02 0.  0.
         23    2    1    2    0    0 -0.37842935812E+02  0.32908372100E+01 -0.16601540470E+03  0.21125641076E+03  0.12500095635E+03 0.  0.
          5    1    4    4  502    0 -0.37709194218E+02  0.61144040957E+02 -0.81686700685E+02  0.10888243266E+03  0.47000000000E+01 0.  1.
         -5    1    4    4    0  502 -0.13374159355E+00 -0.57853203747E+02 -0.84328704020E+02  0.10237397810E+03  0.47000000000E+01 0.  1.
        -11    1    3    3    0    0 -0.20165011470E+02 -0.28873068002E+02 -0.82458577686E+02  0.89664367378E+02  0.00000000000E+00 0.  1.
         11    1    3    3    0    0  0.58007947282E+02  0.25582230792E+02 -0.21243687505E+03  0.22169528267E+03  0.00000000000E+00 0. -1.
<mgrwt>
<rscale>  0 0.12217138E+03</rscale>
<asrwt>0</asrwt>
<pdfrwt beam="1">  1        1 0.47465543E-02 0.13064515E+03</pdfrwt>
<pdfrwt beam="2">  1       -1 0.75655913E-01 0.13064515E+03</pdfrwt>
<totfact> 0.31484156E+03</totfact>
</mgrwt>
</event>
<event>
 8    1  0.1224355E-005  0.1278183E+03  0.7546771E-02  0.1243904E+00
         -3   -1    0    0    0  501 -0.00000000000E+00  0.00000000000E+00  0.53275728686E+02  0.53275728686E+02  0.00000000000E+00 0.  1.
          3   -1    0    0  501    0  0.00000000000E+00 -0.00000000000E+00 -0.23906589737E+03  0.23906589737E+03  0.00000000000E+00 0. -1.
         23    2    1    2    0    0  0.25301746103E+01  0.26519162878E+02 -0.74426218894E+02  0.12281449316E+03  0.93991860757E+02 0.  0.
         23    2    1    2    0    0 -0.25301746103E+01 -0.26519162878E+02 -0.11136394979E+03  0.16952713289E+03  0.12501140624E+03 0.  0.
          5    1    4    4  502    0 -0.32709939169E+02 -0.16550012280E+02 -0.12808263073E+03  0.13330826427E+03  0.47000000000E+01 0. -1.
         -5    1    4    4    0  502  0.30179764558E+02 -0.99691505977E+01  0.16718680939E+02  0.36218868629E+02  0.47000000000E+01 0. -1.
        -11    1    3    3    0    0  0.38885418528E+02  0.24308658857E+02 -0.72891472547E+01  0.46434021334E+02  0.00000000000E+00 0. -1.
         11    1    3    3    0    0 -0.36355243918E+02  0.22105040205E+01 -0.67137071639E+02  0.76380471828E+02  0.00000000000E+00 0.  1.
<mgrwt>
<rscale>  0 0.11951210E+03</rscale>
<asrwt>0</asrwt>
<pdfrwt beam="2">  1        3 0.36779369E-01 0.12781831E+03</pdfrwt>
<pdfrwt beam="1">  1       -3 0.81962659E-02 0.12781831E+03</pdfrwt>
<totfact> 0.17015577E+03</totfact>
</mgrwt>
</event>
<event>
 8    1  0.1224355E-005  0.1696696E+03  0.7546771E-02  0.1182126E+00
         -2   -1    0    0    0  501 -0.00000000000E+00  0.00000000000E+00  0.36209242209E+02  0.36209242209E+02  0.00000000000E+00 0.  1.
          2   -1    0    0  501    0  0.00000000000E+00 -0.00000000000E+00 -0.73060074921E+03  0.73060074921E+03  0.00000000000E+00 0. -1.
         23    2    1    2    0    0  0.11381815722E+03 -0.14440101175E+02 -0.31517795429E+03  0.35136965053E+03  0.10469192426E+03 0.  0.
         23    2    1    2    0    0 -0.11381815722E+03  0.14440101175E+02 -0.37921355271E+03  0.41544034089E+03  0.12499867538E+03 0.  0.
          5    1    4    4  502    0 -0.87681249097E+02 -0.48713561175E+02 -0.20600706299E+03  0.22917681490E+03  0.47000000000E+01 0.  1.
         -5    1    4    4    0  502 -0.26136908121E+02  0.63153662350E+02 -0.17320648972E+03  0.18626352599E+03  0.47000000000E+01 0.  1.
        -11    1    3    3    0    0  0.10546325088E+03 -0.40933449669E+02 -0.17440927834E+03  0.20788612498E+03  0.00000000000E+00 0.  1.
         11    1    3    3    0    0  0.83549063390E+01  0.26493348494E+02 -0.14076867595E+03  0.14348352555E+03  0.00000000000E+00 0. -1.
<mgrwt>
<rscale>  0 0.16596173E+03</rscale>
<asrwt>0</asrwt>
<pdfrwt beam="2">  1        2 0.11240012E+00 0.16966956E+03</pdfrwt>
<pdfrwt beam="1">  1       -2 0.55706525E-02 0.16966956E+03</pdfrwt>
<totfact> 0.64459398E+03</totfact>
</mgrwt>
</event>
<event>
 8    1  0.1224355E-005  0.2068048E+03  0.7546771E-02  0.1146971E+00
          1   -1    0    0  501    0  0.00000000000E+00  0.00000000000E+00  0.45161870370E+03  0.45161870370E+03  0.00000000000E+00 0. -1.
         -1   -1    0    0    0  501 -0.00000000000E+00 -0.00000000000E+00 -0.88871329388E+02  0.88871329388E+02  0.00000000000E+00 0.  1.
         23    2    1    2    0    0 -0.72328084720E+02 -0.15543302996E+03  0.15952927525E+03  0.25054896178E+03  0.89075327371E+02 0.  0.
         23    2    1    2    0    0  0.72328084720E+02  0.15543302996E+03  0.20321809906E+03  0.28994107131E+03  0.11566092859E+03 0.  0.
          5    1    4    4  502    0  0.40782064838E+02  0.29449120438E+02  0.13289812707E+03  0.14217745843E+03  0.47000000000E+01 0. -1.
         -5    1    4    4    0  502  0.31546019882E+02  0.12598390952E+03  0.70319971990E+02  0.14776361287E+03  0.47000000000E+01 0.  1.
        -11    1    3    3    0    0  0.54447541448E+01 -0.42368648411E+02  0.83184951553E+02  0.93511945124E+02  0.00000000000E+00 0. -1.
         11    1    3    3    0    0 -0.77772838865E+02 -0.11306438155E+03  0.76344323696E+02  0.15703701666E+03  0.00000000000E+00 0.  1.
<mgrwt>
<rscale>  0 0.20331561E+03</rscale>
<asrwt>0</asrwt>
<pdfrwt beam="1">  1        1 0.69479799E-01 0.20680481E+03</pdfrwt>
<pdfrwt beam="2">  1       -1 0.13672512E-01 0.20680481E+03</pdfrwt>
<totfact> 0.19127050E+03</totfact>
</mgrwt>
</event>
<event>
 8    1  0.1224355E-005  0.1652448E+03  0.7546771E-02  0.1189724E+00
          1   -1    0    0  501    0  0.00000000000E+00  0.00000000000E+00  0.17466563650E+03  0.17466563650E+03  0.00000000000E+00 0. -1.
         -1   -1    0    0    0  501 -0.00000000000E+00 -0.00000000000E+00 -0.15284843305E+03  0.15284843305E+03  0.00000000000E+00 0.  1.
         23    2    1    2    0    0 -0.59517079753E+02 -0.90218243267E+02 -0.45487561350E+02  0.14908828379E+03  0.92068365499E+02 0.  0.
         23    2    1    2    0    0  0.59517079753E+02  0.90218243267E+02  0.67304764799E+02  0.17842578577E+03  0.12499686181E+03 0.  0.
          5    1    4    4  502    0 -0.31443969851E+02  0.11059651361E+02 -0.99983087162E+01  0.35115456787E+02  0.47000000000E+01 0. -1.
         -5    1    4    4    0  502  0.90961049604E+02  0.79158591906E+02  0.77303073515E+02  0.14331032898E+03  0.47000000000E+01 0. -1.
        -11    1    3    3    0    0 -0.68391825253E+02 -0.57944506187E+02  0.35589925323E+01  0.89708828922E+02  0.00000000000E+00 0. -1.
         11    1    3    3    0    0  0.88747455002E+01 -0.32273737080E+02 -0.49046553883E+02  0.59379454869E+02  0.00000000000E+00 0.  1.
<mgrwt>
<rscale>  0 0.15909342E+03</rscale>
<asrwt>0</asrwt>
<pdfrwt beam="1">  1        1 0.26871636E-01 0.16524476E+03</pdfrwt>
<pdfrwt beam="2">  1       -1 0.23515144E-01 0.16524476E+03</pdfrwt>
<totfact> 0.26304554E+03</totfact>
</mgrwt>
</event>
<event>
 8    1  0.1224355E-005  0.1704596E+03  0.7546771E-02  0.1183828E+00
         -1   -1    0    0    0  501 -0.00000000000E+00  0.00000000000E+00  0.11160903683E+03  0.11160903683E+03  0.00000000000E+00 0.  1.
          1   -1    0    0  501    0  0.00000000000E+00 -0.00000000000E+00 -0.23552860285E+03  0.23552860285E+03  0.00000000000E+00 0. -1.
         23    2    1    2    0    0 -0.36159461065E+01  0.11583337204E+03 -0.23531393235E+02  0.14931385919E+03  0.91161707600E+02 0.  0.
         23    2    1    2    0    0  0.36159461065E+01 -0.11583337204E+03 -0.10038817278E+03  0.19782378050E+03  0.12500407094E+03 0.  0.
          5    1    4    4  502    0 -0.13319274408E+02 -0.49964533980E+02  0.23051717943E+02  0.56809589214E+02  0.47000000000E+01 0. -1.
         -5    1    4    4    0  502  0.16935220514E+02 -0.65868838063E+02 -0.12343989072E+03  0.14101419128E+03  0.47000000000E+01 0. -1.
        -11    1    3    3    0    0 -0.17761309754E+02  0.10372405824E+03  0.15212499890E+02  0.10632762827E+03  0.00000000000E+00 0.  1.
         11    1    3    3    0    0  0.14145363647E+02  0.12109313804E+02 -0.38743893125E+02  0.42986230911E+02  0.00000000000E+00 0. -1.
<mgrwt>
<rscale>  0 0.16439012E+03</rscale>
<asrwt>0</asrwt>
<pdfrwt beam="2">  1        1 0.36235170E-01 0.17045956E+03</pdfrwt>
<pdfrwt beam="1">  1       -1 0.17170621E-01 0.17045956E+03</pdfrwt>
<totfact> 0.30116592E+03</totfact>
</mgrwt>
</event>
<event>
 8    1  0.1224355E-005  0.1427321E+03  0.7546771E-02  0.1219922E+00
         -2   -1    0    0    0  501 -0.00000000000E+00  0.00000000000E+00  0.42179071806E+02  0.42179071806E+02  0.00000000000E+00 0.  1.
          2   -1    0    0  501    0  0.00000000000E+00 -0.00000000000E+00 -0.48476230186E+03  0.48476230186E+03  0.00000000000E+00 0. -1.
         23    2    1    2    0    0 -0.60047062914E+02  0.33774378821E+02 -0.88165211127E+02  0.14486207488E+03  0.92008466215E+02 0.  0.
         23    2    1    2    0    0  0.60047062914E+02 -0.33774378821E+02 -0.35441801892E+03  0.38207929878E+03  0.12500439990E+03 0.  0.
          5    1    4    4  502    0 -0.32969402051E+02 -0.26064015161E+01 -0.16886796183E+03  0.17214021416E+03  0.47000000000E+01 0. -1.
         -5    1    4    4    0  502  0.93016464965E+02 -0.31167977305E+02 -0.18555005710E+03  0.20993908462E+03  0.47000000000E+01 0. -1.
        -11    1    3    3    0    0  0.97106266764E+01  0.14102355750E+02 -0.67294372478E+02  0.69438499951E+02  0.00000000000E+00 0. -1.
         11    1    3    3    0    0 -0.69757689590E+02  0.19672023070E+02 -0.20870838648E+02  0.75423574926E+02  0.00000000000E+00 0.  1.
<mgrwt>
<rscale>  0 0.13521100E+03</rscale>
<asrwt>0</asrwt>
<pdfrwt beam="2">  1        2 0.74578808E-01 0.14273212E+03</pdfrwt>
<pdfrwt beam="1">  1       -2 0.64890887E-02 0.14273212E+03</pdfrwt>
<totfact> 0.81005960E+03</totfact>
</mgrwt>
</event>
<event>
 8    1  0.1346487E-005  0.2246690E+03  0.7546771E-02  0.1133321E+00
          4   -1    0    0  501    0  0.00000000000E+00  0.00000000000E+00  0.15431158182E+04  0.15431158182E+04  0.00000000000E+00 0. -1.
         -4   -1    0    0    0  501 -0.00000000000E+00 -0.00000000000E+00 -0.32686358288E+02  0.32686358288E+02  0.00000000000E+00 0.  1.
         23    2    1    2    0    0  0.13941410614E+03  0.12415791236E+03  0.52808200483E+03  0.56809055913E+03  0.94893621240E+02 0.  0.
         23    2    1    2    0    0 -0.13941410614E+03 -0.12415791236E+03  0.98234745511E+03  0.10077116174E+04  0.12499880425E+03 0.  0.
          5    1    4    4  502    0 -0.57909174103E+02 -0.12819112386E+03  0.68657164208E+03  0.70084887557E+03  0.47000000000E+01 0.  1.
         -5    1    4    4    0  502 -0.81504932040E+02  0.40332114933E+01  0.29577581303E+03  0.30686274182E+03  0.47000000000E+01 0.  1.
        -11    1    3    3    0    0  0.56827675770E+02  0.10584007796E+03  0.24890724651E+03  0.27638075946E+03  0.00000000000E+00 0.  1.
         11    1    3    3    0    0  0.82586430373E+02  0.18317834406E+02  0.27917475832E+03  0.29170979967E+03  0.00000000000E+00 0. -1.
<mgrwt>
<rscale>  0 0.22075544E+03</rscale>
<asrwt>0</asrwt>
<pdfrwt beam="1">  1        4 0.23740238E+00 0.22466905E+03</pdfrwt>
<pdfrwt beam="2">  1       -4 0.50286717E-02 0.22466905E+03</pdfrwt>
<totfact> 0.36544670E+01</totfact>
</mgrwt>
</event>
<event>
 7    1  0.1224355E-005  0.2291618E+03  0.7546771E-02  0.1162788E+00
         -2   -1    0    0    0  501 -0.00000000000E+00  0.00000000000E+00  0.51666503240E+02  0.51666503240E+02  0.00000000000E+00 0.  1.
          2   -1    0    0  501    0  0.00000000000E+00 -0.00000000000E+00 -0.61511653162E+03  0.61511653162E+03  0.00000000000E+00 0. -1.
         23    2    1    2    0    0  0.28713037645E+02  0.25267427452E+02 -0.63217772171E+02  0.11655813143E+03  0.90146712990E+02 0.  0.
          5    1    1    2  502    0 -0.78888993944E+02 -0.89786747358E+01 -0.48983615256E+03  0.49625158571E+03  0.47000000000E+01 0. -1.
         -5    1    1    2    0  502  0.50175956299E+02 -0.16288752716E+02 -0.10396103658E+02  0.53973317730E+02  0.47000000000E+01 0.  1.
        -11    1    3    3    0    0 -0.16730035386E+02  0.29796115367E+02 -0.62094490072E+02  0.70876147414E+02  0.00000000000E+00 0. -1.
         11    1    3    3    0    0  0.45443073031E+02 -0.45286879150E+01 -0.11232820989E+01  0.45681984014E+02  0.00000000000E+00 0.  1.
<mgrwt>
<rscale>  0 0.18528067E+03</rscale>
<asrwt>0</asrwt>
<pdfrwt beam="2">  1        2 0.94633318E-01 0.22916181E+03</pdfrwt>
<pdfrwt beam="1">  1       -2 0.79486924E-02 0.22916181E+03</pdfrwt>
<totfact> 0.46332863E+03</totfact>
</mgrwt>
</event>
<event>
 7    1  0.1224355E-005  0.1333739E+04  0.7546771E-02  0.9003230E-01
         -2   -1    0    0    0  501 -0.00000000000E+00  0.00000000000E+00  0.86535051635E+03  0.86535051635E+03  0.00000000000E+00 0.  1.
          2   -1    0    0  501    0  0.00000000000E+00 -0.00000000000E+00 -0.51391283982E+03  0.51391283982E+03  0.00000000000E+00 0. -1.
         23    2    1    2    0    0 -0.42467065481E+03  0.25105938430E+03  0.18692386751E+03  0.53565721777E+03  0.92801633633E+02 0.  0.
          5    1    1    2  502    0 -0.62691805582E+01 -0.20044817637E+03 -0.19525184994E+03  0.27993597293E+03  0.47000000000E+01 0. -1.
         -5    1    1    2    0  502  0.43093983536E+03 -0.50611207929E+02  0.35976565896E+03  0.56367016547E+03  0.47000000000E+01 0.  1.
        -11    1    3    3    0    0 -0.37865485024E+03  0.24271639839E+03  0.19114840652E+03  0.48870078676E+03  0.00000000000E+00 0.  1.
         11    1    3    3    0    0 -0.46015804564E+02  0.83429859065E+01 -0.42245390132E+01  0.46956431012E+02  0.00000000000E+00 0. -1.
<mgrwt>
<rscale>  0 0.13337387E+04</rscale>
<asrwt>0</asrwt>
<pdfrwt beam="2">  1        2 0.79063514E-01 0.13337387E+04</pdfrwt>
<pdfrwt beam="1">  1       -2 0.13313085E+00 0.13337387E+04</pdfrwt>
<totfact> 0.23827379E+01</totfact>
</mgrwt>
</event>
<event>
 8    1  0.1224355E-005  0.1670335E+03  0.7546771E-02  0.1187544E+00
          1   -1    0    0  501    0  0.00000000000E+00  0.00000000000E+00  0.19169864223E+04  0.19169864223E+04  0.00000000000E+00 0. -1.
         -1   -1    0    0    0  501 -0.00000000000E+00 -0.00000000000E+00 -0.21104608982E+02  0.21104608982E+02  0.00000000000E+00 0.  1.
         23    2    1    2    0    0 -0.65428475334E+02 -0.89405371792E+02  0.29363344380E+03  0.32715961932E+03  0.92404606546E+02 0.  0.
         23    2    1    2    0    0  0.65428475334E+02  0.89405371792E+02  0.16022483695E+04  0.16109314120E+04  0.12500388197E+03 0.  0.
          5    1    4    4  502    0  0.10019826142E+03  0.81142459363E+02  0.11393502924E+04  0.11466320112E+04  0.47000000000E+01 0.  1.
         -5    1    4    4    0  502 -0.34769786090E+02  0.82629124292E+01  0.46289807715E+03  0.46429940079E+03  0.47000000000E+01 0.  1.
        -11    1    3    3    0    0 -0.55031178435E+02 -0.41047007373E+01  0.14942614344E+03  0.15929046271E+03  0.00000000000E+00 0. -1.
         11    1    3    3    0    0 -0.10397296899E+02 -0.85300671055E+02  0.14420730036E+03  0.16786915661E+03  0.00000000000E+00 0.  1.
<mgrwt>
<rscale>  0 0.16102524E+03</rscale>
<asrwt>0</asrwt>
<pdfrwt beam="1">  1        1 0.29492085E+00 0.16703346E+03</pdfrwt>
<pdfrwt beam="2">  1       -1 0.32468644E-02 0.16703346E+03</pdfrwt>
<totfact> 0.12908122E+03</totfact>
</mgrwt>
</event>
<event>
 8    1  0.1224355E-005  0.1252147E+03  0.7546771E-02  0.1250418E+00
         -2   -1    0    0    0  501 -0.00000000000E+00  0.00000000000E+00  0.29525325424E+02  0.29525325424E+02  0.00000000000E+00 0. -1.
          2   -1    0    0  501    0  0.00000000000E+00 -0.00000000000E+00 -0.43523767519E+03  0.43523767519E+03  0.00000000000E+00 0.  1.
         23    2    1    2    0    0 -0.69649936399E+01 -0.21666882021E+01 -0.10524830218E+03  0.13925206485E+03  0.90888540419E+02 0.  0.
         23    2    1    2    0    0  0.69649936399E+01  0.21666882021E+01 -0.30046404758E+03  0.32551093576E+03  0.12500207892E+03 0.  0.
          5    1    4    4  502    0 -0.56624344919E+02  0.94236420081E+01 -0.18041829190E+03  0.18938841443E+03  0.47000000000E+01 0. -1.
         -5    1    4    4    0  502  0.63589338559E+02 -0.72569538060E+01 -0.12004575568E+03  0.13612252133E+03  0.47000000000E+01 0. -1.
        -11    1    3    3    0    0 -0.44911052761E+02  0.11955609516E+02 -0.76803140518E+02  0.89770048749E+02  0.00000000000E+00 0.  1.
         11    1    3    3    0    0  0.37946059121E+02 -0.14122297718E+02 -0.28445161665E+02  0.49482016105E+02  0.00000000000E+00 0. -1.
<mgrwt>
<rscale>  0 0.11566910E+03</rscale>
<asrwt>0</asrwt>
<pdfrwt beam="2">  1        2 0.66959643E-01 0.12521472E+03</pdfrwt>
<pdfrwt beam="1">  1       -2 0.45423577E-02 0.12521472E+03</pdfrwt>
<totfact> 0.15439247E+04</totfact>
</mgrwt>
</event>
<event>
 8    1  0.1224355E-005  0.1307358E+03  0.7546771E-02  0.1240086E+00
         -2   -1    0    0    0  501 -0.00000000000E+00  0.00000000000E+00  0.54326528852E+02  0.54326528852E+02  0.00000000000E+00 0.  1.
          2   -1    0    0  501    0  0.00000000000E+00 -0.00000000000E+00 -0.27181749144E+03  0.27181749144E+03  0.00000000000E+00 0. -1.
         23    2    1    2    0    0  0.34959381888E+02  0.15638516840E+02 -0.41748136973E+02  0.10710662272E+03  0.90896645145E+02 0.  0.
         23    2    1    2    0    0 -0.34959381888E+02 -0.15638516840E+02 -0.17574282562E+03  0.21903739758E+03  0.12500047676E+03 0.  0.
          5    1    4    4  502    0  0.46526498428E+01  0.35591682928E+02 -0.52246992745E+01  0.36575982922E+02  0.47000000000E+01 0.  1.
         -5    1    4    4    0  502 -0.39612031731E+02 -0.51230199768E+02 -0.17051812634E+03  0.18246141466E+03  0.47000000000E+01 0.  1.
        -11    1    3    3    0    0 -0.18439753526E+02 -0.61073701318E+01  0.16249988261E+02  0.25325611513E+02  0.00000000000E+00 0.  1.
         11    1    3    3    0    0  0.53399135414E+02  0.21745886972E+02 -0.57998125234E+02  0.81781011206E+02  0.00000000000E+00 0. -1.
<mgrwt>
<rscale>  0 0.12184393E+03</rscale>
<asrwt>0</asrwt>
<pdfrwt beam="2">  1        2 0.41818074E-01 0.13073577E+03</pdfrwt>
<pdfrwt beam="1">  1       -2 0.83579279E-02 0.13073577E+03</pdfrwt>
<totfact> 0.10124488E+04</totfact>
</mgrwt>
</event>
<event>
 8    1  0.1224355E-005  0.1335373E+03  0.7546771E-02  0.1235070E+00
         -2   -1    0    0    0  501 -0.00000000000E+00  0.00000000000E+00  0.15049815163E+02  0.15049815163E+02  0.00000000000E+00 0.  1.
          2   -1    0    0  501    0  0.00000000000E+00 -0.00000000000E+00 -0.10196715324E+04  0.10196715324E+04  0.00000000000E+00 0. -1.
         23    2    1    2    0    0 -0.34807275644E+01 -0.46847561142E+02 -0.28655172494E+03  0.30434012591E+03  0.91127447698E+02 0.  0.
         23    2    1    2    0    0  0.34807275644E+01  0.46847561142E+02 -0.71806999226E+03  0.73038122162E+03  0.12500162260E+03 0.  0.
          5    1    4    4  502    0 -0.24214836189E+02  0.34768120593E+01 -0.24672327602E+02  0.35060808077E+02  0.47000000000E+01 0.  1.
         -5    1    4    4    0  502  0.27695563753E+02  0.43370749083E+02 -0.69339766466E+03  0.69532041354E+03  0.47000000000E+01 0.  1.
        -11    1    3    3    0    0  0.29079081715E+02 -0.14157242397E+01 -0.30131829661E+02  0.41898978833E+02  0.00000000000E+00 0.  1.
         11    1    3    3    0    0 -0.32559809280E+02 -0.45431836902E+02 -0.25641989528E+03  0.26244114708E+03  0.00000000000E+00 0. -1.
<mgrwt>
<rscale>  0 0.12499931E+03</rscale>
<asrwt>0</asrwt>
<pdfrwt beam="2">  1        2 0.15687260E+00 0.13353732E+03</pdfrwt>
<pdfrwt beam="1">  1       -2 0.23153553E-02 0.13353732E+03</pdfrwt>
<totfact> 0.15219371E+04</totfact>
</mgrwt>
</event>
<event>
 8    1  0.1224355E-005  0.1460808E+03  0.7546771E-02  0.1214700E+00
         -2   -1    0    0    0  501 -0.00000000000E+00  0.00000000000E+00  0.23376319963E+02  0.23376319963E+02  0.00000000000E+00 0.  1.
          2   -1    0    0  501    0  0.00000000000E+00 -0.00000000000E+00 -0.78501093064E+03  0.78501093064E+03  0.00000000000E+00 0. -1.
         23    2    1    2    0    0 -0.45985054364E+02 -0.60007060310E+02 -0.26642599757E+03  0.29208194553E+03  0.92809364882E+02 0.  0.
         23    2    1    2    0    0  0.45985054364E+02  0.60007060310E+02 -0.49520861311E+03  0.51630530508E+03  0.12499650012E+03 0.  0.
          5    1    4    4  502    0 -0.48165359261E+01  0.83438632544E+02 -0.36557945849E+03  0.37504084429E+03  0.47000000000E+01 0.  1.
         -5    1    4    4    0  502  0.50801590290E+02 -0.23431572234E+02 -0.12962915462E+03  0.14126446079E+03  0.47000000000E+01 0.  1.
        -11    1    3    3    0    0 -0.57156157699E+02 -0.64105041661E+01 -0.85426343394E+02  0.10298340193E+03  0.00000000000E+00 0.  1.
         11    1    3    3    0    0  0.11171103335E+02 -0.53596556143E+02 -0.18099965418E+03  0.18909854360E+03  0.00000000000E+00 0. -1.
<mgrwt>
<rscale>  0 0.13898631E+03</rscale>
<asrwt>0</asrwt>
<pdfrwt beam="2">  1        2 0.12077092E+00 0.14608079E+03</pdfrwt>
<pdfrwt beam="1">  1       -2 0.35963566E-02 0.14608079E+03</pdfrwt>
<totfact> 0.11283836E+04</totfact>
</mgrwt>
</event>
<event>
 8    1  0.1224355E-005  0.1525590E+03  0.7546771E-02  0.1204722E+00
         -4   -1    0    0    0  501 -0.00000000000E+00  0.00000000000E+00  0.10315452090E+03  0.10315452090E+03  0.00000000000E+00 0.  1.
          4   -1    0    0  501    0  0.00000000000E+00 -0.00000000000E+00 -0.19594231425E+03  0.19594231425E+03  0.00000000000E+00 0. -1.
         23    2    1    2    0    0 -0.16635551746E+02  0.85863947168E+02 -0.59112606759E+02  0.14286542113E+03  0.96264579529E+02 0.  0.
         23    2    1    2    0    0  0.16635551746E+02 -0.85863947168E+02 -0.33675186594E+02  0.15623141401E+03  0.12499951011E+03 0.  0.
          5    1    4    4  502    0 -0.48352283477E+02 -0.57689419763E+02 -0.39255885438E+02  0.85024273073E+02  0.47000000000E+01 0. -1.
         -5    1    4    4    0  502  0.64987835224E+02 -0.28174527404E+02  0.55806988431E+01  0.71207140942E+02  0.47000000000E+01 0. -1.
        -11    1    3    3    0    0  0.97399180579E+01  0.61171713887E+02  0.12006463149E+02  0.63095164165E+02  0.00000000000E+00 0.  1.
         11    1    3    3    0    0 -0.26375469804E+02  0.24692233281E+02 -0.71119069908E+02  0.79770256966E+02  0.00000000000E+00 0. -1.
<mgrwt>
<rscale>  0 0.14659401E+03</rscale>
<asrwt>0</asrwt>
<pdfrwt beam="2">  1        4 0.30144972E-01 0.15255896E+03</pdfrwt>
<pdfrwt beam="1">  1       -4 0.15869926E-01 0.15255896E+03</pdfrwt>
<totfact> 0.60931176E+02</totfact>
</mgrwt>
</event>
<event>
 8    1  0.1224355E-005  0.2898659E+03  0.7546771E-02  0.1092196E+00
         -2   -1    0    0    0  501 -0.00000000000E+00  0.00000000000E+00  0.10759037159E+03  0.10759037159E+03  0.00000000000E+00 0.  1.
          2   -1    0    0  501    0  0.00000000000E+00 -0.00000000000E+00 -0.79933929145E+03  0.79933929145E+03  0.00000000000E+00 0. -1.
         23    2    1    2    0    0 -0.10870312238E+03 -0.23786067190E+03 -0.22078094562E+03  0.35390791531E+03  0.90069520466E+02 0.  0.
         23    2    1    2    0    0  0.10870312238E+03  0.23786067190E+03 -0.47096797425E+03  0.55302174773E+03  0.12501260996E+03 0.  0.
          5    1    4    4  502    0  0.11220093998E+03  0.25125929577E+03 -0.44545018823E+03  0.52361077609E+03  0.47000000000E+01 0.  1.
         -5    1    4    4    0  502 -0.34978175987E+01 -0.13398623875E+02 -0.25517786018E+02  0.29410971642E+02  0.47000000000E+01 0.  1.
        -11    1    3    3    0    0 -0.15903493983E+02 -0.38186213850E+01  0.35040214550E+01  0.16726660053E+02  0.00000000000E+00 0.  1.
         11    1    3    3    0    0 -0.92799628396E+02 -0.23404205051E+03 -0.22428496707E+03  0.33718125525E+03  0.00000000000E+00 0. -1.
<mgrwt>
<rscale>  0 0.28649046E+03</rscale>
<asrwt>0</asrwt>
<pdfrwt beam="2">  1        2 0.12297527E+00 0.28986587E+03</pdfrwt>
<pdfrwt beam="1">  1       -2 0.16552365E-01 0.28986587E+03</pdfrwt>
<totfact> 0.10322909E+03</totfact>
</mgrwt>
</event>
<event>
 8    1  0.1224355E-005  0.1401555E+03  0.7546771E-02  0.1224161E+00
         -1   -1    0    0    0  501 -0.00000000000E+00  0.00000000000E+00  0.47763871560E+03  0.47763871560E+03  0.00000000000E+00 0.  1.
          1   -1    0    0  501    0  0.00000000000E+00 -0.00000000000E+00 -0.33091881566E+02  0.33091881566E+02  0.00000000000E+00 0. -1.
         23    2    1    2    0    0 -0.58997507710E+02  0.23171472565E+02  0.18668500309E+03  0.21724076949E+03  0.91239456882E+02 0.  0.
         23    2    1    2    0    0  0.58997507710E+02 -0.23171472565E+02  0.25786183095E+03  0.29348982768E+03  0.12500372809E+03 0.  0.
          5    1    4    4  502    0  0.38283102800E+02 -0.22029011578E+02  0.11061724847E+02  0.45774720837E+02  0.47000000000E+01 0. -1.
         -5    1    4    4    0  502  0.20714404910E+02 -0.11424609864E+01  0.24680010610E+03  0.24771510684E+03  0.47000000000E+01 0. -1.
        -11    1    3    3    0    0 -0.59716047082E+02  0.47264085594E+02  0.17414745768E+03  0.19007166302E+03  0.00000000000E+00 0.  1.
         11    1    3    3    0    0  0.71853937242E+00 -0.24092613029E+02  0.12537545409E+02  0.27169106468E+02  0.00000000000E+00 0. -1.
<mgrwt>
<rscale>  0 0.13224580E+03</rscale>
<asrwt>0</asrwt>
<pdfrwt beam="2">  1        1 0.50910591E-02 0.14015547E+03</pdfrwt>
<pdfrwt beam="1">  1       -1 0.73482874E-01 0.14015547E+03</pdfrwt>
<totfact> 0.30451478E+03</totfact>
</mgrwt>
</event>
<event>
 8    1  0.1224355E-005  0.1549181E+03  0.7546771E-02  0.1200625E+00
         -1   -1    0    0    0  501 -0.00000000000E+00  0.00000000000E+00  0.17966124534E+03  0.17966124534E+03  0.00000000000E+00 0.  1.
          1   -1    0    0  501    0  0.00000000000E+00 -0.00000000000E+00 -0.12989158641E+03  0.12989158641E+03  0.00000000000E+00 0. -1.
         23    2    1    2    0    0  0.99015511132E+02 -0.93962161527E+01  0.71037382018E+02  0.15318167696E+03  0.92336104469E+02 0.  0.
         23    2    1    2    0    0 -0.99015511132E+02  0.93962161527E+01 -0.21267723088E+02  0.15637115480E+03  0.11877399414E+03 0.  0.
          5    1    4    4  502    0  0.17093065649E+01  0.46987751811E+02 -0.83446897826E+01  0.47984314070E+02  0.47000000000E+01 0. -1.
         -5    1    4    4    0  502 -0.10072481770E+03 -0.37591535658E+02 -0.12923033306E+02  0.10838684073E+03  0.47000000000E+01 0.  1.
        -11    1    3    3    0    0 -0.16103841853E+02  0.44624433774E+01 -0.88867849210E+00  0.16734302280E+02  0.00000000000E+00 0.  1.
         11    1    3    3    0    0  0.11511935299E+03 -0.13858659530E+02  0.71926060510E+02  0.13644737468E+03  0.00000000000E+00 0. -1.
<mgrwt>
<rscale>  0 0.14987628E+03</rscale>
<asrwt>0</asrwt>
<pdfrwt beam="2">  1        1 0.19983321E-01 0.15491811E+03</pdfrwt>
<pdfrwt beam="1">  1       -1 0.27640192E-01 0.15491811E+03</pdfrwt>
<totfact> 0.29219155E+03</totfact>
</mgrwt>
</event>
<event>
 8    1  0.1224355E-005  0.2809506E+03  0.7546771E-02  0.1096938E+00
          2   -1    0    0  501    0  0.00000000000E+00  0.00000000000E+00  0.10158493416E+04  0.10158493416E+04  0.00000000000E+00 0.  1.
         -2   -1    0    0    0  501 -0.00000000000E+00 -0.00000000000E+00 -0.84153561363E+02  0.84153561363E+02  0.00000000000E+00 0. -1.
         23    2    1    2    0    0  0.25117844063E+03  0.14880324276E+02  0.26758057157E+03  0.37890494815E+03  0.93046033563E+02 0.  0.
         23    2    1    2    0    0 -0.25117844063E+03 -0.14880324276E+02  0.66411520865E+03  0.72109795479E+03  0.12498486692E+03 0.  0.
          5    1    4    4  502    0 -0.26288463894E+03 -0.24794160034E+02  0.61150499191E+03  0.66609573553E+03  0.47000000000E+01 0.  1.
         -5    1    4    4    0  502  0.11706198311E+02  0.99138357587E+01  0.52610216741E+02  0.55002219264E+02  0.47000000000E+01 0.  1.
        -11    1    3    3    0    0  0.90768976063E+02 -0.27170906501E+02  0.14279305928E+03  0.17136838376E+03  0.00000000000E+00 0.  1.
         11    1    3    3    0    0  0.16040946457E+03  0.42051230777E+02  0.12478751229E+03  0.20753656438E+03  0.00000000000E+00 0. -1.
<mgrwt>
<rscale>  0 0.27772574E+03</rscale>
<asrwt>0</asrwt>
<pdfrwt beam="1">  1        2 0.15628451E+00 0.28095062E+03</pdfrwt>
<pdfrwt beam="2">  1       -2 0.12946702E-01 0.28095062E+03</pdfrwt>
<totfact> 0.11222747E+03</totfact>
</mgrwt>
</event>
<event>
 8    1  0.1224355E-005  0.1319504E+03  0.7546771E-02  0.1238058E+00
         -3   -1    0    0    0  501 -0.00000000000E+00  0.00000000000E+00  0.65388456776E+02  0.65388456776E+02  0.00000000000E+00 0.  1.
          3   -1    0    0  501    0  0.00000000000E+00 -0.00000000000E+00 -0.21616399797E+03  0.21616399797E+03  0.00000000000E+00 0. -1.
         23    2    1    2    0    0 -0.30383669058E+02 -0.29365186856E+02 -0.34744545509E+02  0.10584217011E+03  0.90608498428E+02 0.  0.
         23    2    1    2    0    0  0.30383669058E+02  0.29365186856E+02 -0.11603099569E+03  0.17571028464E+03  0.12500172248E+03 0.  0.
          5    1    4    4  502    0  0.24722068452E+02  0.49093289998E+01 -0.13901033993E+03  0.14135503807E+03  0.47000000000E+01 0. -1.
         -5    1    4    4    0  502  0.56616006062E+01  0.24455857856E+02  0.22979344242E+02  0.34355246567E+02  0.47000000000E+01 0. -1.
        -11    1    3    3    0    0 -0.30491355699E+02 -0.60865191487E+02 -0.28109454513E+02  0.73650768768E+02  0.00000000000E+00 0. -1.
         11    1    3    3    0    0  0.10768664141E+00  0.31500004630E+02 -0.66350909967E+01  0.32191401347E+02  0.00000000000E+00 0.  1.
<mgrwt>
<rscale>  0 0.12310707E+03</rscale>
<asrwt>0</asrwt>
<pdfrwt beam="2">  1        3 0.33256000E-01 0.13195042E+03</pdfrwt>
<pdfrwt beam="1">  1       -3 0.10059763E-01 0.13195042E+03</pdfrwt>
<totfact> 0.14787602E+03</totfact>
</mgrwt>
</event>
<event>
 8    1  0.1224355E-005  0.1315397E+03  0.7546771E-02  0.1241334E+00
         -1   -1    0    0    0  501 -0.00000000000E+00  0.00000000000E+00  0.66990240312E+02  0.66990240312E+02  0.00000000000E+00 0.  1.
          1   -1    0    0  501    0  0.00000000000E+00 -0.00000000000E+00 -0.28125426880E+03  0.28125426880E+03  0.00000000000E+00 0. -1.
         23    2    1    2    0    0 -0.40941172657E+02 -0.80693838273E+00  0.27742771700E+01  0.94456566764E+02  0.85073589456E+02 0.  0.
         23    2    1    2    0    0  0.40941172657E+02  0.80693838273E+00 -0.21703830566E+03  0.25378794235E+03  0.12500345112E+03 0.  0.
          5    1    4    4  502    0  0.20093916097E+02  0.75891902039E+01 -0.22784156557E+03  0.22890004428E+03  0.47000000000E+01 0. -1.
         -5    1    4    4    0  502  0.20847256560E+02 -0.67822518211E+01  0.10803259905E+02  0.24887898071E+02  0.47000000000E+01 0. -1.
        -11    1    3    3    0    0  0.18988248840E+02 -0.22991818913E+02 -0.44359495920E+01  0.30147221758E+02  0.00000000000E+00 0. -1.
         11    1    3    3    0    0 -0.59929421497E+02  0.22184880531E+02  0.72102267619E+01  0.64309345006E+02  0.00000000000E+00 0.  1.
<mgrwt>
<rscale>  0 0.12107482E+03</rscale>
<asrwt>0</asrwt>
<pdfrwt beam="2">  1        1 0.43269887E-01 0.13153970E+03</pdfrwt>
<pdfrwt beam="1">  1       -1 0.10306191E-01 0.13153970E+03</pdfrwt>
<totfact> 0.52848056E+03</totfact>
</mgrwt>
</event>
<event>
 8    1  0.1224355E-005  0.1316352E+03  0.7546771E-02  0.1240704E+00
          2   -1    0    0  501    0  0.00000000000E+00  0.00000000000E+00  0.11219008953E+04  0.11219008953E+04  0.00000000000E+00 0. -1.
         -2   -1    0    0    0  501 -0.00000000000E+00 -0.00000000000E+00 -0.13024244401E+02  0.13024244401E+02  0.00000000000E+00 0.  1.
         23    2    1    2    0    0  0.11233593696E+02  0.39698684557E+02  0.28377278630E+03  0.29938686371E+03  0.86042551903E+02 0.  0.
         23    2    1    2    0    0 -0.11233593696E+02 -0.39698684557E+02  0.82510386455E+03  0.83553827594E+03  0.12500257628E+03 0.  0.
          5    1    4    4  502    0  0.34296280152E+02 -0.61943144425E+02  0.31456411668E+03  0.32246838834E+03  0.47000000000E+01 0.  1.
         -5    1    4    4    0  502 -0.45529873847E+02  0.22244459868E+02  0.51053974787E+03  0.51306988760E+03  0.47000000000E+01 0.  1.
        -11    1    3    3    0    0  0.40679416739E+02  0.16472510022E+02  0.72021762974E+02  0.84340339544E+02  0.00000000000E+00 0.  1.
         11    1    3    3    0    0 -0.29445823043E+02  0.23226174535E+02  0.21175102332E+03  0.21504652417E+03  0.00000000000E+00 0. -1.
<mgrwt>
<rscale>  0 0.12146243E+03</rscale>
<asrwt>0</asrwt>
<pdfrwt beam="1">  1        2 0.17260006E+00 0.13163519E+03</pdfrwt>
<pdfrwt beam="2">  1       -2 0.20037308E-02 0.13163519E+03</pdfrwt>
<totfact> 0.16372345E+04</totfact>
</mgrwt>
</event>
<event>
 8    1  0.1720170E-005  0.1527354E+03  0.7546771E-02  0.1213303E+00
          1   -1    0    0  501    0  0.00000000000E+00  0.00000000000E+00  0.81315394121E+03  0.81315394121E+03  0.00000000000E+00 0. -1.
         -1   -1    0    0    0  501 -0.00000000000E+00 -0.00000000000E+00 -0.22607469714E+02  0.22607469714E+02  0.00000000000E+00 0.  1.
         23    2    1    2    0    0  0.27058682650E+02 -0.83493599934E+02  0.21856376990E+03  0.24373749977E+03  0.62725542987E+02 0.  0.
         23    2    1    2    0    0 -0.27058682650E+02  0.83493599934E+02  0.57198270159E+03  0.59202391116E+03  0.12499898768E+03 0.  0.
          5    1    4    4  502    0  0.17930412535E+02  0.10190970771E+03  0.40600886700E+03  0.41901357770E+03  0.47000000000E+01 0. -1.
         -5    1    4    4    0  502 -0.44989095185E+02 -0.18416107772E+02  0.16597383459E+03  0.17301033345E+03  0.47000000000E+01 0. -1.
        -11    1    3    3    0    0 -0.19232588609E+02 -0.27632847497E+02  0.50617205432E+02  0.60791185308E+02  0.00000000000E+00 0.  1.
         11    1    3    3    0    0  0.46291271258E+02 -0.55860752437E+02  0.16794656447E+03  0.18294631446E+03  0.00000000000E+00 0. -1.
<mgrwt>
<rscale>  0 0.14001960E+03</rscale>
<asrwt>0</asrwt>
<pdfrwt beam="1">  1        1 0.12510058E+00 0.15273539E+03</pdfrwt>
<pdfrwt beam="2">  1       -1 0.34780729E-02 0.15273539E+03</pdfrwt>
<totfact> 0.66222309E+03</totfact>
</mgrwt>
</event>
<event>
 8    1  0.1224355E-005  0.1390482E+03  0.7546771E-02  0.1225759E+00
         -2   -1    0    0    0  501 -0.00000000000E+00  0.00000000000E+00  0.73935109540E+02  0.73935109540E+02  0.00000000000E+00 0. -1.
          2   -1    0    0  501    0  0.00000000000E+00 -0.00000000000E+00 -0.21800080524E+03  0.21800080524E+03  0.00000000000E+00 0.  1.
         23    2    1    2    0    0 -0.60071153373E+01  0.60591858157E+02 -0.35848846189E+02  0.11573916006E+03  0.91667631628E+02 0.  0.
         23    2    1    2    0    0  0.60071153373E+01 -0.60591858157E+02 -0.10821684951E+03  0.17619675472E+03  0.12500780434E+03 0.  0.
          5    1    4    4  502    0  0.60193049388E+02 -0.15235575944E+02 -0.76391498501E+02  0.98554944129E+02  0.47000000000E+01 0. -1.
         -5    1    4    4    0  502 -0.54185934051E+02 -0.45356282213E+02 -0.31825351010E+02  0.77641810593E+02  0.47000000000E+01 0. -1.
        -11    1    3    3    0    0 -0.44374018231E+02  0.55404236155E+02 -0.27557570169E+02  0.76145272680E+02  0.00000000000E+00 0.  1.
         11    1    3    3    0    0  0.38366902894E+02  0.51876220026E+01 -0.82912760201E+01  0.39593887379E+02  0.00000000000E+00 0. -1.
<mgrwt>
<rscale>  0 0.13115020E+03</rscale>
<asrwt>0</asrwt>
<pdfrwt beam="2">  1        2 0.33538586E-01 0.13904823E+03</pdfrwt>
<pdfrwt beam="1">  1       -2 0.11374632E-01 0.13904823E+03</pdfrwt>
<totfact> 0.79375847E+03</totfact>
</mgrwt>
</event>
<event>
 7    1  0.1224355E-005  0.2630446E+03  0.7546771E-02  0.1136460E+00
         -2   -1    0    0    0  501 -0.00000000000E+00  0.00000000000E+00  0.78956831905E+02  0.78956831905E+02  0.00000000000E+00 0.  1.
          2   -1    0    0  501    0  0.00000000000E+00 -0.00000000000E+00 -0.51014779310E+03  0.51014779310E+03  0.00000000000E+00 0. -1.
         23    2    1    2    0    0 -0.18517453143E+02  0.77144102870E+02 -0.62187777871E+02  0.13594263155E+03  0.91208391483E+02 0.  0.
          5    1    1    2  502    0  0.10167531100E+03 -0.53162302865E+02 -0.34443557975E+03  0.36307307517E+03  0.47000000000E+01 0. -1.
         -5    1    1    2    0  502 -0.83157857854E+02 -0.23981800005E+02 -0.24567603578E+02  0.90088918297E+02  0.47000000000E+01 0.  1.
        -11    1    3    3    0    0  0.34317008485E+02  0.14779367890E+02 -0.90268883872E+01  0.38439192247E+02  0.00000000000E+00 0. -1.
         11    1    3    3    0    0 -0.52834461628E+02  0.62364734980E+02 -0.53160889484E+02  0.97503439300E+02  0.00000000000E+00 0.  1.
<mgrwt>
<rscale>  0 0.21657819E+03</rscale>
<asrwt>0</asrwt>
<pdfrwt beam="2">  1        2 0.78484276E-01 0.26304456E+03</pdfrwt>
<pdfrwt beam="1">  1       -2 0.12147205E-01 0.26304456E+03</pdfrwt>
<totfact> 0.29366169E+03</totfact>
</mgrwt>
</event>
<event>
 8    1  0.1224355E-005  0.1384378E+03  0.7546771E-02  0.1227428E+00
         -2   -1    0    0    0  501 -0.00000000000E+00  0.00000000000E+00  0.32764840461E+03  0.32764840461E+03  0.00000000000E+00 0.  1.
          2   -1    0    0  501    0  0.00000000000E+00 -0.00000000000E+00 -0.47208245285E+02  0.47208245285E+02  0.00000000000E+00 0. -1.
         23    2    1    2    0    0  0.41065452724E+02  0.43065246964E+02  0.96306060892E+02  0.14448653518E+03  0.89780368571E+02 0.  0.
         23    2    1    2    0    0 -0.41065452724E+02 -0.43065246964E+02  0.18413409843E+03  0.23037011471E+03  0.12499614652E+03 0.  0.
          5    1    4    4  502    0 -0.21202567094E+02 -0.83941229884E+02  0.15030503997E+03  0.17352052895E+03  0.47000000000E+01 0.  1.
         -5    1    4    4    0  502 -0.19862885630E+02  0.40875982920E+02  0.33829058459E+02  0.56849585763E+02  0.47000000000E+01 0.  1.
        -11    1    3    3    0    0  0.49568338627E+02 -0.11552010290E+01  0.84436893350E+02  0.97918045540E+02  0.00000000000E+00 0.  1.
         11    1    3    3    0    0 -0.85028859033E+01  0.44220447993E+02  0.11869167542E+02  0.46568489642E+02  0.00000000000E+00 0. -1.
<mgrwt>
<rscale>  0 0.13001854E+03</rscale>
<asrwt>0</asrwt>
<pdfrwt beam="2">  1        2 0.72628072E-02 0.13843780E+03</pdfrwt>
<pdfrwt beam="1">  1       -2 0.50407445E-01 0.13843780E+03</pdfrwt>
<totfact> 0.34821803E+03</totfact>
</mgrwt>
</event>
<event>
 8    1  0.1224355E-005  0.1355541E+03  0.7546771E-02  0.1231773E+00
          3   -1    0    0  501    0  0.00000000000E+00  0.00000000000E+00  0.20125629992E+03  0.20125629992E+03  0.00000000000E+00 0.  1.
         -3   -1    0    0    0  501 -0.00000000000E+00 -0.00000000000E+00 -0.75418819323E+02  0.75418819323E+02  0.00000000000E+00 0. -1.
         23    2    1    2    0    0 -0.42777683066E+02  0.30350057875E+02  0.25250052606E+02  0.10787719970E+03  0.90823283786E+02 0.  0.
         23    2    1    2    0    0  0.42777683066E+02 -0.30350057875E+02  0.10058742799E+03  0.16879791954E+03  0.12499540307E+03 0.  0.
          5    1    4    4  502    0  0.82585727644E+02 -0.33776876440E+02  0.90809485566E+02  0.12739596721E+03  0.47000000000E+01 0. -1.
         -5    1    4    4    0  502 -0.39808044578E+02  0.34268185645E+01  0.97779424221E+01  0.41401952328E+02  0.47000000000E+01 0. -1.
        -11    1    3    3    0    0  0.20146349607E+02  0.19172330714E+02  0.33386292749E+02  0.43452252082E+02  0.00000000000E+00 0.  1.
         11    1    3    3    0    0 -0.62924032673E+02  0.11177727161E+02 -0.81362401435E+01  0.64424947621E+02  0.00000000000E+00 0. -1.
<mgrwt>
<rscale>  0 0.12713296E+03</rscale>
<asrwt>0</asrwt>
<pdfrwt beam="1">  1        3 0.30962507E-01 0.13555407E+03</pdfrwt>
<pdfrwt beam="2">  1       -3 0.11602895E-01 0.13555407E+03</pdfrwt>
<totfact> 0.13387325E+03</totfact>
</mgrwt>
</event>
<event>
 8    1  0.1224355E-005  0.1372147E+03  0.7546771E-02  0.1229150E+00
         -1   -1    0    0    0  501 -0.00000000000E+00  0.00000000000E+00  0.21397778931E+02  0.21397778931E+02  0.00000000000E+00 0.  1.
          1   -1    0    0  501    0  0.00000000000E+00 -0.00000000000E+00 -0.77431078041E+03  0.77431078041E+03  0.00000000000E+00 0. -1.
         23    2    1    2    0    0  0.48610169764E+01  0.56372160910E+02 -0.20805845961E+03  0.23384171031E+03  0.90510622883E+02 0.  0.
         23    2    1    2    0    0 -0.48610169764E+01 -0.56372160910E+02 -0.54485454187E+03  0.56186684903E+03  0.12500573679E+03 0.  0.
          5    1    4    4  502    0 -0.55020656680E+02 -0.38766474515E+02 -0.42948187651E+03  0.43474922020E+03  0.47000000000E+01 0. -1.
         -5    1    4    4    0  502  0.50159639703E+02 -0.17605686396E+02 -0.11537266535E+03  0.12711762883E+03  0.47000000000E+01 0. -1.
        -11    1    3    3    0    0 -0.17343475696E+02 -0.20419881500E+02 -0.53752155457E+02  0.60058820551E+02  0.00000000000E+00 0.  1.
         11    1    3    3    0    0  0.22204492672E+02  0.76792042410E+02 -0.15430630415E+03  0.17378288976E+03  0.00000000000E+00 0. -1.
<mgrwt>
<rscale>  0 0.12886450E+03</rscale>
<asrwt>0</asrwt>
<pdfrwt beam="2">  1        1 0.11912471E+00 0.13721474E+03</pdfrwt>
<pdfrwt beam="1">  1       -1 0.32919668E-02 0.13721474E+03</pdfrwt>
<totfact> 0.76829799E+03</totfact>
</mgrwt>
</event>
<event>
 8    1  0.1224355E-005  0.1335578E+03  0.7546771E-02  0.1234788E+00
          1   -1    0    0  501    0  0.00000000000E+00  0.00000000000E+00  0.12314671348E+03  0.12314671348E+03  0.00000000000E+00 0. -1.
         -1   -1    0    0    0  501 -0.00000000000E+00 -0.00000000000E+00 -0.11883693826E+03  0.11883693826E+03  0.00000000000E+00 0.  1.
         23    2    1    2    0    0 -0.31787453099E+02 -0.34672290768E+02 -0.23135834213E+02  0.10563502045E+03  0.91710854310E+02 0.  0.
         23    2    1    2    0    0  0.31787453099E+02  0.34672290768E+02  0.27445609434E+02  0.13634863129E+03  0.12500031142E+03 0.  0.
          5    1    4    4  502    0 -0.19828401946E+02 -0.34956092482E+02 -0.10212159029E+02  0.41730949155E+02  0.47000000000E+01 0.  1.
         -5    1    4    4    0  502  0.51615855045E+02  0.69628383250E+02  0.37657768463E+02  0.94617682130E+02  0.47000000000E+01 0.  1.
        -11    1    3    3    0    0 -0.85645370169E+01  0.97730004158E+01  0.29926553065E+02  0.32626084806E+02  0.00000000000E+00 0. -1.
         11    1    3    3    0    0 -0.23222916082E+02 -0.44445291183E+02 -0.53062387278E+02  0.73008935640E+02  0.00000000000E+00 0.  1.
<mgrwt>
<rscale>  0 0.12518012E+03</rscale>
<asrwt>0</asrwt>
<pdfrwt beam="1">  1        1 0.18945648E-01 0.13355781E+03</pdfrwt>
<pdfrwt beam="2">  1       -1 0.18282606E-01 0.13355781E+03</pdfrwt>
<totfact> 0.60770963E+03</totfact>
</mgrwt>
</event>
<event>
 7    1  0.1224355E-005  0.1750665E+03  0.7546771E-02  0.1188397E+00
          2   -1    0    0  501    0  0.00000000000E+00  0.00000000000E+00  0.46214448324E+03  0.46214448324E+03  0.00000000000E+00 0. -1.
         -2   -1    0    0    0  501 -0.00000000000E+00 -0.00000000000E+00 -0.61359474101E+02  0.61359474101E+02  0.00000000000E+00 0.  1.
         23    2    1    2    0    0  0.54528819947E+02 -0.61721821078E+02  0.52500976809E+02  0.13369623770E+03  0.91298170885E+02 0.  0.
          5    1    1    2  502    0  0.18833160200E+02  0.40347648479E+02  0.29039965103E+03  0.29383101943E+03  0.47000000000E+01 0. -1.
         -5    1    1    2    0  502 -0.73361980147E+02  0.21374172599E+02  0.57884381303E+02  0.95976700215E+02  0.47000000000E+01 0.  1.
        -11    1    3    3    0    0 -0.14749855551E+02  0.13392150700E+02  0.14640406585E+02  0.24723459388E+02  0.00000000000E+00 0. -1.
         11    1    3    3    0    0  0.69278675498E+02 -0.75113971778E+02  0.37860570224E+02  0.10897277831E+03  0.00000000000E+00 0.  1.
<mgrwt>
<rscale>  0 0.16026561E+03</rscale>
<asrwt>0</asrwt>
<pdfrwt beam="1">  1        2 0.71099149E-01 0.17506653E+03</pdfrwt>
<pdfrwt beam="2">  1       -2 0.94399194E-02 0.17506653E+03</pdfrwt>
<totfact> 0.48310940E+03</totfact>
</mgrwt>
</event>
<event>
 8    1  0.1224355E-005  0.1342360E+03  0.7546771E-02  0.1234182E+00
          1   -1    0    0  501    0  0.00000000000E+00  0.00000000000E+00  0.28653820657E+03  0.28653820657E+03  0.00000000000E+00 0. -1.
         -1   -1    0    0    0  501 -0.00000000000E+00 -0.00000000000E+00 -0.49101322404E+02  0.49101322404E+02  0.00000000000E+00 0.  1.
         23    2    1    2    0    0  0.10515421093E+00 -0.48934083551E+02  0.10997693866E+03  0.15053050719E+03  0.90387781070E+02 0.  0.
         23    2    1    2    0    0 -0.10515421093E+00  0.48934083551E+02  0.12745994550E+03  0.18510902178E+03  0.12499902659E+03 0.  0.
          5    1    4    4  502    0 -0.57624102805E+02  0.23296707083E+01  0.39565177273E+02  0.70096061532E+02  0.47000000000E+01 0.  1.
         -5    1    4    4    0  502  0.57518948594E+02  0.46604412843E+02  0.87894768229E+02  0.11501296025E+03  0.47000000000E+01 0.  1.
        -11    1    3    3    0    0 -0.24851103137E+02 -0.64511064186E+02  0.55642754696E+02  0.88743286392E+02  0.00000000000E+00 0. -1.
         11    1    3    3    0    0  0.24956257348E+02  0.15576980634E+02  0.54334183968E+02  0.61787220799E+02  0.00000000000E+00 0.  1.
<mgrwt>
<rscale>  0 0.12556916E+03</rscale>
<asrwt>0</asrwt>
<pdfrwt beam="1">  1        1 0.44082800E-01 0.13423603E+03</pdfrwt>
<pdfrwt beam="2">  1       -1 0.75540498E-02 0.13423603E+03</pdfrwt>
<totfact> 0.82806344E+03</totfact>
</mgrwt>
</event>
<event>
 8    1  0.1224355E-005  0.2806573E+03  0.7546771E-02  0.1097168E+00
          2   -1    0    0  501    0  0.00000000000E+00  0.00000000000E+00  0.53833221906E+03  0.53833221906E+03  0.00000000000E+00 0. -1.
         -2   -1    0    0    0  501 -0.00000000000E+00 -0.00000000000E+00 -0.13955591823E+03  0.13955591823E+03  0.00000000000E+00 0.  1.
         23    2    1    2    0    0 -0.62023618416E+02  0.24351426851E+03  0.19127117049E+03  0.32885100902E+03  0.91718031273E+02 0.  0.
         23    2    1    2    0    0  0.62023618416E+02 -0.24351426851E+03  0.20750513034E+03  0.34903712828E+03  0.12498963793E+03 0.  0.
          5    1    4    4  502    0 -0.12781220832E+02 -0.16563390906E+03  0.88558462065E+02  0.18831527458E+03  0.47000000000E+01 0. -1.
         -5    1    4    4    0  502  0.74804839248E+02 -0.77880359454E+02  0.11894666827E+03  0.16072185370E+03  0.47000000000E+01 0. -1.
        -11    1    3    3    0    0 -0.18116332962E+02  0.61881828730E+02  0.44765222566E+01  0.64634367781E+02  0.00000000000E+00 0.  1.
         11    1    3    3    0    0 -0.43907285454E+02  0.18163243978E+03  0.18679464824E+03  0.26421664124E+03  0.00000000000E+00 0. -1.
<mgrwt>
<rscale>  0 0.27730954E+03</rscale>
<asrwt>0</asrwt>
<pdfrwt beam="1">  1        2 0.82820341E-01 0.28065733E+03</pdfrwt>
<pdfrwt beam="2">  1       -2 0.21470141E-01 0.28065733E+03</pdfrwt>
<totfact> 0.10653460E+03</totfact>
</mgrwt>
</event>
<event>
 8    1  0.1224355E-005  0.1310608E+03  0.7546771E-02  0.1240030E+00
          1   -1    0    0  501    0  0.00000000000E+00  0.00000000000E+00  0.39777686062E+02  0.39777686062E+02  0.00000000000E+00 0. -1.
         -1   -1    0    0    0  501 -0.00000000000E+00 -0.00000000000E+00 -0.35156709538E+03  0.35156709538E+03  0.00000000000E+00 0.  1.
         23    2    1    2    0    0  0.95829777991E+01  0.38211764812E+02 -0.18300620139E+03  0.20760028305E+03  0.89747620270E+02 0.  0.
         23    2    1    2    0    0 -0.95829777991E+01 -0.38211764812E+02 -0.12878320793E+03  0.18374449839E+03  0.12499981444E+03 0.  0.
          5    1    4    4  502    0  0.59335805698E+00  0.33714794017E+02  0.19596600381E+01  0.34102341223E+02  0.47000000000E+01 0. -1.
         -5    1    4    4    0  502 -0.10176335856E+02 -0.71926558829E+02 -0.13074286797E+03  0.14964215716E+03  0.47000000000E+01 0. -1.
        -11    1    3    3    0    0  0.20551256494E+02  0.54929083824E+02 -0.17738801916E+03  0.18683165613E+03  0.00000000000E+00 0.  1.
         11    1    3    3    0    0 -0.10968278695E+02 -0.16717319013E+02 -0.56181822282E+01  0.20768626918E+02  0.00000000000E+00 0. -1.
<mgrwt>
<rscale>  0 0.12187813E+03</rscale>
<asrwt>0</asrwt>
<pdfrwt beam="1">  1        1 0.61196442E-02 0.13106077E+03</pdfrwt>
<pdfrwt beam="2">  1       -1 0.54087244E-01 0.13106077E+03</pdfrwt>
<totfact> 0.42565526E+03</totfact>
</mgrwt>
</event>
<event>
 8    1  0.1224355E-005  0.1901071E+03  0.7546771E-02  0.1163030E+00
         -2   -1    0    0    0  501 -0.00000000000E+00  0.00000000000E+00  0.17734307380E+03  0.17734307380E+03  0.00000000000E+00 0.  1.
          2   -1    0    0  501    0  0.00000000000E+00 -0.00000000000E+00 -0.27064527245E+03  0.27064527245E+03  0.00000000000E+00 0. -1.
         23    2    1    2    0    0 -0.76481779003E+02 -0.12108752671E+03  0.82126560571E+02  0.18930715053E+03  0.92632465397E+02 0.  0.
         23    2    1    2    0    0  0.76481779003E+02  0.12108752671E+03 -0.17542875922E+03  0.25868119572E+03  0.12501623820E+03 0.  0.
          5    1    4    4  502    0 -0.33410033820E+02  0.45507407898E+02 -0.52050926418E+02  0.76932070519E+02  0.47000000000E+01 0. -1.
         -5    1    4    4    0  502  0.10989181282E+03  0.75580118808E+02 -0.12337783281E+03  0.18174912520E+03  0.47000000000E+01 0. -1.
        -11    1    3    3    0    0 -0.56320550619E+02 -0.49632720372E+02 -0.45164404700E+01  0.75205116768E+02  0.00000000000E+00 0.  1.
         11    1    3    3    0    0 -0.20161228384E+02 -0.71454806334E+02  0.86643001041E+02  0.11410203376E+03  0.00000000000E+00 0. -1.
<mgrwt>
<rscale>  0 0.18502110E+03</rscale>
<asrwt>0</asrwt>
<pdfrwt beam="2">  1        2 0.41637734E-01 0.19010711E+03</pdfrwt>
<pdfrwt beam="1">  1       -2 0.27283550E-01 0.19010711E+03</pdfrwt>
<totfact> 0.14734093E+03</totfact>
</mgrwt>
</event>
<event>
 8    1  0.1224355E-005  0.1346749E+03  0.7546771E-02  0.1232566E+00
         -2   -1    0    0    0  501 -0.00000000000E+00  0.00000000000E+00  0.29997106031E+02  0.29997106031E+02  0.00000000000E+00 0.  1.
          2   -1    0    0  501    0  0.00000000000E+00 -0.00000000000E+00 -0.57050237779E+03  0.57050237779E+03  0.00000000000E+00 0. -1.
         23    2    1    2    0    0  0.26771477614E+02  0.42316760797E+02 -0.12327306453E+03  0.16207042664E+03  0.92537314072E+02 0.  0.
         23    2    1    2    0    0 -0.26771477614E+02 -0.42316760797E+02 -0.41723220724E+03  0.43842905718E+03  0.12501961115E+03 0.  0.
          5    1    4    4  502    0  0.26387906807E+01 -0.70479659649E+02 -0.12725269503E+03  0.14556676830E+03  0.47000000000E+01 0.  1.
         -5    1    4    4    0  502 -0.29410268295E+02  0.28162898852E+02 -0.28997951220E+03  0.29286228888E+03  0.47000000000E+01 0.  1.
        -11    1    3    3    0    0  0.31645543330E+02 -0.43612278720E+01 -0.19704288035E+01  0.32005363783E+02  0.00000000000E+00 0.  1.
         11    1    3    3    0    0 -0.48740657161E+01  0.46677988669E+02 -0.12130263572E+03  0.13006506286E+03  0.00000000000E+00 0. -1.
<mgrwt>
<rscale>  0 0.12661531E+03</rscale>
<asrwt>0</asrwt>
<pdfrwt beam="2">  1        2 0.87769587E-01 0.13467488E+03</pdfrwt>
<pdfrwt beam="1">  1       -2 0.46149399E-02 0.13467488E+03</pdfrwt>
<totfact> 0.11269128E+04</totfact>
</mgrwt>
</event>
<event>
 8    1  0.1224355E-005  0.2668039E+03  0.7546771E-02  0.1105232E+00
         -2   -1    0    0    0  501 -0.00000000000E+00  0.00000000000E+00  0.22568950222E+03  0.22568950222E+03  0.00000000000E+00 0.  1.
          2   -1    0    0  501    0  0.00000000000E+00 -0.00000000000E+00 -0.85421315175E+03  0.85421315175E+03  0.00000000000E+00 0. -1.
         23    2    1    2    0    0  0.15533636485E+03 -0.17728890859E+03  0.12399499001E+03  0.28148633665E+03  0.91099159267E+02 0.  0.
         23    2    1    2    0    0 -0.15533636485E+03  0.17728890859E+03 -0.75251863953E+03  0.79841631732E+03  0.12499427811E+03 0.  0.
          5    1    4    4  502    0 -0.80136202639E+02  0.71338240620E+01 -0.23865467192E+03  0.25189451135E+03  0.47000000000E+01 0.  1.
         -5    1    4    4    0  502 -0.75200162215E+02  0.17015508452E+03 -0.51386396761E+03  0.54652180596E+03  0.47000000000E+01 0.  1.
        -11    1    3    3    0    0  0.12814225867E+03 -0.12083910903E+03  0.12945700430E+03  0.21859012944E+03  0.00000000000E+00 0.  1.
         11    1    3    3    0    0  0.27194106182E+02 -0.56449799557E+02 -0.54620142847E+01  0.62896207208E+02  0.00000000000E+00 0. -1.
<mgrwt>
<rscale>  0 0.26320707E+03</rscale>
<asrwt>0</asrwt>
<pdfrwt beam="2">  1        2 0.13141741E+00 0.26680388E+03</pdfrwt>
<pdfrwt beam="1">  1       -2 0.34721461E-01 0.26680388E+03</pdfrwt>
<totfact> 0.25638566E+02</totfact>
</mgrwt>
</event>
<event>
 8    1  0.1224355E-005  0.1337028E+03  0.7546771E-02  0.1234121E+00
          1   -1    0    0  501    0  0.00000000000E+00  0.00000000000E+00  0.51747586120E+03  0.51747586120E+03  0.00000000000E+00 0. -1.
         -1   -1    0    0    0  501 -0.00000000000E+00 -0.00000000000E+00 -0.30607761865E+02  0.30607761865E+02  0.00000000000E+00 0.  1.
         23    2    1    2    0    0 -0.47303007327E+02  0.36384093070E+01  0.12738495644E+03  0.16454148183E+03  0.92715476554E+02 0.  0.
         23    2    1    2    0    0  0.47303007327E+02 -0.36384093070E+01  0.35948314290E+03  0.38354214124E+03  0.12500252617E+03 0.  0.
          5    1    4    4  502    0  0.40187451744E+02  0.57601450511E+02  0.16272756714E+03  0.17730005495E+03  0.47000000000E+01 0. -1.
         -5    1    4    4    0  502  0.71155555837E+01 -0.61239859818E+02  0.19675557576E+03  0.20624208629E+03  0.47000000000E+01 0. -1.
        -11    1    3    3    0    0  0.94016338175E+01  0.35695496158E+02  0.62589966312E+02  0.72664042327E+02  0.00000000000E+00 0.  1.
         11    1    3    3    0    0 -0.56704641145E+02 -0.32057086851E+02  0.64794990126E+02  0.91877439506E+02  0.00000000000E+00 0. -1.
<mgrwt>
<rscale>  0 0.12560849E+03</rscale>
<asrwt>0</asrwt>
<pdfrwt beam="1">  1        1 0.79611664E-01 0.13370282E+03</pdfrwt>
<pdfrwt beam="2">  1       -1 0.47088868E-02 0.13370282E+03</pdfrwt>
<totfact> 0.79369048E+03</totfact>
</mgrwt>
</event>
<event>
 8    1  0.1731452E-005  0.1962826E+03  0.7546771E-02  0.1157317E+00
         -2   -1    0    0    0  501 -0.00000000000E+00  0.00000000000E+00  0.22244388475E+02  0.22244388475E+02  0.00000000000E+00 0.  1.
          2   -1    0    0  501    0  0.00000000000E+00 -0.00000000000E+00 -0.15943623613E+04  0.15943623613E+04  0.00000000000E+00 0. -1.
         23    2    1    2    0    0 -0.69007477537E+02  0.13468264600E+03 -0.63860888827E+03  0.66268534086E+03  0.91810139545E+02 0.  0.
         23    2    1    2    0    0  0.69007477537E+02 -0.13468264600E+03 -0.93350908452E+03  0.95392140888E+03  0.12500158539E+03 0.  0.
          5    1    4    4  502    0  0.37179071023E+02 -0.10279395731E+03 -0.30949606793E+03  0.32826633553E+03  0.47000000000E+01 0. -1.
         -5    1    4    4    0  502  0.31828406514E+02 -0.31888688687E+02 -0.62401301659E+03  0.62565507335E+03  0.47000000000E+01 0. -1.
        -11    1    3    3    0    0 -0.54262680094E+02  0.19935815857E+02 -0.27896390667E+03  0.28489074472E+03  0.00000000000E+00 0. -1.
         11    1    3    3    0    0 -0.14744797444E+02  0.11474683014E+03 -0.35964498160E+03  0.37779459614E+03  0.00000000000E+00 0.  1.
<mgrwt>
<rscale>  0 0.19127459E+03</rscale>
<asrwt>0</asrwt>
<pdfrwt beam="2">  1        2 0.24528656E+00 0.19628256E+03</pdfrwt>
<pdfrwt beam="1">  1       -2 0.34222130E-02 0.19628256E+03</pdfrwt>
<totfact> 0.42085315E+03</totfact>
</mgrwt>
</event>
<event>
 8    1  0.1224355E-005  0.1693564E+03  0.7546771E-02  0.1185569E+00
          2   -1    0    0  501    0  0.00000000000E+00  0.00000000000E+00  0.56028806370E+03  0.56028806370E+03  0.00000000000E+00 0. -1.
         -2   -1    0    0    0  501 -0.00000000000E+00 -0.00000000000E+00 -0.52671657178E+02  0.52671657178E+02  0.00000000000E+00 0.  1.
         23    2    1    2    0    0  0.11351568611E+03  0.12955133791E+02  0.11298560502E+03  0.18352398265E+03  0.88665995630E+02 0.  0.
         23    2    1    2    0    0 -0.11351568611E+03 -0.12955133791E+02  0.39463080151E+03  0.42943573823E+03  0.12501174859E+03 0.  0.
          5    1    4    4  502    0  0.60490400323E+01 -0.32838579387E+02  0.29912036323E+02  0.45075304752E+02  0.47000000000E+01 0.  1.
         -5    1    4    4    0  502 -0.11956472615E+03  0.19883445596E+02  0.36471876518E+03  0.38436043348E+03  0.47000000000E+01 0.  1.
        -11    1    3    3    0    0  0.47378289667E+02 -0.28059129668E+02  0.84081483166E+02  0.10050727785E+03  0.00000000000E+00 0. -1.
         11    1    3    3    0    0  0.66137396447E+02  0.41014263458E+02  0.28904121852E+02  0.83016704800E+02  0.00000000000E+00 0.  1.
<mgrwt>
<rscale>  0 0.16280180E+03</rscale>
<asrwt>0</asrwt>
<pdfrwt beam="1">  1        2 0.86198159E-01 0.16935638E+03</pdfrwt>
<pdfrwt beam="2">  1       -2 0.81033323E-02 0.16935638E+03</pdfrwt>
<totfact> 0.49441315E+03</totfact>
</mgrwt>
</event>
<event>
 7    1  0.1224355E-005  0.2525221E+03  0.7546771E-02  0.1153293E+00
         -2   -1    0    0    0  501 -0.00000000000E+00  0.00000000000E+00  0.91468396087E+02  0.91468396087E+02  0.00000000000E+00 0.  1.
          2   -1    0    0  501    0  0.00000000000E+00 -0.00000000000E+00 -0.36061593979E+03  0.36061593979E+03  0.00000000000E+00 0. -1.
         23    2    1    2    0    0  0.18580407237E+02  0.77608205114E+01 -0.12801276217E+02  0.92249875769E+02  0.89110633700E+02 0.  0.
          5    1    1    2  502    0 -0.56031455848E+02 -0.11680133899E+03 -0.17864905359E+03  0.22072528443E+03  0.47000000000E+01 0. -1.
         -5    1    1    2    0  502  0.37451048612E+02  0.10904051848E+03 -0.77697213896E+02  0.13910917569E+03  0.47000000000E+01 0.  1.
        -11    1    3    3    0    0  0.54142100773E+02  0.81366215049E+01 -0.93268732147E+00  0.54758027642E+02  0.00000000000E+00 0.  1.
         11    1    3    3    0    0 -0.35561693536E+02 -0.37580099351E+00 -0.11868588896E+02  0.37491848126E+02  0.00000000000E+00 0. -1.
<mgrwt>
<rscale>  0 0.19584409E+03</rscale>
<asrwt>0</asrwt>
<pdfrwt beam="2">  1        2 0.55479376E-01 0.25252214E+03</pdfrwt>
<pdfrwt beam="1">  1       -2 0.14072061E-01 0.25252214E+03</pdfrwt>
<totfact> 0.33801620E+03</totfact>
</mgrwt>
</event>
<event>
 8    1  0.1224355E-005  0.1465776E+03  0.7546771E-02  0.1214134E+00
         -1   -1    0    0    0  501 -0.00000000000E+00  0.00000000000E+00  0.17663826870E+02  0.17663826870E+02  0.00000000000E+00 0.  1.
          1   -1    0    0  501    0  0.00000000000E+00 -0.00000000000E+00 -0.10794103171E+04  0.10794103171E+04  0.00000000000E+00 0. -1.
         23    2    1    2    0    0  0.25982378585E+02 -0.71999791788E+02 -0.33823010562E+03  0.35885943409E+03  0.92311619386E+02 0.  0.
         23    2    1    2    0    0 -0.25982378585E+02  0.71999791788E+02 -0.72351638458E+03  0.73821470985E+03  0.12500378021E+03 0.  0.
          5    1    4    4  502    0 -0.79031797936E+01 -0.34616554835E+02 -0.24533962127E+03  0.24794028693E+03  0.47000000000E+01 0. -1.
         -5    1    4    4    0  502 -0.18079198791E+02  0.10661634662E+03 -0.47817676331E+03  0.49027442292E+03  0.47000000000E+01 0. -1.
        -11    1    3    3    0    0 -0.30652954919E+02 -0.48246427755E+02 -0.18994749903E+03  0.19836172469E+03  0.00000000000E+00 0.  1.
         11    1    3    3    0    0  0.56635333504E+02 -0.23753364033E+02 -0.14828260659E+03  0.16049770940E+03  0.00000000000E+00 0. -1.
<mgrwt>
<rscale>  0 0.13940311E+03</rscale>
<asrwt>0</asrwt>
<pdfrwt beam="2">  1        1 0.16606312E+00 0.14657762E+03</pdfrwt>
<pdfrwt beam="1">  1       -1 0.27175120E-02 0.14657762E+03</pdfrwt>
<totfact> 0.59621217E+03</totfact>
</mgrwt>
</event>
<event>
 8    1  0.1224355E-005  0.2388331E+03  0.7546771E-02  0.1123264E+00
         -1   -1    0    0    0  501 -0.00000000000E+00  0.00000000000E+00  0.77335528552E+03  0.77335528552E+03  0.00000000000E+00 0.  1.
          1   -1    0    0  501    0  0.00000000000E+00 -0.00000000000E+00 -0.82802256720E+02  0.82802256720E+02  0.00000000000E+00 0. -1.
         23    2    1    2    0    0 -0.11658792380E+03 -0.16680107605E+03  0.50999660144E+03  0.55675502355E+03  0.92001520747E+02 0.  0.
         23    2    1    2    0    0  0.11658792380E+03  0.16680107605E+03  0.18055642736E+03  0.29940251869E+03  0.12500360711E+03 0.  0.
          5    1    4    4  502    0  0.97166712337E+02  0.58751569821E+02  0.14433301923E+03  0.18370418444E+03  0.47000000000E+01 0. -1.
         -5    1    4    4    0  502  0.19421211462E+02  0.10804950623E+03  0.36223408128E+02  0.11569833424E+03  0.47000000000E+01 0. -1.
        -11    1    3    3    0    0 -0.16559236160E+01 -0.78190828205E+02  0.17690521826E+03  0.19342182903E+03  0.00000000000E+00 0.  1.
         11    1    3    3    0    0 -0.11493200018E+03 -0.88610247842E+02  0.33309138319E+03  0.36333319452E+03  0.00000000000E+00 0. -1.
<mgrwt>
<rscale>  0 0.23486120E+03</rscale>
<asrwt>0</asrwt>
<pdfrwt beam="2">  1        1 0.12738809E-01 0.23883309E+03</pdfrwt>
<pdfrwt beam="1">  1       -1 0.11897773E+00 0.23883309E+03</pdfrwt>
<totfact> 0.31370912E+02</totfact>
</mgrwt>
</event>
<event>
 8    1  0.1224355E-005  0.1332366E+03  0.7546771E-02  0.1233702E+00
         -2   -1    0    0    0  501 -0.00000000000E+00  0.00000000000E+00  0.25570853756E+02  0.25570853756E+02  0.00000000000E+00 0.  1.
          2   -1    0    0  501    0  0.00000000000E+00 -0.00000000000E+00 -0.56786793929E+03  0.56786793929E+03  0.00000000000E+00 0. -1.
         23    2    1    2    0    0  0.15702093450E+02 -0.43384206255E+02 -0.20681956860E+03  0.23247181700E+03  0.95603695815E+02 0.  0.
         23    2    1    2    0    0 -0.15702093450E+02  0.43384206255E+02 -0.33547751693E+03  0.36096697604E+03  0.12499299314E+03 0.  0.
          5    1    4    4  502    0  0.27233480833E+02  0.68512295031E+02 -0.26119226885E+03  0.27143892196E+03  0.47000000000E+01 0. -1.
         -5    1    4    4    0  502 -0.42935574283E+02 -0.25128088776E+02 -0.74285248082E+02  0.89528054079E+02  0.47000000000E+01 0. -1.
        -11    1    3    3    0    0 -0.33394864594E+02  0.87662220013E+01 -0.68106243385E+02  0.76357868078E+02  0.00000000000E+00 0.  1.
         11    1    3    3    0    0  0.49096958044E+02 -0.52150428257E+02 -0.13871332522E+03  0.15611394893E+03  0.00000000000E+00 0. -1.
<mgrwt>
<rscale>  0 0.12587875E+03</rscale>
<asrwt>0</asrwt>
<pdfrwt beam="2">  1        2 0.87364297E-01 0.13323661E+03</pdfrwt>
<pdfrwt beam="1">  1       -2 0.39339776E-02 0.13323661E+03</pdfrwt>
<totfact> 0.14358217E+04</totfact>
</mgrwt>
</event>
<event>
 7    1  0.1224355E-005  0.2086339E+03  0.7546771E-02  0.1153380E+00
          2   -1    0    0  501    0  0.00000000000E+00  0.00000000000E+00  0.12160198328E+04  0.12160198328E+04  0.00000000000E+00 0. -1.
         -2   -1    0    0    0  501 -0.00000000000E+00 -0.00000000000E+00 -0.30571492771E+02  0.30571492771E+02  0.00000000000E+00 0.  1.
         23    2    1    2    0    0  0.25904189936E+02  0.13164233905E+03  0.35072144272E+03  0.38618612437E+03  0.90185696098E+02 0.  0.
          5    1    1    2  502    0 -0.69503542184E+02 -0.14027805508E+03  0.72872362008E+03  0.74536493047E+03  0.47000000000E+01 0. -1.
         -5    1    1    2    0  502  0.43599352248E+02  0.86357160311E+01  0.10600327723E+03  0.11504027074E+03  0.47000000000E+01 0.  1.
        -11    1    3    3    0    0  0.53669216125E+01  0.10059227921E+03  0.32670827435E+03  0.34188580991E+03  0.00000000000E+00 0.  1.
         11    1    3    3    0    0  0.20537268323E+02  0.31050059836E+02  0.24013168369E+02  0.44300314458E+02  0.00000000000E+00 0. -1.
<mgrwt>
<rscale>  0 0.19574462E+03</rscale>
<asrwt>0</asrwt>
<pdfrwt beam="1">  1        2 0.18707994E+00 0.20863393E+03</pdfrwt>
<pdfrwt beam="2">  1       -2 0.47033075E-02 0.20863393E+03</pdfrwt>
<totfact> 0.41806761E+03</totfact>
</mgrwt>
</event>
<event>
 8    1  0.1224355E-005  0.1370722E+03  0.7546771E-02  0.1229006E+00
          1   -1    0    0  501    0  0.00000000000E+00  0.00000000000E+00  0.12027030287E+04  0.12027030287E+04  0.00000000000E+00 0. -1.
         -1   -1    0    0    0  501 -0.00000000000E+00 -0.00000000000E+00 -0.21225642518E+02  0.21225642518E+02  0.00000000000E+00 0.  1.
         23    2    1    2    0    0 -0.56320046246E+01 -0.55963261960E+02  0.15637256026E+03  0.18970012202E+03  0.91488537678E+02 0.  0.
         23    2    1    2    0    0  0.56320046246E+01  0.55963261960E+02  0.10251048259E+04  0.10342285492E+04  0.12500072674E+03 0.  0.
          5    1    4    4  502    0  0.12179855979E+02 -0.44111476637E+01  0.82368961587E+03  0.82380488006E+03  0.47000000000E+01 0. -1.
         -5    1    4    4    0  502 -0.65478513547E+01  0.60374409623E+02  0.20141521006E+03  0.21042366915E+03  0.47000000000E+01 0. -1.
        -11    1    3    3    0    0  0.71105783566E+01 -0.29427313468E+02 -0.31051897042E+00  0.30275791064E+02  0.00000000000E+00 0.  1.
         11    1    3    3    0    0 -0.12742582981E+02 -0.26535948491E+02  0.15668307923E+03  0.15942433095E+03  0.00000000000E+00 0. -1.
<mgrwt>
<rscale>  0 0.12896100E+03</rscale>
<asrwt>0</asrwt>
<pdfrwt beam="1">  1        1 0.18503118E+00 0.13707220E+03</pdfrwt>
<pdfrwt beam="2">  1       -1 0.32654844E-02 0.13707220E+03</pdfrwt>
<totfact> 0.37342197E+03</totfact>
</mgrwt>
</event>
<event>
 8    1  0.1224355E-005  0.1339470E+03  0.7546771E-02  0.1234466E+00
         -2   -1    0    0    0  501 -0.00000000000E+00  0.00000000000E+00  0.80960461624E+02  0.80960461624E+02  0.00000000000E+00 0.  1.
          2   -1    0    0  501    0  0.00000000000E+00 -0.00000000000E+00 -0.32919163118E+03  0.32919163118E+03  0.00000000000E+00 0. -1.
         23    2    1    2    0    0 -0.16068595620E+02 -0.45347791632E+02  0.25007499098E+02  0.10584769013E+03  0.90905096242E+02 0.  0.
         23    2    1    2    0    0  0.16068595620E+02  0.45347791632E+02 -0.27323866866E+03  0.30430440268E+03  0.12500870958E+03 0.  0.
          5    1    4    4  502    0  0.17591170842E+02  0.19907071862E+02  0.27349394028E+01  0.27116612901E+02  0.47000000000E+01 0. -1.
         -5    1    4    4    0  502 -0.15225752220E+01  0.25440719770E+02 -0.27597360806E+03  0.27718778978E+03  0.47000000000E+01 0. -1.
        -11    1    3    3    0    0  0.22841158623E+02  0.91744071198E+01  0.29850667553E+02  0.38690446193E+02  0.00000000000E+00 0.  1.
         11    1    3    3    0    0 -0.38909754243E+02 -0.54522198752E+02 -0.48431684555E+01  0.67157243933E+02  0.00000000000E+00 0. -1.
<mgrwt>
<rscale>  0 0.12538686E+03</rscale>
<asrwt>0</asrwt>
<pdfrwt beam="2">  1        2 0.50644867E-01 0.13394700E+03</pdfrwt>
<pdfrwt beam="1">  1       -2 0.12455456E-01 0.13394700E+03</pdfrwt>
<totfact> 0.44194872E+03</totfact>
</mgrwt>
</event>
<event>
 8    1  0.1224355E-005  0.1726493E+03  0.7546771E-02  0.1181519E+00
          2   -1    0    0  501    0  0.00000000000E+00  0.00000000000E+00  0.24250490222E+03  0.24250490222E+03  0.00000000000E+00 0. -1.
         -2   -1    0    0    0  501 -0.00000000000E+00 -0.00000000000E+00 -0.13928473206E+03  0.13928473206E+03  0.00000000000E+00 0.  1.
         23    2    1    2    0    0 -0.21723410629E+02 -0.11708768576E+03 -0.43048593239E+02  0.15551034214E+03  0.90270994271E+02 0.  0.
         23    2    1    2    0    0  0.21723410629E+02  0.11708768576E+03  0.14626876340E+03  0.22627929214E+03  0.12500533661E+03 0.  0.
          5    1    4    4  502    0  0.55492791966E+02  0.79288583816E+01  0.32494735583E+02  0.64963948433E+02  0.47000000000E+01 0.  1.
         -5    1    4    4    0  502 -0.33769381337E+02  0.10915882738E+03  0.11377402781E+03  0.16131534371E+03  0.47000000000E+01 0.  1.
        -11    1    3    3    0    0 -0.55742242560E+02 -0.57228275424E+02 -0.30567753261E+02  0.85537480983E+02  0.00000000000E+00 0.  1.
         11    1    3    3    0    0  0.34018831932E+02 -0.59859410339E+02 -0.12480839979E+02  0.69972861158E+02  0.00000000000E+00 0. -1.
<mgrwt>
<rscale>  0 0.16652726E+03</rscale>
<asrwt>0</asrwt>
<pdfrwt beam="1">  1        2 0.37308447E-01 0.17264926E+03</pdfrwt>
<pdfrwt beam="2">  1       -2 0.21428420E-01 0.17264926E+03</pdfrwt>
<totfact> 0.25213822E+03</totfact>
</mgrwt>
</event>
<event>
 8    1  0.1224355E-005  0.1452542E+03  0.7546771E-02  0.1216021E+00
         -1   -1    0    0    0  501 -0.00000000000E+00  0.00000000000E+00  0.73005905817E+03  0.73005905817E+03  0.00000000000E+00 0.  1.
          1   -1    0    0  501    0  0.00000000000E+00 -0.00000000000E+00 -0.27753216814E+02  0.27753216814E+02  0.00000000000E+00 0. -1.
         23    2    1    2    0    0 -0.69761078590E+02  0.24791987081E+02  0.46276491745E+03  0.47767187903E+03  0.92400240753E+02 0.  0.
         23    2    1    2    0    0  0.69761078590E+02 -0.24791987081E+02  0.23954092391E+03  0.28014039595E+03  0.12497014246E+03 0.  0.
          5    1    4    4  502    0  0.58075551077E+02 -0.61092961365E+02  0.22274298523E+03  0.23820505249E+03  0.47000000000E+01 0. -1.
         -5    1    4    4    0  502  0.11685527513E+02  0.36300974284E+02  0.16797938673E+02  0.41935343457E+02  0.47000000000E+01 0. -1.
        -11    1    3    3    0    0 -0.89822220145E+02  0.97387877550E+01  0.40009918057E+03  0.41017341395E+03  0.00000000000E+00 0.  1.
         11    1    3    3    0    0  0.20061141555E+02  0.15053199326E+02  0.62665736877E+02  0.67498465084E+02  0.00000000000E+00 0. -1.
<mgrwt>
<rscale>  0 0.13801821E+03</rscale>
<asrwt>0</asrwt>
<pdfrwt beam="2">  1        1 0.42697262E-02 0.14525422E+03</pdfrwt>
<pdfrwt beam="1">  1       -1 0.11231676E+00 0.14525422E+03</pdfrwt>
<totfact> 0.15684223E+03</totfact>
</mgrwt>
</event>
<event>
 8    1  0.1224355E-005  0.1463447E+03  0.7546771E-02  0.1214998E+00
         -1   -1    0    0    0  501 -0.00000000000E+00  0.00000000000E+00  0.31846861507E+03  0.31846861507E+03  0.00000000000E+00 0.  1.
          1   -1    0    0  501    0  0.00000000000E+00 -0.00000000000E+00 -0.55870885597E+02  0.55870885597E+02  0.00000000000E+00 0. -1.
         23    2    1    2    0    0 -0.49927277468E+02 -0.57436616950E+02  0.14107620585E+03  0.18411793520E+03  0.90582670548E+02 0.  0.
         23    2    1    2    0    0  0.49927277468E+02  0.57436616950E+02  0.12152152362E+03  0.19022156546E+03  0.12500026105E+03 0.  0.
          5    1    4    4  502    0  0.42180209514E+02  0.96634550588E+02  0.95271870642E+02  0.14218377466E+03  0.47000000000E+01 0.  1.
         -5    1    4    4    0  502  0.77470679542E+01 -0.39197933639E+02  0.26249652979E+02  0.48037790800E+02  0.47000000000E+01 0.  1.
        -11    1    3    3    0    0  0.91589121008E+01 -0.57605223422E+02  0.58798214107E+02  0.82821962175E+02  0.00000000000E+00 0. -1.
         11    1    3    3    0    0 -0.59086189569E+02  0.16860647225E+00  0.82277991741E+02  0.10129597302E+03  0.00000000000E+00 0.  1.
<mgrwt>
<rscale>  0 0.13876717E+03</rscale>
<asrwt>0</asrwt>
<pdfrwt beam="2">  1        1 0.85955211E-02 0.14634467E+03</pdfrwt>
<pdfrwt beam="1">  1       -1 0.48995170E-01 0.14634467E+03</pdfrwt>
<totfact> 0.32502274E+03</totfact>
</mgrwt>
</event>
<event>
 8    1  0.1224355E-005  0.1506555E+03  0.7546771E-02  0.1208965E+00
         -2   -1    0    0    0  501 -0.00000000000E+00  0.00000000000E+00  0.27802113833E+02  0.27802113833E+02  0.00000000000E+00 0.  1.
          2   -1    0    0  501    0  0.00000000000E+00 -0.00000000000E+00 -0.76833730001E+03  0.76833730001E+03  0.00000000000E+00 0. -1.
         23    2    1    2    0    0  0.37124476411E+02 -0.75461648522E+02 -0.19954319622E+03  0.23456179178E+03  0.90161299125E+02 0.  0.
         23    2    1    2    0    0 -0.37124476411E+02  0.75461648522E+02 -0.54099198995E+03  0.56157762206E+03  0.12499762100E+03 0.  0.
          5    1    4    4  502    0  0.54106359343E+01  0.62942760826E+02 -0.48899491409E+03  0.49308131391E+03  0.47000000000E+01 0. -1.
         -5    1    4    4    0  502 -0.42535112345E+02  0.12518887696E+02 -0.51997075858E+02  0.68496308142E+02  0.47000000000E+01 0. -1.
        -11    1    3    3    0    0  0.22580595955E+02 -0.95367467855E+02 -0.16839978991E+03  0.19484179860E+03  0.00000000000E+00 0. -1.
         11    1    3    3    0    0  0.14543880456E+02  0.19905819333E+02 -0.31143406309E+02  0.39719993185E+02  0.00000000000E+00 0.  1.
<mgrwt>
<rscale>  0 0.14329318E+03</rscale>
<asrwt>0</asrwt>
<pdfrwt beam="2">  1        2 0.11820574E+00 0.15065554E+03</pdfrwt>
<pdfrwt beam="1">  1       -2 0.42772484E-02 0.15065554E+03</pdfrwt>
<totfact> 0.89681582E+03</totfact>
</mgrwt>
</event>
<event>
 8    1  0.1224355E-005  0.1520746E+03  0.7546771E-02  0.1206642E+00
          2   -1    0    0  501    0  0.00000000000E+00  0.00000000000E+00  0.54178226534E+03  0.54178226534E+03  0.00000000000E+00 0. -1.
         -2   -1    0    0    0  501 -0.00000000000E+00 -0.00000000000E+00 -0.36593043207E+02  0.36593043207E+02  0.00000000000E+00 0.  1.
         23    2    1    2    0    0  0.34869070474E+02  0.79276984671E+02  0.18400826954E+03  0.22301084428E+03  0.91510114389E+02 0.  0.
         23    2    1    2    0    0 -0.34869070474E+02 -0.79276984671E+02  0.32118095259E+03  0.35536446426E+03  0.12500402305E+03 0.  0.
          5    1    4    4  502    0 -0.66944984099E+02 -0.94194643821E+02  0.25944735836E+03  0.28405859181E+03  0.47000000000E+01 0.  1.
         -5    1    4    4    0  502  0.32075913625E+02  0.14917659150E+02  0.61733594234E+02  0.71305872454E+02  0.47000000000E+01 0.  1.
        -11    1    3    3    0    0  0.12449767983E+02  0.76916757595E+02  0.63796008560E+02  0.10070310338E+03  0.00000000000E+00 0.  1.
         11    1    3    3    0    0  0.22419302490E+02  0.23602270757E+01  0.12021226098E+03  0.12230774090E+03  0.00000000000E+00 0. -1.
<mgrwt>
<rscale>  0 0.14508788E+03</rscale>
<asrwt>0</asrwt>
<pdfrwt beam="1">  1        2 0.83351112E-01 0.15207465E+03</pdfrwt>
<pdfrwt beam="2">  1       -2 0.56296994E-02 0.15207465E+03</pdfrwt>
<totfact> 0.89247453E+03</totfact>
</mgrwt>
</event>
<event>
 8    1  0.1224355E-005  0.1309522E+03  0.7546771E-02  0.1240199E+00
          2   -1    0    0  501    0  0.00000000000E+00  0.00000000000E+00  0.73379886364E+02  0.73379886364E+02  0.00000000000E+00 0. -1.
         -2   -1    0    0    0  501 -0.00000000000E+00 -0.00000000000E+00 -0.17893143497E+03  0.17893143497E+03  0.00000000000E+00 0.  1.
         23    2    1    2    0    0  0.34725793011E+02  0.17821567320E+02 -0.38809318599E+02  0.10533172370E+03  0.89806012300E+02 0.  0.
         23    2    1    2    0    0 -0.34725793011E+02 -0.17821567320E+02 -0.66742230011E+02  0.14697959764E+03  0.12499995157E+03 0.  0.
          5    1    4    4  502    0 -0.64802491257E+02  0.29148438582E+02 -0.19758357172E+02  0.73901806629E+02  0.47000000000E+01 0. -1.
         -5    1    4    4    0  502  0.30076698246E+02 -0.46970005902E+02 -0.46983872839E+02  0.73077791009E+02  0.47000000000E+01 0. -1.
        -11    1    3    3    0    0  0.56294866810E+02 -0.15245038452E+02 -0.20582395230E+02  0.61847863504E+02  0.00000000000E+00 0. -1.
         11    1    3    3    0    0 -0.21569073800E+02  0.33066605772E+02 -0.18226923369E+02  0.43483860194E+02  0.00000000000E+00 0.  1.
<mgrwt>
<rscale>  0 0.12177385E+03</rscale>
<asrwt>0</asrwt>
<pdfrwt beam="1">  1        2 0.11289213E-01 0.13095219E+03</pdfrwt>
<pdfrwt beam="2">  1       -2 0.27527913E-01 0.13095219E+03</pdfrwt>
<totfact> 0.62256983E+03</totfact>
</mgrwt>
</event>
<event>
 8    1  0.1224355E-005  0.1535834E+03  0.7546771E-02  0.1204778E+00
         -1   -1    0    0    0  501 -0.00000000000E+00  0.00000000000E+00  0.50739749395E+02  0.50739749395E+02  0.00000000000E+00 0.  1.
          1   -1    0    0  501    0  0.00000000000E+00 -0.00000000000E+00 -0.62440632789E+03  0.62440632789E+03  0.00000000000E+00 0. -1.
         23    2    1    2    0    0 -0.42454422927E+02 -0.78494159153E+02 -0.63334145886E+02  0.14220417974E+03  0.90813565352E+02 0.  0.
         23    2    1    2    0    0  0.42454422927E+02  0.78494159153E+02 -0.51033243261E+03  0.53294189755E+03  0.12499665333E+03 0.  0.
          5    1    4    4  502    0  0.31584924139E+02  0.10077595952E+03 -0.25057822353E+03  0.27196495649E+03  0.47000000000E+01 0.  1.
         -5    1    4    4    0  502  0.10869498788E+02 -0.22281800366E+02 -0.25975420908E+03  0.26097694106E+03  0.47000000000E+01 0.  1.
        -11    1    3    3    0    0  0.18503902024E+00 -0.79393943788E+02 -0.21028659300E+02  0.82131827336E+02  0.00000000000E+00 0.  1.
         11    1    3    3    0    0 -0.42639461947E+02  0.89978463452E+00 -0.42305486587E+02  0.60072352400E+02  0.00000000000E+00 0. -1.
<mgrwt>
<rscale>  0 0.14654935E+03</rscale>
<asrwt>0</asrwt>
<pdfrwt beam="2">  1        1 0.96062522E-01 0.15358344E+03</pdfrwt>
<pdfrwt beam="1">  1       -1 0.78061145E-02 0.15358344E+03</pdfrwt>
<totfact> 0.29180014E+03</totfact>
</mgrwt>
</event>
<event>
 8    1  0.1224355E-005  0.1352490E+03  0.7546771E-02  0.1235449E+00
         -1   -1    0    0    0  501 -0.00000000000E+00  0.00000000000E+00  0.28874320839E+03  0.28874320839E+03  0.00000000000E+00 0.  1.
          1   -1    0    0  501    0  0.00000000000E+00 -0.00000000000E+00 -0.55820624426E+02  0.55820624426E+02  0.00000000000E+00 0. -1.
         23    2    1    2    0    0  0.40377736585E+02 -0.32188185588E+02  0.16820145376E+03  0.19462674941E+03  0.83194961612E+02 0.  0.
         23    2    1    2    0    0 -0.40377736585E+02  0.32188185588E+02  0.64721130208E+02  0.14993708341E+03  0.12500345348E+03 0.  0.
          5    1    4    4  502    0  0.40907936161E+02  0.13191617778E+02  0.48127945596E+02  0.64698277936E+02  0.47000000000E+01 0. -1.
         -5    1    4    4    0  502 -0.81285672746E+02  0.18996567811E+02  0.16593184612E+02  0.85238805470E+02  0.47000000000E+01 0. -1.
        -11    1    3    3    0    0  0.79806572299E+01  0.11413787365E+02 -0.36476056357E+01  0.14396890592E+02  0.00000000000E+00 0. -1.
         11    1    3    3    0    0  0.32397079355E+02 -0.43601972954E+02  0.17184905939E+03  0.18022985882E+03  0.00000000000E+00 0.  1.
<mgrwt>
<rscale>  0 0.12475724E+03</rscale>
<asrwt>0</asrwt>
<pdfrwt beam="2">  1        1 0.85877885E-02 0.13524905E+03</pdfrwt>
<pdfrwt beam="1">  1       -1 0.44422031E-01 0.13524905E+03</pdfrwt>
<totfact> 0.38657490E+03</totfact>
</mgrwt>
</event>
<event>
 8    1  0.1224355E-005  0.1428215E+03  0.7546771E-02  0.1220376E+00
         -2   -1    0    0    0  501 -0.00000000000E+00  0.00000000000E+00  0.74947209204E+02  0.74947209204E+02  0.00000000000E+00 0.  1.
          2   -1    0    0  501    0  0.00000000000E+00 -0.00000000000E+00 -0.22676432495E+03  0.22676432495E+03  0.00000000000E+00 0. -1.
         23    2    1    2    0    0  0.15171890339E+02 -0.67405921415E+02 -0.40531690463E+02  0.12065234385E+03  0.90224307407E+02 0.  0.
         23    2    1    2    0    0 -0.15171890339E+02  0.67405921415E+02 -0.11128542528E+03  0.18105919030E+03  0.12499696002E+03 0.  0.
          5    1    4    4  502    0  0.36325226360E+02 -0.15397661419E+02 -0.56624716736E+02  0.69174117939E+02  0.47000000000E+01 0. -1.
         -5    1    4    4    0  502 -0.51497116698E+02  0.82803582834E+02 -0.54660708547E+02  0.11188507236E+03  0.47000000000E+01 0. -1.
        -11    1    3    3    0    0  0.90056980675E+01 -0.48061966972E+02  0.22940360001E+02  0.54012178107E+02  0.00000000000E+00 0.  1.
         11    1    3    3    0    0  0.61661922711E+01 -0.19343954444E+02 -0.63472050463E+02  0.66640165746E+02  0.00000000000E+00 0. -1.
<mgrwt>
<rscale>  0 0.13488962E+03</rscale>
<asrwt>0</asrwt>
<pdfrwt beam="2">  1        2 0.34886819E-01 0.14282151E+03</pdfrwt>
<pdfrwt beam="1">  1       -2 0.11530340E-01 0.14282151E+03</pdfrwt>
<totfact> 0.74595486E+03</totfact>
</mgrwt>
</event>
<event>
 8    1  0.1224355E-005  0.2204407E+03  0.7546771E-02  0.1135378E+00
          1   -1    0    0  501    0  0.00000000000E+00  0.00000000000E+00  0.12641204354E+03  0.12641204354E+03  0.00000000000E+00 0. -1.
         -1   -1    0    0    0  501 -0.00000000000E+00 -0.00000000000E+00 -0.40882889095E+03  0.40882889095E+03  0.00000000000E+00 0.  1.
         23    2    1    2    0    0 -0.16418314983E+03 -0.77535764963E+02 -0.22305364212E+03  0.30694709609E+03  0.10721796024E+03 0.  0.
         23    2    1    2    0    0  0.16418314983E+03  0.77535764963E+02 -0.59363205291E+02  0.22829383841E+03  0.12500473981E+03 0.  0.
          5    1    4    4  502    0  0.10493272457E+03  0.84678841011E+02  0.11640655467E+02  0.13542148153E+03  0.47000000000E+01 0.  1.
         -5    1    4    4    0  502  0.59250425264E+02 -0.71430760487E+01 -0.71003860758E+02  0.92872356878E+02  0.47000000000E+01 0.  1.
        -11    1    3    3    0    0 -0.94465506544E+02 -0.76616876616E+02 -0.19893133524E+03  0.23316850956E+03  0.00000000000E+00 0.  1.
         11    1    3    3    0    0 -0.69717643287E+02 -0.91888834642E+00 -0.24122306877E+02  0.73778586530E+02  0.00000000000E+00 0. -1.
<mgrwt>
<rscale>  0 0.21800645E+03</rscale>
<asrwt>0</asrwt>
<pdfrwt beam="1">  1        1 0.19448007E-01 0.22044066E+03</pdfrwt>
<pdfrwt beam="2">  1       -1 0.62896752E-01 0.22044066E+03</pdfrwt>
<totfact> 0.70243275E+02</totfact>
</mgrwt>
</event>
<event>
 8    1  0.1224355E-005  0.1300204E+03  0.7546771E-02  0.1238136E+00
          3   -1    0    0  501    0  0.00000000000E+00  0.00000000000E+00  0.79330843542E+02  0.79330843542E+02  0.00000000000E+00 0. -1.
         -3   -1    0    0    0  501 -0.00000000000E+00 -0.00000000000E+00 -0.20893471238E+03  0.20893471238E+03  0.00000000000E+00 0.  1.
         23    2    1    2    0    0 -0.20364175923E+02  0.29416375238E+02 -0.11833382410E+03  0.15775764258E+03  0.98002842163E+02 0.  0.
         23    2    1    2    0    0  0.20364175923E+02 -0.29416375238E+02 -0.11270044738E+02  0.13050791335E+03  0.12500111497E+03 0.  0.
          5    1    4    4  502    0  0.27695060565E+02 -0.10052901231E+02  0.54097112911E+02  0.61779161763E+02  0.47000000000E+01 0.  1.
         -5    1    4    4    0  502 -0.73308846415E+01 -0.19363474007E+02 -0.65367157649E+02  0.68728751585E+02  0.47000000000E+01 0.  1.
        -11    1    3    3    0    0 -0.22309406870E+02  0.41090970383E+02 -0.13178917686E+03  0.13983763663E+03  0.00000000000E+00 0.  1.
         11    1    3    3    0    0  0.19452309470E+01 -0.11674595145E+02  0.13455352757E+02  0.17920005945E+02  0.00000000000E+00 0. -1.
<mgrwt>
<rscale>  0 0.12305806E+03</rscale>
<asrwt>0</asrwt>
<pdfrwt beam="1">  1        3 0.12204745E-01 0.13002039E+03</pdfrwt>
<pdfrwt beam="2">  1       -3 0.32143802E-01 0.13002039E+03</pdfrwt>
<totfact> 0.11392565E+03</totfact>
</mgrwt>
</event>
<event>
 8    1  0.1474699E-005  0.1647894E+03  0.7546771E-02  0.1190463E+00
          2   -1    0    0  501    0  0.00000000000E+00  0.00000000000E+00  0.71091776853E+03  0.71091776853E+03  0.00000000000E+00 0. -1.
         -2   -1    0    0    0  501 -0.00000000000E+00 -0.00000000000E+00 -0.35032038943E+02  0.35032038943E+02  0.00000000000E+00 0.  1.
         23    2    1    2    0    0 -0.66996444961E+02  0.83911872579E+02  0.22027184069E+03  0.26145051515E+03  0.91142537131E+02 0.  0.
         23    2    1    2    0    0  0.66996444961E+02 -0.83911872579E+02  0.45561388890E+03  0.48449929232E+03  0.12500328999E+03 0.  0.
          5    1    4    4  502    0  0.85462780044E+02 -0.10657091279E+02  0.19743317704E+03  0.21545164135E+03  0.47000000000E+01 0.  1.
         -5    1    4    4    0  502 -0.18466335083E+02 -0.73254781300E+02  0.25818071186E+03  0.26904765097E+03  0.47000000000E+01 0.  1.
        -11    1    3    3    0    0 -0.76301359645E+01  0.52565015871E+02  0.16849695861E+03  0.17667066800E+03  0.00000000000E+00 0. -1.
         11    1    3    3    0    0 -0.59366308996E+02  0.31346856708E+02  0.51774882073E+02  0.84779847152E+02  0.00000000000E+00 0.  1.
<mgrwt>
<rscale>  0 0.15844576E+03</rscale>
<asrwt>0</asrwt>
<pdfrwt beam="1">  1        2 0.10937195E+00 0.16478941E+03</pdfrwt>
<pdfrwt beam="2">  1       -2 0.53895450E-02 0.16478941E+03</pdfrwt>
<totfact> 0.69949563E+03</totfact>
</mgrwt>
</event>
<event>
 8    1  0.1224355E-005  0.1296136E+03  0.7546771E-02  0.1242099E+00
          1   -1    0    0  501    0  0.00000000000E+00  0.00000000000E+00  0.13202209236E+04  0.13202209236E+04  0.00000000000E+00 0. -1.
         -1   -1    0    0    0  501 -0.00000000000E+00 -0.00000000000E+00 -0.99356932591E+01  0.99356932591E+01  0.00000000000E+00 0.  1.
         23    2    1    2    0    0  0.23311752227E+02 -0.25184385712E+02  0.47066708755E+03  0.48059301995E+03  0.90909033891E+02 0.  0.
         23    2    1    2    0    0 -0.23311752227E+02  0.25184385712E+02  0.83961814277E+03  0.84956359689E+03  0.12498795310E+03 0.  0.
          5    1    4    4  502    0  0.46876245906E+02  0.15888443134E+02  0.20284569845E+03  0.20884992802E+03  0.47000000000E+01 0. -1.
         -5    1    4    4    0  502 -0.70187998133E+02  0.92959425774E+01  0.63677244432E+03  0.64071366887E+03  0.47000000000E+01 0. -1.
        -11    1    3    3    0    0  0.11256048930E+02  0.34398736355E+02  0.16147629306E+03  0.16548282364E+03  0.00000000000E+00 0. -1.
         11    1    3    3    0    0  0.12055703297E+02 -0.59583122067E+02  0.30919079450E+03  0.31511019631E+03  0.00000000000E+00 0.  1.
<mgrwt>
<rscale>  0 0.12060677E+03</rscale>
<asrwt>0</asrwt>
<pdfrwt beam="1">  1        1 0.20311077E+00 0.12961358E+03</pdfrwt>
<pdfrwt beam="2">  1       -1 0.15285692E-02 0.12961358E+03</pdfrwt>
<totfact> 0.93040877E+03</totfact>
</mgrwt>
</event>
<event>
 8    1  0.1224355E-005  0.1262363E+03  0.7546771E-02  0.1249591E+00
         -1   -1    0    0    0  501 -0.00000000000E+00  0.00000000000E+00  0.19597553180E+02  0.19597553180E+02  0.00000000000E+00 0.  1.
          1   -1    0    0  501    0  0.00000000000E+00 -0.00000000000E+00 -0.61337116512E+03  0.61337116512E+03  0.00000000000E+00 0. -1.
         23    2    1    2    0    0  0.12153407820E+02 -0.12806785381E+02 -0.20133154468E+03  0.22072319551E+03  0.88727780758E+02 0.  0.
         23    2    1    2    0    0 -0.12153407820E+02  0.12806785381E+02 -0.39244206726E+03  0.41224552279E+03  0.12499550326E+03 0.  0.
          5    1    4    4  502    0  0.52171701478E+02  0.31804146615E+01 -0.25194080985E+03  0.25734852465E+03  0.47000000000E+01 0.  1.
         -5    1    4    4    0  502 -0.64325109298E+02  0.96263707196E+01 -0.14050125741E+03  0.15489699814E+03  0.47000000000E+01 0.  1.
        -11    1    3    3    0    0  0.39587395565E+02 -0.25181481779E+02 -0.17349757482E+03  0.17972945608E+03  0.00000000000E+00 0. -1.
         11    1    3    3    0    0 -0.27433987745E+02  0.12374696398E+02 -0.27833969860E+02  0.40993739433E+02  0.00000000000E+00 0.  1.
<mgrwt>
<rscale>  0 0.11614782E+03</rscale>
<asrwt>0</asrwt>
<pdfrwt beam="2">  1        1 0.94364779E-01 0.12623627E+03</pdfrwt>
<pdfrwt beam="1">  1       -1 0.30150087E-02 0.12623627E+03</pdfrwt>
<totfact> 0.12096300E+04</totfact>
</mgrwt>
</event>
<event>
 8    1  0.1224355E-005  0.1633466E+03  0.7546771E-02  0.1192417E+00
          3   -1    0    0  501    0  0.00000000000E+00  0.00000000000E+00  0.12960600843E+03  0.12960600843E+03  0.00000000000E+00 0. -1.
         -3   -1    0    0    0  501 -0.00000000000E+00 -0.00000000000E+00 -0.23311390344E+03  0.23311390344E+03  0.00000000000E+00 0.  1.
         23    2    1    2    0    0  0.74120311435E+01  0.10489117950E+03 -0.13827155112E+03  0.19571508369E+03  0.90156943114E+02 0.  0.
         23    2    1    2    0    0 -0.74120311435E+01 -0.10489117950E+03  0.34763656118E+02  0.16700482818E+03  0.12500001243E+03 0.  0.
          5    1    4    4  502    0  0.56622952010E+02 -0.30702847103E+02  0.21107563418E+02  0.67944409248E+02  0.47000000000E+01 0.  1.
         -5    1    4    4    0  502 -0.64034983153E+02 -0.74188332397E+02  0.13656092700E+02  0.99060418933E+02  0.47000000000E+01 0.  1.
        -11    1    3    3    0    0 -0.32343747164E+02  0.38561292569E+02 -0.19475685623E+02  0.53966597036E+02  0.00000000000E+00 0. -1.
         11    1    3    3    0    0  0.39755778308E+02  0.66329886931E+02 -0.11879586550E+03  0.14174848665E+03  0.00000000000E+00 0.  1.
<mgrwt>
<rscale>  0 0.15674864E+03</rscale>
<asrwt>0</asrwt>
<pdfrwt beam="1">  1        3 0.19939386E-01 0.16334657E+03</pdfrwt>
<pdfrwt beam="2">  1       -3 0.35863677E-01 0.16334657E+03</pdfrwt>
<totfact> 0.41184018E+02</totfact>
</mgrwt>
</event>
<event>
 8    1  0.1224355E-005  0.1254295E+03  0.7546771E-02  0.1249854E+00
         -1   -1    0    0    0  501 -0.00000000000E+00  0.00000000000E+00  0.78776575778E+02  0.78776575778E+02  0.00000000000E+00 0.  1.
          1   -1    0    0  501    0  0.00000000000E+00 -0.00000000000E+00 -0.14989241419E+03  0.14989241419E+03  0.00000000000E+00 0. -1.
         23    2    1    2    0    0 -0.38040661068E-01  0.10320748797E+02 -0.25720749774E+02  0.95277543735E+02  0.91157742778E+02 0.  0.
         23    2    1    2    0    0  0.38040661068E-01 -0.10320748797E+02 -0.45395088638E+02  0.13339144623E+03  0.12500417814E+03 0.  0.
          5    1    4    4  502    0  0.30127327170E+02  0.28943734880E+02 -0.67087678148E+02  0.79172231183E+02  0.47000000000E+01 0.  1.
         -5    1    4    4    0  502 -0.30089286509E+02 -0.39264483677E+02  0.21692589510E+02  0.54219215050E+02  0.47000000000E+01 0.  1.
        -11    1    3    3    0    0 -0.24307179697E+02 -0.28770042621E+02  0.76571789624E+01  0.38434186955E+02  0.00000000000E+00 0.  1.
         11    1    3    3    0    0  0.24269139036E+02  0.39090791418E+02 -0.33377928737E+02  0.56843356780E+02  0.00000000000E+00 0. -1.
<mgrwt>
<rscale>  0 0.11599511E+03</rscale>
<asrwt>0</asrwt>
<pdfrwt beam="2">  1        1 0.23060371E-01 0.12542952E+03</pdfrwt>
<pdfrwt beam="1">  1       -1 0.12119473E-01 0.12542952E+03</pdfrwt>
<totfact> 0.89745528E+03</totfact>
</mgrwt>
</event>
<event>
 8    1  0.1224355E-005  0.1130339E+03  0.7546771E-02  0.1264867E+00
         -1   -1    0    0    0  501 -0.00000000000E+00  0.00000000000E+00  0.32072822719E+02  0.32072822719E+02  0.00000000000E+00 0.  1.
          1   -1    0    0  501    0  0.00000000000E+00 -0.00000000000E+00 -0.39617410292E+03  0.39617410292E+03  0.00000000000E+00 0. -1.
         23    2    1    2    0    0  0.35566041188E+01 -0.16652417981E+02 -0.81247483702E+02  0.12364401770E+03  0.91633711306E+02 0.  0.
         23    2    1    2    0    0 -0.35566041188E+01  0.16652417981E+02 -0.28285379649E+03  0.30460290793E+03  0.11174394334E+03 0.  0.
          5    1    4    4  502    0 -0.49847410204E+02  0.21453498826E+02 -0.21760938878E+03  0.22432332246E+03  0.47000000000E+01 0. -1.
         -5    1    4    4    0  502  0.46290806085E+02 -0.48010808448E+01 -0.65244407716E+02  0.80279585472E+02  0.47000000000E+01 0.  1.
        -11    1    3    3    0    0  0.40097779833E+02  0.74584842059E+01 -0.13460942747E+02  0.42949480949E+02  0.00000000000E+00 0.  1.
         11    1    3    3    0    0 -0.36541175714E+02 -0.24110902187E+02 -0.67786540955E+02  0.80694536751E+02  0.00000000000E+00 0. -1.
<mgrwt>
<rscale>  0 0.10771181E+03</rscale>
<asrwt>0</asrwt>
<pdfrwt beam="2">  1        1 0.60949866E-01 0.11303389E+03</pdfrwt>
<pdfrwt beam="1">  1       -1 0.49342801E-02 0.11303389E+03</pdfrwt>
<totfact> 0.10300359E+04</totfact>
</mgrwt>
</event>
<event>
 8    1  0.1224355E-005  0.1600536E+03  0.7546771E-02  0.1195974E+00
         -1   -1    0    0    0  501 -0.00000000000E+00  0.00000000000E+00  0.79583829069E+02  0.79583829069E+02  0.00000000000E+00 0.  1.
          1   -1    0    0  501    0  0.00000000000E+00 -0.00000000000E+00 -0.29636142762E+03  0.29636142762E+03  0.00000000000E+00 0. -1.
         23    2    1    2    0    0 -0.97795286697E+02 -0.20692047946E+02 -0.50755767188E+02  0.14533651125E+03  0.92490403017E+02 0.  0.
         23    2    1    2    0    0  0.97795286697E+02  0.20692047946E+02 -0.16602183136E+03  0.23060874544E+03  0.12500026415E+03 0.  0.
          5    1    4    4  502    0  0.42286051375E+01 -0.58719625821E+01 -0.12441609983E+03  0.12471494275E+03  0.47000000000E+01 0.  1.
         -5    1    4    4    0  502  0.93566681559E+02  0.26564010528E+02 -0.41605731528E+02  0.10589380270E+03  0.47000000000E+01 0.  1.
        -11    1    3    3    0    0 -0.61054604601E+02 -0.51108949414E+02 -0.56011344294E+02  0.97350193337E+02  0.00000000000E+00 0. -1.
         11    1    3    3    0    0 -0.36740682096E+02  0.30416901468E+02  0.52555771067E+01  0.47986317909E+02  0.00000000000E+00 0.  1.
<mgrwt>
<rscale>  0 0.15372055E+03</rscale>
<asrwt>0</asrwt>
<pdfrwt beam="2">  1        1 0.45594065E-01 0.16005357E+03</pdfrwt>
<pdfrwt beam="1">  1       -1 0.12243666E-01 0.16005357E+03</pdfrwt>
<totfact> 0.38395959E+03</totfact>
</mgrwt>
</event>
<event>
 8    1  0.1224355E-005  0.1346564E+03  0.7546771E-02  0.1233794E+00
          2   -1    0    0  501    0  0.00000000000E+00  0.00000000000E+00  0.27587213156E+03  0.27587213156E+03  0.00000000000E+00 0. -1.
         -2   -1    0    0    0  501 -0.00000000000E+00 -0.00000000000E+00 -0.52281202946E+02  0.52281202946E+02  0.00000000000E+00 0.  1.
         23    2    1    2    0    0  0.14312350969E+02 -0.48017667782E+02  0.71902704540E+02  0.12531928705E+03  0.89578931550E+02 0.  0.
         23    2    1    2    0    0 -0.14312350969E+02  0.48017667782E+02  0.15168822408E+03  0.20283404745E+03  0.12498717404E+03 0.  0.
          5    1    4    4  502    0  0.99918292243E+01 -0.38706246551E+02  0.25209027157E+02  0.47493107116E+02  0.47000000000E+01 0.  1.
         -5    1    4    4    0  502 -0.24304180193E+02  0.86723914333E+02  0.12647919692E+03  0.15534094034E+03  0.47000000000E+01 0.  1.
        -11    1    3    3    0    0 -0.24413291514E+02 -0.55125011732E+02  0.28394841204E+02  0.66641148910E+02  0.00000000000E+00 0.  1.
         11    1    3    3    0    0  0.38725642483E+02  0.71073439500E+01  0.43507863336E+02  0.58678138142E+02  0.00000000000E+00 0. -1.
<mgrwt>
<rscale>  0 0.12581982E+03</rscale>
<asrwt>0</asrwt>
<pdfrwt beam="1">  1        2 0.42441865E-01 0.13465635E+03</pdfrwt>
<pdfrwt beam="2">  1       -2 0.80432622E-02 0.13465635E+03</pdfrwt>
<totfact> 0.10600114E+04</totfact>
</mgrwt>
</event>
<event>
 8    1  0.1224355E-005  0.1253574E+03  0.7546771E-02  0.1250875E+00
          1   -1    0    0  501    0  0.00000000000E+00  0.00000000000E+00  0.20152259786E+03  0.20152259786E+03  0.00000000000E+00 0. -1.
         -1   -1    0    0    0  501 -0.00000000000E+00 -0.00000000000E+00 -0.57600642357E+02  0.57600642357E+02  0.00000000000E+00 0.  1.
         23    2    1    2    0    0  0.79987365379E+01  0.50167212226E+01  0.63593629536E+02  0.11023700970E+03  0.89548318306E+02 0.  0.
         23    2    1    2    0    0 -0.79987365379E+01 -0.50167212226E+01  0.80328325968E+02  0.14888623052E+03  0.12500128963E+03 0.  0.
          5    1    4    4  502    0  0.28843953159E+02  0.41535275006E+02  0.24470818803E+01  0.50845166076E+02  0.47000000000E+01 0. -1.
         -5    1    4    4    0  502 -0.36842689696E+02 -0.46551996228E+02  0.77881244088E+02  0.98041064446E+02  0.47000000000E+01 0. -1.
        -11    1    3    3    0    0  0.46448025334E+02 -0.11252536613E+02  0.39725417020E+02  0.62146177638E+02  0.00000000000E+00 0. -1.
         11    1    3    3    0    0 -0.38449288796E+02  0.16269257835E+02  0.23868212516E+02  0.48090832059E+02  0.00000000000E+00 0.  1.
<mgrwt>
<rscale>  0 0.11540562E+03</rscale>
<asrwt>0</asrwt>
<pdfrwt beam="1">  1        1 0.31003476E-01 0.12535737E+03</pdfrwt>
<pdfrwt beam="2">  1       -1 0.88616374E-02 0.12535737E+03</pdfrwt>
<totfact> 0.10003113E+04</totfact>
</mgrwt>
</event>
<event>
 7    1  0.1224355E-005  0.1817479E+03  0.7546771E-02  0.1194417E+00
          2   -1    0    0  501    0  0.00000000000E+00  0.00000000000E+00  0.10605866841E+04  0.10605866841E+04  0.00000000000E+00 0. -1.
         -2   -1    0    0    0  501 -0.00000000000E+00 -0.00000000000E+00 -0.18239492991E+02  0.18239492991E+02  0.00000000000E+00 0.  1.
         23    2    1    2    0    0  0.35578993681E+02 -0.16672502696E+02  0.34221039227E+03  0.35548404256E+03  0.87847110354E+02 0.  0.
          5    1    1    2  502    0 -0.86837635744E+02 -0.12202513713E+02  0.60532250082E+03  0.61165929759E+03  0.47000000000E+01 0. -1.
         -5    1    1    2    0  502  0.51258642062E+02  0.28875016410E+02  0.94814297975E+02  0.11168283691E+03  0.47000000000E+01 0.  1.
        -11    1    3    3    0    0  0.58919186446E+02  0.79788251014E+01  0.17387723544E+03  0.18376187087E+03  0.00000000000E+00 0. -1.
         11    1    3    3    0    0 -0.23340192764E+02 -0.24651327798E+02  0.16833315684E+03  0.17172217169E+03  0.00000000000E+00 0.  1.
<mgrwt>
<rscale>  0 0.15503653E+03</rscale>
<asrwt>0</asrwt>
<pdfrwt beam="1">  1        2 0.16316713E+00 0.18174792E+03</pdfrwt>
<pdfrwt beam="2">  1       -2 0.28060767E-02 0.18174792E+03</pdfrwt>
<totfact> 0.11052784E+04</totfact>
</mgrwt>
</event>
<event>
 8    1  0.1224355E-005  0.1364955E+03  0.7546771E-02  0.1229980E+00
          4   -1    0    0  501    0  0.00000000000E+00  0.00000000000E+00  0.59161733804E+03  0.59161733804E+03  0.00000000000E+00 0. -1.
         -4   -1    0    0    0  501 -0.00000000000E+00 -0.00000000000E+00 -0.24978097484E+02  0.24978097484E+02  0.00000000000E+00 0.  1.
         23    2    1    2    0    0  0.41514903848E+02  0.35801520325E+02  0.24329567167E+03  0.26562238126E+03  0.91417883793E+02 0.  0.
         23    2    1    2    0    0 -0.41514903848E+02 -0.35801520325E+02  0.32334356889E+03  0.35097305426E+03  0.12500314066E+03 0.  0.
          5    1    4    4  502    0 -0.26904900078E+02  0.36285748506E+02  0.21625666086E+03  0.22097412192E+03  0.47000000000E+01 0.  1.
         -5    1    4    4    0  502 -0.14610003770E+02 -0.72087268831E+02  0.10708690803E+03  0.12999893234E+03  0.47000000000E+01 0.  1.
        -11    1    3    3    0    0  0.45486160629E+02  0.62920066695E+02  0.15825428955E+03  0.17627349706E+03  0.00000000000E+00 0. -1.
         11    1    3    3    0    0 -0.39712567814E+01 -0.27118546370E+02  0.85041382113E+02  0.89348884209E+02  0.00000000000E+00 0.  1.
<mgrwt>
<rscale>  0 0.12831364E+03</rscale>
<asrwt>0</asrwt>
<pdfrwt beam="1">  1        4 0.91018041E-01 0.13649550E+03</pdfrwt>
<pdfrwt beam="2">  1       -4 0.38427847E-02 0.13649550E+03</pdfrwt>
<totfact> 0.64329803E+02</totfact>
</mgrwt>
</event>
<event>
 8    1  0.1224355E-005  0.1332153E+03  0.7546771E-02  0.1236348E+00
          2   -1    0    0  501    0  0.00000000000E+00  0.00000000000E+00  0.69355075383E+03  0.69355075383E+03  0.00000000000E+00 0. -1.
         -2   -1    0    0    0  501 -0.00000000000E+00 -0.00000000000E+00 -0.31321674808E+02  0.31321674808E+02  0.00000000000E+00 0.  1.
         23    2    1    2    0    0  0.45835387503E+02 -0.37210258459E+01  0.82708514754E+02  0.13023775104E+03  0.89478738262E+02 0.  0.
         23    2    1    2    0    0 -0.45835387503E+02  0.37210258459E+01  0.57952056427E+03  0.59463467760E+03  0.12502634369E+03 0.  0.
          5    1    4    4  502    0 -0.41192753796E+02  0.56481973809E+02  0.21176858566E+03  0.22305846812E+03  0.47000000000E+01 0.  1.
         -5    1    4    4    0  502 -0.46426337073E+01 -0.52760947963E+02  0.36775197861E+03  0.37157620948E+03  0.47000000000E+01 0.  1.
        -11    1    3    3    0    0  0.24436803391E+02  0.56444895664E+01 -0.15370589139E+02  0.29415516873E+02  0.00000000000E+00 0.  1.
         11    1    3    3    0    0  0.21398584113E+02 -0.93655154123E+01  0.98079103893E+02  0.10082223416E+03  0.00000000000E+00 0. -1.
<mgrwt>
<rscale>  0 0.12418508E+03</rscale>
<asrwt>0</asrwt>
<pdfrwt beam="1">  1        2 0.10670010E+00 0.13321530E+03</pdfrwt>
<pdfrwt beam="2">  1       -2 0.48187197E-02 0.13321530E+03</pdfrwt>
<totfact> 0.84295941E+03</totfact>
</mgrwt>
</event>
<event>
 8    1  0.1224355E-005  0.4727211E+03  0.7546771E-02  0.1021692E+00
         -2   -1    0    0    0  501 -0.00000000000E+00  0.00000000000E+00  0.17465493741E+03  0.17465493741E+03  0.00000000000E+00 0.  1.
          2   -1    0    0  501    0  0.00000000000E+00 -0.00000000000E+00 -0.15566488857E+04  0.15566488857E+04  0.00000000000E+00 0. -1.
         23    2    1    2    0    0  0.36204606544E+03 -0.27706852544E+03 -0.30794074257E+03  0.55782372696E+03  0.92170972291E+02 0.  0.
         23    2    1    2    0    0 -0.36204606544E+03  0.27706852544E+03 -0.10740532058E+04  0.11734800962E+04  0.12498370310E+03 0.  0.
          5    1    4    4  502    0 -0.33936638200E+03  0.20549887379E+03 -0.92568629886E+03  0.10071328325E+04  0.47000000000E+01 0. -1.
         -5    1    4    4    0  502 -0.22679683441E+02  0.71569651648E+02 -0.14836690691E+03  0.16634726371E+03  0.47000000000E+01 0. -1.
        -11    1    3    3    0    0  0.14715860674E+03 -0.14480802885E+03 -0.93332920515E+02  0.22657461201E+03  0.00000000000E+00 0. -1.
         11    1    3    3    0    0  0.21488745870E+03 -0.13226049659E+03 -0.21460782206E+03  0.33124911495E+03  0.00000000000E+00 0.  1.
<mgrwt>
<rscale>  0 0.47081013E+03</rscale>
<asrwt>0</asrwt>
<pdfrwt beam="2">  1        2 0.23948445E+00 0.47272111E+03</pdfrwt>
<pdfrwt beam="1">  1       -2 0.26869990E-01 0.47272111E+03</pdfrwt>
<totfact> 0.15511874E+02</totfact>
</mgrwt>
</event>
<event>
 8    1  0.1224355E-005  0.1891467E+03  0.7546771E-02  0.1164278E+00
         -1   -1    0    0    0  501 -0.00000000000E+00  0.00000000000E+00  0.18261254234E+03  0.18261254234E+03  0.00000000000E+00 0.  1.
          1   -1    0    0  501    0  0.00000000000E+00 -0.00000000000E+00 -0.17841185499E+03  0.17841185499E+03  0.00000000000E+00 0. -1.
         23    2    1    2    0    0 -0.24416865756E+02  0.13983899826E+03  0.27374651040E+02  0.17046331733E+03  0.90317452735E+02 0.  0.
         23    2    1    2    0    0  0.24416865756E+02 -0.13983899826E+03 -0.23173963694E+02  0.19056107999E+03  0.12500145538E+03 0.  0.
          5    1    4    4  502    0  0.25075485681E+01 -0.13440035646E+03 -0.59864667342E+02  0.14722639713E+03  0.47000000000E+01 0. -1.
         -5    1    4    4    0  502  0.21909317188E+02 -0.54386417997E+01  0.36690703647E+02  0.43334682858E+02  0.47000000000E+01 0. -1.
        -11    1    3    3    0    0  0.95565792698E+00 -0.13085869292E+02  0.38434322049E+01  0.13672060134E+02  0.00000000000E+00 0.  1.
         11    1    3    3    0    0 -0.25372523683E+02  0.15292486755E+03  0.23531218835E+02  0.15679125720E+03  0.00000000000E+00 0. -1.
<mgrwt>
<rscale>  0 0.18369127E+03</rscale>
<asrwt>0</asrwt>
<pdfrwt beam="2">  1        1 0.27447978E-01 0.18914675E+03</pdfrwt>
<pdfrwt beam="1">  1       -1 0.28094237E-01 0.18914675E+03</pdfrwt>
<totfact> 0.19156992E+03</totfact>
</mgrwt>
</event>
<event>
 8    1  0.1224355E-005  0.1282303E+03  0.7546771E-02  0.1237556E+00
          2   -1    0    0  501    0  0.00000000000E+00  0.00000000000E+00  0.75663902163E+02  0.75663902163E+02  0.00000000000E+00 0. -1.
         -2   -1    0    0    0  501 -0.00000000000E+00 -0.00000000000E+00 -0.20311173438E+03  0.20311173438E+03  0.00000000000E+00 0.  1.
         23    2    1    2    0    0 -0.39369637718E+02 -0.46295098499E+02 -0.97646647428E+02  0.14712792282E+03  0.91752675163E+02 0.  0.
         23    2    1    2    0    0  0.39369637718E+02  0.46295098499E+02 -0.29801184789E+02  0.13164771373E+03  0.11291503618E+03 0.  0.
          5    1    4    4  502    0  0.75756887090E+02  0.22210988125E+02 -0.88590543904E+00  0.79090509946E+02  0.47000000000E+01 0. -1.
         -5    1    4    4    0  502 -0.36387249372E+02  0.24084110374E+02 -0.28915279350E+02  0.52557203781E+02  0.47000000000E+01 0.  1.
        -11    1    3    3    0    0  0.14585869226E+02  0.19071973349E+02 -0.12843183784E+02  0.27229306238E+02  0.00000000000E+00 0. -1.
         11    1    3    3    0    0 -0.53955506944E+02 -0.65367071848E+02 -0.84803463643E+02  0.11989861658E+03  0.00000000000E+00 0.  1.
<mgrwt>
<rscale>  0 0.12342237E+03</rscale>
<asrwt>0</asrwt>
<pdfrwt beam="1">  1        2 0.11640601E-01 0.12823030E+03</pdfrwt>
<pdfrwt beam="2">  1       -2 0.31247958E-01 0.12823030E+03</pdfrwt>
<totfact> 0.47744763E+03</totfact>
</mgrwt>
</event>
<event>
 8    1  0.1224355E-005  0.1345755E+03  0.7546771E-02  0.1233382E+00
          2   -1    0    0  501    0  0.00000000000E+00  0.00000000000E+00  0.84647598317E+02  0.84647598317E+02  0.00000000000E+00 0. -1.
         -2   -1    0    0    0  501 -0.00000000000E+00 -0.00000000000E+00 -0.18922392815E+03  0.18922392815E+03  0.00000000000E+00 0.  1.
         23    2    1    2    0    0 -0.21398460598E+02 -0.45035249187E+02 -0.92147006927E+02  0.13872325091E+03  0.90923053578E+02 0.  0.
         23    2    1    2    0    0  0.21398460598E+02  0.45035249187E+02 -0.12429322901E+02  0.13514827555E+03  0.12499800211E+03 0.  0.
          5    1    4    4  502    0 -0.37070941940E+02 -0.22845742490E+02  0.38587024747E+01  0.43967741255E+02  0.47000000000E+01 0.  1.
         -5    1    4    4    0  502  0.58469402538E+02  0.67880991677E+02 -0.16288025376E+02  0.91180534298E+02  0.47000000000E+01 0.  1.
        -11    1    3    3    0    0  0.86914977399E+01 -0.46176001161E+02 -0.97414623447E+02  0.10815439925E+03  0.00000000000E+00 0.  1.
         11    1    3    3    0    0 -0.30089958338E+02  0.11407519739E+01  0.52676165199E+01  0.30568851658E+02  0.00000000000E+00 0. -1.
<mgrwt>
<rscale>  0 0.12608577E+03</rscale>
<asrwt>0</asrwt>
<pdfrwt beam="1">  1        2 0.13022707E-01 0.13457551E+03</pdfrwt>
<pdfrwt beam="2">  1       -2 0.29111374E-01 0.13457551E+03</pdfrwt>
<totfact> 0.47571093E+03</totfact>
</mgrwt>
</event>
<event>
 8    1  0.1224355E-005  0.1352570E+03  0.7546771E-02  0.1232391E+00
          3   -1    0    0  501    0  0.00000000000E+00  0.00000000000E+00  0.67110619155E+02  0.67110619155E+02  0.00000000000E+00 0.  1.
         -3   -1    0    0    0  501 -0.00000000000E+00 -0.00000000000E+00 -0.21415951091E+03  0.21415951091E+03  0.00000000000E+00 0. -1.
         23    2    1    2    0    0 -0.50924383646E+02  0.87754057658E+01 -0.57361094828E+02  0.11897917383E+03  0.90528713731E+02 0.  0.
         23    2    1    2    0    0  0.50924383646E+02 -0.87754057658E+01 -0.89687796927E+02  0.16229095623E+03  0.12499661180E+03 0.  0.
          5    1    4    4  502    0  0.39065315266E+01  0.62903641496E+01 -0.10879048870E+03  0.10914343819E+03  0.47000000000E+01 0.  1.
         -5    1    4    4    0  502  0.47017852120E+02 -0.15065769915E+02  0.19102691769E+02  0.53147518041E+02  0.47000000000E+01 0.  1.
        -11    1    3    3    0    0 -0.19996646394E+02  0.16829775994E+02  0.21528863758E+02  0.33861470756E+02  0.00000000000E+00 0.  1.
         11    1    3    3    0    0 -0.30927737253E+02 -0.80543702286E+01 -0.78889958586E+02  0.85117703077E+02  0.00000000000E+00 0. -1.
<mgrwt>
<rscale>  0 0.12672936E+03</rscale>
<asrwt>0</asrwt>
<pdfrwt beam="1">  1        3 0.10324710E-01 0.13525699E+03</pdfrwt>
<pdfrwt beam="2">  1       -3 0.32947618E-01 0.13525699E+03</pdfrwt>
<totfact> 0.14470685E+03</totfact>
</mgrwt>
</event>
<event>
 8    1  0.1224355E-005  0.1255684E+03  0.7546771E-02  0.1249564E+00
         -2   -1    0    0    0  501 -0.00000000000E+00  0.00000000000E+00  0.20374998893E+03  0.20374998893E+03  0.00000000000E+00 0.  1.
          2   -1    0    0  501    0  0.00000000000E+00 -0.00000000000E+00 -0.69250480272E+02  0.69250480272E+02  0.00000000000E+00 0. -1.
         23    2    1    2    0    0  0.11182429604E+02  0.39227349540E+01  0.11285186214E+03  0.14557978116E+03  0.91200303248E+02 0.  0.
         23    2    1    2    0    0 -0.11182429604E+02 -0.39227349540E+01  0.21647646516E+02  0.12742068804E+03  0.12500790599E+03 0.  0.
          5    1    4    4  502    0  0.81878634150E+01 -0.31226283608E+02 -0.43293176879E+02  0.54208035009E+02  0.47000000000E+01 0.  1.
         -5    1    4    4    0  502 -0.19370293019E+02  0.27303548654E+02  0.64940823395E+02  0.73212653032E+02  0.47000000000E+01 0.  1.
        -11    1    3    3    0    0 -0.11935828422E+02  0.97952091176E+01 -0.11315024933E+02  0.19142620275E+02  0.00000000000E+00 0. -1.
         11    1    3    3    0    0  0.23118258026E+02 -0.58724741636E+01  0.12416688708E+03  0.12643716089E+03  0.00000000000E+00 0.  1.
<mgrwt>
<rscale>  0 0.11616309E+03</rscale>
<asrwt>0</asrwt>
<pdfrwt beam="2">  1        2 0.10653920E-01 0.12556835E+03</pdfrwt>
<pdfrwt beam="1">  1       -2 0.31346152E-01 0.12556835E+03</pdfrwt>
<totfact> 0.52765071E+03</totfact>
</mgrwt>
</event>
<event>
 8    1  0.1224355E-005  0.1307175E+03  0.7546771E-02  0.1238955E+00
          2   -1    0    0  501    0  0.00000000000E+00  0.00000000000E+00  0.98034523467E+02  0.98034523467E+02  0.00000000000E+00 0. -1.
         -2   -1    0    0    0  501 -0.00000000000E+00 -0.00000000000E+00 -0.20888604679E+03  0.20888604679E+03  0.00000000000E+00 0.  1.
         23    2    1    2    0    0 -0.54448558074E-01  0.38202735658E+02 -0.14036872588E+03  0.17291187711E+03  0.93464892143E+02 0.  0.
         23    2    1    2    0    0  0.54448558074E-01 -0.38202735658E+02  0.29517202556E+02  0.13400869315E+03  0.12501045003E+03 0.  0.
          5    1    4    4  502    0 -0.11118972478E+02 -0.31472734024E+02  0.77260087555E+02  0.84293390399E+02  0.47000000000E+01 0.  1.
         -5    1    4    4    0  502  0.11173421036E+02 -0.67300016337E+01 -0.47742884999E+02  0.49715302752E+02  0.47000000000E+01 0.  1.
        -11    1    3    3    0    0  0.30573844762E+02  0.34768794176E+02 -0.23256516066E+02  0.51812108349E+02  0.00000000000E+00 0. -1.
         11    1    3    3    0    0 -0.30628293320E+02  0.34339414811E+01 -0.11711220981E+03  0.12109976876E+03  0.00000000000E+00 0.  1.
<mgrwt>
<rscale>  0 0.12254608E+03</rscale>
<asrwt>0</asrwt>
<pdfrwt beam="1">  1        2 0.15082235E-01 0.13071750E+03</pdfrwt>
<pdfrwt beam="2">  1       -2 0.32136315E-01 0.13071750E+03</pdfrwt>
<totfact> 0.33414497E+03</totfact>
</mgrwt>
</event>
<event>
 7    1  0.1224355E-005  0.1647593E+03  0.7546771E-02  0.1191391E+00
         -2   -1    0    0    0  501 -0.00000000000E+00  0.00000000000E+00  0.96541046469E+02  0.96541046469E+02  0.00000000000E+00 0.  1.
          2   -1    0    0  501    0  0.00000000000E+00 -0.00000000000E+00 -0.48025426591E+03  0.48025426591E+03  0.00000000000E+00 0. -1.
         23    2    1    2    0    0 -0.63277022773E+02 -0.81832870423E+02  0.21165481753E+02  0.13967702176E+03  0.91439009711E+02 0.  0.
          5    1    1    2  502    0  0.11828519229E+02  0.10459125470E+03 -0.30073268739E+03  0.31865574480E+03  0.47000000000E+01 0. -1.
         -5    1    1    2    0  502  0.51448503544E+02 -0.22758384277E+02 -0.10414601380E+03  0.11846254582E+03  0.47000000000E+01 0.  1.
        -11    1    3    3    0    0 -0.78829142245E+02 -0.81609756667E+02  0.35125714791E+02  0.11877711013E+03  0.00000000000E+00 0.  1.
         11    1    3    3    0    0  0.15552119471E+02 -0.22311375575E+00 -0.13960233038E+02  0.20899911633E+02  0.00000000000E+00 0. -1.
<mgrwt>
<rscale>  0 0.15763683E+03</rscale>
<asrwt>0</asrwt>
<pdfrwt beam="2">  1        2 0.73885271E-01 0.16475933E+03</pdfrwt>
<pdfrwt beam="1">  1       -2 0.14852469E-01 0.16475933E+03</pdfrwt>
<totfact> 0.22333458E+03</totfact>
</mgrwt>
</event>
<event>
 8    1  0.1224355E-005  0.1780887E+03  0.7546771E-02  0.1175354E+00
         -2   -1    0    0    0  501 -0.00000000000E+00  0.00000000000E+00  0.40380159896E+02  0.40380159896E+02  0.00000000000E+00 0.  1.
          2   -1    0    0  501    0  0.00000000000E+00 -0.00000000000E+00 -0.70049115303E+03  0.70049115303E+03  0.00000000000E+00 0. -1.
         23    2    1    2    0    0  0.11312368606E+03  0.57412208588E+02 -0.27043719558E+03  0.31243083668E+03  0.91562115056E+02 0.  0.
         23    2    1    2    0    0 -0.11312368606E+03 -0.57412208588E+02 -0.38967379755E+03  0.42844047624E+03  0.12498977215E+03 0.  0.
          5    1    4    4  502    0 -0.90980584674E+02  0.19797692833E+02 -0.16125502402E+03  0.18626510194E+03  0.47000000000E+01 0.  1.
         -5    1    4    4    0  502 -0.22143101386E+02 -0.77209901421E+02 -0.22841877353E+03  0.24217537430E+03  0.47000000000E+01 0.  1.
        -11    1    3    3    0    0  0.99552323636E+02  0.10977362701E+02 -0.13140510347E+03  0.16522248289E+03  0.00000000000E+00 0.  1.
         11    1    3    3    0    0  0.13571362424E+02  0.46434845887E+02 -0.13903209211E+03  0.14720835380E+03  0.00000000000E+00 0. -1.
<mgrwt>
<rscale>  0 0.17241357E+03</rscale>
<asrwt>0</asrwt>
<pdfrwt beam="2">  1        2 0.10776786E+00 0.17808867E+03</pdfrwt>
<pdfrwt beam="1">  1       -2 0.62123327E-02 0.17808867E+03</pdfrwt>
<totfact> 0.57565017E+03</totfact>
</mgrwt>
</event>
<event>
 8    1  0.1224355E-005  0.1374396E+03  0.7546771E-02  0.1227981E+00
         -1   -1    0    0    0  501 -0.00000000000E+00  0.00000000000E+00  0.93458854120E+02  0.93458854120E+02  0.00000000000E+00 0.  1.
          1   -1    0    0  501    0  0.00000000000E+00 -0.00000000000E+00 -0.17806363049E+03  0.17806363049E+03  0.00000000000E+00 0. -1.
         23    2    1    2    0    0 -0.51013170526E+02 -0.25660170462E+02  0.24204068429E+01  0.10884787168E+03  0.92634836242E+02 0.  0.
         23    2    1    2    0    0  0.51013170526E+02  0.25660170462E+02 -0.87025183212E+02  0.16267461292E+03  0.12501543609E+03 0.  0.
          5    1    4    4  502    0  0.29919736883E+01  0.58774427992E+02 -0.15158058371E+01  0.59057370071E+02  0.47000000000E+01 0. -1.
         -5    1    4    4    0  502  0.48021196838E+02 -0.33114257530E+02 -0.85509377375E+02  0.10361724285E+03  0.47000000000E+01 0. -1.
        -11    1    3    3    0    0 -0.50235764025E+02 -0.42050789947E+02 -0.30348101307E+02  0.72200472127E+02  0.00000000000E+00 0. -1.
         11    1    3    3    0    0 -0.77740650119E+00  0.16390619485E+02  0.32768508150E+02  0.36647399558E+02  0.00000000000E+00 0.  1.
<mgrwt>
<rscale>  0 0.12964688E+03</rscale>
<asrwt>0</asrwt>
<pdfrwt beam="2">  1        1 0.27394405E-01 0.13743961E+03</pdfrwt>
<pdfrwt beam="1">  1       -1 0.14378285E-01 0.13743961E+03</pdfrwt>
<totfact> 0.55838014E+03</totfact>
</mgrwt>
</event>
<event>
 8    1  0.1224355E-005  0.1260696E+03  0.7546771E-02  0.1247993E+00
          1   -1    0    0  501    0  0.00000000000E+00  0.00000000000E+00  0.97674740723E+02  0.97674740723E+02  0.00000000000E+00 0. -1.
         -1   -1    0    0    0  501 -0.00000000000E+00 -0.00000000000E+00 -0.12418540133E+03  0.12418540133E+03  0.00000000000E+00 0.  1.
         23    2    1    2    0    0  0.69514508330E+01  0.14820182068E+02 -0.18106969746E+02  0.95510778469E+02  0.92338973273E+02 0.  0.
         23    2    1    2    0    0 -0.69514508330E+01 -0.14820182068E+02 -0.84036908645E+01  0.12634936359E+03  0.12500231675E+03 0.  0.
          5    1    4    4  502    0  0.44561557647E+02  0.31937137508E+02 -0.12761087943E+02  0.56485825989E+02  0.47000000000E+01 0.  1.
         -5    1    4    4    0  502 -0.51513008480E+02 -0.46757319576E+02  0.43573970788E+01  0.69863537599E+02  0.47000000000E+01 0.  1.
        -11    1    3    3    0    0 -0.26642527710E+02 -0.19178731917E+02 -0.31889876293E+02  0.45766934032E+02  0.00000000000E+00 0.  1.
         11    1    3    3    0    0  0.33593978543E+02  0.33998913984E+02  0.13782906546E+02  0.49743844437E+02  0.00000000000E+00 0. -1.
<mgrwt>
<rscale>  0 0.11708029E+03</rscale>
<asrwt>0</asrwt>
<pdfrwt beam="1">  1        1 0.15026883E-01 0.12606958E+03</pdfrwt>
<pdfrwt beam="2">  1       -1 0.19105446E-01 0.12606958E+03</pdfrwt>
<totfact> 0.75950293E+03</totfact>
</mgrwt>
</event>
<event>
 8    1  0.1224355E-005  0.1494041E+03  0.7546771E-02  0.1210037E+00
          1   -1    0    0  501    0  0.00000000000E+00  0.00000000000E+00  0.17590123465E+04  0.17590123465E+04  0.00000000000E+00 0. -1.
         -1   -1    0    0    0  501 -0.00000000000E+00 -0.00000000000E+00 -0.12277030511E+02  0.12277030511E+02  0.00000000000E+00 0.  1.
         23    2    1    2    0    0 -0.82668279750E+02  0.20495128652E+02  0.47493721420E+03  0.49074574570E+03  0.89509411301E+02 0.  0.
         23    2    1    2    0    0  0.82668279750E+02 -0.20495128652E+02  0.12717981018E+04  0.12805436313E+04  0.12274968518E+03 0.  0.
          5    1    4    4  502    0  0.10598904792E+03 -0.44253259942E+02  0.10366765424E+04  0.10430303796E+04  0.47000000000E+01 0. -1.
         -5    1    4    4    0  502 -0.23320768171E+02  0.23758131290E+02  0.23512155943E+03  0.23751325171E+03  0.47000000000E+01 0.  1.
        -11    1    3    3    0    0 -0.10102884396E+03  0.12497218938E+02  0.42310427952E+03  0.43517839921E+03  0.00000000000E+00 0.  1.
         11    1    3    3    0    0  0.18360564207E+02  0.79979097138E+01  0.51832934680E+02  0.55567346484E+02  0.00000000000E+00 0. -1.
<mgrwt>
<rscale>  0 0.14247465E+03</rscale>
<asrwt>0</asrwt>
<pdfrwt beam="1">  1        1 0.27061708E+00 0.14940408E+03</pdfrwt>
<pdfrwt beam="2">  1       -1 0.18887753E-02 0.14940408E+03</pdfrwt>
<totfact> 0.35821305E+03</totfact>
</mgrwt>
</event>
<event>
 8    1  0.1884760E-005  0.1676442E+03  0.7546771E-02  0.1187493E+00
         -2   -1    0    0    0  501 -0.00000000000E+00  0.00000000000E+00  0.16825011045E+02  0.16825011045E+02  0.00000000000E+00 0.  1.
          2   -1    0    0  501    0  0.00000000000E+00 -0.00000000000E+00 -0.14567316993E+04  0.14567316993E+04  0.00000000000E+00 0. -1.
         23    2    1    2    0    0  0.10981549318E+03 -0.20501141134E+02 -0.56884154464E+03  0.58650594019E+03  0.89043672668E+02 0.  0.
         23    2    1    2    0    0 -0.10981549318E+03  0.20501141134E+02 -0.87106514366E+03  0.88705077020E+03  0.12499938032E+03 0.  0.
          5    1    4    4  502    0 -0.10536581734E+03 -0.34675612126E+02 -0.62581965710E+03  0.63559160375E+03  0.47000000000E+01 0. -1.
         -5    1    4    4    0  502 -0.44496758437E+01  0.55176753259E+02 -0.24524548656E+03  0.25145916646E+03  0.47000000000E+01 0. -1.
        -11    1    3    3    0    0  0.11100992997E+03  0.81293798841E+01 -0.39772384364E+03  0.41300550501E+03  0.00000000000E+00 0.  1.
         11    1    3    3    0    0 -0.11944367875E+01 -0.28630521018E+02 -0.17111770100E+03  0.17350043518E+03  0.00000000000E+00 0. -1.
<mgrwt>
<rscale>  0 0.16107119E+03</rscale>
<asrwt>0</asrwt>
<pdfrwt beam="2">  1        2 0.22411260E+00 0.16764422E+03</pdfrwt>
<pdfrwt beam="1">  1       -2 0.25884629E-02 0.16764422E+03</pdfrwt>
<totfact> 0.74903512E+03</totfact>
</mgrwt>
</event>
<event>
 8    1  0.1224355E-005  0.1388280E+03  0.7546771E-02  0.1226339E+00
         -1   -1    0    0    0  501 -0.00000000000E+00  0.00000000000E+00  0.42309051760E+02  0.42309051760E+02  0.00000000000E+00 0.  1.
          1   -1    0    0  501    0  0.00000000000E+00 -0.00000000000E+00 -0.59799841353E+03  0.59799841353E+03  0.00000000000E+00 0. -1.
         23    2    1    2    0    0  0.49893497227E+02  0.34052277737E+02 -0.58142016092E+02  0.12375486861E+03  0.91026670728E+02 0.  0.
         23    2    1    2    0    0 -0.49893497227E+02 -0.34052277737E+02 -0.49754734568E+03  0.51655259668E+03  0.12499722103E+03 0.  0.
          5    1    4    4  502    0 -0.11909004628E+02 -0.53671612177E+02 -0.44608223438E+03  0.44948183075E+03  0.47000000000E+01 0.  1.
         -5    1    4    4    0  502 -0.37984492599E+02  0.19619334440E+02 -0.51465111294E+02  0.67070765930E+02  0.47000000000E+01 0.  1.
        -11    1    3    3    0    0 -0.32002086928E+01  0.11955959900E+02  0.21923911176E+02  0.25176262511E+02  0.00000000000E+00 0.  1.
         11    1    3    3    0    0  0.53093705920E+02  0.22096317838E+02 -0.80065927268E+02  0.98578606095E+02  0.00000000000E+00 0. -1.
<mgrwt>
<rscale>  0 0.13075541E+03</rscale>
<asrwt>0</asrwt>
<pdfrwt beam="2">  1        1 0.91999758E-01 0.13882804E+03</pdfrwt>
<pdfrwt beam="1">  1       -1 0.65090847E-02 0.13882804E+03</pdfrwt>
<totfact> 0.40532748E+03</totfact>
</mgrwt>
</event>
<event>
 8    1  0.1224355E-005  0.1532113E+03  0.7546771E-02  0.1205420E+00
         -1   -1    0    0    0  501 -0.00000000000E+00  0.00000000000E+00  0.41685610586E+02  0.41685610586E+02  0.00000000000E+00 0.  1.
          1   -1    0    0  501    0  0.00000000000E+00 -0.00000000000E+00 -0.48898849312E+03  0.48898849312E+03  0.00000000000E+00 0. -1.
         23    2    1    2    0    0  0.31493996369E+02  0.82808808525E+02 -0.14999375443E+03  0.19620973854E+03  0.90282692437E+02 0.  0.
         23    2    1    2    0    0 -0.31493996369E+02 -0.82808808525E+02 -0.29730912810E+03  0.33446436517E+03  0.12499809333E+03 0.  0.
          5    1    4    4  502    0 -0.78626552861E+02 -0.65081850965E+02 -0.18636754537E+03  0.21253878259E+03  0.47000000000E+01 0. -1.
         -5    1    4    4    0  502  0.47132556491E+02 -0.17726957560E+02 -0.11094158274E+03  0.12192558257E+03  0.47000000000E+01 0. -1.
        -11    1    3    3    0    0  0.59125681228E+02  0.67015237858E+02 -0.82671595942E+02  0.12174350521E+03  0.00000000000E+00 0.  1.
         11    1    3    3    0    0 -0.27631684859E+02  0.15793570667E+02 -0.67322158490E+02  0.74466233329E+02  0.00000000000E+00 0. -1.
<mgrwt>
<rscale>  0 0.14604392E+03</rscale>
<asrwt>0</asrwt>
<pdfrwt beam="2">  1        1 0.75229002E-01 0.15321127E+03</pdfrwt>
<pdfrwt beam="1">  1       -1 0.64131706E-02 0.15321127E+03</pdfrwt>
<totfact> 0.54423589E+03</totfact>
</mgrwt>
</event>
<event>
 8    1  0.1224355E-005  0.1259615E+03  0.7546771E-02  0.1248976E+00
         -4   -1    0    0    0  501 -0.00000000000E+00  0.00000000000E+00  0.21034636575E+03  0.21034636575E+03  0.00000000000E+00 0.  1.
          4   -1    0    0  501    0  0.00000000000E+00 -0.00000000000E+00 -0.64701208503E+02  0.64701208503E+02  0.00000000000E+00 0. -1.
         23    2    1    2    0    0  0.15315940502E+02 -0.17557241080E+01  0.11123508517E+03  0.14447060358E+03  0.90889221182E+02 0.  0.
         23    2    1    2    0    0 -0.15315940502E+02  0.17557241080E+01  0.34410072081E+02  0.13057697067E+03  0.12501452559E+03 0.  0.
          5    1    4    4  502    0 -0.23460708485E+02  0.18434349891E+02  0.77633625206E+02  0.83302460115E+02  0.47000000000E+01 0.  1.
         -5    1    4    4    0  502  0.81447679828E+01 -0.16678625783E+02 -0.43223553125E+02  0.47274510556E+02  0.47000000000E+01 0.  1.
        -11    1    3    3    0    0  0.25375804871E+02 -0.27523727287E+02  0.11064017846E+03  0.11680212381E+03  0.00000000000E+00 0.  1.
         11    1    3    3    0    0 -0.10059864369E+02  0.25768003179E+02  0.59490670516E+00  0.27668479773E+02  0.00000000000E+00 0. -1.
<mgrwt>
<rscale>  0 0.11650543E+03</rscale>
<asrwt>0</asrwt>
<pdfrwt beam="2">  1        4 0.99540321E-02 0.12596147E+03</pdfrwt>
<pdfrwt beam="1">  1       -4 0.32360979E-01 0.12596147E+03</pdfrwt>
<totfact> 0.11417021E+03</totfact>
</mgrwt>
</event>
<event>
 8    1  0.1224355E-005  0.1294489E+03  0.7546771E-02  0.1244707E+00
          2   -1    0    0  501    0  0.00000000000E+00  0.00000000000E+00  0.73484294881E+03  0.73484294881E+03  0.00000000000E+00 0. -1.
         -2   -1    0    0    0  501 -0.00000000000E+00 -0.00000000000E+00 -0.20401879159E+02  0.20401879159E+02  0.00000000000E+00 0.  1.
         23    2    1    2    0    0 -0.33019303838E+02  0.64643348008E+01  0.15079678453E+03  0.17692665377E+03  0.86205037779E+02 0.  0.
         23    2    1    2    0    0  0.33019303838E+02 -0.64643348008E+01  0.56364428512E+03  0.57831817420E+03  0.12499987364E+03 0.  0.
          5    1    4    4  502    0  0.52565650478E+02 -0.35885254565E+02  0.14831486422E+03  0.16146296187E+03  0.47000000000E+01 0. -1.
         -5    1    4    4    0  502 -0.19546346639E+02  0.29420919764E+02  0.41532942089E+03  0.41685521233E+03  0.47000000000E+01 0. -1.
        -11    1    3    3    0    0 -0.40027762813E+02 -0.39627436484E+01  0.15759123981E+03  0.16264354890E+03  0.00000000000E+00 0. -1.
         11    1    3    3    0    0  0.70084589745E+01  0.10427078449E+02 -0.67944552799E+01  0.14283104870E+02  0.00000000000E+00 0.  1.
<mgrwt>
<rscale>  0 0.11902947E+03</rscale>
<asrwt>0</asrwt>
<pdfrwt beam="1">  1        2 0.11305274E+00 0.12944895E+03</pdfrwt>
<pdfrwt beam="2">  1       -2 0.31387512E-02 0.12944895E+03</pdfrwt>
<totfact> 0.14831229E+04</totfact>
</mgrwt>
</event>
<event>
 8    1  0.1224355E-005  0.1266220E+03  0.7546771E-02  0.1248521E+00
          1   -1    0    0  501    0  0.00000000000E+00  0.00000000000E+00  0.37022915408E+03  0.37022915408E+03  0.00000000000E+00 0. -1.
         -1   -1    0    0    0  501 -0.00000000000E+00 -0.00000000000E+00 -0.47460661650E+02  0.47460661650E+02  0.00000000000E+00 0.  1.
         23    2    1    2    0    0 -0.47998611268E+00  0.20212310082E+02  0.26255138392E+02  0.95271930145E+02  0.89323236148E+02 0.  0.
         23    2    1    2    0    0  0.47998611268E+00 -0.20212310082E+02  0.29651335404E+03  0.32241788558E+03  0.12499742380E+03 0.  0.
          5    1    4    4  502    0 -0.32828300132E+02 -0.31300346555E+02  0.27937224896E+03  0.28306951880E+03  0.47000000000E+01 0. -1.
         -5    1    4    4    0  502  0.33308286245E+02  0.11088036473E+02  0.17141105078E+02  0.39348366786E+02  0.47000000000E+01 0. -1.
        -11    1    3    3    0    0 -0.13661789754E+01 -0.25053073487E+02 -0.18836089173E+02  0.31373893471E+02  0.00000000000E+00 0.  1.
         11    1    3    3    0    0  0.88619286276E+00  0.45265383569E+02  0.45091227565E+02  0.63898036674E+02  0.00000000000E+00 0. -1.
<mgrwt>
<rscale>  0 0.11677108E+03</rscale>
<asrwt>0</asrwt>
<pdfrwt beam="1">  1        1 0.56958330E-01 0.12662197E+03</pdfrwt>
<pdfrwt beam="2">  1       -1 0.73016405E-02 0.12662197E+03</pdfrwt>
<totfact> 0.63150049E+03</totfact>
</mgrwt>
</event>
<event>
 7    1  0.1224355E-005  0.1695237E+03  0.7546771E-02  0.1197503E+00
         -4   -1    0    0    0  501 -0.00000000000E+00  0.00000000000E+00  0.12762623649E+03  0.12762623649E+03  0.00000000000E+00 0. -1.
          4   -1    0    0  501    0  0.00000000000E+00 -0.00000000000E+00 -0.15642996616E+03  0.15642996616E+03  0.00000000000E+00 0.  1.
         23    2    1    2    0    0 -0.62096506739E+02  0.10048950930E+02 -0.28805458924E+02  0.11453245676E+03  0.91274156388E+02 0.  0.
          5    1    1    2  502    0  0.59065552675E+02 -0.33646221793E+02 -0.68643740073E+02  0.96720529388E+02  0.47000000000E+01 0.  1.
         -5    1    1    2    0  502  0.30309540638E+01  0.23597270863E+02  0.68645469323E+02  0.72803216504E+02  0.47000000000E+01 0. -1.
        -11    1    3    3    0    0  0.16458594277E+02 -0.15234181360E+02  0.84801596736E+01  0.23976628524E+02  0.00000000000E+00 0.  1.
         11    1    3    3    0    0 -0.78555101015E+02  0.25283132290E+02 -0.37285618597E+02  0.90555828239E+02  0.00000000000E+00 0. -1.
<mgrwt>
<rscale>  0 0.15244309E+03</rscale>
<asrwt>0</asrwt>
<pdfrwt beam="2">  1        4 0.24066149E-01 0.16952375E+03</pdfrwt>
<pdfrwt beam="1">  1       -4 0.19634806E-01 0.16952375E+03</pdfrwt>
<totfact> 0.64808477E+02</totfact>
</mgrwt>
</event>
<event>
 8    1  0.1224355E-005  0.1396908E+03  0.7546771E-02  0.1224179E+00
          1   -1    0    0  501    0  0.00000000000E+00  0.00000000000E+00  0.10961319444E+04  0.10961319444E+04  0.00000000000E+00 0. -1.
         -1   -1    0    0    0  501 -0.00000000000E+00 -0.00000000000E+00 -0.15034935724E+02  0.15034935724E+02  0.00000000000E+00 0.  1.
         23    2    1    2    0    0  0.24632038662E+01 -0.62309751207E+02  0.37637621359E+03  0.39273462200E+03  0.93235490511E+02 0.  0.
         23    2    1    2    0    0 -0.24632038662E+01  0.62309751207E+02  0.70472079506E+03  0.71843225810E+03  0.12499975208E+03 0.  0.
          5    1    4    4  502    0  0.23431014726E+02  0.24707355631E+02  0.62864241048E+03  0.62958147696E+03  0.47000000000E+01 0.  1.
         -5    1    4    4    0  502 -0.25894218592E+02  0.37602395576E+02  0.76078384582E+02  0.88850781145E+02  0.47000000000E+01 0.  1.
        -11    1    3    3    0    0 -0.36971772883E+02 -0.39800052865E+02  0.29107593270E+03  0.29610159539E+03  0.00000000000E+00 0. -1.
         11    1    3    3    0    0  0.39434976750E+02 -0.22509698342E+02  0.85300280896E+02  0.96633026609E+02  0.00000000000E+00 0.  1.
<mgrwt>
<rscale>  0 0.13223366E+03</rscale>
<asrwt>0</asrwt>
<pdfrwt beam="1">  1        1 0.16863562E+00 0.13969077E+03</pdfrwt>
<pdfrwt beam="2">  1       -1 0.23130679E-02 0.13969077E+03</pdfrwt>
<totfact> 0.73150929E+03</totfact>
</mgrwt>
</event>
<event>
 8    1  0.1224355E-005  0.1378549E+03  0.7546771E-02  0.1226049E+00
          1   -1    0    0  501    0  0.00000000000E+00  0.00000000000E+00  0.11754047377E+04  0.11754047377E+04  0.00000000000E+00 0. -1.
         -1   -1    0    0    0  501 -0.00000000000E+00 -0.00000000000E+00 -0.15567766226E+02  0.15567766226E+02  0.00000000000E+00 0.  1.
         23    2    1    2    0    0  0.56348170564E+02 -0.14328634726E+02  0.30314391053E+03  0.32325886012E+03  0.96018925514E+02 0.  0.
         23    2    1    2    0    0 -0.56348170564E+02  0.14328634726E+02  0.85669306091E+03  0.86771364377E+03  0.12499416336E+03 0.  0.
          5    1    4    4  502    0  0.22194590368E+02  0.41936004524E+02  0.45275259181E+03  0.45525622204E+03  0.47000000000E+01 0.  1.
         -5    1    4    4    0  502 -0.78542760932E+02 -0.27607369798E+02  0.40394046910E+03  0.41245742173E+03  0.47000000000E+01 0.  1.
        -11    1    3    3    0    0 -0.12391261793E+02 -0.31634723756E+02  0.15948508779E+03  0.16306376772E+03  0.00000000000E+00 0.  1.
         11    1    3    3    0    0  0.68739432357E+02  0.17306089030E+02  0.14365882274E+03  0.16019509240E+03  0.00000000000E+00 0. -1.
<mgrwt>
<rscale>  0 0.13095231E+03</rscale>
<asrwt>0</asrwt>
<pdfrwt beam="1">  1        1 0.18083143E+00 0.13785488E+03</pdfrwt>
<pdfrwt beam="2">  1       -1 0.23950419E-02 0.13785488E+03</pdfrwt>
<totfact> 0.61205117E+03</totfact>
</mgrwt>
</event>
<event>
 7    1  0.1224355E-005  0.9645304E+03  0.7546771E-02  0.9348326E-01
         -1   -1    0    0    0  501 -0.00000000000E+00  0.00000000000E+00  0.25685988308E+03  0.25685988308E+03  0.00000000000E+00 0.  1.
          1   -1    0    0  501    0  0.00000000000E+00 -0.00000000000E+00 -0.90547313750E+03  0.90547313750E+03  0.00000000000E+00 0. -1.
         23    2    1    2    0    0  0.15720218542E+03 -0.23136404459E+03  0.90687529869E+02  0.30785980283E+03  0.91167877544E+02 0.  0.
          5    1    1    2  502    0 -0.15654698642E+03  0.29353940325E+03 -0.71298355416E+03  0.78679093712E+03  0.47000000000E+01 0. -1.
         -5    1    1    2    0  502 -0.65519899506E+00 -0.62175358666E+02 -0.26317230118E+02  0.67682280635E+02  0.47000000000E+01 0.  1.
        -11    1    3    3    0    0  0.15441654137E+03 -0.21662134757E+03  0.58549179288E+02  0.27239178193E+03  0.00000000000E+00 0.  1.
         11    1    3    3    0    0  0.27856440507E+01 -0.14742697023E+02  0.32138350581E+02  0.35468020897E+02  0.00000000000E+00 0. -1.
<mgrwt>
<rscale>  0 0.96453040E+03</rscale>
<asrwt>0</asrwt>
<pdfrwt beam="2">  1        1 0.13930356E+00 0.96453040E+03</pdfrwt>
<pdfrwt beam="1">  1       -1 0.39516905E-01 0.96453040E+03</pdfrwt>
<totfact> 0.11256114E+02</totfact>
</mgrwt>
</event>
<event>
 8    1  0.1224355E-005  0.1258052E+03  0.7546771E-02  0.1250071E+00
          1   -1    0    0  501    0  0.00000000000E+00  0.00000000000E+00  0.61778506660E+03  0.61778506660E+03  0.00000000000E+00 0. -1.
         -1   -1    0    0    0  501 -0.00000000000E+00 -0.00000000000E+00 -0.20033192747E+02  0.20033192747E+02  0.00000000000E+00 0.  1.
         23    2    1    2    0    0 -0.90222686815E+01 -0.10873498697E+02  0.17919090915E+03  0.20075965410E+03  0.89417126356E+02 0.  0.
         23    2    1    2    0    0  0.90222686815E+01  0.10873498697E+02  0.41856096470E+03  0.43705860525E+03  0.12500923543E+03 0.  0.
          5    1    4    4  502    0  0.46334723540E+02  0.39593034447E+02  0.11898575911E+03  0.13376926348E+03  0.47000000000E+01 0.  1.
         -5    1    4    4    0  502 -0.37312454859E+02 -0.28719535750E+02  0.29957520560E+03  0.30328934177E+03  0.47000000000E+01 0.  1.
        -11    1    3    3    0    0 -0.46346427152E+01 -0.42928783211E+02  0.43600529103E+02  0.61362582077E+02  0.00000000000E+00 0.  1.
         11    1    3    3    0    0 -0.43876259663E+01  0.32055284514E+02  0.13559038005E+03  0.13939707202E+03  0.00000000000E+00 0. -1.
<mgrwt>
<rscale>  0 0.11586917E+03</rscale>
<asrwt>0</asrwt>
<pdfrwt beam="1">  1        1 0.95043842E-01 0.12580518E+03</pdfrwt>
<pdfrwt beam="2">  1       -1 0.30820301E-02 0.12580518E+03</pdfrwt>
<totfact> 0.11598495E+04</totfact>
</mgrwt>
</event>
<event>
 8    1  0.1224355E-005  0.1331505E+03  0.7546771E-02  0.1236112E+00
          1   -1    0    0  501    0  0.00000000000E+00  0.00000000000E+00  0.11971185010E+04  0.11971185010E+04  0.00000000000E+00 0. -1.
         -1   -1    0    0    0  501 -0.00000000000E+00 -0.00000000000E+00 -0.20118127725E+02  0.20118127725E+02  0.00000000000E+00 0.  1.
         23    2    1    2    0    0  0.42616918755E+02  0.16978603474E+02  0.14595856955E+03  0.17763273057E+03  0.90249699196E+02 0.  0.
         23    2    1    2    0    0 -0.42616918755E+02 -0.16978603474E+02  0.10310418037E+04  0.10396038981E+04  0.12499835715E+03 0.  0.
          5    1    4    4  502    0 -0.12923513589E+02  0.20536794196E+02  0.89458117097E+03  0.89492253216E+03  0.47000000000E+01 0. -1.
         -5    1    4    4    0  502 -0.29693405166E+02 -0.37515397670E+02  0.13646063271E+03  0.14468136595E+03  0.47000000000E+01 0. -1.
        -11    1    3    3    0    0  0.56147111976E+02  0.28094802990E+02  0.14724796968E+03  0.16007429747E+03  0.00000000000E+00 0. -1.
         11    1    3    3    0    0 -0.13530193221E+02 -0.11116199516E+02 -0.12894001214E+01  0.17558433101E+02  0.00000000000E+00 0.  1.
<mgrwt>
<rscale>  0 0.12433544E+03</rscale>
<asrwt>0</asrwt>
<pdfrwt beam="1">  1        1 0.18417202E+00 0.13315053E+03</pdfrwt>
<pdfrwt beam="2">  1       -1 0.30950975E-02 0.13315053E+03</pdfrwt>
<totfact> 0.40699912E+03</totfact>
</mgrwt>
</event>
<event>
 8    1  0.1224355E-005  0.1467595E+03  0.7546771E-02  0.1212985E+00
          1   -1    0    0  501    0  0.00000000000E+00  0.00000000000E+00  0.77528212327E+03  0.77528212327E+03  0.00000000000E+00 0. -1.
         -1   -1    0    0    0  501 -0.00000000000E+00 -0.00000000000E+00 -0.26350463347E+02  0.26350463347E+02  0.00000000000E+00 0.  1.
         23    2    1    2    0    0 -0.29056489212E+01  0.76849629745E+02  0.21003452162E+03  0.24310910364E+03  0.95253491330E+02 0.  0.
         23    2    1    2    0    0  0.29056489212E+01 -0.76849629745E+02  0.53889713830E+03  0.55852348298E+03  0.12499618788E+03 0.  0.
          5    1    4    4  502    0 -0.22110253472E+01 -0.10832666603E+03  0.47153521977E+03  0.48384616222E+03  0.47000000000E+01 0.  1.
         -5    1    4    4    0  502  0.51166742683E+01  0.31477036282E+02  0.67361918524E+02  0.74677320759E+02  0.47000000000E+01 0.  1.
        -11    1    3    3    0    0  0.30604006060E+02 -0.44647758529E+01  0.83226678753E+02  0.88787496117E+02  0.00000000000E+00 0.  1.
         11    1    3    3    0    0 -0.33509654981E+02  0.81314405598E+02  0.12680784287E+03  0.15432160752E+03  0.00000000000E+00 0. -1.
<mgrwt>
<rscale>  0 0.14025585E+03</rscale>
<asrwt>0</asrwt>
<pdfrwt beam="1">  1        1 0.11927416E+00 0.14675952E+03</pdfrwt>
<pdfrwt beam="2">  1       -1 0.40539180E-02 0.14675952E+03</pdfrwt>
<totfact> 0.56710060E+03</totfact>
</mgrwt>
</event>
<event>
 8    1  0.1224355E-005  0.1601950E+03  0.7546771E-02  0.1195600E+00
          2   -1    0    0  501    0  0.00000000000E+00  0.00000000000E+00  0.21571450263E+03  0.21571450263E+03  0.00000000000E+00 0. -1.
         -2   -1    0    0    0  501 -0.00000000000E+00 -0.00000000000E+00 -0.11479390070E+03  0.11479390070E+03  0.00000000000E+00 0.  1.
         23    2    1    2    0    0  0.26320628394E+02 -0.96667018592E+02 -0.73778733862E+01  0.13714088643E+03  0.93358993954E+02 0.  0.
         23    2    1    2    0    0 -0.26320628394E+02  0.96667018592E+02  0.10829847531E+03  0.19336751690E+03  0.12500059550E+03 0.  0.
          5    1    4    4  502    0 -0.25050080966E+02 -0.23078984696E+02  0.48447597902E+02  0.59408802660E+02  0.47000000000E+01 0. -1.
         -5    1    4    4    0  502 -0.12705474281E+01  0.11974600329E+03  0.59850877408E+02  0.13395871424E+03  0.47000000000E+01 0. -1.
        -11    1    3    3    0    0  0.98404565581E+01 -0.61516023865E+02  0.41399621061E+02  0.74799628351E+02  0.00000000000E+00 0. -1.
         11    1    3    3    0    0  0.16480171836E+02 -0.35150994727E+02 -0.48777494448E+02  0.62341258077E+02  0.00000000000E+00 0.  1.
<mgrwt>
<rscale>  0 0.15403560E+03</rscale>
<asrwt>0</asrwt>
<pdfrwt beam="1">  1        2 0.33186846E-01 0.16019500E+03</pdfrwt>
<pdfrwt beam="2">  1       -2 0.17660600E-01 0.16019500E+03</pdfrwt>
<totfact> 0.39559151E+03</totfact>
</mgrwt>
</event>
<event>
 8    1  0.1224355E-005  0.1685243E+03  0.7546771E-02  0.1185920E+00
          4   -1    0    0  501    0  0.00000000000E+00  0.00000000000E+00  0.80120757149E+02  0.80120757149E+02  0.00000000000E+00 0. -1.
         -4   -1    0    0    0  501 -0.00000000000E+00 -0.00000000000E+00 -0.39584480394E+03  0.39584480394E+03  0.00000000000E+00 0.  1.
         23    2    1    2    0    0  0.92960134501E+01 -0.11264309013E+03 -0.26081792858E+03  0.29872243748E+03  0.91838015913E+02 0.  0.
         23    2    1    2    0    0 -0.92960134501E+01  0.11264309013E+03 -0.54906118207E+02  0.17724312360E+03  0.12500224570E+03 0.  0.
          5    1    4    4  502    0 -0.29272513508E+02  0.12142355247E+03 -0.76205855594E+02  0.14638982741E+03  0.47000000000E+01 0. -1.
         -5    1    4    4    0  502  0.19976500057E+02 -0.87804623427E+01  0.21299737386E+02  0.30853296197E+02  0.47000000000E+01 0. -1.
        -11    1    3    3    0    0  0.52784260301E+01 -0.71584657223E+02 -0.24371121409E+03  0.25406176572E+03  0.00000000000E+00 0.  1.
         11    1    3    3    0    0  0.40175874200E+01 -0.41058432904E+02 -0.17106714495E+02  0.44660671760E+02  0.00000000000E+00 0. -1.
<mgrwt>
<rscale>  0 0.16248460E+03</rscale>
<asrwt>0</asrwt>
<pdfrwt beam="1">  1        4 0.12326270E-01 0.16852431E+03</pdfrwt>
<pdfrwt beam="2">  1       -4 0.60899200E-01 0.16852431E+03</pdfrwt>
<totfact> 0.23614258E+02</totfact>
</mgrwt>
</event>
<event>
 8    1  0.1224355E-005  0.1289317E+03  0.7546771E-02  0.1242309E+00
          1   -1    0    0  501    0  0.00000000000E+00  0.00000000000E+00  0.51201055700E+03  0.51201055700E+03  0.00000000000E+00 0. -1.
         -1   -1    0    0    0  501 -0.00000000000E+00 -0.00000000000E+00 -0.27639227526E+02  0.27639227526E+02  0.00000000000E+00 0.  1.
         23    2    1    2    0    0 -0.24962177737E+02  0.19304431908E+02  0.13311923478E+03  0.16548215957E+03  0.93101251637E+02 0.  0.
         23    2    1    2    0    0  0.24962177737E+02 -0.19304431908E+02  0.35125209469E+03  0.37416762496E+03  0.12501042411E+03 0.  0.
          5    1    4    4  502    0  0.60986744989E+02  0.28509862565E+02  0.21305126740E+03  0.22348406625E+03  0.47000000000E+01 0. -1.
         -5    1    4    4    0  502 -0.36024567252E+02 -0.47814294473E+02  0.13820082730E+03  0.15068355871E+03  0.47000000000E+01 0. -1.
        -11    1    3    3    0    0 -0.26450235603E+02 -0.33925202026E+02  0.43115625404E+02  0.60905594570E+02  0.00000000000E+00 0.  1.
         11    1    3    3    0    0  0.14880578659E+01  0.53229633934E+02  0.90003609380E+02  0.10457656500E+03  0.00000000000E+00 0. -1.
<mgrwt>
<rscale>  0 0.12047923E+03</rscale>
<asrwt>0</asrwt>
<pdfrwt beam="1">  1        1 0.78770848E-01 0.12893168E+03</pdfrwt>
<pdfrwt beam="2">  1       -1 0.42521892E-02 0.12893168E+03</pdfrwt>
<totfact> 0.93297438E+03</totfact>
</mgrwt>
</event>
<event>
 8    1  0.1224355E-005  0.1333559E+03  0.7546771E-02  0.1234388E+00
          1   -1    0    0  501    0  0.00000000000E+00  0.00000000000E+00  0.75719099250E+03  0.75719099250E+03  0.00000000000E+00 0. -1.
         -1   -1    0    0    0  501 -0.00000000000E+00 -0.00000000000E+00 -0.18664006884E+02  0.18664006884E+02  0.00000000000E+00 0.  1.
         23    2    1    2    0    0 -0.60893421690E+01  0.46052516517E+02  0.32773528855E+03  0.34395962716E+03  0.93487386265E+02 0.  0.
         23    2    1    2    0    0  0.60893421690E+01 -0.46052516517E+02  0.41079169706E+03  0.43189537222E+03  0.12500351916E+03 0.  0.
          5    1    4    4  502    0  0.94880338166E+01 -0.52211725616E+01  0.38060217394E+03  0.38078522586E+03  0.47000000000E+01 0. -1.
         -5    1    4    4    0  502 -0.33986916476E+01 -0.40831343955E+02  0.30189523123E+02  0.51110146356E+02  0.47000000000E+01 0. -1.
        -11    1    3    3    0    0 -0.36706369246E+02  0.52019999104E+02  0.27842422898E+03  0.28561073008E+03  0.00000000000E+00 0. -1.
         11    1    3    3    0    0  0.30617027077E+02 -0.59674825871E+01  0.49311059568E+02  0.58348897086E+02  0.00000000000E+00 0.  1.
<mgrwt>
<rscale>  0 0.12543725E+03</rscale>
<asrwt>0</asrwt>
<pdfrwt beam="1">  1        1 0.11649090E+00 0.13335589E+03</pdfrwt>
<pdfrwt beam="2">  1       -1 0.28713863E-02 0.13335589E+03</pdfrwt>
<totfact> 0.96750771E+03</totfact>
</mgrwt>
</event>
<event>
 8    1  0.1224355E-005  0.1596682E+03  0.7546771E-02  0.1197953E+00
          2   -1    0    0  501    0  0.00000000000E+00  0.00000000000E+00  0.19316775427E+04  0.19316775427E+04  0.00000000000E+00 0. -1.
         -2   -1    0    0    0  501 -0.00000000000E+00 -0.00000000000E+00 -0.15016486427E+02  0.15016486427E+02  0.00000000000E+00 0.  1.
         23    2    1    2    0    0 -0.74962192182E+02  0.65194321000E+02  0.38634785383E+03  0.40807373247E+03  0.85964395109E+02 0.  0.
         23    2    1    2    0    0  0.74962192182E+02 -0.65194321000E+02  0.15303132024E+04  0.15386202966E+04  0.12499715982E+03 0.  0.
          5    1    4    4  502    0 -0.36671753534E+01 -0.63424689647E+02  0.35510280257E+03  0.36077171428E+03  0.47000000000E+01 0.  1.
         -5    1    4    4    0  502  0.78629367536E+02 -0.17696313530E+01  0.11752103998E+04  0.11778485823E+04  0.47000000000E+01 0.  1.
        -11    1    3    3    0    0 -0.61228860661E+02  0.55993347800E+02  0.38210188707E+03  0.39100649672E+03  0.00000000000E+00 0. -1.
         11    1    3    3    0    0 -0.13733331521E+02  0.92009732001E+01  0.42459667634E+01  0.17067235753E+02  0.00000000000E+00 0.  1.
<mgrwt>
<rscale>  0 0.15206956E+03</rscale>
<asrwt>0</asrwt>
<pdfrwt beam="1">  1        2 0.29718096E+00 0.15966815E+03</pdfrwt>
<pdfrwt beam="2">  1       -2 0.23102302E-02 0.15966815E+03</pdfrwt>
<totfact> 0.50154086E+03</totfact>
</mgrwt>
</event>
<event>
 8    1  0.1224355E-005  0.1453744E+03  0.7546771E-02  0.1210912E+00
         -2   -1    0    0    0  501 -0.00000000000E+00  0.00000000000E+00  0.15956464391E+02  0.15956464391E+02  0.00000000000E+00 0.  1.
          2   -1    0    0  501    0  0.00000000000E+00 -0.00000000000E+00 -0.16352795190E+04  0.16352795190E+04  0.00000000000E+00 0. -1.
         23    2    1    2    0    0 -0.61791248655E+02  0.68419733027E+02 -0.35568965972E+03  0.37926779440E+03  0.93965459412E+02 0.  0.
         23    2    1    2    0    0  0.61791248655E+02 -0.68419733027E+02 -0.12636333949E+04  0.12719681890E+04  0.11240239694E+03 0.  0.
          5    1    4    4  502    0  0.83275233809E+02 -0.50369712958E+02 -0.61147575904E+03  0.61919025061E+03  0.47000000000E+01 0. -1.
         -5    1    4    4    0  502 -0.21483985154E+02 -0.18050020069E+02 -0.65215763587E+03  0.65277793840E+03  0.47000000000E+01 0.  1.
        -11    1    3    3    0    0 -0.58431757550E+02  0.13919139261E+02 -0.91222823529E+02  0.10922278270E+03  0.00000000000E+00 0.  1.
         11    1    3    3    0    0 -0.33594911052E+01  0.54500593766E+02 -0.26446683619E+03  0.27004501170E+03  0.00000000000E+00 0. -1.
<mgrwt>
<rscale>  0 0.14181181E+03</rscale>
<asrwt>0</asrwt>
<pdfrwt beam="2">  1        2 0.25158153E+00 0.14537440E+03</pdfrwt>
<pdfrwt beam="1">  1       -2 0.24548400E-02 0.14537440E+03</pdfrwt>
<totfact> 0.65056531E+03</totfact>
</mgrwt>
</event>
<event>
 8    1  0.1224355E-005  0.1431771E+03  0.7546771E-02  0.1220179E+00
         -2   -1    0    0    0  501 -0.00000000000E+00  0.00000000000E+00  0.10862565518E+03  0.10862565518E+03  0.00000000000E+00 0.  1.
          2   -1    0    0  501    0  0.00000000000E+00 -0.00000000000E+00 -0.23926975945E+03  0.23926975945E+03  0.00000000000E+00 0. -1.
         23    2    1    2    0    0  0.17181208207E+02 -0.67673078129E+02  0.44487650352E+02  0.12168576911E+03  0.89182038283E+02 0.  0.
         23    2    1    2    0    0 -0.17181208207E+02  0.67673078129E+02 -0.17513175463E+03  0.22620964552E+03  0.12499933131E+03 0.  0.
          5    1    4    4  502    0  0.99607340837E+00 -0.36758356883E+02 -0.45133287424E+02  0.58406100681E+02  0.47000000000E+01 0. -1.
         -5    1    4    4    0  502 -0.18177281615E+02  0.10443143501E+03 -0.12999846720E+03  0.16780354484E+03  0.47000000000E+01 0. -1.
        -11    1    3    3    0    0  0.29571922682E+02  0.62700589860E+01 -0.66246081225E+01  0.30946690996E+02  0.00000000000E+00 0. -1.
         11    1    3    3    0    0 -0.12390714475E+02 -0.73943137115E+02  0.51112258474E+02  0.90739078119E+02  0.00000000000E+00 0.  1.
<mgrwt>
<rscale>  0 0.13502871E+03</rscale>
<asrwt>0</asrwt>
<pdfrwt beam="2">  1        2 0.36810732E-01 0.14317707E+03</pdfrwt>
<pdfrwt beam="1">  1       -2 0.16711639E-01 0.14317707E+03</pdfrwt>
<totfact> 0.38566487E+03</totfact>
</mgrwt>
</event>
<event>
 8    1  0.1224355E-005  0.1452559E+03  0.7546771E-02  0.1213518E+00
         -1   -1    0    0    0  501 -0.00000000000E+00  0.00000000000E+00  0.45007756738E+02  0.45007756738E+02  0.00000000000E+00 0.  1.
          1   -1    0    0  501    0  0.00000000000E+00 -0.00000000000E+00 -0.42959662408E+03  0.42959662408E+03  0.00000000000E+00 0. -1.
         23    2    1    2    0    0 -0.33851975865E+02 -0.65780665542E+02 -0.12222758608E+03  0.17471656085E+03  0.10056461410E+03 0.  0.
         23    2    1    2    0    0  0.33851975865E+02  0.65780665542E+02 -0.26236128126E+03  0.29988781996E+03  0.12500484162E+03 0.  0.
          5    1    4    4  502    0  0.22520737927E+02 -0.30970641291E+02 -0.12916896096E+03  0.13480754703E+03  0.47000000000E+01 0.  1.
         -5    1    4    4    0  502  0.11331237938E+02  0.96751306833E+02 -0.13319232029E+03  0.16508027293E+03  0.47000000000E+01 0.  1.
        -11    1    3    3    0    0 -0.63269963321E+02 -0.14485748237E+02 -0.54022053604E+02  0.84447068843E+02  0.00000000000E+00 0. -1.
         11    1    3    3    0    0  0.29417987457E+02 -0.51294917305E+02 -0.68205532478E+02  0.90269492011E+02  0.00000000000E+00 0.  1.
<mgrwt>
<rscale>  0 0.13985986E+03</rscale>
<asrwt>0</asrwt>
<pdfrwt beam="2">  1        1 0.66091791E-01 0.14525585E+03</pdfrwt>
<pdfrwt beam="1">  1       -1 0.69242699E-02 0.14525585E+03</pdfrwt>
<totfact> 0.57155877E+03</totfact>
</mgrwt>
</event>
<event>
 8    1  0.1224355E-005  0.1670237E+03  0.7546771E-02  0.1185692E+00
          1   -1    0    0  501    0  0.00000000000E+00  0.00000000000E+00  0.10295980814E+03  0.10295980814E+03  0.00000000000E+00 0. -1.
         -1   -1    0    0    0  501 -0.00000000000E+00 -0.00000000000E+00 -0.30772479084E+03  0.30772479084E+03  0.00000000000E+00 0.  1.
         23    2    1    2    0    0  0.65153100361E+02  0.89604424548E+02 -0.19102231330E+03  0.24309646894E+03  0.10164885461E+03 0.  0.
         23    2    1    2    0    0 -0.65153100361E+02 -0.89604424548E+02 -0.13742669400E+02  0.16758813004E+03  0.12499216369E+03 0.  0.
          5    1    4    4  502    0 -0.57940376796E+02 -0.14690766526E+02 -0.55232632744E+02  0.81520792466E+02  0.47000000000E+01 0. -1.
         -5    1    4    4    0  502 -0.72127235648E+01 -0.74913658021E+02  0.41489963344E+02  0.86067337578E+02  0.47000000000E+01 0. -1.
        -11    1    3    3    0    0 -0.16240681029E+02  0.64911673595E+01  0.21288134780E+01  0.17618933589E+02  0.00000000000E+00 0.  1.
         11    1    3    3    0    0  0.81393781390E+02  0.83113257188E+02 -0.19315112678E+03  0.22547753535E+03  0.00000000000E+00 0. -1.
<mgrwt>
<rscale>  0 0.16269060E+03</rscale>
<asrwt>0</asrwt>
<pdfrwt beam="1">  1        1 0.15839970E-01 0.16702371E+03</pdfrwt>
<pdfrwt beam="2">  1       -1 0.47342276E-01 0.16702371E+03</pdfrwt>
<totfact> 0.15531662E+03</totfact>
</mgrwt>
</event>
<event>
 8    1  0.1224355E-005  0.1127132E+03  0.7546771E-02  0.1266930E+00
          2   -1    0    0  501    0  0.00000000000E+00  0.00000000000E+00  0.27600892623E+03  0.27600892623E+03  0.00000000000E+00 0.  1.
         -2   -1    0    0    0  501 -0.00000000000E+00 -0.00000000000E+00 -0.10309018751E+03  0.10309018751E+03  0.00000000000E+00 0. -1.
         23    2    1    2    0    0 -0.17581904891E+01  0.36518766732E+01 -0.68051533225E+02  0.11307103947E+03  0.90208765405E+02 0.  0.
         23    2    1    2    0    0  0.17581904891E+01 -0.36518766732E+01  0.24097027195E+03  0.26602807426E+03  0.11264029873E+03 0.  0.
          5    1    4    4  502    0  0.15634735373E+02  0.19256628074E+02  0.17924427546E+01  0.25309396002E+02  0.47000000000E+01 0. -1.
         -5    1    4    4    0  502 -0.13876544884E+02 -0.22908504747E+02  0.23917782919E+03  0.24071867826E+03  0.47000000000E+01 0.  1.
        -11    1    3    3    0    0  0.25194439509E+02  0.60258650925E+01  0.12015448584E+02  0.28555942236E+02  0.00000000000E+00 0. -1.
         11    1    3    3    0    0 -0.26952629998E+02 -0.23739884193E+01 -0.80066981809E+02  0.84515097236E+02  0.00000000000E+00 0.  1.
<mgrwt>
<rscale>  0 0.10663573E+03</rscale>
<asrwt>0</asrwt>
<pdfrwt beam="1">  1        2 0.42462911E-01 0.11271320E+03</pdfrwt>
<pdfrwt beam="2">  1       -2 0.15860029E-01 0.11271320E+03</pdfrwt>
<totfact> 0.35664283E+03</totfact>
</mgrwt>
</event>
<event>
 7    1  0.1224355E-005  0.2076706E+03  0.7546771E-02  0.1171740E+00
         -2   -1    0    0    0  501 -0.00000000000E+00  0.00000000000E+00  0.15742967901E+02  0.15742967901E+02  0.00000000000E+00 0.  1.
          2   -1    0    0  501    0  0.00000000000E+00 -0.00000000000E+00 -0.16057630472E+04  0.16057630472E+04  0.00000000000E+00 0. -1.
         23    2    1    2    0    0  0.29052633720E+02  0.47983922848E+02 -0.43718446997E+03  0.45011495826E+03  0.91250767014E+02 0.  0.
          5    1    1    2  502    0 -0.23625677899E+01 -0.78140630339E+01 -0.10986835105E+04  0.10987238905E+04  0.47000000000E+01 0. -1.
         -5    1    1    2    0  502 -0.26690065930E+02 -0.40169859814E+02 -0.54152098797E+02  0.72667166320E+02  0.47000000000E+01 0.  1.
        -11    1    3    3    0    0 -0.32499298147E+02  0.25416582414E+02 -0.18544121776E+03  0.18997539916E+03  0.00000000000E+00 0. -1.
         11    1    3    3    0    0  0.61551931868E+02  0.22567340434E+02 -0.25174325221E+03  0.26013955909E+03  0.00000000000E+00 0.  1.
<mgrwt>
<rscale>  0 0.17599157E+03</rscale>
<asrwt>0</asrwt>
<pdfrwt beam="2">  1        2 0.24704052E+00 0.20767057E+03</pdfrwt>
<pdfrwt beam="1">  1       -2 0.24219946E-02 0.20767057E+03</pdfrwt>
<totfact> 0.69359301E+03</totfact>
</mgrwt>
</event>
<event>
 8    1  0.1224355E-005  0.1471191E+03  0.7546771E-02  0.1214242E+00
          2   -1    0    0  501    0  0.00000000000E+00  0.00000000000E+00  0.66889207219E+03  0.66889207219E+03  0.00000000000E+00 0. -1.
         -2   -1    0    0    0  501 -0.00000000000E+00 -0.00000000000E+00 -0.29893940868E+02  0.29893940868E+02  0.00000000000E+00 0.  1.
         23    2    1    2    0    0 -0.56592241860E+01  0.77373188584E+02  0.16905882058E+03  0.20635633861E+03  0.89349966644E+02 0.  0.
         23    2    1    2    0    0  0.56592241860E+01 -0.77373188584E+02  0.46993931074E+03  0.49242967444E+03  0.12500156545E+03 0.  0.
          5    1    4    4  502    0 -0.44843244056E+02 -0.36068822996E+02  0.35922680099E+03  0.36383768507E+03  0.47000000000E+01 0.  1.
         -5    1    4    4    0  502  0.50502468242E+02 -0.41304365588E+02  0.11071250975E+03  0.12859198937E+03  0.47000000000E+01 0.  1.
        -11    1    3    3    0    0  0.27411569848E+02  0.16362658453E+02  0.11054416315E+02  0.33783588816E+02  0.00000000000E+00 0.  1.
         11    1    3    3    0    0 -0.33070794034E+02  0.61010530131E+02  0.15800440427E+03  0.17257274980E+03  0.00000000000E+00 0. -1.
<mgrwt>
<rscale>  0 0.13932394E+03</rscale>
<asrwt>0</asrwt>
<pdfrwt beam="1">  1        2 0.10290646E+00 0.14711910E+03</pdfrwt>
<pdfrwt beam="2">  1       -2 0.45990683E-02 0.14711910E+03</pdfrwt>
<totfact> 0.94900614E+03</totfact>
</mgrwt>
</event>
<event>
 8    1  0.1224355E-005  0.1881043E+03  0.7546771E-02  0.1165460E+00
         -1   -1    0    0    0  501 -0.00000000000E+00  0.00000000000E+00  0.53516561114E+03  0.53516561114E+03  0.00000000000E+00 0.  1.
          1   -1    0    0  501    0  0.00000000000E+00 -0.00000000000E+00 -0.65349140716E+02  0.65349140716E+02  0.00000000000E+00 0. -1.
         23    2    1    2    0    0 -0.70390106778E+00 -0.14056492340E+03  0.31744366449E+03  0.35843895828E+03  0.89157240437E+02 0.  0.
         23    2    1    2    0    0  0.70390106778E+00  0.14056492340E+03  0.15237280593E+03  0.24207579357E+03  0.12499689867E+03 0.  0.
          5    1    4    4  502    0  0.45794641589E+02  0.82952021014E+01  0.25524345006E+02  0.53287350883E+02  0.47000000000E+01 0. -1.
         -5    1    4    4    0  502 -0.45090740521E+02  0.13226972130E+03  0.12684846093E+03  0.18878844269E+03  0.47000000000E+01 0. -1.
        -11    1    3    3    0    0  0.24552465677E+02 -0.72574823072E+02  0.24177321242E+03  0.25362218901E+03  0.00000000000E+00 0.  1.
         11    1    3    3    0    0 -0.25256366744E+02 -0.67990100330E+02  0.75670452067E+02  0.10481676927E+03  0.00000000000E+00 0. -1.
<mgrwt>
<rscale>  0 0.18244193E+03</rscale>
<asrwt>0</asrwt>
<pdfrwt beam="2">  1        1 0.10053714E-01 0.18810427E+03</pdfrwt>
<pdfrwt beam="1">  1       -1 0.82333168E-01 0.18810427E+03</pdfrwt>
<totfact> 0.97176214E+02</totfact>
</mgrwt>
</event>
<event>
 8    1  0.1224355E-005  0.1632878E+03  0.7546771E-02  0.1192366E+00
          2   -1    0    0  501    0  0.00000000000E+00  0.00000000000E+00  0.12437192140E+04  0.12437192140E+04  0.00000000000E+00 0. -1.
         -2   -1    0    0    0  501 -0.00000000000E+00 -0.00000000000E+00 -0.19565372838E+02  0.19565372838E+02  0.00000000000E+00 0.  1.
         23    2    1    2    0    0  0.85481267417E+02 -0.61114855688E+02  0.40838009893E+03  0.43132923936E+03  0.90711271926E+02 0.  0.
         23    2    1    2    0    0 -0.85481267417E+02  0.61114855688E+02  0.81577374224E+03  0.83195534749E+03  0.12498331500E+03 0.  0.
          5    1    4    4  502    0  0.60115204248E+01  0.40016955133E+02  0.75980595745E+02  0.86212736911E+02  0.47000000000E+01 0. -1.
         -5    1    4    4    0  502 -0.91492787842E+02  0.21097900555E+02  0.73979314650E+03  0.74574261058E+03  0.47000000000E+01 0. -1.
        -11    1    3    3    0    0  0.68885529098E+02  0.52926440449E+01  0.17589882398E+03  0.18898048703E+03  0.00000000000E+00 0.  1.
         11    1    3    3    0    0  0.16595738320E+02 -0.66407499733E+02  0.23248127495E+03  0.24234875232E+03  0.00000000000E+00 0. -1.
<mgrwt>
<rscale>  0 0.15679319E+03</rscale>
<asrwt>0</asrwt>
<pdfrwt beam="1">  1        2 0.19134136E+00 0.16328779E+03</pdfrwt>
<pdfrwt beam="2">  1       -2 0.30100583E-02 0.16328779E+03</pdfrwt>
<totfact> 0.78037443E+03</totfact>
</mgrwt>
</event>
<event>
 8    1  0.1224355E-005  0.1941423E+03  0.7546771E-02  0.1159535E+00
          1   -1    0    0  501    0  0.00000000000E+00  0.00000000000E+00  0.35600742079E+03  0.35600742079E+03  0.00000000000E+00 0. -1.
         -1   -1    0    0    0  501 -0.00000000000E+00 -0.00000000000E+00 -0.95071811652E+02  0.95071811652E+02  0.00000000000E+00 0.  1.
         23    2    1    2    0    0 -0.11840971661E+03 -0.89705805305E+02  0.12879476833E+03  0.21623371888E+03  0.90005201734E+02 0.  0.
         23    2    1    2    0    0  0.11840971661E+03  0.89705805305E+02  0.13214084082E+03  0.23484551356E+03  0.12499288354E+03 0.  0.
          5    1    4    4  502    0 -0.43497960666E+01 -0.24239982186E+02  0.80202853429E+01  0.26323230029E+02  0.47000000000E+01 0.  1.
         -5    1    4    4    0  502  0.12275951268E+03  0.11394578749E+03  0.12412055547E+03  0.20852228354E+03  0.47000000000E+01 0.  1.
        -11    1    3    3    0    0 -0.29437025156E+02 -0.41749110775E+02 -0.17748364969E+01  0.51114349699E+02  0.00000000000E+00 0. -1.
         11    1    3    3    0    0 -0.88972691457E+02 -0.47956694530E+02  0.13056960482E+03  0.16511936918E+03  0.00000000000E+00 0.  1.
<mgrwt>
<rscale>  0 0.18881436E+03</rscale>
<asrwt>0</asrwt>
<pdfrwt beam="1">  1        1 0.54770372E-01 0.19414225E+03</pdfrwt>
<pdfrwt beam="2">  1       -1 0.14626433E-01 0.19414225E+03</pdfrwt>
<totfact> 0.23277211E+03</totfact>
</mgrwt>
</event>
<event>
 8    1  0.1224355E-005  0.1575702E+03  0.7546771E-02  0.1198900E+00
         -2   -1    0    0    0  501 -0.00000000000E+00  0.00000000000E+00  0.16676647009E+02  0.16676647009E+02  0.00000000000E+00 0.  1.
          2   -1    0    0  501    0  0.00000000000E+00 -0.00000000000E+00 -0.17412581367E+04  0.17412581367E+04  0.00000000000E+00 0. -1.
         23    2    1    2    0    0  0.51177888712E+02  0.81148973997E+02 -0.35665255341E+03  0.38096058836E+03  0.93410886725E+02 0.  0.
         23    2    1    2    0    0 -0.51177888712E+02 -0.81148973997E+02 -0.13679289363E+04  0.13769741953E+04  0.12499611058E+03 0.  0.
          5    1    4    4  502    0 -0.29444435407E+02 -0.96226595550E+02 -0.13004156813E+04  0.13043119130E+04  0.47000000000E+01 0. -1.
         -5    1    4    4    0  502 -0.21733453305E+02  0.15077621553E+02 -0.67513255008E+02  0.72662282279E+02  0.47000000000E+01 0. -1.
        -11    1    3    3    0    0 -0.14974277133E+02  0.60210211030E+02 -0.13235518560E+03  0.14617589967E+03  0.00000000000E+00 0.  1.
         11    1    3    3    0    0  0.66152165845E+02  0.20938762967E+02 -0.22429736781E+03  0.23478468870E+03  0.00000000000E+00 0. -1.
<mgrwt>
<rscale>  0 0.15128742E+03</rscale>
<asrwt>0</asrwt>
<pdfrwt beam="2">  1        2 0.26788577E+00 0.15757017E+03</pdfrwt>
<pdfrwt beam="1">  1       -2 0.25656389E-02 0.15757017E+03</pdfrwt>
<totfact> 0.53876623E+03</totfact>
</mgrwt>
</event>
<event>
 8    1  0.1224355E-005  0.1857625E+03  0.7546771E-02  0.1167614E+00
         -2   -1    0    0    0  501 -0.00000000000E+00  0.00000000000E+00  0.26377704198E+03  0.26377704198E+03  0.00000000000E+00 0.  1.
          2   -1    0    0  501    0  0.00000000000E+00 -0.00000000000E+00 -0.20914085671E+03  0.20914085671E+03  0.00000000000E+00 0. -1.
         23    2    1    2    0    0 -0.13732473127E+03  0.51064475711E+01  0.18381200105E+03  0.24665679792E+03  0.90380122824E+02 0.  0.
         23    2    1    2    0    0  0.13732473127E+03 -0.51064475711E+01 -0.12917581578E+03  0.22626110077E+03  0.12499414672E+03 0.  0.
          5    1    4    4  502    0  0.59295043044E+02 -0.60132856972E+02 -0.33388986472E+02  0.90932816050E+02  0.47000000000E+01 0.  1.
         -5    1    4    4    0  502  0.78029688229E+02  0.55026409401E+02 -0.95786829306E+02  0.13532828472E+03  0.47000000000E+01 0.  1.
        -11    1    3    3    0    0 -0.12441346776E+03  0.24751776418E+02  0.18358487352E+03  0.22314741133E+03  0.00000000000E+00 0.  1.
         11    1    3    3    0    0 -0.12911263510E+02 -0.19645328847E+02  0.22712753364E+00  0.23509386590E+02  0.00000000000E+00 0. -1.
<mgrwt>
<rscale>  0 0.18019588E+03</rscale>
<asrwt>0</asrwt>
<pdfrwt beam="2">  1        2 0.32175516E-01 0.18576247E+03</pdfrwt>
<pdfrwt beam="1">  1       -2 0.40581083E-01 0.18576247E+03</pdfrwt>
<totfact> 0.93551117E+02</totfact>
</mgrwt>
</event>
<event>
 8    1  0.1224355E-005  0.1493681E+03  0.7546771E-02  0.1210420E+00
          1   -1    0    0  501    0  0.00000000000E+00  0.00000000000E+00  0.11406957668E+03  0.11406957668E+03  0.00000000000E+00 0. -1.
         -1   -1    0    0    0  501 -0.00000000000E+00 -0.00000000000E+00 -0.18804941962E+03  0.18804941962E+03  0.00000000000E+00 0.  1.
         23    2    1    2    0    0 -0.77478112484E+02 -0.26119909363E+02 -0.89674962096E+02  0.15192852547E+03  0.91408809450E+02 0.  0.
         23    2    1    2    0    0  0.77478112484E+02  0.26119909363E+02  0.15695119150E+02  0.15019047083E+03  0.12500293270E+03 0.  0.
          5    1    4    4  502    0  0.68593031345E+01  0.60859176645E+02  0.32626346713E+02  0.69551836217E+02  0.47000000000E+01 0. -1.
         -5    1    4    4    0  502  0.70618809350E+02 -0.34739267281E+02 -0.16931227563E+02  0.80638634611E+02  0.47000000000E+01 0. -1.
        -11    1    3    3    0    0 -0.74324038002E+02 -0.81356044890E+01 -0.10444168817E+03  0.12844577421E+03  0.00000000000E+00 0.  1.
         11    1    3    3    0    0 -0.31540744823E+01 -0.17984304874E+02  0.14766726074E+02  0.23482751257E+02  0.00000000000E+00 0. -1.
<mgrwt>
<rscale>  0 0.14218438E+03</rscale>
<asrwt>0</asrwt>
<pdfrwt beam="1">  1        1 0.17549166E-01 0.14936814E+03</pdfrwt>
<pdfrwt beam="2">  1       -1 0.28930679E-01 0.14936814E+03</pdfrwt>
<totfact> 0.31915519E+03</totfact>
</mgrwt>
</event>
<event>
 8    1  0.1224355E-005  0.1896149E+03  0.7546771E-02  0.1163653E+00
          1   -1    0    0  501    0  0.00000000000E+00  0.00000000000E+00  0.10917464898E+03  0.10917464898E+03  0.00000000000E+00 0. -1.
         -1   -1    0    0    0  501 -0.00000000000E+00 -0.00000000000E+00 -0.38433767450E+03  0.38433767450E+03  0.00000000000E+00 0.  1.
         23    2    1    2    0    0  0.13730992554E+03 -0.38274465785E+02 -0.25032662431E+03  0.30227774219E+03  0.91594018374E+02 0.  0.
         23    2    1    2    0    0 -0.13730992554E+03  0.38274465785E+02 -0.24836401208E+02  0.19123458129E+03  0.12503946526E+03 0.  0.
          5    1    4    4  502    0 -0.20766839466E+01 -0.22879612718E+01  0.36715237977E+02  0.37143587370E+02  0.47000000000E+01 0. -1.
         -5    1    4    4    0  502 -0.13523324160E+03  0.40562427057E+02 -0.61551639185E+02  0.15409099392E+03  0.47000000000E+01 0. -1.
        -11    1    3    3    0    0  0.78713866244E+02 -0.60331674801E+02 -0.19479843828E+03  0.21859143460E+03  0.00000000000E+00 0.  1.
         11    1    3    3    0    0  0.58596059298E+02  0.22057209016E+02 -0.55528186035E+02  0.83686307597E+02  0.00000000000E+00 0. -1.
<mgrwt>
<rscale>  0 0.18435526E+03</rscale>
<asrwt>0</asrwt>
<pdfrwt beam="1">  1        1 0.16796100E-01 0.18961492E+03</pdfrwt>
<pdfrwt beam="2">  1       -1 0.59128873E-01 0.18961492E+03</pdfrwt>
<totfact> 0.95483227E+02</totfact>
</mgrwt>
</event>
<event>
 8    1  0.1224355E-005  0.1392187E+03  0.7546771E-02  0.1225222E+00
         -2   -1    0    0    0  501 -0.00000000000E+00  0.00000000000E+00  0.33011932658E+02  0.33011932658E+02  0.00000000000E+00 0.  1.
          2   -1    0    0  501    0  0.00000000000E+00 -0.00000000000E+00 -0.47827606731E+03  0.47827606731E+03  0.00000000000E+00 0. -1.
         23    2    1    2    0    0 -0.28877681184E+01 -0.61436359513E+02 -0.22258042970E+03  0.24866681687E+03  0.92251681032E+02 0.  0.
         23    2    1    2    0    0  0.28877681184E+01  0.61436359513E+02 -0.22268370496E+03  0.26262118310E+03  0.12489630853E+03 0.  0.
          5    1    4    4  502    0  0.47894087605E+02  0.19815464401E+02 -0.29355229834E+02  0.59752119423E+02  0.47000000000E+01 0. -1.
         -5    1    4    4    0  502 -0.45006319486E+02  0.41620895112E+02 -0.19332847512E+03  0.20286906368E+03  0.47000000000E+01 0. -1.
        -11    1    3    3    0    0  0.85444430221E+01  0.13607226027E+02 -0.30125699308E+01  0.16347467214E+02  0.00000000000E+00 0.  1.
         11    1    3    3    0    0 -0.11432211140E+02 -0.75043585540E+02 -0.21956785977E+03  0.23231934966E+03  0.00000000000E+00 0. -1.
<mgrwt>
<rscale>  0 0.13151675E+03</rscale>
<asrwt>0</asrwt>
<pdfrwt beam="2">  1        2 0.73580927E-01 0.13921872E+03</pdfrwt>
<pdfrwt beam="1">  1       -2 0.50787593E-02 0.13921872E+03</pdfrwt>
<totfact> 0.11893624E+04</totfact>
</mgrwt>
</event>
<event>
 8    1  0.1224355E-005  0.1828648E+03  0.7546771E-02  0.1169768E+00
          1   -1    0    0  501    0  0.00000000000E+00  0.00000000000E+00  0.76105624464E+03  0.76105624464E+03  0.00000000000E+00 0. -1.
         -1   -1    0    0    0  501 -0.00000000000E+00 -0.00000000000E+00 -0.39706620691E+02  0.39706620691E+02  0.00000000000E+00 0.  1.
         23    2    1    2    0    0 -0.10389451003E+03 -0.83782682569E+02  0.36657369167E+03  0.40163193784E+03  0.95489973057E+02 0.  0.
         23    2    1    2    0    0  0.10389451003E+03  0.83782682569E+02  0.35477593228E+03  0.39913092749E+03  0.12500371212E+03 0.  0.
          5    1    4    4  502    0  0.55670910918E+02  0.64081002928E+02  0.71555140459E+02  0.11112089536E+03  0.47000000000E+01 0.  1.
         -5    1    4    4    0  502  0.48223599114E+02  0.19701679640E+02  0.28322079182E+03  0.28801003214E+03  0.47000000000E+01 0.  1.
        -11    1    3    3    0    0 -0.59389847800E+02 -0.56554882849E+02  0.32422193039E+03  0.33443305599E+03  0.00000000000E+00 0. -1.
         11    1    3    3    0    0 -0.44504662231E+02 -0.27227799720E+02  0.42351761286E+02  0.67198881851E+02  0.00000000000E+00 0.  1.
<mgrwt>
<rscale>  0 0.17798403E+03</rscale>
<asrwt>0</asrwt>
<pdfrwt beam="1">  1        1 0.11708557E+00 0.18286480E+03</pdfrwt>
<pdfrwt beam="2">  1       -1 0.61087114E-02 0.18286480E+03</pdfrwt>
<totfact> 0.31955132E+03</totfact>
</mgrwt>
</event>
<event>
 7    1  0.1224355E-005  0.1414008E+03  0.7546771E-02  0.1231072E+00
         -2   -1    0    0    0  501 -0.00000000000E+00  0.00000000000E+00  0.24449788849E+03  0.24449788849E+03  0.00000000000E+00 0.  1.
          2   -1    0    0  501    0  0.00000000000E+00 -0.00000000000E+00 -0.65534584467E+02  0.65534584467E+02  0.00000000000E+00 0. -1.
         23    2    1    2    0    0 -0.18390079303E+02  0.13302896994E+02  0.13024501122E+03  0.16047427843E+03  0.90956412674E+02 0.  0.
          5    1    1    2  502    0  0.47525137499E+02  0.50123065495E+02  0.11057662936E+02  0.70109359565E+02  0.47000000000E+01 0. -1.
         -5    1    1    2    0  502 -0.29135058197E+02 -0.63425962489E+02  0.37660629867E+02  0.79448834955E+02  0.47000000000E+01 0.  1.
        -11    1    3    3    0    0 -0.14646037247E+01 -0.38539896771E+02  0.44867860612E+02  0.59165814649E+02  0.00000000000E+00 0.  1.
         11    1    3    3    0    0 -0.16925475578E+02  0.51842793765E+02  0.85377150604E+02  0.10130846378E+03  0.00000000000E+00 0. -1.
<mgrwt>
<rscale>  0 0.12759291E+03</rscale>
<asrwt>0</asrwt>
<pdfrwt beam="2">  1        2 0.10082244E-01 0.14140078E+03</pdfrwt>
<pdfrwt beam="1">  1       -2 0.37615059E-01 0.14140078E+03</pdfrwt>
<totfact> 0.40689762E+03</totfact>
</mgrwt>
</event>
<event>
 8    1  0.1224355E-005  0.1347627E+03  0.7546771E-02  0.1232727E+00
          2   -1    0    0  501    0  0.00000000000E+00  0.00000000000E+00  0.29522877094E+03  0.29522877094E+03  0.00000000000E+00 0.  1.
         -2   -1    0    0    0  501 -0.00000000000E+00 -0.00000000000E+00 -0.82288916874E+02  0.82288916874E+02  0.00000000000E+00 0. -1.
         23    2    1    2    0    0  0.45186370787E+01 -0.50080925992E+02 -0.21738468492E+02  0.10689821062E+03  0.91794058588E+02 0.  0.
         23    2    1    2    0    0 -0.45186370787E+01  0.50080925992E+02  0.23467832255E+03  0.27061947719E+03  0.12502987295E+03 0.  0.
          5    1    4    4  502    0  0.15235980704E+02  0.30314016931E+01 -0.11030632546E+02  0.19623693806E+02  0.47000000000E+01 0. -1.
         -5    1    4    4    0  502 -0.19754617783E+02  0.47049524299E+02  0.24570895510E+03  0.25099578338E+03  0.47000000000E+01 0. -1.
        -11    1    3    3    0    0  0.29570694040E+02 -0.64030203699E+02 -0.30607976500E+02  0.76883946030E+02  0.00000000000E+00 0. -1.
         11    1    3    3    0    0 -0.25052056961E+02  0.13949277707E+02  0.88695080087E+01  0.30014264590E+02  0.00000000000E+00 0.  1.
<mgrwt>
<rscale>  0 0.12651068E+03</rscale>
<asrwt>0</asrwt>
<pdfrwt beam="1">  1        2 0.45419811E-01 0.13476270E+03</pdfrwt>
<pdfrwt beam="2">  1       -2 0.12659833E-01 0.13476270E+03</pdfrwt>
<totfact> 0.48336571E+03</totfact>
</mgrwt>
</event>
<event>
 8    1  0.1224355E-005  0.1307139E+03  0.7546771E-02  0.1239373E+00
         -1   -1    0    0    0  501 -0.00000000000E+00  0.00000000000E+00  0.83193141210E+02  0.83193141210E+02  0.00000000000E+00 0.  1.
          1   -1    0    0  501    0  0.00000000000E+00 -0.00000000000E+00 -0.16020430115E+03  0.16020430115E+03  0.00000000000E+00 0. -1.
         23    2    1    2    0    0 -0.35676523123E+02 -0.13716679119E+02 -0.30771778675E+02  0.10474610948E+03  0.92541252963E+02 0.  0.
         23    2    1    2    0    0  0.35676523123E+02  0.13716679119E+02 -0.46239381262E+02  0.13865133288E+03  0.12500060056E+03 0.  0.
          5    1    4    4  502    0  0.51959347345E+02 -0.31669840726E+02 -0.62685115352E+02  0.87488663694E+02  0.47000000000E+01 0.  1.
         -5    1    4    4    0  502 -0.16282824222E+02  0.45386519845E+02  0.16445734090E+02  0.51162669185E+02  0.47000000000E+01 0.  1.
        -11    1    3    3    0    0  0.18954221861E+02  0.23913558469E+01  0.20564260260E+02  0.28069020453E+02  0.00000000000E+00 0.  1.
         11    1    3    3    0    0 -0.54630744984E+02 -0.16108034966E+02 -0.51336038935E+02  0.76677089026E+02  0.00000000000E+00 0. -1.
<mgrwt>
<rscale>  0 0.12228577E+03</rscale>
<asrwt>0</asrwt>
<pdfrwt beam="2">  1        1 0.24646816E-01 0.13071385E+03</pdfrwt>
<pdfrwt beam="1">  1       -1 0.12798945E-01 0.13071385E+03</pdfrwt>
<totfact> 0.76124319E+03</totfact>
</mgrwt>
</event>
<event>
 8    1  0.1224355E-005  0.1574049E+03  0.7546771E-02  0.1199190E+00
         -2   -1    0    0    0  501 -0.00000000000E+00  0.00000000000E+00  0.34571155201E+02  0.34571155201E+02  0.00000000000E+00 0.  1.
          2   -1    0    0  501    0  0.00000000000E+00 -0.00000000000E+00 -0.63087014516E+03  0.63087014516E+03  0.00000000000E+00 0. -1.
         23    2    1    2    0    0  0.28415921758E+02  0.91552431221E+02 -0.21683477590E+03  0.25462579781E+03  0.92885222716E+02 0.  0.
         23    2    1    2    0    0 -0.28415921758E+02 -0.91552431221E+02 -0.37946421405E+03  0.41081550255E+03  0.12484780780E+03 0.  0.
          5    1    4    4  502    0  0.15430310433E+02  0.22906141146E+02 -0.33049436253E+02  0.43325985493E+02  0.47000000000E+01 0.  1.
         -5    1    4    4    0  502 -0.43846232191E+02 -0.11445857237E+03 -0.34641477780E+03  0.36748951705E+03  0.47000000000E+01 0.  1.
        -11    1    3    3    0    0 -0.12860451736E+01  0.20802494112E+02  0.36600884031E+01  0.21161141760E+02  0.00000000000E+00 0.  1.
         11    1    3    3    0    0  0.29701966931E+02  0.70749937109E+02 -0.22049486430E+03  0.23346465605E+03  0.00000000000E+00 0. -1.
<mgrwt>
<rscale>  0 0.15104899E+03</rscale>
<asrwt>0</asrwt>
<pdfrwt beam="2">  1        2 0.97056945E-01 0.15740485E+03</pdfrwt>
<pdfrwt beam="1">  1       -2 0.53186393E-02 0.15740485E+03</pdfrwt>
<totfact> 0.81970171E+03</totfact>
</mgrwt>
</event>
<event>
 8    1  0.1224355E-005  0.1423544E+03  0.7546771E-02  0.1221177E+00
          2   -1    0    0  501    0  0.00000000000E+00  0.00000000000E+00  0.27321652486E+03  0.27321652486E+03  0.00000000000E+00 0. -1.
         -2   -1    0    0    0  501 -0.00000000000E+00 -0.00000000000E+00 -0.61074094129E+02  0.61074094129E+02  0.00000000000E+00 0.  1.
         23    2    1    2    0    0 -0.51186394577E+01  0.67930218626E+02  0.68267549423E+02  0.13189309450E+03  0.89970078354E+02 0.  0.
         23    2    1    2    0    0  0.51186394577E+01 -0.67930218626E+02  0.14387488131E+03  0.20239752449E+03  0.12499624545E+03 0.  0.
          5    1    4    4  502    0 -0.42233984788E+02 -0.81196183690E+02  0.10617173658E+03  0.14025354671E+03  0.47000000000E+01 0.  1.
         -5    1    4    4    0  502  0.47352624246E+02  0.13265965063E+02  0.37703144729E+02  0.62143977781E+02  0.47000000000E+01 0.  1.
        -11    1    3    3    0    0 -0.17201082917E+02  0.22728649419E+02  0.78917899245E+02  0.83907708699E+02  0.00000000000E+00 0. -1.
         11    1    3    3    0    0  0.12082443459E+02  0.45201569207E+02 -0.10650349822E+02  0.47985385797E+02  0.00000000000E+00 0.  1.
<mgrwt>
<rscale>  0 0.13432426E+03</rscale>
<asrwt>0</asrwt>
<pdfrwt beam="1">  1        2 0.42033311E-01 0.14235440E+03</pdfrwt>
<pdfrwt beam="2">  1       -2 0.93960147E-02 0.14235440E+03</pdfrwt>
<totfact> 0.84443252E+03</totfact>
</mgrwt>
</event>
<event>
 8    1  0.1224355E-005  0.1276411E+03  0.7546771E-02  0.1245130E+00
          2   -1    0    0  501    0  0.00000000000E+00  0.00000000000E+00  0.62983399519E+03  0.62983399519E+03  0.00000000000E+00 0. -1.
         -2   -1    0    0    0  501 -0.00000000000E+00 -0.00000000000E+00 -0.23895991788E+02  0.23895991788E+02  0.00000000000E+00 0.  1.
         23    2    1    2    0    0 -0.60392204484E+00  0.25886388965E+02  0.13290546943E+03  0.16377894155E+03  0.92136898326E+02 0.  0.
         23    2    1    2    0    0  0.60392204484E+00 -0.25886388965E+02  0.47303253397E+03  0.48995104543E+03  0.12498711482E+03 0.  0.
          5    1    4    4  502    0  0.86094320331E+01 -0.61892727145E+02  0.42298706218E+03  0.42760376140E+03  0.47000000000E+01 0. -1.
         -5    1    4    4    0  502 -0.80055099882E+01  0.36006338180E+02  0.50045471784E+02  0.62347284025E+02  0.47000000000E+01 0. -1.
        -11    1    3    3    0    0 -0.42791108457E+02  0.28702508847E+02  0.56587141792E+02  0.76531154396E+02  0.00000000000E+00 0.  1.
         11    1    3    3    0    0  0.42187186412E+02 -0.28161198821E+01  0.76318327642E+02  0.87247787150E+02  0.00000000000E+00 0. -1.
<mgrwt>
<rscale>  0 0.11877579E+03</rscale>
<asrwt>0</asrwt>
<pdfrwt beam="1">  1        2 0.96897525E-01 0.12764109E+03</pdfrwt>
<pdfrwt beam="2">  1       -2 0.36763069E-02 0.12764109E+03</pdfrwt>
<totfact> 0.14066251E+04</totfact>
</mgrwt>
</event>
<event>
 8    1  0.1224355E-005  0.1650195E+03  0.7546771E-02  0.1190595E+00
          1   -1    0    0  501    0  0.00000000000E+00  0.00000000000E+00  0.81886958350E+03  0.81886958350E+03  0.00000000000E+00 0. -1.
         -1   -1    0    0    0  501 -0.00000000000E+00 -0.00000000000E+00 -0.28377807834E+02  0.28377807834E+02  0.00000000000E+00 0.  1.
         23    2    1    2    0    0 -0.10562191359E+03 -0.21219613904E+02  0.36678471430E+03  0.39253967818E+03  0.89163398651E+02 0.  0.
         23    2    1    2    0    0  0.10562191359E+03  0.21219613904E+02  0.42370706137E+03  0.45470771316E+03  0.12500067960E+03 0.  0.
          5    1    4    4  502    0  0.14755896981E+02  0.62383828600E+02  0.18925440719E+03  0.19987195703E+03  0.47000000000E+01 0. -1.
         -5    1    4    4    0  502  0.90866016613E+02 -0.41164214696E+02  0.23445265418E+03  0.25483575612E+03  0.47000000000E+01 0. -1.
        -11    1    3    3    0    0 -0.46984418473E+02 -0.50441600322E+02  0.13373036874E+03  0.15045166050E+03  0.00000000000E+00 0. -1.
         11    1    3    3    0    0 -0.58637495121E+02  0.29221986418E+02  0.23305434556E+03  0.24208801768E+03  0.00000000000E+00 0.  1.
<mgrwt>
<rscale>  0 0.15832973E+03</rscale>
<asrwt>0</asrwt>
<pdfrwt beam="1">  1        1 0.12597992E+00 0.16501949E+03</pdfrwt>
<pdfrwt beam="2">  1       -1 0.43658172E-02 0.16501949E+03</pdfrwt>
<totfact> 0.47032309E+03</totfact>
</mgrwt>
</event>
<event>
 8    1  0.1224355E-005  0.1725491E+03  0.7546771E-02  0.1181404E+00
          1   -1    0    0  501    0  0.00000000000E+00  0.00000000000E+00  0.80139835154E+03  0.80139835154E+03  0.00000000000E+00 0. -1.
         -1   -1    0    0    0  501 -0.00000000000E+00 -0.00000000000E+00 -0.35686005270E+02  0.35686005270E+02  0.00000000000E+00 0.  1.
         23    2    1    2    0    0 -0.10688434259E+03  0.52187417926E+02  0.23323553650E+03  0.27734802589E+03  0.91516789162E+02 0.  0.
         23    2    1    2    0    0  0.10688434259E+03 -0.52187417926E+02  0.53247680977E+03  0.55973633092E+03  0.12500167169E+03 0.  0.
          5    1    4    4  502    0  0.81598758663E+02 -0.62996021555E+02  0.51824327329E+03  0.52841748311E+03  0.47000000000E+01 0. -1.
         -5    1    4    4    0  502  0.25285583931E+02  0.10808603629E+02  0.14233536477E+02  0.31318847804E+02  0.47000000000E+01 0. -1.
        -11    1    3    3    0    0 -0.43870952220E+02  0.45518511687E+02  0.19101621171E+03  0.20120583612E+03  0.00000000000E+00 0. -1.
         11    1    3    3    0    0 -0.63013390374E+02  0.66689062392E+01  0.42219324790E+02  0.76142189767E+02  0.00000000000E+00 0.  1.
<mgrwt>
<rscale>  0 0.16663382E+03</rscale>
<asrwt>0</asrwt>
<pdfrwt beam="1">  1        1 0.12329204E+00 0.17254914E+03</pdfrwt>
<pdfrwt beam="2">  1       -1 0.54901552E-02 0.17254914E+03</pdfrwt>
<totfact> 0.34628366E+03</totfact>
</mgrwt>
</event>
<event>
 8    1  0.1224355E-005  0.1302981E+03  0.7546771E-02  0.1240644E+00
          2   -1    0    0  501    0  0.00000000000E+00  0.00000000000E+00  0.89738279882E+03  0.89738279882E+03  0.00000000000E+00 0. -1.
         -2   -1    0    0    0  501 -0.00000000000E+00 -0.00000000000E+00 -0.14648679296E+02  0.14648679296E+02  0.00000000000E+00 0.  1.
         23    2    1    2    0    0  0.36347943753E+02 -0.55572429425E+01  0.35050030479E+03  0.36408035735E+03  0.91389206075E+02 0.  0.
         23    2    1    2    0    0 -0.36347943753E+02  0.55572429425E+01  0.53223381474E+03  0.54795112077E+03  0.12500216493E+03 0.  0.
          5    1    4    4  502    0  0.36404265592E+02  0.31643326947E+02  0.14008776727E+03  0.14823374525E+03  0.47000000000E+01 0. -1.
         -5    1    4    4    0  502 -0.72752209344E+02 -0.26086084005E+02  0.39214604747E+03  0.39971737552E+03  0.47000000000E+01 0. -1.
        -11    1    3    3    0    0  0.62646423083E+02  0.14174146785E+02  0.25924062268E+03  0.26707897935E+03  0.00000000000E+00 0.  1.
         11    1    3    3    0    0 -0.26298479331E+02 -0.19731389728E+02  0.91259682114E+02  0.97001378007E+02  0.00000000000E+00 0. -1.
<mgrwt>
<rscale>  0 0.12149899E+03</rscale>
<asrwt>0</asrwt>
<pdfrwt beam="1">  1        2 0.13805885E+00 0.13029811E+03</pdfrwt>
<pdfrwt beam="2">  1       -2 0.22536437E-02 0.13029811E+03</pdfrwt>
<totfact> 0.18762576E+04</totfact>
</mgrwt>
</event>
<event>
 8    1  0.1224355E-005  0.1642818E+03  0.7546771E-02  0.1191225E+00
         -1   -1    0    0    0  501 -0.00000000000E+00  0.00000000000E+00  0.88939254477E+02  0.88939254477E+02  0.00000000000E+00 0.  1.
          1   -1    0    0  501    0  0.00000000000E+00 -0.00000000000E+00 -0.27807808431E+03  0.27807808431E+03  0.00000000000E+00 0. -1.
         23    2    1    2    0    0  0.52429182537E+02 -0.92821585439E+02 -0.40646683033E+02  0.14557115040E+03  0.90410956646E+02 0.  0.
         23    2    1    2    0    0 -0.52429182537E+02  0.92821585439E+02 -0.14849214680E+03  0.22144618839E+03  0.12499532306E+03 0.  0.
          5    1    4    4  502    0 -0.66789904017E+02  0.81161111011E+02 -0.16534633169E+03  0.19598346007E+03  0.47000000000E+01 0.  1.
         -5    1    4    4    0  502  0.14360721481E+02  0.11660474428E+02  0.16854184885E+02  0.25462728320E+02  0.47000000000E+01 0.  1.
        -11    1    3    3    0    0  0.49549526086E+02 -0.10693207009E+03 -0.50399137992E+02  0.12817837672E+03  0.00000000000E+00 0. -1.
         11    1    3    3    0    0  0.28796564505E+01  0.14110484651E+02  0.97524549592E+01  0.17392773674E+02  0.00000000000E+00 0.  1.
<mgrwt>
<rscale>  0 0.15778084E+03</rscale>
<asrwt>0</asrwt>
<pdfrwt beam="2">  1        1 0.42781244E-01 0.16428176E+03</pdfrwt>
<pdfrwt beam="1">  1       -1 0.13682962E-01 0.16428176E+03</pdfrwt>
<totfact> 0.34994133E+03</totfact>
</mgrwt>
</event>
<event>
 8    1  0.1224355E-005  0.1905883E+03  0.7546771E-02  0.1162867E+00
         -1   -1    0    0    0  501 -0.00000000000E+00  0.00000000000E+00  0.10846694833E+03  0.10846694833E+03  0.00000000000E+00 0.  1.
          1   -1    0    0  501    0  0.00000000000E+00 -0.00000000000E+00 -0.29987136631E+03  0.29987136631E+03  0.00000000000E+00 0. -1.
         23    2    1    2    0    0  0.89614140994E+02  0.11255057271E+03 -0.83540088554E+02  0.18934380123E+03  0.90409086859E+02 0.  0.
         23    2    1    2    0    0 -0.89614140994E+02 -0.11255057271E+03 -0.10786432942E+03  0.21899451341E+03  0.12500223061E+03 0.  0.
          5    1    4    4  502    0 -0.12576279751E+02  0.27417321108E+02 -0.13493403731E+02  0.33377151666E+02  0.47000000000E+01 0.  1.
         -5    1    4    4    0  502 -0.77037861244E+02 -0.13996789382E+03 -0.94370925693E+02  0.18561736174E+03  0.47000000000E+01 0.  1.
        -11    1    3    3    0    0  0.75574334302E+02  0.78976977764E+02 -0.13144346124E+02  0.11009821459E+03  0.00000000000E+00 0.  1.
         11    1    3    3    0    0  0.14039806693E+02  0.33573594943E+02 -0.70395742429E+02  0.79245586638E+02  0.00000000000E+00 0. -1.
<mgrwt>
<rscale>  0 0.18519615E+03</rscale>
<asrwt>0</asrwt>
<pdfrwt beam="2">  1        1 0.46134057E-01 0.19058826E+03</pdfrwt>
<pdfrwt beam="1">  1       -1 0.16687223E-01 0.19058826E+03</pdfrwt>
<totfact> 0.23417774E+03</totfact>
</mgrwt>
</event>
<event>
 8    1  0.1224355E-005  0.1330356E+03  0.7546771E-02  0.1236422E+00
         -2   -1    0    0    0  501 -0.00000000000E+00  0.00000000000E+00  0.40029052021E+03  0.40029052021E+03  0.00000000000E+00 0. -1.
          2   -1    0    0  501    0  0.00000000000E+00 -0.00000000000E+00 -0.46445172188E+02  0.46445172188E+02  0.00000000000E+00 0.  1.
         23    2    1    2    0    0 -0.32884056469E+02 -0.31490812497E+02  0.27306218825E+03  0.29109383328E+03  0.89997937094E+02 0.  0.
         23    2    1    2    0    0  0.32884056469E+02  0.31490812497E+02  0.80783159764E+02  0.15564185911E+03  0.12500174784E+03 0.  0.
          5    1    4    4  502    0  0.22032560032E+02 -0.46364008872E+02  0.47684961200E+02  0.70221083336E+02  0.47000000000E+01 0. -1.
         -5    1    4    4    0  502  0.10851496437E+02  0.77854821370E+02  0.33098198564E+02  0.85420775773E+02  0.47000000000E+01 0. -1.
        -11    1    3    3    0    0 -0.58753027995E+02  0.16041813868E+01  0.15353592340E+03  0.16440125143E+03  0.00000000000E+00 0.  1.
         11    1    3    3    0    0  0.25868971526E+02 -0.33094993884E+02  0.11952626485E+03  0.12669258186E+03  0.00000000000E+00 0. -1.
<mgrwt>
<rscale>  0 0.12413813E+03</rscale>
<asrwt>0</asrwt>
<pdfrwt beam="2">  1        2 0.71454114E-02 0.13303559E+03</pdfrwt>
<pdfrwt beam="1">  1       -2 0.61583155E-01 0.13303559E+03</pdfrwt>
<totfact> 0.23651764E+03</totfact>
</mgrwt>
</event>
<event>
 8    1  0.1645637E-005  0.2605104E+03  0.7546771E-02  0.1108690E+00
         -1   -1    0    0    0  501 -0.00000000000E+00  0.00000000000E+00  0.14384924123E+03  0.14384924123E+03  0.00000000000E+00 0.  1.
          1   -1    0    0  501    0  0.00000000000E+00 -0.00000000000E+00 -0.47038722712E+03  0.47038722712E+03  0.00000000000E+00 0. -1.
         23    2    1    2    0    0 -0.22082408578E+03  0.58958954097E+02 -0.95960926858E+02  0.26634073274E+03  0.97413814749E+02 0.  0.
         23    2    1    2    0    0  0.22082408578E+03 -0.58958954097E+02 -0.23057705903E+03  0.34789573561E+03  0.12500491020E+03 0.  0.
          5    1    4    4  502    0  0.21121732681E+01  0.78695035253E+01  0.11490462001E+02  0.14849615437E+02  0.47000000000E+01 0. -1.
         -5    1    4    4    0  502  0.21871191251E+03 -0.66828457622E+02 -0.24206752103E+03  0.33304612017E+03  0.47000000000E+01 0. -1.
        -11    1    3    3    0    0 -0.12710696218E+03  0.43989005555E+02 -0.45626582600E+01  0.13458094328E+03  0.00000000000E+00 0.  1.
         11    1    3    3    0    0 -0.93717123603E+02  0.14969948541E+02 -0.91398268598E+02  0.13175978946E+03  0.00000000000E+00 0. -1.
<mgrwt>
<rscale>  0 0.25744226E+03</rscale>
<asrwt>0</asrwt>
<pdfrwt beam="2">  1        1 0.72367266E-01 0.26051039E+03</pdfrwt>
<pdfrwt beam="1">  1       -1 0.22130653E-01 0.26051039E+03</pdfrwt>
<totfact> 0.83818645E+02</totfact>
</mgrwt>
</event>
<event>
 8    1  0.1224355E-005  0.1549850E+03  0.7546771E-02  0.1202433E+00
          2   -1    0    0  501    0  0.00000000000E+00  0.00000000000E+00  0.36278857725E+03  0.36278857725E+03  0.00000000000E+00 0. -1.
         -2   -1    0    0    0  501 -0.00000000000E+00 -0.00000000000E+00 -0.59180795559E+02  0.59180795559E+02  0.00000000000E+00 0.  1.
         23    2    1    2    0    0 -0.82865827779E+02  0.39086722237E+02  0.91385902845E+02  0.15917958419E+03  0.92694333783E+02 0.  0.
         23    2    1    2    0    0  0.82865827779E+02 -0.39086722237E+02  0.21222187884E+03  0.26278978862E+03  0.12500331945E+03 0.  0.
          5    1    4    4  502    0  0.41690957757E+02  0.44799076155E+02  0.81043606698E+02  0.10166242851E+03  0.47000000000E+01 0. -1.
         -5    1    4    4    0  502  0.41174870022E+02 -0.83885798392E+02  0.13117827214E+03  0.16112736011E+03  0.47000000000E+01 0. -1.
        -11    1    3    3    0    0 -0.38268778382E+02  0.67117033708E+02  0.60391730743E+02  0.98063024402E+02  0.00000000000E+00 0.  1.
         11    1    3    3    0    0 -0.44597049397E+02 -0.28030311472E+02  0.30994172101E+02  0.61116559788E+02  0.00000000000E+00 0. -1.
<mgrwt>
<rscale>  0 0.14841611E+03</rscale>
<asrwt>0</asrwt>
<pdfrwt beam="1">  1        2 0.55813626E-01 0.15498499E+03</pdfrwt>
<pdfrwt beam="2">  1       -2 0.91047380E-02 0.15498499E+03</pdfrwt>
<totfact> 0.65973835E+03</totfact>
</mgrwt>
</event>
<event>
 8    1  0.1224355E-005  0.1579430E+03  0.7546771E-02  0.1198559E+00
          1   -1    0    0  501    0  0.00000000000E+00  0.00000000000E+00  0.61459383476E+03  0.61459383476E+03  0.00000000000E+00 0. -1.
         -1   -1    0    0    0  501 -0.00000000000E+00 -0.00000000000E+00 -0.38727221917E+02  0.38727221917E+02  0.00000000000E+00 0.  1.
         23    2    1    2    0    0  0.88922002340E+02 -0.37622934730E+02  0.16117237309E+03  0.20956739178E+03  0.92840455255E+02 0.  0.
         23    2    1    2    0    0 -0.88922002340E+02  0.37622934730E+02  0.41469423975E+03  0.44375366490E+03  0.12499357947E+03 0.  0.
          5    1    4    4  502    0 -0.87936559964E+01 -0.39026005108E+02  0.61367229440E+02  0.73405614973E+02  0.47000000000E+01 0. -1.
         -5    1    4    4    0  502 -0.80128346343E+02  0.76648939839E+02  0.35332701031E+03  0.37034804993E+03  0.47000000000E+01 0. -1.
        -11    1    3    3    0    0  0.24707311585E+02 -0.60093612289E+02  0.66368696637E+02  0.92878939362E+02  0.00000000000E+00 0.  1.
         11    1    3    3    0    0  0.64214690755E+02  0.22470677558E+02  0.94803676456E+02  0.11668845242E+03  0.00000000000E+00 0. -1.
<mgrwt>
<rscale>  0 0.15156855E+03</rscale>
<asrwt>0</asrwt>
<pdfrwt beam="1">  1        1 0.94552891E-01 0.15794304E+03</pdfrwt>
<pdfrwt beam="2">  1       -1 0.59580346E-02 0.15794304E+03</pdfrwt>
<totfact> 0.44812569E+03</totfact>
</mgrwt>
</event>
<event>
 8    1  0.1224355E-005  0.2270511E+03  0.7546771E-02  0.1132207E+00
          2   -1    0    0  501    0  0.00000000000E+00  0.00000000000E+00  0.96187835029E+03  0.96187835029E+03  0.00000000000E+00 0. -1.
         -2   -1    0    0    0  501 -0.00000000000E+00 -0.00000000000E+00 -0.82338872487E+02  0.82338872487E+02  0.00000000000E+00 0.  1.
         23    2    1    2    0    0 -0.60858734607E+02 -0.17950779898E+03  0.98027317562E+02  0.23039078190E+03  0.86854602217E+02 0.  0.
         23    2    1    2    0    0  0.60858734607E+02  0.17950779898E+03  0.78151216024E+03  0.81382644087E+03  0.12500153515E+03 0.  0.
          5    1    4    4  502    0 -0.22892941973E+02  0.77943980694E+02  0.17247239067E+03  0.19070439549E+03  0.47000000000E+01 0. -1.
         -5    1    4    4    0  502  0.83751676580E+02  0.10156381828E+03  0.60903976957E+03  0.62312204538E+03  0.47000000000E+01 0. -1.
        -11    1    3    3    0    0 -0.70773412718E+01 -0.13425567103E+03  0.84564874727E+02  0.15882660986E+03  0.00000000000E+00 0.  1.
         11    1    3    3    0    0 -0.53781393335E+02 -0.45252127950E+02  0.13462442834E+02  0.71564172042E+02  0.00000000000E+00 0. -1.
<mgrwt>
<rscale>  0 0.22226300E+03</rscale>
<asrwt>0</asrwt>
<pdfrwt beam="1">  1        2 0.14798128E+00 0.22705114E+03</pdfrwt>
<pdfrwt beam="2">  1       -2 0.12667520E-01 0.22705114E+03</pdfrwt>
<totfact> 0.12567841E+03</totfact>
</mgrwt>
</event>
<event>
 8    1  0.1224355E-005  0.1387218E+03  0.7546771E-02  0.1227424E+00
          1   -1    0    0  501    0  0.00000000000E+00  0.00000000000E+00  0.37506659118E+02  0.37506659118E+02  0.00000000000E+00 0. -1.
         -1   -1    0    0    0  501 -0.00000000000E+00 -0.00000000000E+00 -0.42232704807E+03  0.42232704807E+03  0.00000000000E+00 0.  1.
         23    2    1    2    0    0 -0.55653811152E+02  0.22789535091E+02 -0.21801325531E+03  0.24288124733E+03  0.88570938827E+02 0.  0.
         23    2    1    2    0    0  0.55653811152E+02 -0.22789535091E+02 -0.16680713364E+03  0.21695245986E+03  0.12500816134E+03 0.  0.
          5    1    4    4  502    0  0.56206806496E+01  0.48364909924E+02 -0.81337742490E+02  0.94914039617E+02  0.47000000000E+01 0.  1.
         -5    1    4    4    0  502  0.50033130502E+02 -0.71154445014E+02 -0.85469391150E+02  0.12203842025E+03  0.47000000000E+01 0.  1.
        -11    1    3    3    0    0 -0.20144715928E+02  0.49619385059E+02 -0.68879916616E+02  0.87248701231E+02  0.00000000000E+00 0.  1.
         11    1    3    3    0    0 -0.35509095224E+02 -0.26829849968E+02 -0.14913333870E+03  0.15563254609E+03  0.00000000000E+00 0. -1.
<mgrwt>
<rscale>  0 0.13002113E+03</rscale>
<asrwt>0</asrwt>
<pdfrwt beam="1">  1        1 0.57702549E-02 0.13872184E+03</pdfrwt>
<pdfrwt beam="2">  1       -1 0.64973396E-01 0.13872184E+03</pdfrwt>
<totfact> 0.32685964E+03</totfact>
</mgrwt>
</event>
<event>
 8    1  0.1224355E-005  0.1335426E+03  0.7546771E-02  0.1234974E+00
          2   -1    0    0  501    0  0.00000000000E+00  0.00000000000E+00  0.29800366269E+03  0.29800366269E+03  0.00000000000E+00 0. -1.
         -2   -1    0    0    0  501 -0.00000000000E+00 -0.00000000000E+00 -0.49478506574E+02  0.49478506574E+02  0.00000000000E+00 0.  1.
         23    2    1    2    0    0  0.46655440230E+02 -0.57047052187E+01  0.69014351556E+02  0.12374628637E+03  0.91328467109E+02 0.  0.
         23    2    1    2    0    0 -0.46655440230E+02  0.57047052187E+01  0.17951080456E+03  0.22373588289E+03  0.12499737028E+03 0.  0.
          5    1    4    4  502    0  0.34362764255E+02  0.45172488248E+01  0.11457064656E+03  0.11979035085E+03  0.47000000000E+01 0.  1.
         -5    1    4    4    0  502 -0.81018204484E+02  0.11874563939E+01  0.64940157997E+02  0.10394553204E+03  0.47000000000E+01 0.  1.
        -11    1    3    3    0    0 -0.27071980846E+02  0.60999726306E+01  0.14609907241E+02  0.31361619897E+02  0.00000000000E+00 0.  1.
         11    1    3    3    0    0  0.73727421075E+02 -0.11804677849E+02  0.54404444316E+02  0.92384666470E+02  0.00000000000E+00 0. -1.
<mgrwt>
<rscale>  0 0.12506108E+03</rscale>
<asrwt>0</asrwt>
<pdfrwt beam="1">  1        2 0.45846716E-01 0.13354256E+03</pdfrwt>
<pdfrwt beam="2">  1       -2 0.76120781E-02 0.13354256E+03</pdfrwt>
<totfact> 0.10627298E+04</totfact>
</mgrwt>
</event>
<event>
 8    1  0.1224355E-005  0.1251684E+03  0.7546771E-02  0.1261410E+00
          1   -1    0    0  501    0  0.00000000000E+00  0.00000000000E+00  0.86412145487E+02  0.86412145487E+02  0.00000000000E+00 0. -1.
         -1   -1    0    0    0  501 -0.00000000000E+00 -0.00000000000E+00 -0.29384202059E+03  0.29384202059E+03  0.00000000000E+00 0.  1.
         23    2    1    2    0    0  0.63829283450E+01  0.11906041588E+01 -0.23994461203E+03  0.25093151960E+03  0.73150880888E+02 0.  0.
         23    2    1    2    0    0 -0.63829283450E+01 -0.11906041588E+01  0.32514736927E+02  0.12932264648E+03  0.12499991785E+03 0.  0.
          5    1    4    4  502    0  0.11063047861E+02  0.12793113285E+02 -0.45110156197E+02  0.48405278303E+02  0.47000000000E+01 0.  1.
         -5    1    4    4    0  502 -0.17445976206E+02 -0.13983717443E+02  0.77624893124E+02  0.80917368172E+02  0.47000000000E+01 0.  1.
        -11    1    3    3    0    0 -0.28386597462E+02 -0.15977441070E+02 -0.13972073361E+03  0.14346763028E+03  0.00000000000E+00 0.  1.
         11    1    3    3    0    0  0.34769525807E+02  0.17168045229E+02 -0.10022387842E+03  0.10746388932E+03  0.00000000000E+00 0. -1.
<mgrwt>
<rscale>  0 0.10954740E+03</rscale>
<asrwt>0</asrwt>
<pdfrwt beam="1">  1        1 0.13294176E-01 0.12516844E+03</pdfrwt>
<pdfrwt beam="2">  1       -1 0.45206465E-01 0.12516844E+03</pdfrwt>
<totfact> 0.20967903E+03</totfact>
</mgrwt>
</event>
<event>
 7    1  0.1224355E-005  0.4053963E+03  0.7546771E-02  0.1103767E+00
          2   -1    0    0  501    0  0.00000000000E+00  0.00000000000E+00  0.53026063859E+03  0.53026063859E+03  0.00000000000E+00 0. -1.
         -2   -1    0    0    0  501 -0.00000000000E+00 -0.00000000000E+00 -0.11302405391E+03  0.11302405391E+03  0.00000000000E+00 0.  1.
         23    2    1    2    0    0 -0.11413999171E+02 -0.30698548546E+02  0.24146981706E+02  0.78602857025E+02  0.67250666517E+02 0.  0.
          5    1    1    2  502    0  0.51103455430E+02 -0.17351668272E+03  0.26313765076E+03  0.31934795379E+03  0.47000000000E+01 0. -1.
         -5    1    1    2    0  502 -0.39689456258E+02  0.20421523127E+03  0.12995195222E+03  0.24533388169E+03  0.47000000000E+01 0.  1.
        -11    1    3    3    0    0  0.53466861710E+00 -0.51095290367E+02  0.18024992912E+02  0.54184083804E+02  0.00000000000E+00 0. -1.
         11    1    3    3    0    0 -0.11948667788E+02  0.20396741820E+02  0.61219887941E+01  0.24418773221E+02  0.00000000000E+00 0.  1.
<mgrwt>
<rscale>  0 0.26569786E+03</rscale>
<asrwt>0</asrwt>
<pdfrwt beam="1">  1        2 0.81578558E-01 0.40539627E+03</pdfrwt>
<pdfrwt beam="2">  1       -2 0.17388316E-01 0.40539627E+03</pdfrwt>
<totfact> 0.15605252E+03</totfact>
</mgrwt>
</event>
<event>
 8    1  0.1224355E-005  0.1685589E+03  0.7546771E-02  0.1185943E+00
         -2   -1    0    0    0  501 -0.00000000000E+00  0.00000000000E+00  0.45385129902E+02  0.45385129902E+02  0.00000000000E+00 0.  1.
          2   -1    0    0  501    0  0.00000000000E+00 -0.00000000000E+00 -0.69916033975E+03  0.69916033975E+03  0.00000000000E+00 0. -1.
         23    2    1    2    0    0 -0.10112064145E+03 -0.50604396653E+02 -0.13275998499E+03  0.19694253736E+03  0.91514809294E+02 0.  0.
         23    2    1    2    0    0  0.10112064145E+03  0.50604396653E+02 -0.52101522486E+03  0.54760293229E+03  0.12500367127E+03 0.  0.
          5    1    4    4  502    0  0.36480090915E+02  0.35133455977E+02 -0.48065254587E+02  0.69982251040E+02  0.47000000000E+01 0.  1.
         -5    1    4    4    0  502  0.64640550537E+02  0.15470940676E+02 -0.47294997027E+03  0.47762068125E+03  0.47000000000E+01 0.  1.
        -11    1    3    3    0    0 -0.11335345328E+03 -0.34862442933E+02 -0.13133489052E+03  0.17695549940E+03  0.00000000000E+00 0. -1.
         11    1    3    3    0    0  0.12232811833E+02 -0.15741953720E+02 -0.14250944654E+01  0.19987037962E+02  0.00000000000E+00 0.  1.
<mgrwt>
<rscale>  0 0.16246365E+03</rscale>
<asrwt>0</asrwt>
<pdfrwt beam="2">  1        2 0.10756312E+00 0.16855891E+03</pdfrwt>
<pdfrwt beam="1">  1       -2 0.69823286E-02 0.16855891E+03</pdfrwt>
<totfact> 0.48117985E+03</totfact>
</mgrwt>
</event>
<event>
 8    1  0.1224355E-005  0.1618130E+03  0.7546771E-02  0.1194912E+00
         -2   -1    0    0    0  501 -0.00000000000E+00  0.00000000000E+00  0.10469534076E+03  0.10469534076E+03  0.00000000000E+00 0.  1.
          2   -1    0    0  501    0  0.00000000000E+00 -0.00000000000E+00 -0.21198129356E+03  0.21198129356E+03  0.00000000000E+00 0. -1.
         23    2    1    2    0    0 -0.10269157042E+03  0.44460079814E+01 -0.34419384346E+02  0.13921397026E+03  0.87352789741E+02 0.  0.
         23    2    1    2    0    0  0.10269157042E+03 -0.44460079814E+01 -0.72866568450E+02  0.17746266406E+03  0.12497253584E+03 0.  0.
          5    1    4    4  502    0  0.83095897746E+02  0.27620334397E+02  0.81109784170E+01  0.88066390100E+02  0.47000000000E+01 0. -1.
         -5    1    4    4    0  502  0.19595672670E+02 -0.32066342379E+02 -0.80977546867E+02  0.89396273958E+02  0.47000000000E+01 0. -1.
        -11    1    3    3    0    0 -0.70020896263E+02  0.36803706392E+02 -0.46384266967E+02  0.91700266846E+02  0.00000000000E+00 0. -1.
         11    1    3    3    0    0 -0.32670674153E+02 -0.32357698411E+02  0.11964882621E+02  0.47513703415E+02  0.00000000000E+00 0.  1.
<mgrwt>
<rscale>  0 0.15461679E+03</rscale>
<asrwt>0</asrwt>
<pdfrwt beam="2">  1        2 0.32612507E-01 0.16181304E+03</pdfrwt>
<pdfrwt beam="1">  1       -2 0.16106976E-01 0.16181304E+03</pdfrwt>
<totfact> 0.47005436E+03</totfact>
</mgrwt>
</event>
<event>
 8    1  0.1224355E-005  0.2896730E+03  0.7546771E-02  0.1092367E+00
         -1   -1    0    0    0  501 -0.00000000000E+00  0.00000000000E+00  0.10364130761E+03  0.10364130761E+03  0.00000000000E+00 0.  1.
          1   -1    0    0  501    0  0.00000000000E+00 -0.00000000000E+00 -0.10261179106E+04  0.10261179106E+04  0.00000000000E+00 0. -1.
         23    2    1    2    0    0  0.33946072100E+02  0.25910255729E+03 -0.17153252382E+03  0.32488191389E+03  0.88534627327E+02 0.  0.
         23    2    1    2    0    0 -0.33946072100E+02 -0.25910255729E+03 -0.75094407918E+03  0.80487730433E+03  0.12499597578E+03 0.  0.
          5    1    4    4  502    0 -0.71750113238E+02 -0.12957104734E+03 -0.30766046556E+03  0.34148760904E+03  0.47000000000E+01 0.  1.
         -5    1    4    4    0  502  0.37804041138E+02 -0.12953150996E+03 -0.44328361362E+03  0.46338969529E+03  0.47000000000E+01 0.  1.
        -11    1    3    3    0    0  0.48276734332E+02  0.10240192568E+03 -0.10370895064E+03  0.15353287564E+03  0.00000000000E+00 0. -1.
         11    1    3    3    0    0 -0.14330662232E+02  0.15670063161E+03 -0.67823573183E+02  0.17134903824E+03  0.00000000000E+00 0.  1.
<mgrwt>
<rscale>  0 0.28616852E+03</rscale>
<asrwt>0</asrwt>
<pdfrwt beam="2">  1        1 0.15786430E+00 0.28967303E+03</pdfrwt>
<pdfrwt beam="1">  1       -1 0.15944816E-01 0.28967303E+03</pdfrwt>
<totfact> 0.44688563E+02</totfact>
</mgrwt>
</event>
<event>
 8    1  0.1224355E-005  0.1298957E+03  0.7546771E-02  0.1241990E+00
          2   -1    0    0  501    0  0.00000000000E+00  0.00000000000E+00  0.75577570227E+03  0.75577570227E+03  0.00000000000E+00 0. -1.
         -2   -1    0    0    0  501 -0.00000000000E+00 -0.00000000000E+00 -0.30425678756E+02  0.30425678756E+02  0.00000000000E+00 0.  1.
         23    2    1    2    0    0 -0.91271405389E+01  0.34129385719E+02  0.73420097542E+02  0.12145668611E+03  0.90072727363E+02 0.  0.
         23    2    1    2    0    0  0.91271405389E+01 -0.34129385719E+02  0.65192992598E+03  0.66474469492E+03  0.12499904549E+03 0.  0.
          5    1    4    4  502    0  0.99222934652E+01  0.47026004731E+00  0.61032178848E+03  0.61042071438E+03  0.47000000000E+01 0. -1.
         -5    1    4    4    0  502 -0.79515292631E+00 -0.34599645766E+02  0.41608137493E+02  0.54323980533E+02  0.47000000000E+01 0. -1.
        -11    1    3    3    0    0 -0.25677337307E+02  0.52009102436E+02  0.17700092725E+02  0.60642935861E+02  0.00000000000E+00 0.  1.
         11    1    3    3    0    0  0.16550196768E+02 -0.17879716717E+02  0.55720004817E+02  0.60813750252E+02  0.00000000000E+00 0. -1.
<mgrwt>
<rscale>  0 0.12067366E+03</rscale>
<asrwt>0</asrwt>
<pdfrwt beam="1">  1        2 0.11627317E+00 0.12989565E+03</pdfrwt>
<pdfrwt beam="2">  1       -2 0.46808742E-02 0.12989565E+03</pdfrwt>
<totfact> 0.79304127E+03</totfact>
</mgrwt>
</event>
<event>
 8    1  0.1224355E-005  0.1323967E+03  0.7546771E-02  0.1237181E+00
         -2   -1    0    0    0  501 -0.00000000000E+00  0.00000000000E+00  0.20471097963E+03  0.20471097963E+03  0.00000000000E+00 0.  1.
          2   -1    0    0  501    0  0.00000000000E+00 -0.00000000000E+00 -0.67611736383E+02  0.67611736383E+02  0.00000000000E+00 0. -1.
         23    2    1    2    0    0  0.73814439693E+01 -0.43009498866E+02  0.77587563917E+02  0.12716579059E+03  0.90813025029E+02 0.  0.
         23    2    1    2    0    0 -0.73814439693E+01  0.43009498866E+02  0.59511679335E+02  0.14515692542E+03  0.12499836124E+03 0.  0.
          5    1    4    4  502    0  0.85283042317E+01  0.50539484549E+02 -0.26043871393E+02  0.57683140593E+02  0.47000000000E+01 0. -1.
         -5    1    4    4    0  502 -0.15909748201E+02 -0.75299856830E+01  0.85555550727E+02  0.87473784830E+02  0.47000000000E+01 0. -1.
        -11    1    3    3    0    0 -0.19789674948E+02 -0.19272036843E+02 -0.12352155225E+02  0.30259186660E+02  0.00000000000E+00 0. -1.
         11    1    3    3    0    0  0.27171118918E+02 -0.23737462023E+02  0.89939719142E+02  0.96906603933E+02  0.00000000000E+00 0.  1.
<mgrwt>
<rscale>  0 0.12365828E+03</rscale>
<asrwt>0</asrwt>
<pdfrwt beam="2">  1        2 0.10401806E-01 0.13239673E+03</pdfrwt>
<pdfrwt beam="1">  1       -2 0.31493997E-01 0.13239673E+03</pdfrwt>
<totfact> 0.54077646E+03</totfact>
</mgrwt>
</event>
<event>
 8    1  0.1224355E-005  0.1385384E+03  0.7546771E-02  0.1226934E+00
         -2   -1    0    0    0  501 -0.00000000000E+00  0.00000000000E+00  0.15641878903E+03  0.15641878903E+03  0.00000000000E+00 0.  1.
          2   -1    0    0  501    0  0.00000000000E+00 -0.00000000000E+00 -0.97605539548E+02  0.97605539548E+02  0.00000000000E+00 0. -1.
         23    2    1    2    0    0 -0.25565649344E+02  0.53981868161E+02  0.25823864283E+02  0.11161232230E+03  0.90679622888E+02 0.  0.
         23    2    1    2    0    0  0.25565649344E+02 -0.53981868161E+02  0.32989385202E+02  0.14241200628E+03  0.12500094191E+03 0.  0.
          5    1    4    4  502    0 -0.46024924397E+02 -0.56457000999E+01  0.30820929509E+02  0.55876536142E+02  0.47000000000E+01 0.  1.
         -5    1    4    4    0  502  0.71590573741E+02 -0.48336168061E+02  0.21684556924E+01  0.86535470135E+02  0.47000000000E+01 0.  1.
        -11    1    3    3    0    0  0.19567981740E+01  0.42328452049E+02  0.55277729018E+02  0.69650227834E+02  0.00000000000E+00 0.  1.
         11    1    3    3    0    0 -0.27522447517E+02  0.11653416112E+02 -0.29453864735E+02  0.41962094469E+02  0.00000000000E+00 0. -1.
<mgrwt>
<rscale>  0 0.13035233E+03</rscale>
<asrwt>0</asrwt>
<pdfrwt beam="2">  1        2 0.15016237E-01 0.13853837E+03</pdfrwt>
<pdfrwt beam="1">  1       -2 0.24064429E-01 0.13853837E+03</pdfrwt>
<totfact> 0.56346584E+03</totfact>
</mgrwt>
</event>
<event>
 8    1  0.1224355E-005  0.1572952E+03  0.7546771E-02  0.1200466E+00
         -1   -1    0    0    0  501 -0.00000000000E+00  0.00000000000E+00  0.10405354205E+03  0.10405354205E+03  0.00000000000E+00 0.  1.
          1   -1    0    0  501    0  0.00000000000E+00 -0.00000000000E+00 -0.19855303336E+03  0.19855303336E+03  0.00000000000E+00 0. -1.
         23    2    1    2    0    0 -0.50469992219E+02  0.78479718571E+02 -0.46233321915E+02  0.13807271159E+03  0.90665689700E+02 0.  0.
         23    2    1    2    0    0  0.50469992219E+02 -0.78479718571E+02 -0.48266169398E+02  0.16453386382E+03  0.12663128719E+03 0.  0.
          5    1    4    4  502    0  0.34015493922E+02 -0.31042092554E+01 -0.75163279391E+02  0.82694005288E+02  0.47000000000E+01 0. -1.
         -5    1    4    4    0  502  0.16454498297E+02 -0.75375509316E+02  0.26897109993E+02  0.81839858534E+02  0.47000000000E+01 0.  1.
        -11    1    3    3    0    0 -0.64148559224E+02  0.85407034153E+02 -0.21476559099E+02  0.10895247461E+03  0.00000000000E+00 0.  1.
         11    1    3    3    0    0  0.13678567005E+02 -0.69273155817E+01 -0.24756762817E+02  0.29120236978E+02  0.00000000000E+00 0. -1.
<mgrwt>
<rscale>  0 0.15000564E+03</rscale>
<asrwt>0</asrwt>
<pdfrwt beam="2">  1        1 0.30546620E-01 0.15729517E+03</pdfrwt>
<pdfrwt beam="1">  1       -1 0.16008237E-01 0.15729517E+03</pdfrwt>
<totfact> 0.41492704E+03</totfact>
</mgrwt>
</event>
<event>
 8    1  0.1224355E-005  0.2002776E+03  0.7546771E-02  0.1153667E+00
         -2   -1    0    0    0  501 -0.00000000000E+00  0.00000000000E+00  0.13718888693E+03  0.13718888693E+03  0.00000000000E+00 0.  1.
          2   -1    0    0  501    0  0.00000000000E+00 -0.00000000000E+00 -0.27333793839E+03  0.27333793839E+03  0.00000000000E+00 0. -1.
         23    2    1    2    0    0 -0.11139161702E+02  0.15608273716E+03 -0.30405508002E+02  0.18404763383E+03  0.91995297911E+02 0.  0.
         23    2    1    2    0    0  0.11139161702E+02 -0.15608273716E+03 -0.10574354346E+03  0.22647919149E+03  0.12500090172E+03 0.  0.
          5    1    4    4  502    0  0.33180834536E+02 -0.28062703454E+02 -0.83989650291E+02  0.94682809747E+02  0.47000000000E+01 0.  1.
         -5    1    4    4    0  502 -0.22041672834E+02 -0.12802003371E+03 -0.21753893164E+02  0.13179638174E+03  0.47000000000E+01 0.  1.
        -11    1    3    3    0    0  0.44458939310E+01  0.86433795264E+02 -0.61523883901E+02  0.10618735907E+03  0.00000000000E+00 0. -1.
         11    1    3    3    0    0 -0.15585055633E+02  0.69648941896E+02  0.31118375898E+02  0.77860274755E+02  0.00000000000E+00 0.  1.
<mgrwt>
<rscale>  0 0.19541355E+03</rscale>
<asrwt>0</asrwt>
<pdfrwt beam="2">  1        2 0.42051991E-01 0.20027763E+03</pdfrwt>
<pdfrwt beam="1">  1       -2 0.21105983E-01 0.20027763E+03</pdfrwt>
<totfact> 0.22879824E+03</totfact>
</mgrwt>
</event>
<event>
 8    1  0.1444935E-005  0.2186488E+03  0.7546771E-02  0.1138447E+00
         -1   -1    0    0    0  501 -0.00000000000E+00  0.00000000000E+00  0.12973124180E+03  0.12973124180E+03  0.00000000000E+00 0.  1.
          1   -1    0    0  501    0  0.00000000000E+00 -0.00000000000E+00 -0.33901948516E+03  0.33901948516E+03  0.00000000000E+00 0. -1.
         23    2    1    2    0    0  0.16618696484E+03  0.67557549674E+02 -0.10734088012E+03  0.22750284409E+03  0.89740457577E+02 0.  0.
         23    2    1    2    0    0 -0.16618696484E+03 -0.67557549674E+02 -0.10194736324E+03  0.24124788286E+03  0.12500058524E+03 0.  0.
          5    1    4    4  502    0 -0.12008587359E+02 -0.56833891134E+02 -0.53768512842E+02  0.79293381344E+02  0.47000000000E+01 0.  1.
         -5    1    4    4    0  502 -0.15417837748E+03 -0.10723658541E+02 -0.48178850398E+02  0.16195450151E+03  0.47000000000E+01 0.  1.
        -11    1    3    3    0    0  0.19345647397E+02 -0.73855225190E+01  0.12044007495E+02  0.23955336204E+02  0.00000000000E+00 0.  1.
         11    1    3    3    0    0  0.14684131744E+03  0.74943072193E+02 -0.11938488762E+03  0.20354750789E+03  0.00000000000E+00 0. -1.
<mgrwt>
<rscale>  0 0.21398651E+03</rscale>
<asrwt>0</asrwt>
<pdfrwt beam="2">  1        1 0.52156843E-01 0.21864875E+03</pdfrwt>
<pdfrwt beam="1">  1       -1 0.19958653E-01 0.21864875E+03</pdfrwt>
<totfact> 0.15100689E+03</totfact>
</mgrwt>
</event>
<event>
 8    1  0.1224355E-005  0.1410210E+03  0.7546771E-02  0.1222889E+00
          3   -1    0    0  501    0  0.00000000000E+00  0.00000000000E+00  0.24852882296E+02  0.24852882296E+02  0.00000000000E+00 0. -1.
         -3   -1    0    0    0  501 -0.00000000000E+00 -0.00000000000E+00 -0.71178944523E+03  0.71178944523E+03  0.00000000000E+00 0.  1.
         23    2    1    2    0    0  0.45903053720E+02  0.46415091042E+02 -0.42083827434E+03  0.43548584541E+03  0.91003392149E+02 0.  0.
         23    2    1    2    0    0 -0.45903053720E+02 -0.46415091042E+02 -0.26609828859E+03  0.30115648212E+03  0.12500190604E+03 0.  0.
          5    1    4    4  502    0 -0.83742208921E+02 -0.50371908360E+02 -0.15176730321E+03  0.18056990621E+03  0.47000000000E+01 0.  1.
         -5    1    4    4    0  502  0.37839155201E+02  0.39568173189E+01 -0.11433098538E+03  0.12058657591E+03  0.47000000000E+01 0.  1.
        -11    1    3    3    0    0 -0.56337864123E+01  0.56244725407E+02 -0.26790135351E+03  0.27379982451E+03  0.00000000000E+00 0.  1.
         11    1    3    3    0    0  0.51536840132E+02 -0.98296343651E+01 -0.15293692083E+03  0.16168602091E+03  0.00000000000E+00 0. -1.
<mgrwt>
<rscale>  0 0.13312615E+03</rscale>
<asrwt>0</asrwt>
<pdfrwt beam="1">  1        3 0.38235203E-02 0.14102102E+03</pdfrwt>
<pdfrwt beam="2">  1       -3 0.10950607E+00 0.14102102E+03</pdfrwt>
<totfact> 0.59602138E+02</totfact>
</mgrwt>
</event>
<event>
 8    1  0.1224355E-005  0.2005917E+03  0.7546771E-02  0.1153795E+00
          2   -1    0    0  501    0  0.00000000000E+00  0.00000000000E+00  0.14942677858E+04  0.14942677858E+04  0.00000000000E+00 0. -1.
         -2   -1    0    0    0  501 -0.00000000000E+00 -0.00000000000E+00 -0.24258696482E+02  0.24258696482E+02  0.00000000000E+00 0.  1.
         23    2    1    2    0    0  0.72494217593E+02 -0.13913133241E+03  0.68124794392E+03  0.70465844502E+03  0.88497592063E+02 0.  0.
         23    2    1    2    0    0 -0.72494217593E+02  0.13913133241E+03  0.78876114543E+03  0.81386803729E+03  0.12499639333E+03 0.  0.
          5    1    4    4  502    0 -0.52753181478E+02 -0.23215414314E+01  0.14366957969E+03  0.15313825726E+03  0.47000000000E+01 0. -1.
         -5    1    4    4    0  502 -0.19741036115E+02  0.14145287384E+03  0.64509156575E+03  0.66072978003E+03  0.47000000000E+01 0. -1.
        -11    1    3    3    0    0  0.59263909312E+02 -0.43460022947E+02  0.41448667833E+03  0.42095153052E+03  0.00000000000E+00 0. -1.
         11    1    3    3    0    0  0.13230308281E+02 -0.95671309461E+02  0.26676126560E+03  0.28370691450E+03  0.00000000000E+00 0.  1.
<mgrwt>
<rscale>  0 0.19526654E+03</rscale>
<asrwt>0</asrwt>
<pdfrwt beam="1">  1        2 0.22988728E+00 0.20059172E+03</pdfrwt>
<pdfrwt beam="2">  1       -2 0.37321083E-02 0.20059172E+03</pdfrwt>
<totfact> 0.41763086E+03</totfact>
</mgrwt>
</event>
<event>
 8    1  0.1224355E-005  0.1265966E+03  0.7546771E-02  0.1243050E+00
         -1   -1    0    0    0  501 -0.00000000000E+00  0.00000000000E+00  0.13564834787E+03  0.13564834787E+03  0.00000000000E+00 0.  1.
          1   -1    0    0  501    0  0.00000000000E+00 -0.00000000000E+00 -0.13625568200E+03  0.13625568200E+03  0.00000000000E+00 0. -1.
         23    2    1    2    0    0  0.15026105799E+02  0.43985895733E+02  0.72805158019E+02  0.12556164639E+03  0.91129540383E+02 0.  0.
         23    2    1    2    0    0 -0.15026105799E+02 -0.43985895733E+02 -0.73412492154E+02  0.14634238348E+03  0.11775464457E+03 0.  0.
          5    1    4    4  502    0 -0.61768079455E+01 -0.65611689387E+02 -0.93966981255E+02  0.11486918780E+03  0.47000000000E+01 0. -1.
         -5    1    4    4    0  502 -0.88492978538E+01  0.21625793654E+02  0.20554489102E+02  0.31473195673E+02  0.47000000000E+01 0.  1.
        -11    1    3    3    0    0  0.64423518488E+00  0.71143329248E+02  0.55961059222E+02  0.90517558986E+02  0.00000000000E+00 0.  1.
         11    1    3    3    0    0  0.14381870614E+02 -0.27157433516E+02  0.16844098797E+02  0.35044087402E+02  0.00000000000E+00 0. -1.
<mgrwt>
<rscale>  0 0.12002857E+03</rscale>
<asrwt>0</asrwt>
<pdfrwt beam="2">  1        1 0.20962413E-01 0.12659660E+03</pdfrwt>
<pdfrwt beam="1">  1       -1 0.20868977E-01 0.12659660E+03</pdfrwt>
<totfact> 0.43096201E+03</totfact>
</mgrwt>
</event>
<event>
 8    1  0.1224355E-005  0.2065113E+03  0.7546771E-02  0.1148369E+00
         -2   -1    0    0    0  501 -0.00000000000E+00  0.00000000000E+00  0.79480481130E+02  0.79480481130E+02  0.00000000000E+00 0.  1.
          2   -1    0    0  501    0  0.00000000000E+00 -0.00000000000E+00 -0.49419351132E+03  0.49419351132E+03  0.00000000000E+00 0. -1.
         23    2    1    2    0    0 -0.10105565353E+03 -0.12965225540E+03 -0.22762287827E+03  0.29501712000E+03  0.90559228901E+02 0.  0.
         23    2    1    2    0    0  0.10105565353E+03  0.12965225540E+03 -0.18709015191E+03  0.27865687245E+03  0.12499990071E+03 0.  0.
          5    1    4    4  502    0 -0.20567583448E+02  0.32554091679E+02 -0.50603758049E+01  0.39121500192E+02  0.47000000000E+01 0. -1.
         -5    1    4    4    0  502  0.12162323698E+03  0.97098163718E+02 -0.18202977611E+03  0.23953537226E+03  0.47000000000E+01 0. -1.
        -11    1    3    3    0    0 -0.60285105537E+02 -0.11049652881E+03 -0.10345826310E+03  0.16293369520E+03  0.00000000000E+00 0.  1.
         11    1    3    3    0    0 -0.40770547996E+02 -0.19155726589E+02 -0.12416461518E+03  0.13208342480E+03  0.00000000000E+00 0. -1.
<mgrwt>
<rscale>  0 0.20163276E+03</rscale>
<asrwt>0</asrwt>
<pdfrwt beam="2">  1        2 0.76029769E-01 0.20651133E+03</pdfrwt>
<pdfrwt beam="1">  1       -2 0.12227767E-01 0.20651133E+03</pdfrwt>
<totfact> 0.29894767E+03</totfact>
</mgrwt>
</event>
<event>
 8    1  0.1224355E-005  0.1291618E+03  0.7546771E-02  0.1241364E+00
         -2   -1    0    0    0  501 -0.00000000000E+00  0.00000000000E+00  0.33118275108E+02  0.33118275108E+02  0.00000000000E+00 0. -1.
          2   -1    0    0  501    0  0.00000000000E+00 -0.00000000000E+00 -0.58349944244E+03  0.58349944244E+03  0.00000000000E+00 0.  1.
         23    2    1    2    0    0 -0.11825596112E+02 -0.30284383542E+02 -0.77042765859E+02  0.12597322593E+03  0.94216120018E+02 0.  0.
         23    2    1    2    0    0  0.11825596112E+02  0.30284383542E+02 -0.47333840147E+03  0.49064449161E+03  0.12500314488E+03 0.  0.
          5    1    4    4  502    0  0.82566477007E+01 -0.32753676290E+02 -0.35320933070E+03  0.35485193650E+03  0.47000000000E+01 0. -1.
         -5    1    4    4    0  502  0.35689484112E+01  0.63038059833E+02 -0.12012907077E+03  0.13579255512E+03  0.47000000000E+01 0. -1.
        -11    1    3    3    0    0  0.26022133791E+02 -0.19223143544E+02  0.70349388935E+01  0.33108474142E+02  0.00000000000E+00 0. -1.
         11    1    3    3    0    0 -0.37847729903E+02 -0.11061239998E+02 -0.84077704753E+02  0.92864751793E+02  0.00000000000E+00 0.  1.
<mgrwt>
<rscale>  0 0.12105683E+03</rscale>
<asrwt>0</asrwt>
<pdfrwt beam="2">  1        2 0.89769133E-01 0.12916182E+03</pdfrwt>
<pdfrwt beam="1">  1       -2 0.50951200E-02 0.12916182E+03</pdfrwt>
<totfact> 0.94455082E+03</totfact>
</mgrwt>
</event>
<event>
 8    1  0.1224355E-005  0.1471921E+03  0.7546771E-02  0.1211525E+00
          1   -1    0    0  501    0  0.00000000000E+00  0.00000000000E+00  0.35979557303E+03  0.35979557303E+03  0.00000000000E+00 0. -1.
         -1   -1    0    0    0  501 -0.00000000000E+00 -0.00000000000E+00 -0.51874214538E+02  0.51874214538E+02  0.00000000000E+00 0.  1.
         23    2    1    2    0    0  0.37966423621E+02 -0.67817007404E+02  0.15790667319E+03  0.20150335493E+03  0.98124863278E+02 0.  0.
         23    2    1    2    0    0 -0.37966423621E+02  0.67817007404E+02  0.15001468530E+03  0.21016643264E+03  0.12499971115E+03 0.  0.
          5    1    4    4  502    0 -0.38321387146E+02  0.95860304074E+02  0.68884551344E+02  0.12419701294E+03  0.47000000000E+01 0.  1.
         -5    1    4    4    0  502  0.35496352576E+00 -0.28043296670E+02  0.81130133958E+02  0.85969419698E+02  0.47000000000E+01 0.  1.
        -11    1    3    3    0    0  0.62104296219E+02 -0.23374110416E+02  0.52580315864E+02  0.84663937205E+02  0.00000000000E+00 0.  1.
         11    1    3    3    0    0 -0.24137872599E+02 -0.44442896988E+02  0.10532635733E+03  0.11683941772E+03  0.00000000000E+00 0. -1.
<mgrwt>
<rscale>  0 0.14134938E+03</rscale>
<asrwt>0</asrwt>
<pdfrwt beam="1">  1        1 0.55353164E-01 0.14719213E+03</pdfrwt>
<pdfrwt beam="2">  1       -1 0.79806486E-02 0.14719213E+03</pdfrwt>
<totfact> 0.57772150E+03</totfact>
</mgrwt>
</event>
<event>
 8    1  0.1224355E-005  0.1655272E+03  0.7546771E-02  0.1192906E+00
          1   -1    0    0  501    0  0.00000000000E+00  0.00000000000E+00  0.94572485677E+02  0.94572485677E+02  0.00000000000E+00 0. -1.
         -1   -1    0    0    0  501 -0.00000000000E+00 -0.00000000000E+00 -0.29550457624E+03  0.29550457624E+03  0.00000000000E+00 0.  1.
         23    2    1    2    0    0 -0.20872427523E+02  0.10648477290E+03 -0.18030053149E+03  0.22326908436E+03  0.74606549903E+02 0.  0.
         23    2    1    2    0    0  0.20872427523E+02 -0.10648477290E+03 -0.20631559072E+02  0.16680797755E+03  0.12499830020E+03 0.  0.
          5    1    4    4  502    0  0.72562179301E+02 -0.54861335296E+02 -0.21528035151E+02  0.93597982205E+02  0.47000000000E+01 0.  1.
         -5    1    4    4    0  502 -0.51689751778E+02 -0.51623437603E+02  0.89647607893E+00  0.73209995343E+02  0.47000000000E+01 0.  1.
        -11    1    3    3    0    0 -0.23245193170E+02  0.62909582157E+02 -0.44146609547E+02  0.80292450873E+02  0.00000000000E+00 0. -1.
         11    1    3    3    0    0  0.23727656474E+01  0.43575190742E+02 -0.13615392194E+03  0.14297663349E+03  0.00000000000E+00 0.  1.
<mgrwt>
<rscale>  0 0.15632758E+03</rscale>
<asrwt>0</asrwt>
<pdfrwt beam="1">  1        1 0.14549613E-01 0.16552716E+03</pdfrwt>
<pdfrwt beam="2">  1       -1 0.45462242E-01 0.16552716E+03</pdfrwt>
<totfact> 0.18660548E+03</totfact>
</mgrwt>
</event>
<event>
 8    1  0.1224355E-005  0.1402681E+03  0.7546771E-02  0.1224048E+00
         -4   -1    0    0    0  501 -0.00000000000E+00  0.00000000000E+00  0.39961276163E+02  0.39961276163E+02  0.00000000000E+00 0.  1.
          4   -1    0    0  501    0  0.00000000000E+00 -0.00000000000E+00 -0.84614878156E+03  0.84614878156E+03  0.00000000000E+00 0. -1.
         23    2    1    2    0    0 -0.58268860624E+02 -0.25594338274E+02 -0.58835927762E+02  0.12570915501E+03  0.91053802713E+02 0.  0.
         23    2    1    2    0    0  0.58268860624E+02  0.25594338274E+02 -0.74735157764E+03  0.76040090271E+03  0.12499928791E+03 0.  0.
          5    1    4    4  502    0  0.53425271705E+02 -0.10589869760E+02 -0.69058408804E+03  0.69274445335E+03  0.47000000000E+01 0.  1.
         -5    1    4    4    0  502  0.48435889192E+01  0.36184208034E+02 -0.56767489600E+02  0.67656449362E+02  0.47000000000E+01 0.  1.
        -11    1    3    3    0    0 -0.71722780314E+01 -0.42290838985E+02 -0.57756729259E+02  0.71943008062E+02  0.00000000000E+00 0. -1.
         11    1    3    3    0    0 -0.51096582593E+02  0.16696500711E+02 -0.10791985023E+01  0.53766146952E+02  0.00000000000E+00 0.  1.
<mgrwt>
<rscale>  0 0.13232400E+03</rscale>
<asrwt>0</asrwt>
<pdfrwt beam="2">  1        4 0.13017674E+00 0.14026814E+03</pdfrwt>
<pdfrwt beam="1">  1       -4 0.61478884E-02 0.14026814E+03</pdfrwt>
<totfact> 0.13081426E+02</totfact>
</mgrwt>
</event>
<event>
 8    1  0.1224355E-005  0.1392949E+03  0.7546771E-02  0.1226051E+00
          1   -1    0    0  501    0  0.00000000000E+00  0.00000000000E+00  0.21679465200E+03  0.21679465200E+03  0.00000000000E+00 0. -1.
         -1   -1    0    0    0  501 -0.00000000000E+00 -0.00000000000E+00 -0.81202071025E+02  0.81202071025E+02  0.00000000000E+00 0.  1.
         23    2    1    2    0    0 -0.51228098712E+02 -0.33975361869E+02  0.79951435470E+01  0.10909413835E+03  0.89771740491E+02 0.  0.
         23    2    1    2    0    0  0.51228098712E+02  0.33975361869E+02  0.12759743743E+03  0.18890258467E+03  0.12499774856E+03 0.  0.
          5    1    4    4  502    0  0.78822451989E+02  0.48249122907E+02  0.12742549911E+03  0.15748112465E+03  0.47000000000E+01 0. -1.
         -5    1    4    4    0  502 -0.27594353277E+02 -0.14273761039E+02  0.17193831947E+00  0.31421460020E+02  0.47000000000E+01 0. -1.
        -11    1    3    3    0    0 -0.35607397221E+02 -0.30241822153E+02  0.47393657863E+02  0.66547827535E+02  0.00000000000E+00 0. -1.
         11    1    3    3    0    0 -0.15620701491E+02 -0.37335397159E+01 -0.39398514316E+02  0.42546310818E+02  0.00000000000E+00 0.  1.
<mgrwt>
<rscale>  0 0.13095121E+03</rscale>
<asrwt>0</asrwt>
<pdfrwt beam="1">  1        1 0.33353023E-01 0.13929494E+03</pdfrwt>
<pdfrwt beam="2">  1       -1 0.12492626E-01 0.13929494E+03</pdfrwt>
<totfact> 0.54434767E+03</totfact>
</mgrwt>
</event>
<event>
 8    1  0.1224355E-005  0.1321057E+03  0.7546771E-02  0.1237424E+00
         -2   -1    0    0    0  501 -0.00000000000E+00  0.00000000000E+00  0.23575491980E+02  0.23575491980E+02  0.00000000000E+00 0.  1.
          2   -1    0    0  501    0  0.00000000000E+00 -0.00000000000E+00 -0.64802717057E+03  0.64802717057E+03  0.00000000000E+00 0. -1.
         23    2    1    2    0    0 -0.28062070937E+02  0.32268964991E+02 -0.16389545497E+03  0.19247434116E+03  0.91410535060E+02 0.  0.
         23    2    1    2    0    0  0.28062070937E+02 -0.32268964991E+02 -0.46055622362E+03  0.47912832139E+03  0.12499258903E+03 0.  0.
          5    1    4    4  502    0 -0.38033751591E+02 -0.47218812055E+02 -0.16455137721E+03  0.17542926841E+03  0.47000000000E+01 0. -1.
         -5    1    4    4    0  502  0.66095822528E+02  0.14949847064E+02 -0.29600484641E+03  0.30369905298E+03  0.47000000000E+01 0. -1.
        -11    1    3    3    0    0 -0.42344096234E+02 -0.19145864296E+02 -0.90460991981E+02  0.10169944777E+03  0.00000000000E+00 0.  1.
         11    1    3    3    0    0  0.14282025297E+02  0.51414829286E+02 -0.73434462989E+02  0.90774893399E+02  0.00000000000E+00 0. -1.
<mgrwt>
<rscale>  0 0.12350496E+03</rscale>
<asrwt>0</asrwt>
<pdfrwt beam="2">  1        2 0.99696496E-01 0.13210569E+03</pdfrwt>
<pdfrwt beam="1">  1       -2 0.36269985E-02 0.13210569E+03</pdfrwt>
<totfact> 0.13922202E+04</totfact>
</mgrwt>
</event>
<event>
 8    1  0.1224355E-005  0.1775720E+03  0.7546771E-02  0.1176677E+00
         -1   -1    0    0    0  501 -0.00000000000E+00  0.00000000000E+00  0.12737504132E+03  0.12737504132E+03  0.00000000000E+00 0.  1.
          1   -1    0    0  501    0  0.00000000000E+00 -0.00000000000E+00 -0.38895890007E+03  0.38895890007E+03  0.00000000000E+00 0. -1.
         23    2    1    2    0    0 -0.12591599222E+03 -0.39347220270E+01  0.47080072976E+02  0.16023670682E+03  0.87114578615E+02 0.  0.
         23    2    1    2    0    0  0.12591599222E+03  0.39347220270E+01 -0.30866393174E+03  0.35609723457E+03  0.12514590916E+03 0.  0.
          5    1    4    4  502    0  0.10947222213E+03  0.19810383767E+02 -0.11157431873E+03  0.15763101637E+03  0.47000000000E+01 0.  1.
         -5    1    4    4    0  502  0.16443770092E+02 -0.15875661740E+02 -0.19708961301E+03  0.19846621820E+03  0.47000000000E+01 0.  1.
        -11    1    3    3    0    0 -0.13280834144E+03  0.14195304507E+02  0.38311788865E+02  0.13895091000E+03  0.00000000000E+00 0.  1.
         11    1    3    3    0    0  0.68923492171E+01 -0.18130026534E+02  0.87682841109E+01  0.21285796816E+02  0.00000000000E+00 0. -1.
<mgrwt>
<rscale>  0 0.17112765E+03</rscale>
<asrwt>0</asrwt>
<pdfrwt beam="2">  1        1 0.59839831E-01 0.17757201E+03</pdfrwt>
<pdfrwt beam="1">  1       -1 0.19596160E-01 0.17757201E+03</pdfrwt>
<totfact> 0.13024575E+03</totfact>
</mgrwt>
</event>
<event>
 8    1  0.1224355E-005  0.1348839E+03  0.7546771E-02  0.1234077E+00
         -2   -1    0    0    0  501 -0.00000000000E+00  0.00000000000E+00  0.77624710865E+02  0.77624710865E+02  0.00000000000E+00 0.  1.
          2   -1    0    0  501    0  0.00000000000E+00 -0.00000000000E+00 -0.73553172859E+03  0.73553172859E+03  0.00000000000E+00 0. -1.
         23    2    1    2    0    0  0.49838326936E+02 -0.23116137022E+01  0.34885648421E+02  0.10735523745E+03  0.88424748530E+02 0.  0.
         23    2    1    2    0    0 -0.49838326936E+02  0.23116137022E+01 -0.69279266615E+03  0.70580120201E+03  0.12531742136E+03 0.  0.
          5    1    4    4  502    0 -0.23642233564E+02 -0.11025102189E+02 -0.22275782208E+02  0.34623814913E+02  0.47000000000E+01 0. -1.
         -5    1    4    4    0  502 -0.26196093373E+02  0.13336715891E+02 -0.67051688394E+03  0.67117738709E+03  0.47000000000E+01 0. -1.
        -11    1    3    3    0    0  0.62947886985E+01 -0.35875241650E+02  0.37549785614E+02  0.52312940348E+02  0.00000000000E+00 0.  1.
         11    1    3    3    0    0  0.43543538238E+02  0.33563627948E+02 -0.26641371933E+01  0.55042297102E+02  0.00000000000E+00 0. -1.
<mgrwt>
<rscale>  0 0.12563700E+03</rscale>
<asrwt>0</asrwt>
<pdfrwt beam="2">  1        2 0.11315873E+00 0.13488387E+03</pdfrwt>
<pdfrwt beam="1">  1       -2 0.11942263E-01 0.13488387E+03</pdfrwt>
<totfact> 0.19413857E+03</totfact>
</mgrwt>
</event>
<event>
 8    1  0.1224355E-005  0.1238372E+03  0.7546771E-02  0.1248611E+00
          1   -1    0    0  501    0  0.00000000000E+00  0.00000000000E+00  0.72043548551E+03  0.72043548551E+03  0.00000000000E+00 0. -1.
         -1   -1    0    0    0  501 -0.00000000000E+00 -0.00000000000E+00 -0.31819479021E+02  0.31819479021E+02  0.00000000000E+00 0.  1.
         23    2    1    2    0    0  0.20233830866E+02  0.29138208860E+02  0.67152479992E+02  0.11857321069E+03  0.91058813939E+02 0.  0.
         23    2    1    2    0    0 -0.20233830866E+02 -0.29138208860E+02  0.62146352650E+03  0.63368175385E+03  0.11864740732E+03 0.  0.
          5    1    4    4  502    0 -0.50946613018E+02 -0.23904972595E+01  0.54058250985E+03  0.54300350994E+03  0.47000000000E+01 0. -1.
         -5    1    4    4    0  502  0.30712782152E+02 -0.26747711601E+02  0.80881016649E+02  0.90678243904E+02  0.47000000000E+01 0.  1.
        -11    1    3    3    0    0  0.41714584862E+02 -0.13721771548E+02  0.52495716453E+02  0.68441170728E+02  0.00000000000E+00 0. -1.
         11    1    3    3    0    0 -0.21480753996E+02  0.42859980409E+02  0.14656763539E+02  0.50132039958E+02  0.00000000000E+00 0.  1.
<mgrwt>
<rscale>  0 0.11671847E+03</rscale>
<asrwt>0</asrwt>
<pdfrwt beam="1">  1        1 0.11083622E+00 0.12383719E+03</pdfrwt>
<pdfrwt beam="2">  1       -1 0.48953050E-02 0.12383719E+03</pdfrwt>
<totfact> 0.47446977E+03</totfact>
</mgrwt>
</event>
<event>
 8    1  0.1224355E-005  0.1325156E+03  0.7546771E-02  0.1238271E+00
         -1   -1    0    0    0  501 -0.00000000000E+00  0.00000000000E+00  0.19678541988E+03  0.19678541988E+03  0.00000000000E+00 0.  1.
          1   -1    0    0  501    0  0.00000000000E+00 -0.00000000000E+00 -0.68755537726E+02  0.68755537726E+02  0.00000000000E+00 0. -1.
         23    2    1    2    0    0 -0.68386397966E+01 -0.43460683237E+02  0.71187644694E+02  0.12134863851E+03  0.87876124915E+02 0.  0.
         23    2    1    2    0    0  0.68386397966E+01  0.43460683237E+02  0.56842237456E+02  0.14419231909E+03  0.12499914777E+03 0.  0.
          5    1    4    4  502    0  0.16905955338E+02 -0.37003824247E+02  0.47048892870E+02  0.62376138508E+02  0.47000000000E+01 0. -1.
         -5    1    4    4    0  502 -0.10067315542E+02  0.80464507483E+02  0.97933445855E+01  0.81816180581E+02  0.47000000000E+01 0. -1.
        -11    1    3    3    0    0 -0.12711758897E+02  0.19046405544E+02 -0.41590199729E+01  0.23273414566E+02  0.00000000000E+00 0. -1.
         11    1    3    3    0    0  0.58731191002E+01 -0.62507088781E+02  0.75346664667E+02  0.98075223947E+02  0.00000000000E+00 0.  1.
<mgrwt>
<rscale>  0 0.12297309E+03</rscale>
<asrwt>0</asrwt>
<pdfrwt beam="2">  1        1 0.10577775E-01 0.13251560E+03</pdfrwt>
<pdfrwt beam="1">  1       -1 0.30274680E-01 0.13251560E+03</pdfrwt>
<totfact> 0.56806394E+03</totfact>
</mgrwt>
</event>
<event>
 8    1  0.1224355E-005  0.1389115E+03  0.7546771E-02  0.1226535E+00
          1   -1    0    0  501    0  0.00000000000E+00  0.00000000000E+00  0.52314070600E+02  0.52314070600E+02  0.00000000000E+00 0. -1.
         -1   -1    0    0    0  501 -0.00000000000E+00 -0.00000000000E+00 -0.32250853980E+03  0.32250853980E+03  0.00000000000E+00 0.  1.
         23    2    1    2    0    0 -0.42614790554E+02 -0.43070562163E+02 -0.17659491051E+03  0.20731949385E+03  0.90136099400E+02 0.  0.
         23    2    1    2    0    0  0.42614790554E+02  0.43070562163E+02 -0.93599558694E+02  0.16750311655E+03  0.12500129186E+03 0.  0.
          5    1    4    4  502    0  0.73357839192E+02  0.14385855019E+02 -0.12372351873E+02  0.75917655960E+02  0.47000000000E+01 0.  1.
         -5    1    4    4    0  502 -0.30743048638E+02  0.28684707143E+02 -0.81227206821E+02  0.91585460590E+02  0.47000000000E+01 0.  1.
        -11    1    3    3    0    0 -0.27364015253E+02  0.20334469589E+02 -0.10537686511E+03  0.11075451993E+03  0.00000000000E+00 0.  1.
         11    1    3    3    0    0 -0.15250775300E+02 -0.63405031752E+02 -0.71218045400E+02  0.96564973926E+02  0.00000000000E+00 0. -1.
<mgrwt>
<rscale>  0 0.13062274E+03</rscale>
<asrwt>0</asrwt>
<pdfrwt beam="1">  1        1 0.80483186E-02 0.13891154E+03</pdfrwt>
<pdfrwt beam="2">  1       -1 0.49616698E-01 0.13891154E+03</pdfrwt>
<totfact> 0.34592390E+03</totfact>
</mgrwt>
</event>
<event>
 8    1  0.1224355E-005  0.2518958E+03  0.7546771E-02  0.1114568E+00
         -2   -1    0    0    0  501 -0.00000000000E+00  0.00000000000E+00  0.21561792121E+03  0.21561792121E+03  0.00000000000E+00 0.  1.
          2   -1    0    0  501    0  0.00000000000E+00 -0.00000000000E+00 -0.29298336148E+03  0.29298336148E+03  0.00000000000E+00 0. -1.
         23    2    1    2    0    0 -0.16820870476E+03  0.13975273506E+03  0.22177131584E+02  0.23775035896E+03  0.90600290890E+02 0.  0.
         23    2    1    2    0    0  0.16820870476E+03 -0.13975273506E+03 -0.99542571860E+02  0.27085092373E+03  0.12500601570E+03 0.  0.
          5    1    4    4  502    0  0.15251231222E+03 -0.65870226146E+02 -0.10223948925E+03  0.19512533212E+03  0.47000000000E+01 0.  1.
         -5    1    4    4    0  502  0.15696392533E+02 -0.73882508909E+02  0.26969173932E+01  0.75725591610E+02  0.47000000000E+01 0.  1.
        -11    1    3    3    0    0 -0.70542384748E+02  0.81471552892E+02  0.52741310772E+02  0.11998119785E+03  0.00000000000E+00 0.  1.
         11    1    3    3    0    0 -0.97666320008E+02  0.58281182163E+02 -0.30564179188E+02  0.11776916111E+03  0.00000000000E+00 0. -1.
<mgrwt>
<rscale>  0 0.24801137E+03</rscale>
<asrwt>0</asrwt>
<pdfrwt beam="2">  1        2 0.45074363E-01 0.25189581E+03</pdfrwt>
<pdfrwt beam="1">  1       -2 0.33171988E-01 0.25189581E+03</pdfrwt>
<totfact> 0.95335258E+02</totfact>
</mgrwt>
</event>
<event>
 8    1  0.1224355E-005  0.1280874E+03  0.7546771E-02  0.1245183E+00
         -1   -1    0    0    0  501 -0.00000000000E+00  0.00000000000E+00  0.22756286770E+02  0.22756286770E+02  0.00000000000E+00 0.  1.
          1   -1    0    0  501    0  0.00000000000E+00 -0.00000000000E+00 -0.61152044291E+03  0.61152044291E+03  0.00000000000E+00 0. -1.
         23    2    1    2    0    0  0.18327315990E+02 -0.21100936521E+02 -0.15128495265E+03  0.17843199123E+03  0.90386384828E+02 0.  0.
         23    2    1    2    0    0 -0.18327315990E+02  0.21100936521E+02 -0.43747920349E+03  0.45584473845E+03  0.12500092821E+03 0.  0.
          5    1    4    4  502    0  0.53011890633E+02  0.19170084225E+02 -0.19367567560E+03  0.20176746516E+03  0.47000000000E+01 0.  1.
         -5    1    4    4    0  502 -0.71339206623E+02  0.19308522960E+01 -0.24380352788E+03  0.25407727329E+03  0.47000000000E+01 0.  1.
        -11    1    3    3    0    0 -0.21550548143E+02  0.22621957588E+02 -0.29217936523E+02  0.42776943615E+02  0.00000000000E+00 0.  1.
         11    1    3    3    0    0  0.39877864133E+02 -0.43722894109E+02 -0.12206701613E+03  0.13565504761E+03  0.00000000000E+00 0. -1.
<mgrwt>
<rscale>  0 0.11874427E+03</rscale>
<asrwt>0</asrwt>
<pdfrwt beam="2">  1        1 0.94080060E-01 0.12808736E+03</pdfrwt>
<pdfrwt beam="1">  1       -1 0.35009675E-02 0.12808736E+03</pdfrwt>
<totfact> 0.97802007E+03</totfact>
</mgrwt>
</event>
<event>
 8    1  0.1224355E-005  0.1936394E+03  0.7546771E-02  0.1159962E+00
         -1   -1    0    0    0  501 -0.00000000000E+00  0.00000000000E+00  0.61205651288E+02  0.61205651288E+02  0.00000000000E+00 0.  1.
          1   -1    0    0  501    0  0.00000000000E+00 -0.00000000000E+00 -0.56464955805E+03  0.56464955805E+03  0.00000000000E+00 0. -1.
         23    2    1    2    0    0 -0.12795817736E+03  0.74133036955E+02 -0.18785566086E+03  0.25559561716E+03  0.90390087234E+02 0.  0.
         23    2    1    2    0    0  0.12795817736E+03 -0.74133036955E+02 -0.31558824590E+03  0.37025959218E+03  0.12500888900E+03 0.  0.
          5    1    4    4  502    0  0.66274204171E+02 -0.65076725527E+02 -0.68824690373E+02  0.11569865318E+03  0.47000000000E+01 0. -1.
         -5    1    4    4    0  502  0.61683973192E+02 -0.90563114280E+01 -0.24676355553E+03  0.25456093899E+03  0.47000000000E+01 0. -1.
        -11    1    3    3    0    0 -0.26501550457E+02  0.43812487186E+02 -0.15836580900E+02  0.53597234114E+02  0.00000000000E+00 0.  1.
         11    1    3    3    0    0 -0.10145662691E+03  0.30320549769E+02 -0.17201907996E+03  0.20199838304E+03  0.00000000000E+00 0. -1.
<mgrwt>
<rscale>  0 0.18834612E+03</rscale>
<asrwt>0</asrwt>
<pdfrwt beam="2">  1        1 0.86869164E-01 0.19363942E+03</pdfrwt>
<pdfrwt beam="1">  1       -1 0.94162540E-02 0.19363942E+03</pdfrwt>
<totfact> 0.25344351E+03</totfact>
</mgrwt>
</event>
<event>
 8    1  0.1224355E-005  0.1628330E+03  0.7546771E-02  0.1192777E+00
          2   -1    0    0  501    0  0.00000000000E+00  0.00000000000E+00  0.33998882849E+02  0.33998882849E+02  0.00000000000E+00 0. -1.
         -2   -1    0    0    0  501 -0.00000000000E+00 -0.00000000000E+00 -0.68637496896E+03  0.68637496896E+03  0.00000000000E+00 0.  1.
         23    2    1    2    0    0  0.10431619669E+03  0.22165420672E+01 -0.35843823872E+03  0.38434697798E+03  0.91421258763E+02 0.  0.
         23    2    1    2    0    0 -0.10431619669E+03 -0.22165420672E+01 -0.29393784739E+03  0.33602687383E+03  0.12501127892E+03 0.  0.
          5    1    4    4  502    0 -0.45158391580E+02  0.50876559565E+02 -0.67299988557E+02  0.95807531556E+02  0.47000000000E+01 0. -1.
         -5    1    4    4    0  502 -0.59157805108E+02 -0.53093101632E+02 -0.22663785883E+03  0.24021934227E+03  0.47000000000E+01 0. -1.
        -11    1    3    3    0    0  0.79324460554E+02 -0.34433272018E+02 -0.29140329344E+03  0.30396364864E+03  0.00000000000E+00 0.  1.
         11    1    3    3    0    0  0.24991736133E+02  0.36649814085E+02 -0.67034945277E+02  0.80383329339E+02  0.00000000000E+00 0. -1.
<mgrwt>
<rscale>  0 0.15643921E+03</rscale>
<asrwt>0</asrwt>
<pdfrwt beam="1">  1        2 0.52305977E-02 0.16283305E+03</pdfrwt>
<pdfrwt beam="2">  1       -2 0.10559614E+00 0.16283305E+03</pdfrwt>
<totfact> 0.10928482E+03</totfact>
</mgrwt>
</event>
<event>
 8    1  0.1224355E-005  0.3733515E+03  0.7546771E-02  0.1054330E+00
          1   -1    0    0  501    0  0.00000000000E+00  0.00000000000E+00  0.14384808308E+03  0.14384808308E+03  0.00000000000E+00 0. -1.
         -1   -1    0    0    0  501 -0.00000000000E+00 -0.00000000000E+00 -0.10036551694E+04  0.10036551694E+04  0.00000000000E+00 0.  1.
         23    2    1    2    0    0 -0.13043559364E+03 -0.32669678819E+03 -0.56397410761E+03  0.67115415401E+03  0.92934756090E+02 0.  0.
         23    2    1    2    0    0  0.13043559364E+03  0.32669678819E+03 -0.29583297869E+03  0.47634909846E+03  0.12508827610E+03 0.  0.
          5    1    4    4  502    0  0.40807511921E+02  0.17663266258E+03 -0.79024285084E+02  0.19781627373E+03  0.47000000000E+01 0.  1.
         -5    1    4    4    0  502  0.89628081721E+02  0.15006412561E+03 -0.21680869361E+03  0.27853282473E+03  0.47000000000E+01 0.  1.
        -11    1    3    3    0    0 -0.11448924866E+03 -0.18737069008E+03 -0.39138604219E+03  0.44877455095E+03  0.00000000000E+00 0. -1.
         11    1    3    3    0    0 -0.15946344985E+02 -0.13932609810E+03 -0.17258806543E+03  0.22237960306E+03  0.00000000000E+00 0.  1.
<mgrwt>
<rscale>  0 0.37095108E+03</rscale>
<asrwt>0</asrwt>
<pdfrwt beam="1">  1        1 0.22130474E-01 0.37335146E+03</pdfrwt>
<pdfrwt beam="2">  1       -1 0.15440849E+00 0.37335146E+03</pdfrwt>
<totfact> 0.77766372E+01</totfact>
</mgrwt>
</event>
<event>
 8    1  0.1224355E-005  0.1906561E+03  0.7546771E-02  0.1161303E+00
          1   -1    0    0  501    0  0.00000000000E+00  0.00000000000E+00  0.47154279308E+03  0.47154279308E+03  0.00000000000E+00 0. -1.
         -1   -1    0    0    0  501 -0.00000000000E+00 -0.00000000000E+00 -0.83473676606E+02  0.83473676606E+02  0.00000000000E+00 0.  1.
         23    2    1    2    0    0 -0.11947255842E+03 -0.80304222196E+02  0.81409564225E+02  0.19392117050E+03  0.10126916067E+03 0.  0.
         23    2    1    2    0    0  0.11947255842E+03  0.80304222196E+02  0.30665955225E+03  0.36109529919E+03  0.12500909483E+03 0.  0.
          5    1    4    4  502    0  0.77607241172E+02  0.85256964241E+00  0.58973877616E+02  0.97589031138E+02  0.47000000000E+01 0. -1.
         -5    1    4    4    0  502  0.41865317252E+02  0.79451652554E+02  0.24768567463E+03  0.26350626805E+03  0.47000000000E+01 0. -1.
        -11    1    3    3    0    0 -0.12977168751E+02 -0.28608761227E+02  0.67847621619E+02  0.74767425307E+02  0.00000000000E+00 0.  1.
         11    1    3    3    0    0 -0.10649538967E+03 -0.51695460969E+02  0.13561942606E+02  0.11915374519E+03  0.00000000000E+00 0. -1.
<mgrwt>
<rscale>  0 0.18688286E+03</rscale>
<asrwt>0</asrwt>
<pdfrwt beam="1">  1        1 0.72545043E-01 0.19065606E+03</pdfrwt>
<pdfrwt beam="2">  1       -1 0.12842104E-01 0.19065606E+03</pdfrwt>
<totfact> 0.19911876E+03</totfact>
</mgrwt>
</event>
<event>
 8    1  0.1224355E-005  0.1469265E+03  0.7546771E-02  0.1215955E+00
          2   -1    0    0  501    0  0.00000000000E+00  0.00000000000E+00  0.39854859316E+03  0.39854859316E+03  0.00000000000E+00 0. -1.
         -2   -1    0    0    0  501 -0.00000000000E+00 -0.00000000000E+00 -0.44484844046E+02  0.44484844046E+02  0.00000000000E+00 0.  1.
         23    2    1    2    0    0  0.76788711979E+02 -0.81272269894E+01  0.11430006878E+03  0.16183242142E+03  0.84632551620E+02 0.  0.
         23    2    1    2    0    0 -0.76788711979E+02  0.81272269894E+01  0.23976368034E+03  0.28120101579E+03  0.12499932306E+03 0.  0.
          5    1    4    4  502    0 -0.10245987550E+03  0.27924321689E+02  0.13737642004E+03  0.17370136618E+03  0.47000000000E+01 0. -1.
         -5    1    4    4    0  502  0.25671163522E+02 -0.19797094699E+02  0.10238726030E+03  0.10749964961E+03  0.47000000000E+01 0. -1.
        -11    1    3    3    0    0  0.41571743368E+02 -0.46397520340E+02  0.67697498214E+02  0.91999407633E+02  0.00000000000E+00 0.  1.
         11    1    3    3    0    0  0.35216968611E+02  0.38270293350E+02  0.46602570563E+02  0.69833013785E+02  0.00000000000E+00 0. -1.
<mgrwt>
<rscale>  0 0.13806653E+03</rscale>
<asrwt>0</asrwt>
<pdfrwt beam="1">  1        2 0.61315166E-01 0.14692647E+03</pdfrwt>
<pdfrwt beam="2">  1       -2 0.68438224E-02 0.14692647E+03</pdfrwt>
<totfact> 0.92474229E+03</totfact>
</mgrwt>
</event>
<event>
 8    1  0.1224355E-005  0.2004472E+03  0.7546771E-02  0.1153738E+00
         -1   -1    0    0    0  501 -0.00000000000E+00  0.00000000000E+00  0.11068134165E+03  0.11068134165E+03  0.00000000000E+00 0.  1.
          1   -1    0    0  501    0  0.00000000000E+00 -0.00000000000E+00 -0.39536427975E+03  0.39536427975E+03  0.00000000000E+00 0. -1.
         23    2    1    2    0    0 -0.53770060553E+02 -0.14717883777E+03 -0.32092566342E+02  0.18358482322E+03  0.90114509394E+02 0.  0.
         23    2    1    2    0    0  0.53770060553E+02  0.14717883777E+03 -0.25259037176E+03  0.32246079817E+03  0.12500496290E+03 0.  0.
          5    1    4    4  502    0  0.27261429804E+02 -0.13053372221E+02 -0.78898014892E+02  0.84620108929E+02  0.47000000000E+01 0.  1.
         -5    1    4    4    0  502  0.26508630749E+02  0.16023221000E+03 -0.17369235687E+03  0.23784068924E+03  0.47000000000E+01 0.  1.
        -11    1    3    3    0    0 -0.23699146097E+00 -0.19841300568E+02 -0.40600917036E+02  0.45190351154E+02  0.00000000000E+00 0. -1.
         11    1    3    3    0    0 -0.53533069092E+02 -0.12733753721E+03  0.85083506943E+01  0.13839447207E+03  0.00000000000E+00 0.  1.
<mgrwt>
<rscale>  0 0.19533242E+03</rscale>
<asrwt>0</asrwt>
<pdfrwt beam="2">  1        1 0.60825274E-01 0.20044718E+03</pdfrwt>
<pdfrwt beam="1">  1       -1 0.17027899E-01 0.20044718E+03</pdfrwt>
<totfact> 0.16019328E+03</totfact>
</mgrwt>
</event>
<event>
 8    1  0.1224355E-005  0.1651680E+03  0.7546771E-02  0.1191323E+00
         -1   -1    0    0    0  501 -0.00000000000E+00  0.00000000000E+00  0.48228178412E+03  0.48228178412E+03  0.00000000000E+00 0.  1.
          1   -1    0    0  501    0  0.00000000000E+00 -0.00000000000E+00 -0.47701230293E+02  0.47701230293E+02  0.00000000000E+00 0. -1.
         23    2    1    2    0    0  0.57770025728E+02  0.91195804806E+02  0.21804884089E+03  0.25764782079E+03  0.84752887015E+02 0.  0.
         23    2    1    2    0    0 -0.57770025728E+02 -0.91195804806E+02  0.21653171293E+03  0.27233519362E+03  0.12500569704E+03 0.  0.
          5    1    4    4  502    0 -0.40263269242E+01 -0.73221862306E+02  0.20006742437E+03  0.21313544220E+03  0.47000000000E+01 0.  1.
         -5    1    4    4    0  502 -0.53743698804E+02 -0.17973942499E+02  0.16464288562E+02  0.59199751418E+02  0.47000000000E+01 0.  1.
        -11    1    3    3    0    0  0.49276147503E+02  0.29958135278E+02  0.16949530038E+03  0.17903710630E+03  0.00000000000E+00 0.  1.
         11    1    3    3    0    0  0.84938782254E+01  0.61237669528E+02  0.48553540517E+02  0.78610714493E+02  0.00000000000E+00 0. -1.
<mgrwt>
<rscale>  0 0.15769620E+03</rscale>
<asrwt>0</asrwt>
<pdfrwt beam="2">  1        1 0.73386511E-02 0.16516802E+03</pdfrwt>
<pdfrwt beam="1">  1       -1 0.74197194E-01 0.16516802E+03</pdfrwt>
<totfact> 0.18297661E+03</totfact>
</mgrwt>
</event>
<event>
 7    1  0.1224355E-005  0.1457488E+03  0.7546771E-02  0.1230780E+00
          1   -1    0    0  501    0  0.00000000000E+00  0.00000000000E+00  0.41569226215E+03  0.41569226215E+03  0.00000000000E+00 0. -1.
         -1   -1    0    0    0  501 -0.00000000000E+00 -0.00000000000E+00 -0.32337409159E+02  0.32337409159E+02  0.00000000000E+00 0.  1.
         23    2    1    2    0    0 -0.24155227246E+02 -0.70957893498E+02  0.23856626591E+03  0.27956495070E+03  0.12499680307E+03 0.  0.
          5    1    3    3  502    0 -0.30393145828E+02 -0.75618910169E+02  0.25112403069E+03  0.26405933363E+03  0.47000000000E+01 0.  1.
         -5    1    3    3    0  502  0.62379185823E+01  0.46610166707E+01 -0.12557764776E+02  0.15505617073E+02  0.47000000000E+01 0.  1.
        -11    1    1    2    0    0 -0.11989994554E+02  0.23694102395E+02  0.41719814874E+02  0.49454154637E+02  0.00000000000E+00 0. -1.
         11    1    1    2    0    0  0.36145221800E+02  0.47263791103E+02  0.10306877221E+03  0.11901056597E+03  0.00000000000E+00 0.  1.
<mgrwt>
<rscale>  0 0.12778487E+03</rscale>
<asrwt>0</asrwt>
<pdfrwt beam="1">  1        1 0.63952652E-01 0.14574875E+03</pdfrwt>
<pdfrwt beam="2">  1       -1 0.49749863E-02 0.14574875E+03</pdfrwt>
<totfact> 0.97594351E+03</totfact>
</mgrwt>
</event>
<event>
 8    1  0.1224355E-005  0.1260411E+03  0.7546771E-02  0.1249238E+00
          1   -1    0    0  501    0  0.00000000000E+00  0.00000000000E+00  0.84143261154E+02  0.84143261154E+02  0.00000000000E+00 0. -1.
         -1   -1    0    0    0  501 -0.00000000000E+00 -0.00000000000E+00 -0.17049253935E+03  0.17049253935E+03  0.00000000000E+00 0.  1.
         23    2    1    2    0    0  0.74821447484E+01 -0.14342786255E+02 -0.90239512859E+02  0.12853470240E+03  0.90090521325E+02 0.  0.
         23    2    1    2    0    0 -0.74821447484E+01  0.14342786255E+02  0.38902346624E+01  0.12610109810E+03  0.12499862003E+03 0.  0.
          5    1    4    4  502    0  0.32811638348E+02 -0.41275874155E+02  0.17835910457E+02  0.55861535068E+02  0.47000000000E+01 0.  1.
         -5    1    4    4    0  502 -0.40293783097E+02  0.55618660409E+02 -0.13945675795E+02  0.70239563035E+02  0.47000000000E+01 0.  1.
        -11    1    3    3    0    0  0.40790958027E+02 -0.95420614737E+01 -0.12332129830E+02  0.43669607510E+02  0.00000000000E+00 0. -1.
         11    1    3    3    0    0 -0.33308813279E+02 -0.48007247810E+01 -0.77907383028E+02  0.84865094891E+02  0.00000000000E+00 0.  1.
<mgrwt>
<rscale>  0 0.11635274E+03</rscale>
<asrwt>0</asrwt>
<pdfrwt beam="1">  1        1 0.12945117E-01 0.12604108E+03</pdfrwt>
<pdfrwt beam="2">  1       -1 0.26229621E-01 0.12604108E+03</pdfrwt>
<totfact> 0.55137016E+03</totfact>
</mgrwt>
</event>
<event>
 7    1  0.1224355E-005  0.1202729E+03  0.7546771E-02  0.1281031E+00
          4   -1    0    0  501    0  0.00000000000E+00  0.00000000000E+00  0.10486382168E+03  0.10486382168E+03  0.00000000000E+00 0. -1.
         -4   -1    0    0    0  501 -0.00000000000E+00 -0.00000000000E+00 -0.74854841606E+02  0.74854841606E+02  0.00000000000E+00 0.  1.
         23    2    1    2    0    0  0.31291054658E+02  0.26910039037E+02  0.15992419998E+02  0.12133149103E+03  0.11297031873E+03 0.  0.
          5    1    3    3  502    0  0.14996365066E+02  0.29087552014E+02  0.63089117863E+02  0.71227125732E+02  0.47000000000E+01 0. -1.
         -5    1    3    3    0  502  0.16294689593E+02 -0.21775129765E+01 -0.47096697865E+02  0.50104365293E+02  0.47000000000E+01 0.  1.
        -11    1    1    2    0    0  0.18197045832E+01 -0.22179346186E+02  0.35229215258E+00  0.22256658144E+02  0.00000000000E+00 0. -1.
         11    1    1    2    0    0 -0.33110759241E+02 -0.47306928516E+01  0.13664267921E+02  0.36130514115E+02  0.00000000000E+00 0.  1.
<mgrwt>
<rscale>  0 0.99651288E+02</rscale>
<asrwt>0</asrwt>
<pdfrwt beam="1">  1        4 0.16132896E-01 0.12027291E+03</pdfrwt>
<pdfrwt beam="2">  1       -4 0.11516129E-01 0.12027291E+03</pdfrwt>
<totfact> 0.31447927E+03</totfact>
</mgrwt>
</event>
<event>
 8    1  0.1224355E-005  0.2373704E+03  0.7546771E-02  0.1124747E+00
         -2   -1    0    0    0  501 -0.00000000000E+00  0.00000000000E+00  0.45184508718E+02  0.45184508718E+02  0.00000000000E+00 0.  1.
          2   -1    0    0  501    0  0.00000000000E+00 -0.00000000000E+00 -0.11610054640E+04  0.11610054640E+04  0.00000000000E+00 0. -1.
         23    2    1    2    0    0  0.16110205969E+02 -0.20115182875E+03 -0.58372237347E+03  0.62354632013E+03  0.85770665814E+02 0.  0.
         23    2    1    2    0    0 -0.16110205969E+02  0.20115182875E+03 -0.53209858181E+03  0.58264365259E+03  0.12499251254E+03 0.  0.
          5    1    4    4  502    0 -0.63030799213E+02  0.16829699196E+03 -0.39499893058E+03  0.43398502775E+03  0.47000000000E+01 0. -1.
         -5    1    4    4    0  502  0.46920593244E+02  0.32854836787E+02 -0.13709965123E+03  0.14865862484E+03  0.47000000000E+01 0. -1.
        -11    1    3    3    0    0  0.54456265890E+01 -0.15318890934E+03 -0.52530644983E+03  0.54721418387E+03  0.00000000000E+00 0. -1.
         11    1    3    3    0    0  0.10664579380E+02 -0.47962919408E+02 -0.58415923635E+02  0.76332136258E+02  0.00000000000E+00 0.  1.
<mgrwt>
<rscale>  0 0.23270917E+03</rscale>
<asrwt>0</asrwt>
<pdfrwt beam="2">  1        2 0.17861619E+00 0.23737044E+03</pdfrwt>
<pdfrwt beam="1">  1       -2 0.69514641E-02 0.23737044E+03</pdfrwt>
<totfact> 0.24747856E+03</totfact>
</mgrwt>
</event>
<event>
 8    1  0.1224355E-005  0.1475117E+03  0.7546771E-02  0.1212558E+00
          2   -1    0    0  501    0  0.00000000000E+00  0.00000000000E+00  0.50619997212E+03  0.50619997212E+03  0.00000000000E+00 0. -1.
         -2   -1    0    0    0  501 -0.00000000000E+00 -0.00000000000E+00 -0.59017759862E+02  0.59017759862E+02  0.00000000000E+00 0.  1.
         23    2    1    2    0    0 -0.13049101162E+02 -0.77303226040E+02  0.33746343324E+02  0.12625428782E+03  0.93033659001E+02 0.  0.
         23    2    1    2    0    0  0.13049101162E+02  0.77303226040E+02  0.41343586893E+03  0.43896344416E+03  0.12495447089E+03 0.  0.
          5    1    4    4  502    0  0.38467926957E+02 -0.84359076763E+01  0.24511674523E+03  0.24830476180E+03  0.47000000000E+01 0.  1.
         -5    1    4    4    0  502 -0.25418825796E+02  0.85739133716E+02  0.16831912371E+03  0.19065868236E+03  0.47000000000E+01 0.  1.
        -11    1    3    3    0    0  0.34409073385E+02 -0.62857599138E+02  0.24909811238E+02  0.75865412386E+02  0.00000000000E+00 0. -1.
         11    1    3    3    0    0 -0.47458174547E+02 -0.14445626902E+02  0.88365320864E+01  0.50388875431E+02  0.00000000000E+00 0.  1.
<mgrwt>
<rscale>  0 0.14057476E+03</rscale>
<asrwt>0</asrwt>
<pdfrwt beam="1">  1        2 0.77876916E-01 0.14751165E+03</pdfrwt>
<pdfrwt beam="2">  1       -2 0.90796557E-02 0.14751165E+03</pdfrwt>
<totfact> 0.46086183E+03</totfact>
</mgrwt>
</event>
<event>
 8    1  0.1224355E-005  0.1345714E+03  0.7546771E-02  0.1232532E+00
         -1   -1    0    0    0  501 -0.00000000000E+00  0.00000000000E+00  0.41668457953E+03  0.41668457953E+03  0.00000000000E+00 0.  1.
          1   -1    0    0  501    0  0.00000000000E+00 -0.00000000000E+00 -0.34695985303E+02  0.34695985303E+02  0.00000000000E+00 0. -1.
         23    2    1    2    0    0  0.77389045962E+01 -0.49328632032E+02  0.18043366532E+03  0.20902987970E+03  0.92972998464E+02 0.  0.
         23    2    1    2    0    0 -0.77389045962E+01  0.49328632032E+02  0.20155492891E+03  0.24235068513E+03  0.12496503765E+03 0.  0.
          5    1    4    4  502    0 -0.15418529297E+02 -0.36963383308E+02  0.30533329026E+02  0.50580598381E+02  0.47000000000E+01 0.  1.
         -5    1    4    4    0  502  0.76796247010E+01  0.86292015340E+02  0.17102159988E+03  0.19177008675E+03  0.47000000000E+01 0.  1.
        -11    1    3    3    0    0  0.38720904235E+02 -0.16445288165E+02  0.14679110598E+03  0.15270031016E+03  0.00000000000E+00 0.  1.
         11    1    3    3    0    0 -0.30981999639E+02 -0.32883343868E+02  0.33642559339E+02  0.56329569539E+02  0.00000000000E+00 0. -1.
<mgrwt>
<rscale>  0 0.12663727E+03</rscale>
<asrwt>0</asrwt>
<pdfrwt beam="2">  1        1 0.53378442E-02 0.13457141E+03</pdfrwt>
<pdfrwt beam="1">  1       -1 0.64105316E-01 0.13457141E+03</pdfrwt>
<totfact> 0.37235838E+03</totfact>
</mgrwt>
</event>
<event>
 8    1  0.1224355E-005  0.1253732E+03  0.7546771E-02  0.1249895E+00
          1   -1    0    0  501    0  0.00000000000E+00  0.00000000000E+00  0.31904176727E+03  0.31904176727E+03  0.00000000000E+00 0. -1.
         -1   -1    0    0    0  501 -0.00000000000E+00 -0.00000000000E+00 -0.41618083393E+02  0.41618083393E+02  0.00000000000E+00 0.  1.
         23    2    1    2    0    0 -0.47996061344E+01  0.84143511073E+01  0.59937025994E+02  0.10962421626E+03  0.91275320777E+02 0.  0.
         23    2    1    2    0    0  0.47996061344E+01 -0.84143511073E+01  0.21748665788E+03  0.25103563439E+03  0.12499842342E+03 0.  0.
          5    1    4    4  502    0 -0.28120887526E+02  0.45458025128E+02  0.55885372638E+02  0.77475681595E+02  0.47000000000E+01 0. -1.
         -5    1    4    4    0  502  0.32920493661E+02 -0.53872376235E+02  0.16160128524E+03  0.17355995280E+03  0.47000000000E+01 0. -1.
        -11    1    3    3    0    0 -0.36133908812E+02 -0.24682573606E+02  0.41972289435E+02  0.60634659118E+02  0.00000000000E+00 0.  1.
         11    1    3    3    0    0  0.31334302678E+02  0.33096924713E+02  0.17964736559E+02  0.48989557147E+02  0.00000000000E+00 0. -1.
<mgrwt>
<rscale>  0 0.11597115E+03</rscale>
<asrwt>0</asrwt>
<pdfrwt beam="1">  1        1 0.49083347E-01 0.12537322E+03</pdfrwt>
<pdfrwt beam="2">  1       -1 0.64027823E-02 0.12537322E+03</pdfrwt>
<totfact> 0.92404219E+03</totfact>
</mgrwt>
</event>
<event>
 8    1  0.1224355E-005  0.1211521E+03  0.7546771E-02  0.1254863E+00
         -1   -1    0    0    0  501 -0.00000000000E+00  0.00000000000E+00  0.32951758397E+03  0.32951758397E+03  0.00000000000E+00 0.  1.
          1   -1    0    0  501    0  0.00000000000E+00 -0.00000000000E+00 -0.34558989761E+02  0.34558989761E+02  0.00000000000E+00 0. -1.
         23    2    1    2    0    0 -0.93366877641E+01  0.68224201825E+01  0.13371530974E+03  0.16239062373E+03  0.91417785260E+02 0.  0.
         23    2    1    2    0    0  0.93366877641E+01 -0.68224201825E+01  0.16124328446E+03  0.20168594999E+03  0.12059894894E+03 0.  0.
          5    1    4    4  502    0  0.38301839431E+02 -0.38265086599E+02  0.14644445287E+03  0.15620280258E+03  0.47000000000E+01 0. -1.
         -5    1    4    4    0  502 -0.28965151667E+02  0.31442666416E+02  0.14798831593E+02  0.45483147417E+02  0.47000000000E+01 0.  1.
        -11    1    3    3    0    0 -0.34593178736E+02  0.12538145785E+02  0.13132844819E+03  0.13638568260E+03  0.00000000000E+00 0.  1.
         11    1    3    3    0    0  0.25256490972E+02 -0.57157256025E+01  0.23868615547E+01  0.26004941135E+02  0.00000000000E+00 0. -1.
<mgrwt>
<rscale>  0 0.11314036E+03</rscale>
<asrwt>0</asrwt>
<pdfrwt beam="2">  1        1 0.53167679E-02 0.12115208E+03</pdfrwt>
<pdfrwt beam="1">  1       -1 0.50695011E-01 0.12115208E+03</pdfrwt>
<totfact> 0.57713127E+03</totfact>
</mgrwt>
</event>
<event>
 8    1  0.1504961E-005  0.2278633E+03  0.7546771E-02  0.1131164E+00
          2   -1    0    0  501    0  0.00000000000E+00  0.00000000000E+00  0.96078483636E+03  0.96078483636E+03  0.00000000000E+00 0. -1.
         -2   -1    0    0    0  501 -0.00000000000E+00 -0.00000000000E+00 -0.56312110238E+02  0.56312110238E+02  0.00000000000E+00 0.  1.
         23    2    1    2    0    0 -0.19030196470E+03  0.90328862190E+01  0.27062689007E+03  0.34353758684E+03  0.92101732567E+02 0.  0.
         23    2    1    2    0    0  0.19030196470E+03 -0.90328862190E+01  0.63384583606E+03  0.67355935976E+03  0.12500094574E+03 0.  0.
          5    1    4    4  502    0  0.11419607314E+03 -0.20830743728E+02  0.18735726964E+03  0.22045294167E+03  0.47000000000E+01 0.  1.
         -5    1    4    4    0  502  0.76105891554E+02  0.11797857509E+02  0.44648856642E+03  0.45310641809E+03  0.47000000000E+01 0.  1.
        -11    1    3    3    0    0 -0.62071150212E+02 -0.73000734942E+01  0.16553857543E+03  0.17694388579E+03  0.00000000000E+00 0. -1.
         11    1    3    3    0    0 -0.12823081449E+03  0.16332959713E+02  0.10508831463E+03  0.16659370105E+03  0.00000000000E+00 0.  1.
<mgrwt>
<rscale>  0 0.22368673E+03</rscale>
<asrwt>0</asrwt>
<pdfrwt beam="1">  1        2 0.14781304E+00 0.22786326E+03</pdfrwt>
<pdfrwt beam="2">  1       -2 0.86634023E-02 0.22786326E+03</pdfrwt>
<totfact> 0.23092023E+03</totfact>
</mgrwt>
</event>
<event>
 8    1  0.1224355E-005  0.2752079E+03  0.7546771E-02  0.1100416E+00
         -2   -1    0    0    0  501 -0.00000000000E+00  0.00000000000E+00  0.42221706983E+03  0.42221706983E+03  0.00000000000E+00 0.  1.
          2   -1    0    0  501    0  0.00000000000E+00 -0.00000000000E+00 -0.19911410100E+03  0.19911410100E+03  0.00000000000E+00 0. -1.
         23    2    1    2    0    0  0.80291551425E+02  0.23165734414E+03  0.22758742302E+03  0.34608673229E+03  0.88702496132E+02 0.  0.
         23    2    1    2    0    0 -0.80291551425E+02 -0.23165734414E+03 -0.44844541996E+01  0.27524443854E+03  0.12501012876E+03 0.  0.
          5    1    4    4  502    0 -0.20608214913E+01 -0.90895891422E+02 -0.55046054171E+02  0.10638828950E+03  0.47000000000E+01 0. -1.
         -5    1    4    4    0  502 -0.78230729934E+02 -0.14076145272E+03  0.50561599972E+02  0.16885614904E+03  0.47000000000E+01 0. -1.
        -11    1    3    3    0    0  0.66959834828E+02  0.83661159303E+02  0.62834062144E+02  0.12422128812E+03  0.00000000000E+00 0. -1.
         11    1    3    3    0    0  0.13331716597E+02  0.14799618484E+03  0.16475336088E+03  0.22186544417E+03  0.00000000000E+00 0.  1.
<mgrwt>
<rscale>  0 0.27151468E+03</rscale>
<asrwt>0</asrwt>
<pdfrwt beam="2">  1        2 0.30632939E-01 0.27520790E+03</pdfrwt>
<pdfrwt beam="1">  1       -2 0.64956472E-01 0.27520790E+03</pdfrwt>
<totfact> 0.38509428E+02</totfact>
</mgrwt>
</event>
<event>
 8    1  0.1224355E-005  0.1277447E+03  0.7546771E-02  0.1245074E+00
          1   -1    0    0  501    0  0.00000000000E+00  0.00000000000E+00  0.10342545609E+04  0.10342545609E+04  0.00000000000E+00 0. -1.
         -1   -1    0    0    0  501 -0.00000000000E+00 -0.00000000000E+00 -0.12904419729E+02  0.12904419729E+02  0.00000000000E+00 0.  1.
         23    2    1    2    0    0 -0.23251065275E+00 -0.26303350417E+02  0.30900802377E+03  0.32345323939E+03  0.91891887608E+02 0.  0.
         23    2    1    2    0    0  0.23251065275E+00  0.26303350417E+02  0.71234211741E+03  0.72370574126E+03  0.12500714934E+03 0.  0.
          5    1    4    4  502    0 -0.38695231304E+02  0.16719081066E+02  0.63543915918E+03  0.63685309422E+03  0.47000000000E+01 0.  1.
         -5    1    4    4    0  502  0.38927741957E+02  0.95842693509E+01  0.76902958237E+02  0.86852647043E+02  0.47000000000E+01 0.  1.
        -11    1    3    3    0    0  0.41136089349E+02 -0.99131229901E+01  0.83637617588E+02  0.93732059244E+02  0.00000000000E+00 0.  1.
         11    1    3    3    0    0 -0.41368600002E+02 -0.16390227427E+02  0.22537040619E+03  0.22972118014E+03  0.00000000000E+00 0. -1.
<mgrwt>
<rscale>  0 0.11880970E+03</rscale>
<asrwt>0</asrwt>
<pdfrwt beam="1">  1        1 0.15911602E+00 0.12774470E+03</pdfrwt>
<pdfrwt beam="2">  1       -1 0.19852962E-02 0.12774470E+03</pdfrwt>
<totfact> 0.10048890E+04</totfact>
</mgrwt>
</event>
<event>
 7    1  0.1224355E-005  0.2045387E+03  0.7546771E-02  0.1175508E+00
          2   -1    0    0  501    0  0.00000000000E+00  0.00000000000E+00  0.58142794981E+03  0.58142794981E+03  0.00000000000E+00 0. -1.
         -2   -1    0    0    0  501 -0.00000000000E+00 -0.00000000000E+00 -0.46814700545E+02  0.46814700545E+02  0.00000000000E+00 0.  1.
         23    2    1    2    0    0 -0.43627426282E+02 -0.44340297283E+01  0.82077469778E+02  0.13162941001E+03  0.93094455204E+02 0.  0.
          5    1    1    2  502    0  0.91916068268E+02  0.68642200721E+02  0.33530404686E+03  0.35441671683E+03  0.47000000000E+01 0. -1.
         -5    1    1    2    0  502 -0.48288641987E+02 -0.64208170993E+02  0.11723173262E+03  0.14219652352E+03  0.47000000000E+01 0.  1.
        -11    1    3    3    0    0  0.29156205953E+02  0.41658200238E+01  0.26939252806E+02  0.39914430270E+02  0.00000000000E+00 0. -1.
         11    1    3    3    0    0 -0.72783632235E+02 -0.85998497521E+01  0.55138216973E+02  0.91714979736E+02  0.00000000000E+00 0.  1.
<mgrwt>
<rscale>  0 0.17226280E+03</rscale>
<asrwt>0</asrwt>
<pdfrwt beam="1">  1        2 0.89450449E-01 0.20453870E+03</pdfrwt>
<pdfrwt beam="2">  1       -2 0.72022620E-02 0.20453870E+03</pdfrwt>
<totfact> 0.57389707E+03</totfact>
</mgrwt>
</event>
<event>
 8    1  0.1224355E-005  0.1310477E+03  0.7546771E-02  0.1239437E+00
          1   -1    0    0  501    0  0.00000000000E+00  0.00000000000E+00  0.22300509051E+03  0.22300509051E+03  0.00000000000E+00 0. -1.
         -1   -1    0    0    0  501 -0.00000000000E+00 -0.00000000000E+00 -0.66187706251E+02  0.66187706251E+02  0.00000000000E+00 0.  1.
         23    2    1    2    0    0 -0.32139524274E+02 -0.22771068517E+02  0.22934341218E+02  0.10184771020E+03  0.91079643631E+02 0.  0.
         23    2    1    2    0    0  0.32139524274E+02  0.22771068517E+02  0.13388304304E+03  0.18734508656E+03  0.12498816609E+03 0.  0.
          5    1    4    4  502    0 -0.13453999365E+02  0.46826017342E+02  0.59133803154E+01  0.49302576664E+02  0.47000000000E+01 0. -1.
         -5    1    4    4    0  502  0.45593523638E+02 -0.24054948824E+02  0.12796966273E+03  0.13804250990E+03  0.47000000000E+01 0. -1.
        -11    1    3    3    0    0 -0.37683352777E+02  0.11375842619E+01 -0.26889221488E+02  0.46307228450E+02  0.00000000000E+00 0.  1.
         11    1    3    3    0    0  0.55438285038E+01 -0.23908652779E+02  0.49823562707E+02  0.55540481750E+02  0.00000000000E+00 0. -1.
<mgrwt>
<rscale>  0 0.12224610E+03</rscale>
<asrwt>0</asrwt>
<pdfrwt beam="1">  1        1 0.34308475E-01 0.13104775E+03</pdfrwt>
<pdfrwt beam="2">  1       -1 0.10182724E-01 0.13104775E+03</pdfrwt>
<totfact> 0.71683445E+03</totfact>
</mgrwt>
</event>
<event>
 8    1  0.1224355E-005  0.2271275E+03  0.7546771E-02  0.1131679E+00
         -2   -1    0    0    0  501 -0.00000000000E+00  0.00000000000E+00  0.41609238432E+02  0.41609238432E+02  0.00000000000E+00 0.  1.
          2   -1    0    0  501    0  0.00000000000E+00 -0.00000000000E+00 -0.13002309114E+04  0.13002309114E+04  0.00000000000E+00 0. -1.
         23    2    1    2    0    0 -0.18794447856E+03 -0.25269898911E+02 -0.38335035945E+03  0.43757980596E+03  0.92503479290E+02 0.  0.
         23    2    1    2    0    0  0.18794447856E+03  0.25269898911E+02 -0.87527131351E+03  0.90426034386E+03  0.12500080966E+03 0.  0.
          5    1    4    4  502    0  0.54775515723E+02  0.17177415119E+02 -0.54491048784E+03  0.54794612005E+03  0.47000000000E+01 0. -1.
         -5    1    4    4    0  502  0.13316896284E+03  0.80924837920E+01 -0.33036082566E+03  0.35631422381E+03  0.47000000000E+01 0. -1.
        -11    1    3    3    0    0 -0.84283460337E+02 -0.22865068207E+02 -0.85577298931E+02  0.12227013995E+03  0.00000000000E+00 0.  1.
         11    1    3    3    0    0 -0.10366101823E+03 -0.24048307032E+01 -0.29777306052E+03  0.31530966601E+03  0.00000000000E+00 0. -1.
<mgrwt>
<rscale>  0 0.22298207E+03</rscale>
<asrwt>0</asrwt>
<pdfrwt beam="2">  1        2 0.20003551E+00 0.22712749E+03</pdfrwt>
<pdfrwt beam="1">  1       -2 0.64014218E-02 0.22712749E+03</pdfrwt>
<totfact> 0.23471367E+03</totfact>
</mgrwt>
</event>
<event>
 8    1  0.1224355E-005  0.1526396E+03  0.7546771E-02  0.1206359E+00
          1   -1    0    0  501    0  0.00000000000E+00  0.00000000000E+00  0.10606639489E+03  0.10606639489E+03  0.00000000000E+00 0. -1.
         -1   -1    0    0    0  501 -0.00000000000E+00 -0.00000000000E+00 -0.18587791281E+03  0.18587791281E+03  0.00000000000E+00 0.  1.
         23    2    1    2    0    0 -0.65568646397E+02  0.58091718807E+02 -0.56610856975E+02  0.13755154447E+03  0.89675766377E+02 0.  0.
         23    2    1    2    0    0  0.65568646397E+02 -0.58091718807E+02 -0.23200660952E+02  0.15439276323E+03  0.12499983794E+03 0.  0.
          5    1    4    4  502    0  0.41795180274E+02 -0.50825296508E+02  0.46190222766E+02  0.80533685737E+02  0.47000000000E+01 0.  1.
         -5    1    4    4    0  502  0.23773466123E+02 -0.72664222987E+01 -0.69390883718E+02  0.73859077490E+02  0.47000000000E+01 0.  1.
        -11    1    3    3    0    0 -0.65209689757E+02  0.49542963379E+01 -0.86453295284E+01  0.65966585580E+02  0.00000000000E+00 0. -1.
         11    1    3    3    0    0 -0.35895663961E+00  0.53137422469E+02 -0.47965527447E+02  0.71584958894E+02  0.00000000000E+00 0.  1.
<mgrwt>
<rscale>  0 0.14530882E+03</rscale>
<asrwt>0</asrwt>
<pdfrwt beam="1">  1        1 0.16317907E-01 0.15263962E+03</pdfrwt>
<pdfrwt beam="2">  1       -1 0.28596602E-01 0.15263962E+03</pdfrwt>
<totfact> 0.35780751E+03</totfact>
</mgrwt>
</event>
<event>
 7    1  0.1224355E-005  0.2382878E+03  0.7546771E-02  0.1146311E+00
          2   -1    0    0  501    0  0.00000000000E+00  0.00000000000E+00  0.64042534987E+03  0.64042534987E+03  0.00000000000E+00 0. -1.
         -2   -1    0    0    0  501 -0.00000000000E+00 -0.00000000000E+00 -0.12819909201E+03  0.12819909201E+03  0.00000000000E+00 0.  1.
         23    2    1    2    0    0 -0.83011649955E+02 -0.36918178450E+02 -0.65236064491E+02  0.14392946402E+03  0.90587309130E+02 0.  0.
          5    1    1    2  502    0 -0.42672242211E+02  0.81843081653E+02  0.33908674901E+03  0.35145572072E+03  0.47000000000E+01 0. -1.
         -5    1    1    2    0  502  0.12568389217E+03 -0.44924903203E+02  0.23837557333E+03  0.27323925714E+03  0.47000000000E+01 0.  1.
        -11    1    3    3    0    0  0.17797117026E+01 -0.12994272458E+02 -0.53458541167E+02  0.55043928950E+02  0.00000000000E+00 0.  1.
         11    1    3    3    0    0 -0.84791361657E+02 -0.23923905992E+02 -0.11777523323E+02  0.88885535073E+02  0.00000000000E+00 0. -1.
<mgrwt>
<rscale>  0 0.20411735E+03</rscale>
<asrwt>0</asrwt>
<pdfrwt beam="1">  1        2 0.98526975E-01 0.23828781E+03</pdfrwt>
<pdfrwt beam="2">  1       -2 0.19722938E-01 0.23828781E+03</pdfrwt>
<totfact> 0.10074491E+03</totfact>
</mgrwt>
</event>
<event>
 8    1  0.1224355E-005  0.1494515E+03  0.7546771E-02  0.1210469E+00
         -2   -1    0    0    0  501 -0.00000000000E+00  0.00000000000E+00  0.59487754986E+02  0.59487754986E+02  0.00000000000E+00 0.  1.
          2   -1    0    0  501    0  0.00000000000E+00 -0.00000000000E+00 -0.80440815951E+03  0.80440815951E+03  0.00000000000E+00 0. -1.
         23    2    1    2    0    0  0.76189654895E+02  0.36001866898E+02 -0.20245716165E+02  0.12397080386E+03  0.88644645932E+02 0.  0.
         23    2    1    2    0    0 -0.76189654895E+02 -0.36001866898E+02 -0.72467468836E+03  0.73992511064E+03  0.12342920026E+03 0.  0.
          5    1    4    4  502    0 -0.10149337806E+03 -0.49765311283E+02 -0.46274133658E+03  0.47637078686E+03  0.47000000000E+01 0. -1.
         -5    1    4    4    0  502  0.25303723166E+02  0.13763444385E+02 -0.26193335178E+03  0.26355432378E+03  0.47000000000E+01 0.  1.
        -11    1    3    3    0    0  0.95906671892E+02  0.36100250187E+02 -0.18929883225E+02  0.10420968408E+03  0.00000000000E+00 0.  1.
         11    1    3    3    0    0 -0.19717016997E+02 -0.98383288686E-01 -0.13158329401E+01  0.19761119777E+02  0.00000000000E+00 0. -1.
<mgrwt>
<rscale>  0 0.14214699E+03</rscale>
<asrwt>0</asrwt>
<pdfrwt beam="2">  1        2 0.12375510E+00 0.14945155E+03</pdfrwt>
<pdfrwt beam="1">  1       -2 0.91519626E-02 0.14945155E+03</pdfrwt>
<totfact> 0.26540048E+03</totfact>
</mgrwt>
</event>
<event>
 8    1  0.1224355E-005  0.1443366E+03  0.7546771E-02  0.1217416E+00
         -2   -1    0    0    0  501 -0.00000000000E+00  0.00000000000E+00  0.34953206090E+03  0.34953206090E+03  0.00000000000E+00 0.  1.
          2   -1    0    0  501    0  0.00000000000E+00 -0.00000000000E+00 -0.50506147537E+02  0.50506147537E+02  0.00000000000E+00 0. -1.
         23    2    1    2    0    0  0.71673480968E+02  0.83700704963E+01  0.16981057046E+03  0.20631250342E+03  0.92315076086E+02 0.  0.
         23    2    1    2    0    0 -0.71673480968E+02 -0.83700704963E+01  0.12921534290E+03  0.19372570502E+03  0.12500359191E+03 0.  0.
          5    1    4    4  502    0 -0.10216006976E+03 -0.19835232932E+02  0.12127184366E+03  0.15987203127E+03  0.47000000000E+01 0. -1.
         -5    1    4    4    0  502  0.30486588791E+02  0.11465162436E+02  0.79434992411E+01  0.33853673744E+02  0.47000000000E+01 0. -1.
        -11    1    3    3    0    0  0.68939429948E+02 -0.28596306377E+02  0.14036119195E+03  0.15897061976E+03  0.00000000000E+00 0.  1.
         11    1    3    3    0    0  0.27340510204E+01  0.36966376873E+02  0.29449378509E+02  0.47341883662E+02  0.00000000000E+00 0. -1.
<mgrwt>
<rscale>  0 0.13700550E+03</rscale>
<asrwt>0</asrwt>
<pdfrwt beam="2">  1        2 0.77701768E-02 0.14433656E+03</pdfrwt>
<pdfrwt beam="1">  1       -2 0.53774162E-01 0.14433656E+03</pdfrwt>
<totfact> 0.28175635E+03</totfact>
</mgrwt>
</event>
<event>
 8    1  0.1224355E-005  0.1273277E+03  0.7546771E-02  0.1241503E+00
         -2   -1    0    0    0  501 -0.00000000000E+00  0.00000000000E+00  0.44871478660E+02  0.44871478660E+02  0.00000000000E+00 0.  1.
          2   -1    0    0  501    0  0.00000000000E+00 -0.00000000000E+00 -0.40001300800E+03  0.40001300800E+03  0.00000000000E+00 0. -1.
         23    2    1    2    0    0 -0.47426555193E+02  0.16230439143E+02 -0.51913199309E+02  0.11600797068E+03  0.90830411794E+02 0.  0.
         23    2    1    2    0    0  0.47426555193E+02 -0.16230439143E+02 -0.30322833003E+03  0.32887651598E+03  0.11704544988E+03 0.  0.
          5    1    4    4  502    0 -0.70754269589E+01 -0.46362571013E+02 -0.21902904374E+03  0.22404321382E+03  0.47000000000E+01 0. -1.
         -5    1    4    4    0  502  0.54501982152E+02  0.30132131869E+02 -0.84199286296E+02  0.10483330216E+03  0.47000000000E+01 0.  1.
        -11    1    3    3    0    0 -0.55142738152E+02  0.35541385415E+02 -0.63344319652E+01  0.65909306448E+02  0.00000000000E+00 0.  1.
         11    1    3    3    0    0  0.77161829584E+01 -0.19310946272E+02 -0.45578767344E+02  0.50098664234E+02  0.00000000000E+00 0. -1.
<mgrwt>
<rscale>  0 0.12097153E+03</rscale>
<asrwt>0</asrwt>
<pdfrwt beam="2">  1        2 0.61540464E-01 0.12732770E+03</pdfrwt>
<pdfrwt beam="1">  1       -2 0.69033043E-02 0.12732770E+03</pdfrwt>
<totfact> 0.90007711E+03</totfact>
</mgrwt>
</event>
<event>
 8    1  0.1224355E-005  0.2104717E+03  0.7546771E-02  0.1144952E+00
         -1   -1    0    0    0  501 -0.00000000000E+00  0.00000000000E+00  0.84033976153E+02  0.84033976153E+02  0.00000000000E+00 0.  1.
          1   -1    0    0  501    0  0.00000000000E+00 -0.00000000000E+00 -0.72040045808E+03  0.72040045808E+03  0.00000000000E+00 0. -1.
         23    2    1    2    0    0  0.62364433865E+02 -0.15741820496E+03 -0.77682367725E+02  0.20741995652E+03  0.91206766424E+02 0.  0.
         23    2    1    2    0    0 -0.62364433865E+02  0.15741820496E+03 -0.55868411420E+03  0.59701447771E+03  0.12501413230E+03 0.  0.
          5    1    4    4  502    0  0.30232947913E+01  0.28762776794E+02 -0.12136986837E+02  0.31714887510E+02  0.47000000000E+01 0.  1.
         -5    1    4    4    0  502 -0.65387728656E+02  0.12865542817E+03 -0.54654712736E+03  0.56529959020E+03  0.47000000000E+01 0.  1.
        -11    1    3    3    0    0  0.15423602896E+02 -0.13338209925E+03 -0.32920536550E+02  0.13824772567E+03  0.00000000000E+00 0.  1.
         11    1    3    3    0    0  0.46940830969E+02 -0.24036105710E+02 -0.44761831175E+02  0.69172230844E+02  0.00000000000E+00 0. -1.
<mgrwt>
<rscale>  0 0.20578023E+03</rscale>
<asrwt>0</asrwt>
<pdfrwt beam="2">  1        1 0.11083083E+00 0.21047173E+03</pdfrwt>
<pdfrwt beam="1">  1       -1 0.12928305E-01 0.21047173E+03</pdfrwt>
<totfact> 0.11015046E+03</totfact>
</mgrwt>
</event>
<event>
 8    1  0.1224355E-005  0.1686276E+03  0.7546771E-02  0.1185983E+00
          1   -1    0    0  501    0  0.00000000000E+00  0.00000000000E+00  0.69570176490E+03  0.69570176490E+03  0.00000000000E+00 0. -1.
         -1   -1    0    0    0  501 -0.00000000000E+00 -0.00000000000E+00 -0.41650639867E+02  0.41650639867E+02  0.00000000000E+00 0.  1.
         23    2    1    2    0    0  0.11318263602E+03  0.95584123434E+00  0.16357027083E+03  0.21869380450E+03  0.90887424328E+02 0.  0.
         23    2    1    2    0    0 -0.11318263602E+03 -0.95584123434E+00  0.49048085421E+03  0.51865860026E+03  0.12499621016E+03 0.  0.
          5    1    4    4  502    0  0.16744010988E+02 -0.17565108862E+02  0.25319960067E+02  0.35384817805E+02  0.47000000000E+01 0. -1.
         -5    1    4    4    0  502 -0.12992664701E+03  0.16609267628E+02  0.46516089414E+03  0.48327378246E+03  0.47000000000E+01 0. -1.
        -11    1    3    3    0    0  0.57889544378E+02  0.34159358416E+02  0.12913259509E+03  0.14557914765E+03  0.00000000000E+00 0. -1.
         11    1    3    3    0    0  0.55293091645E+02 -0.33203517182E+02  0.34437675737E+02  0.73114656855E+02  0.00000000000E+00 0.  1.
<mgrwt>
<rscale>  0 0.16242733E+03</rscale>
<asrwt>0</asrwt>
<pdfrwt beam="1">  1        1 0.10703103E+00 0.16862762E+03</pdfrwt>
<pdfrwt beam="2">  1       -1 0.64077913E-02 0.16862762E+03</pdfrwt>
<totfact> 0.33834861E+03</totfact>
</mgrwt>
</event>
<event>
 8    1  0.1224355E-005  0.1330048E+03  0.7546771E-02  0.1235258E+00
         -1   -1    0    0    0  501 -0.00000000000E+00  0.00000000000E+00  0.10780433163E+02  0.10780433163E+02  0.00000000000E+00 0.  1.
          1   -1    0    0  501    0  0.00000000000E+00 -0.00000000000E+00 -0.12972421300E+04  0.12972421300E+04  0.00000000000E+00 0. -1.
         23    2    1    2    0    0  0.30495001128E+02 -0.33631785641E+02 -0.53967005113E+03  0.54947919778E+03  0.92857862393E+02 0.  0.
         23    2    1    2    0    0 -0.30495001128E+02  0.33631785641E+02 -0.74679164567E+03  0.75854336535E+03  0.12501693073E+03 0.  0.
          5    1    4    4  502    0 -0.43349738002E+02  0.53362749630E+02 -0.71688277109E+03  0.72018732308E+03  0.47000000000E+01 0. -1.
         -5    1    4    4    0  502  0.12854736874E+02 -0.19730963989E+02 -0.29908874582E+02  0.38356042272E+02  0.47000000000E+01 0. -1.
        -11    1    3    3    0    0 -0.21230289140E+02 -0.45571362562E+02 -0.26430151869E+03  0.26904045615E+03  0.00000000000E+00 0.  1.
         11    1    3    3    0    0  0.51725290268E+02  0.11939576921E+02 -0.27536853244E+03  0.28043874163E+03  0.00000000000E+00 0. -1.
<mgrwt>
<rscale>  0 0.12487925E+03</rscale>
<asrwt>0</asrwt>
<pdfrwt beam="2">  1        1 0.19957583E+00 0.13300479E+03</pdfrwt>
<pdfrwt beam="1">  1       -1 0.16585272E-02 0.13300479E+03</pdfrwt>
<totfact> 0.85838655E+03</totfact>
</mgrwt>
</event>
<event>
 8    1  0.1224355E-005  0.1255169E+03  0.7546771E-02  0.1251496E+00
          1   -1    0    0  501    0  0.00000000000E+00  0.00000000000E+00  0.14411810544E+04  0.14411810544E+04  0.00000000000E+00 0. -1.
         -1   -1    0    0    0  501 -0.00000000000E+00 -0.00000000000E+00 -0.11016935660E+02  0.11016935660E+02  0.00000000000E+00 0.  1.
         23    2    1    2    0    0  0.91719876942E+01  0.66735188982E+01  0.24726962599E+03  0.26266284318E+03  0.87868310773E+02 0.  0.
         23    2    1    2    0    0 -0.91719876942E+01 -0.66735188982E+01  0.11828944928E+04  0.11895351469E+04  0.12500329383E+03 0.  0.
          5    1    4    4  502    0  0.45177324196E+02  0.13346946010E+02  0.87021448517E+03  0.87150127469E+03  0.47000000000E+01 0. -1.
         -5    1    4    4    0  502 -0.54349311890E+02 -0.20020464908E+02  0.31268000758E+03  0.31803387219E+03  0.47000000000E+01 0. -1.
        -11    1    3    3    0    0  0.18872300945E+02 -0.29994210762E+02  0.47160907052E+02  0.58991249997E+02  0.00000000000E+00 0.  1.
         11    1    3    3    0    0 -0.97003132508E+01  0.36667729660E+02  0.20010871893E+03  0.20367159318E+03  0.00000000000E+00 0. -1.
<mgrwt>
<rscale>  0 0.11504873E+03</rscale>
<asrwt>0</asrwt>
<pdfrwt beam="1">  1        1 0.22172001E+00 0.12551687E+03</pdfrwt>
<pdfrwt beam="2">  1       -1 0.16949143E-02 0.12551687E+03</pdfrwt>
<totfact> 0.66710225E+03</totfact>
</mgrwt>
</event>
<event>
 7    1  0.1224355E-005  0.6834993E+03  0.7546771E-02  0.9745874E-01
          1   -1    0    0  501    0  0.00000000000E+00  0.00000000000E+00  0.42528718289E+03  0.42528718289E+03  0.00000000000E+00 0. -1.
         -1   -1    0    0    0  501 -0.00000000000E+00 -0.00000000000E+00 -0.27462108358E+03  0.27462108358E+03  0.00000000000E+00 0.  1.
         23    2    1    2    0    0 -0.12487337731E+03  0.13484047382E+03 -0.15821527679E+03  0.25964581892E+03  0.92782346013E+02 0.  0.
          5    1    1    2  502    0  0.15942093185E+03 -0.17547170322E+03  0.30534696908E+03  0.38660601867E+03  0.47000000000E+01 0. -1.
         -5    1    1    2    0  502 -0.34547554542E+02  0.40631229401E+02  0.35344070103E+01  0.53656428882E+02  0.47000000000E+01 0.  1.
        -11    1    3    3    0    0 -0.11910142281E+03  0.14889868454E+03 -0.14695895357E+03  0.24073408817E+03  0.00000000000E+00 0.  1.
         11    1    3    3    0    0 -0.57719544978E+01 -0.14058210721E+02 -0.11256323220E+02  0.18911730746E+02  0.00000000000E+00 0. -1.
<mgrwt>
<rscale>  0 0.68349931E+03</rscale>
<asrwt>0</asrwt>
<pdfrwt beam="1">  1        1 0.65428797E-01 0.68349931E+03</pdfrwt>
<pdfrwt beam="2">  1       -1 0.42249398E-01 0.68349931E+03</pdfrwt>
<totfact> 0.30831149E+02</totfact>
</mgrwt>
</event>
<event>
 8    1  0.1224355E-005  0.1403489E+03  0.7546771E-02  0.1219273E+00
          2   -1    0    0  501    0  0.00000000000E+00  0.00000000000E+00  0.30240452040E+02  0.30240452040E+02  0.00000000000E+00 0. -1.
         -2   -1    0    0    0  501 -0.00000000000E+00 -0.00000000000E+00 -0.61835490163E+03  0.61835490163E+03  0.00000000000E+00 0.  1.
         23    2    1    2    0    0 -0.58215779379E+02  0.56173815144E+02 -0.36482389604E+03  0.38485969709E+03  0.92064851311E+02 0.  0.
         23    2    1    2    0    0  0.58215779379E+02 -0.56173815144E+02 -0.22329055355E+03  0.26373565657E+03  0.11468762256E+03 0.  0.
          5    1    4    4  502    0  0.76215066456E+02 -0.71448904735E+02 -0.12715974928E+03  0.16463709843E+03  0.47000000000E+01 0. -1.
         -5    1    4    4    0  502 -0.17999287077E+02  0.15275089591E+02 -0.96130804267E+02  0.99098558144E+02  0.47000000000E+01 0.  1.
        -11    1    3    3    0    0 -0.58228331353E+02  0.12084064656E+02 -0.30385222938E+03  0.30961708688E+03  0.00000000000E+00 0.  1.
         11    1    3    3    0    0  0.12551973628E-01  0.44089750488E+02 -0.60971666660E+02  0.75242610208E+02  0.00000000000E+00 0. -1.
<mgrwt>
<rscale>  0 0.13567269E+03</rscale>
<asrwt>0</asrwt>
<pdfrwt beam="1">  1        2 0.46523776E-02 0.14034894E+03</pdfrwt>
<pdfrwt beam="2">  1       -2 0.95131515E-01 0.14034894E+03</pdfrwt>
<totfact> 0.16090109E+03</totfact>
</mgrwt>
</event>
<event>
 8    1  0.1224355E-005  0.1499238E+03  0.7546771E-02  0.1209526E+00
         -2   -1    0    0    0  501 -0.00000000000E+00  0.00000000000E+00  0.66804761641E+02  0.66804761641E+02  0.00000000000E+00 0.  1.
          2   -1    0    0  501    0  0.00000000000E+00 -0.00000000000E+00 -0.39078256133E+03  0.39078256133E+03  0.00000000000E+00 0. -1.
         23    2    1    2    0    0 -0.78307807913E+01 -0.82402542610E+02 -0.29419869695E+02  0.12707027439E+03  0.91814082495E+02 0.  0.
         23    2    1    2    0    0  0.78307807913E+01  0.82402542610E+02 -0.29455792999E+03  0.33051704858E+03  0.12500258047E+03 0.  0.
          5    1    4    4  502    0  0.34195909253E+02  0.50046956762E+02 -0.27928449794E+03  0.28582508441E+03  0.47000000000E+01 0. -1.
         -5    1    4    4    0  502 -0.26365128462E+02  0.32355585849E+02 -0.15273432054E+02  0.44691964167E+02  0.47000000000E+01 0. -1.
        -11    1    3    3    0    0  0.22100692140E+02 -0.85446505450E+02 -0.37536181473E+02  0.95908867193E+02  0.00000000000E+00 0. -1.
         11    1    3    3    0    0 -0.29931472931E+02  0.30439628402E+01  0.81163117779E+01  0.31161407197E+02  0.00000000000E+00 0.  1.
<mgrwt>
<rscale>  0 0.14286408E+03</rscale>
<asrwt>0</asrwt>
<pdfrwt beam="2">  1        2 0.60120393E-01 0.14992380E+03</pdfrwt>
<pdfrwt beam="1">  1       -2 0.10277656E-01 0.14992380E+03</pdfrwt>
<totfact> 0.50272719E+03</totfact>
</mgrwt>
</event>
<event>
 8    1  0.1224355E-005  0.1345502E+03  0.7546771E-02  0.1233040E+00
          1   -1    0    0  501    0  0.00000000000E+00  0.00000000000E+00  0.13270430476E+03  0.13270430476E+03  0.00000000000E+00 0. -1.
         -1   -1    0    0    0  501 -0.00000000000E+00 -0.00000000000E+00 -0.10920829153E+03  0.10920829153E+03  0.00000000000E+00 0.  1.
         23    2    1    2    0    0 -0.81587801925E+01  0.49118113550E+02  0.24658041062E+02  0.10735734950E+03  0.91860909691E+02 0.  0.
         23    2    1    2    0    0  0.81587801925E+01 -0.49118113550E+02 -0.11620278273E+01  0.13455524679E+03  0.12499843742E+03 0.  0.
          5    1    4    4  502    0 -0.43875065523E+02 -0.40090007175E+02 -0.37360143253E+02  0.70356949577E+02  0.47000000000E+01 0.  1.
         -5    1    4    4    0  502  0.52033845716E+02 -0.90281063742E+01  0.36198115425E+02  0.64198297213E+02  0.47000000000E+01 0.  1.
        -11    1    3    3    0    0 -0.55100231075E+01 -0.26359145770E+02 -0.26253634564E+01  0.27056560270E+02  0.00000000000E+00 0.  1.
         11    1    3    3    0    0 -0.26487570850E+01  0.75477259320E+02  0.27283404519E+02  0.80300789228E+02  0.00000000000E+00 0. -1.
<mgrwt>
<rscale>  0 0.12630750E+03</rscale>
<asrwt>0</asrwt>
<pdfrwt beam="1">  1        1 0.20416047E-01 0.13455023E+03</pdfrwt>
<pdfrwt beam="2">  1       -1 0.16801276E-01 0.13455023E+03</pdfrwt>
<totfact> 0.63215660E+03</totfact>
</mgrwt>
</event>
<event>
 7    1  0.1224355E-005  0.2967793E+03  0.7546771E-02  0.1086862E+00
          2   -1    0    0  501    0  0.00000000000E+00  0.00000000000E+00  0.52856478276E+03  0.52856478276E+03  0.00000000000E+00 0. -1.
         -2   -1    0    0    0  501 -0.00000000000E+00 -0.00000000000E+00 -0.41659019827E+02  0.41659019827E+02  0.00000000000E+00 0.  1.
         23    2    1    2    0    0 -0.14277728306E+02 -0.19673161717E+02  0.32232679418E+03  0.34656908537E+03  0.12499872749E+03 0.  0.
          5    1    3    3  502    0 -0.62016154480E+02  0.16219931611E+02  0.20485895378E+03  0.21470531093E+03  0.47000000000E+01 0.  1.
         -5    1    3    3    0  502  0.47738426174E+02 -0.35893093328E+02  0.11746784040E+03  0.13186377444E+03  0.47000000000E+01 0.  1.
        -11    1    1    2    0    0 -0.25165169681E+02 -0.53300201165E+02  0.10865586945E+03  0.12361349108E+03  0.00000000000E+00 0.  1.
         11    1    1    2    0    0  0.39442897986E+02  0.72973362882E+02  0.55923099300E+02  0.10004122614E+03  0.00000000000E+00 0. -1.
<mgrwt>
<rscale>  0 0.29677932E+03</rscale>
<asrwt>0</asrwt>
<pdfrwt beam="1">  1        2 0.81317654E-01 0.29677932E+03</pdfrwt>
<pdfrwt beam="2">  1       -2 0.64090803E-02 0.29677932E+03</pdfrwt>
<totfact> 0.77966509E+03</totfact>
</mgrwt>
</event>
<event>
 8    1  0.1224355E-005  0.1495292E+03  0.7546771E-02  0.1209850E+00
         -1   -1    0    0    0  501 -0.00000000000E+00  0.00000000000E+00  0.74635659628E+02  0.74635659628E+02  0.00000000000E+00 0.  1.
          1   -1    0    0  501    0  0.00000000000E+00 -0.00000000000E+00 -0.36779218305E+03  0.36779218305E+03  0.00000000000E+00 0. -1.
         23    2    1    2    0    0  0.61561407752E+01  0.81829287077E+02 -0.12432539381E+02  0.12436347898E+03  0.92616286779E+02 0.  0.
         23    2    1    2    0    0 -0.61561407752E+01 -0.81829287077E+02 -0.28072398404E+03  0.31806436369E+03  0.12500021578E+03 0.  0.
          5    1    4    4  502    0 -0.31372325541E+02 -0.10819210195E+03 -0.21162102645E+03  0.23978178115E+03  0.47000000000E+01 0.  1.
         -5    1    4    4    0  502  0.25216184766E+02  0.26362814877E+02 -0.69102957588E+02  0.78282582544E+02  0.47000000000E+01 0.  1.
        -11    1    3    3    0    0 -0.40177148378E+02  0.40144965587E+02  0.10866081399E+02  0.57826406068E+02  0.00000000000E+00 0.  1.
         11    1    3    3    0    0  0.46333289154E+02  0.41684321490E+02 -0.23298620781E+02  0.66537072915E+02  0.00000000000E+00 0. -1.
<mgrwt>
<rscale>  0 0.14261739E+03</rscale>
<asrwt>0</asrwt>
<pdfrwt beam="2">  1        1 0.56583412E-01 0.14952921E+03</pdfrwt>
<pdfrwt beam="1">  1       -1 0.11482409E-01 0.14952921E+03</pdfrwt>
<totfact> 0.32280493E+03</totfact>
</mgrwt>
</event>
<event>
 8    1  0.1224355E-005  0.2040272E+03  0.7546771E-02  0.1150748E+00
          1   -1    0    0  501    0  0.00000000000E+00  0.00000000000E+00  0.16243098853E+03  0.16243098853E+03  0.00000000000E+00 0. -1.
         -1   -1    0    0    0  501 -0.00000000000E+00 -0.00000000000E+00 -0.23555469660E+03  0.23555469660E+03  0.00000000000E+00 0.  1.
         23    2    1    2    0    0 -0.12192426548E+03  0.10553066133E+03 -0.60229932843E+02  0.19355149167E+03  0.88500215376E+02 0.  0.
         23    2    1    2    0    0  0.12192426548E+03 -0.10553066133E+03 -0.12893775234E+02  0.20443419346E+03  0.12499937208E+03 0.  0.
          5    1    4    4  502    0  0.61538752712E+02 -0.14097525314E+01 -0.48852715670E+02  0.78725366407E+02  0.47000000000E+01 0.  1.
         -5    1    4    4    0  502  0.60385512772E+02 -0.10412090880E+03  0.35958940436E+02  0.12570882706E+03  0.47000000000E+01 0.  1.
        -11    1    3    3    0    0 -0.19139877591E+02  0.31750078819E+02 -0.55746810006E+02  0.66948556706E+02  0.00000000000E+00 0.  1.
         11    1    3    3    0    0 -0.10278438789E+03  0.73780582514E+02 -0.44831228368E+01  0.12660293496E+03  0.00000000000E+00 0. -1.
<mgrwt>
<rscale>  0 0.19880900E+03</rscale>
<asrwt>0</asrwt>
<pdfrwt beam="1">  1        1 0.24989383E-01 0.20402718E+03</pdfrwt>
<pdfrwt beam="2">  1       -1 0.36239184E-01 0.20402718E+03</pdfrwt>
<totfact> 0.13987425E+03</totfact>
</mgrwt>
</event>
<event>
 8    1  0.1224355E-005  0.1719942E+03  0.7546771E-02  0.1182040E+00
         -1   -1    0    0    0  501 -0.00000000000E+00  0.00000000000E+00  0.46501340380E+02  0.46501340380E+02  0.00000000000E+00 0.  1.
          1   -1    0    0  501    0  0.00000000000E+00 -0.00000000000E+00 -0.57428855632E+03  0.57428855632E+03  0.00000000000E+00 0. -1.
         23    2    1    2    0    0 -0.63803120806E+02  0.99417831621E+02 -0.18963281994E+03  0.24140829018E+03  0.91447322007E+02 0.  0.
         23    2    1    2    0    0  0.63803120806E+02 -0.99417831621E+02 -0.33815439600E+03  0.37938160652E+03  0.12500905711E+03 0.  0.
          5    1    4    4  502    0  0.43285265287E+02 -0.14567326562E+02 -0.21160576712E+02  0.50553745666E+02  0.47000000000E+01 0. -1.
         -5    1    4    4    0  502  0.20517855519E+02 -0.84850505059E+02 -0.31699381929E+03  0.32882786085E+03  0.47000000000E+01 0. -1.
        -11    1    3    3    0    0 -0.73484024392E+02  0.85756008250E+02 -0.19366301063E+03  0.22418598636E+03  0.00000000000E+00 0. -1.
         11    1    3    3    0    0  0.96809035860E+01  0.13661823372E+02  0.40301906925E+01  0.17222303827E+02  0.00000000000E+00 0.  1.
<mgrwt>
<rscale>  0 0.16604114E+03</rscale>
<asrwt>0</asrwt>
<pdfrwt beam="2">  1        1 0.88352086E-01 0.17199421E+03</pdfrwt>
<pdfrwt beam="1">  1       -1 0.71540524E-02 0.17199421E+03</pdfrwt>
<totfact> 0.37481124E+03</totfact>
</mgrwt>
</event>
<event>
 8    1  0.1224355E-005  0.1607108E+03  0.7546771E-02  0.1194846E+00
          2   -1    0    0  501    0  0.00000000000E+00  0.00000000000E+00  0.80896983253E+03  0.80896983253E+03  0.00000000000E+00 0.  1.
         -2   -1    0    0    0  501 -0.00000000000E+00 -0.00000000000E+00 -0.30655248393E+02  0.30655248393E+02  0.00000000000E+00 0. -1.
         23    2    1    2    0    0 -0.94797336335E+02  0.34848621605E+02  0.22923613782E+03  0.26751049143E+03  0.93870627656E+02 0.  0.
         23    2    1    2    0    0  0.94797336335E+02 -0.34848621605E+02  0.54907844631E+03  0.57211458950E+03  0.12500800736E+03 0.  0.
          5    1    4    4  502    0 -0.15457809805E+02 -0.40728579126E+02  0.92509749196E+02  0.10236163704E+03  0.47000000000E+01 0. -1.
         -5    1    4    4    0  502  0.11025514614E+03  0.58799575211E+01  0.45656869712E+03  0.46975295245E+03  0.47000000000E+01 0. -1.
        -11    1    3    3    0    0 -0.99428174855E+02  0.49763648773E+02  0.22554687480E+03  0.25146326854E+03  0.00000000000E+00 0.  1.
         11    1    3    3    0    0  0.46308385199E+01 -0.14915027168E+02  0.36892630287E+01  0.16047222891E+02  0.00000000000E+00 0. -1.
<mgrwt>
<rscale>  0 0.15467288E+03</rscale>
<asrwt>0</asrwt>
<pdfrwt beam="1">  1        2 0.12445688E+00 0.16071081E+03</pdfrwt>
<pdfrwt beam="2">  1       -2 0.47161927E-02 0.16071081E+03</pdfrwt>
<totfact> 0.72903542E+03</totfact>
</mgrwt>
</event>
<event>
 8    1  0.1224355E-005  0.2163898E+03  0.7546771E-02  0.1140253E+00
          2   -1    0    0  501    0  0.00000000000E+00  0.00000000000E+00  0.15530574826E+04  0.15530574826E+04  0.00000000000E+00 0. -1.
         -2   -1    0    0    0  501 -0.00000000000E+00 -0.00000000000E+00 -0.28046310998E+02  0.28046310998E+02  0.00000000000E+00 0.  1.
         23    2    1    2    0    0  0.13982164206E+03 -0.10792847347E+03  0.63619483960E+03  0.66632567857E+03  0.89707240556E+02 0.  0.
         23    2    1    2    0    0 -0.13982164206E+03  0.10792847347E+03  0.88881633202E+03  0.91477811505E+03  0.12500352288E+03 0.  0.
          5    1    4    4  502    0 -0.15042992564E+02  0.22252070976E+02  0.22575974175E+02  0.35400718891E+02  0.47000000000E+01 0.  1.
         -5    1    4    4    0  502 -0.12477864950E+03  0.85676402499E+02  0.86624035785E+03  0.87937739616E+03  0.47000000000E+01 0.  1.
        -11    1    3    3    0    0  0.34668817157E+02 -0.81118888195E+02  0.24678233344E+03  0.26207579248E+03  0.00000000000E+00 0.  1.
         11    1    3    3    0    0  0.10515282491E+03 -0.26809585279E+02  0.38941250616E+03  0.40424988609E+03  0.00000000000E+00 0. -1.
<mgrwt>
<rscale>  0 0.21166644E+03</rscale>
<asrwt>0</asrwt>
<pdfrwt beam="1">  1        2 0.23893185E+00 0.21638976E+03</pdfrwt>
<pdfrwt beam="2">  1       -2 0.43148183E-02 0.21638976E+03</pdfrwt>
<totfact> 0.31287124E+03</totfact>
</mgrwt>
</event>
<event>
 8    1  0.1224355E-005  0.1451601E+03  0.7546771E-02  0.1225932E+00
         -2   -1    0    0    0  501 -0.00000000000E+00  0.00000000000E+00  0.11025427805E+03  0.11025427805E+03  0.00000000000E+00 0.  1.
          2   -1    0    0  501    0  0.00000000000E+00 -0.00000000000E+00 -0.13355397775E+03  0.13355397775E+03  0.00000000000E+00 0. -1.
         23    2    1    2    0    0 -0.72319141112E+02 -0.14671561373E+02  0.23226086348E+01  0.96404205808E+02  0.61992447139E+02 0.  0.
         23    2    1    2    0    0  0.72319141112E+02  0.14671561373E+02 -0.25622308335E+02  0.14740404999E+03  0.12500455345E+03 0.  0.
          5    1    4    4  502    0  0.65835695325E+02 -0.41286531575E+02  0.13015288036E+02  0.78932909430E+02  0.47000000000E+01 0. -1.
         -5    1    4    4    0  502  0.64834457876E+01  0.55958092948E+02 -0.38637596371E+02  0.68471140556E+02  0.47000000000E+01 0. -1.
        -11    1    3    3    0    0 -0.30799355729E+02 -0.17376548997E+02  0.30048086816E+02  0.46405089049E+02  0.00000000000E+00 0.  1.
         11    1    3    3    0    0 -0.41519785383E+02  0.27049876245E+01 -0.27725478181E+02  0.49999116759E+02  0.00000000000E+00 0. -1.
<mgrwt>
<rscale>  0 0.13103216E+03</rscale>
<asrwt>0</asrwt>
<pdfrwt beam="2">  1        2 0.20546766E-01 0.14516009E+03</pdfrwt>
<pdfrwt beam="1">  1       -2 0.16962196E-01 0.14516009E+03</pdfrwt>
<totfact> 0.71347129E+03</totfact>
</mgrwt>
</event>
<event>
 8    1  0.1224355E-005  0.1395729E+03  0.7546771E-02  0.1225262E+00
         -1   -1    0    0    0  501 -0.00000000000E+00  0.00000000000E+00  0.31273860071E+02  0.31273860071E+02  0.00000000000E+00 0.  1.
          1   -1    0    0  501    0  0.00000000000E+00 -0.00000000000E+00 -0.49834464212E+03  0.49834464212E+03  0.00000000000E+00 0. -1.
         23    2    1    2    0    0  0.40029450696E+02 -0.47515261594E+02 -0.19621302652E+03  0.22491451809E+03  0.90702434705E+02 0.  0.
         23    2    1    2    0    0 -0.40029450696E+02  0.47515261594E+02 -0.27085775553E+03  0.30470398411E+03  0.12498214750E+03 0.  0.
          5    1    4    4  502    0 -0.38814510187E+02  0.89216415616E+02 -0.18198733261E+03  0.20641611916E+03  0.47000000000E+01 0.  1.
         -5    1    4    4    0  502 -0.12149405090E+01 -0.41701154022E+02 -0.88870422917E+02  0.98287864951E+02  0.47000000000E+01 0.  1.
        -11    1    3    3    0    0 -0.36555030071E+01 -0.34465656962E+02 -0.16746822578E+03  0.17101710691E+03  0.00000000000E+00 0. -1.
         11    1    3    3    0    0  0.43684953703E+02 -0.13049604632E+02 -0.28744800743E+02  0.53897411171E+02  0.00000000000E+00 0.  1.
<mgrwt>
<rscale>  0 0.13148935E+03</rscale>
<asrwt>0</asrwt>
<pdfrwt beam="2">  1        1 0.76668403E-01 0.13957290E+03</pdfrwt>
<pdfrwt beam="1">  1       -1 0.48113633E-02 0.13957290E+03</pdfrwt>
<totfact> 0.80988204E+03</totfact>
</mgrwt>
</event>
<event>
 8    1  0.1224355E-005  0.1380387E+03  0.7546771E-02  0.1228058E+00
          2   -1    0    0  501    0  0.00000000000E+00  0.00000000000E+00  0.34190454117E+02  0.34190454117E+02  0.00000000000E+00 0. -1.
         -2   -1    0    0    0  501 -0.00000000000E+00 -0.00000000000E+00 -0.44683810744E+03  0.44683810744E+03  0.00000000000E+00 0.  1.
         23    2    1    2    0    0 -0.56277595900E+02  0.16236209628E+02 -0.21056509727E+03  0.23630006353E+03  0.89829157489E+02 0.  0.
         23    2    1    2    0    0  0.56277595900E+02 -0.16236209628E+02 -0.20208255606E+03  0.24472849802E+03  0.12499558384E+03 0.  0.
          5    1    4    4  502    0  0.64305804286E+02  0.67820686125E+01 -0.20910680741E+03  0.21892688237E+03  0.47000000000E+01 0.  1.
         -5    1    4    4    0  502 -0.80282083862E+01 -0.23018278241E+02  0.70242513569E+01  0.25801615651E+02  0.47000000000E+01 0.  1.
        -11    1    3    3    0    0  0.85437327307E+00  0.32022874220E+02 -0.14244488478E+03  0.14600253295E+03  0.00000000000E+00 0.  1.
         11    1    3    3    0    0 -0.57131969173E+02 -0.15786664592E+02 -0.68120212485E+02  0.90297530584E+02  0.00000000000E+00 0. -1.
<mgrwt>
<rscale>  0 0.12959496E+03</rscale>
<asrwt>0</asrwt>
<pdfrwt beam="1">  1        2 0.52600702E-02 0.13803868E+03</pdfrwt>
<pdfrwt beam="2">  1       -2 0.68744320E-01 0.13803868E+03</pdfrwt>
<totfact> 0.27923076E+03</totfact>
</mgrwt>
</event>
<event>
 8    1  0.1224355E-005  0.1505137E+03  0.7546771E-02  0.1208809E+00
          1   -1    0    0  501    0  0.00000000000E+00  0.00000000000E+00  0.95725505537E+02  0.95725505537E+02  0.00000000000E+00 0. -1.
         -1   -1    0    0    0  501 -0.00000000000E+00 -0.00000000000E+00 -0.19714398251E+03  0.19714398251E+03  0.00000000000E+00 0.  1.
         23    2    1    2    0    0  0.47732594641E+02  0.68931197816E+02 -0.40619504330E+02  0.13053994362E+03  0.91437531268E+02 0.  0.
         23    2    1    2    0    0 -0.47732594641E+02 -0.68931197816E+02 -0.60798972647E+02  0.16232954443E+03  0.12499782117E+03 0.  0.
          5    1    4    4  502    0 -0.15730920691E+02 -0.80874612116E+02  0.10443062589E+02  0.83182403830E+02  0.47000000000E+01 0. -1.
         -5    1    4    4    0  502 -0.32001673950E+02  0.11943414300E+02 -0.71242035236E+02  0.79147140601E+02  0.47000000000E+01 0. -1.
        -11    1    3    3    0    0  0.59555292637E+02  0.33224175876E+02 -0.57604864648E+02  0.89269251004E+02  0.00000000000E+00 0. -1.
         11    1    3    3    0    0 -0.11822697996E+02  0.35707021940E+02  0.16985360319E+02  0.41270692615E+02  0.00000000000E+00 0.  1.
<mgrwt>
<rscale>  0 0.14341328E+03</rscale>
<asrwt>0</asrwt>
<pdfrwt beam="1">  1        1 0.14727001E-01 0.15051367E+03</pdfrwt>
<pdfrwt beam="2">  1       -1 0.30329843E-01 0.15051367E+03</pdfrwt>
<totfact> 0.36991584E+03</totfact>
</mgrwt>
</event>
<event>
 8    1  0.1224355E-005  0.1599668E+03  0.7546771E-02  0.1192769E+00
          1   -1    0    0  501    0  0.00000000000E+00  0.00000000000E+00  0.79451276493E+03  0.79451276493E+03  0.00000000000E+00 0. -1.
         -1   -1    0    0    0  501 -0.00000000000E+00 -0.00000000000E+00 -0.31900718449E+02  0.31900718449E+02  0.00000000000E+00 0.  1.
         23    2    1    2    0    0 -0.56999503052E+02 -0.10048751441E+03  0.25288816406E+03  0.29217775043E+03  0.89826112134E+02 0.  0.
         23    2    1    2    0    0  0.56999503052E+02  0.10048751441E+03  0.50972388242E+03  0.53423573296E+03  0.11064672681E+03 0.  0.
          5    1    4    4  502    0  0.74259658054E+02  0.75881812465E+02  0.23598689469E+03  0.25881354436E+03  0.47000000000E+01 0. -1.
         -5    1    4    4    0  502 -0.17260155003E+02  0.24605701950E+02  0.27373698773E+03  0.27542218860E+03  0.47000000000E+01 0.  1.
        -11    1    3    3    0    0 -0.99219430861E+01 -0.67863409778E+02  0.20915742564E+03  0.22011523355E+03  0.00000000000E+00 0.  1.
         11    1    3    3    0    0 -0.47077559966E+02 -0.32624104637E+02  0.43730738423E+02  0.72062516877E+02  0.00000000000E+00 0. -1.
<mgrwt>
<rscale>  0 0.15644556E+03</rscale>
<asrwt>0</asrwt>
<pdfrwt beam="1">  1        1 0.12223272E+00 0.15996682E+03</pdfrwt>
<pdfrwt beam="2">  1       -1 0.49078034E-02 0.15996682E+03</pdfrwt>
<totfact> 0.41356500E+03</totfact>
</mgrwt>
</event>
<event>
 7    1  0.1224355E-005  0.3810965E+03  0.7546771E-02  0.1058419E+00
          2   -1    0    0  501    0  0.00000000000E+00  0.00000000000E+00  0.11850353565E+04  0.11850353565E+04  0.00000000000E+00 0. -1.
         -2   -1    0    0    0  501 -0.00000000000E+00 -0.00000000000E+00 -0.10668309495E+03  0.10668309495E+03  0.00000000000E+00 0.  1.
         23    2    1    2    0    0 -0.18014035247E+03  0.22774720338E+03  0.65270694695E+03  0.72039674408E+03  0.92875050681E+02 0.  0.
          5    1    1    2  502    0 -0.36618896206E+00  0.48228399465E+02  0.33401001908E+02  0.58854307725E+02  0.47000000000E+01 0. -1.
         -5    1    1    2    0  502  0.18050654143E+03 -0.27597560285E+03  0.39224431273E+03  0.51246739968E+03  0.47000000000E+01 0.  1.
        -11    1    3    3    0    0  0.20827427111E+01  0.50835554294E+02  0.10616861601E+03  0.11773005744E+03  0.00000000000E+00 0.  1.
         11    1    3    3    0    0 -0.18222309518E+03  0.17691164909E+03  0.54653833094E+03  0.60266668664E+03  0.00000000000E+00 0. -1.
<mgrwt>
<rscale>  0 0.36041641E+03</rscale>
<asrwt>0</asrwt>
<pdfrwt beam="1">  1        2 0.18231312E+00 0.38109652E+03</pdfrwt>
<pdfrwt beam="2">  1       -2 0.16412785E-01 0.38109652E+03</pdfrwt>
<totfact> 0.59713392E+02</totfact>
</mgrwt>
</event>
<event>
 8    1  0.1224355E-005  0.1371454E+03  0.7546771E-02  0.1229429E+00
         -1   -1    0    0    0  501 -0.00000000000E+00  0.00000000000E+00  0.60452515563E+02  0.60452515563E+02  0.00000000000E+00 0.  1.
          1   -1    0    0  501    0  0.00000000000E+00 -0.00000000000E+00 -0.34750520549E+03  0.34750520549E+03  0.00000000000E+00 0. -1.
         23    2    1    2    0    0 -0.54741445322E+02  0.18447471483E+02 -0.20578707659E+02  0.10826247529E+03  0.89220767239E+02 0.  0.
         23    2    1    2    0    0  0.54741445322E+02 -0.18447471483E+02 -0.26647398227E+03  0.29969524576E+03  0.12438618117E+03 0.  0.
          5    1    4    4  502    0 -0.35826984490E+02 -0.19622677892E+02 -0.48373510262E+02  0.63487863410E+02  0.47000000000E+01 0.  1.
         -5    1    4    4    0  502  0.90568429812E+02  0.11752064092E+01 -0.21810047201E+03  0.23620738235E+03  0.47000000000E+01 0.  1.
        -11    1    3    3    0    0 -0.17058678539E+00 -0.29890239886E+02  0.63308463843E+01  0.30553807557E+02  0.00000000000E+00 0. -1.
         11    1    3    3    0    0 -0.54570858537E+02  0.48337711370E+02 -0.26909554043E+02  0.77708667732E+02  0.00000000000E+00 0.  1.
<mgrwt>
<rscale>  0 0.12867899E+03</rscale>
<asrwt>0</asrwt>
<pdfrwt beam="2">  1        1 0.53462341E-01 0.13714539E+03</pdfrwt>
<pdfrwt beam="1">  1       -1 0.93003867E-02 0.13714539E+03</pdfrwt>
<totfact> 0.47657352E+03</totfact>
</mgrwt>
</event>
<event>
 8    1  0.1224355E-005  0.1354400E+03  0.7546771E-02  0.1234801E+00
          2   -1    0    0  501    0  0.00000000000E+00  0.00000000000E+00  0.28181229360E+02  0.28181229360E+02  0.00000000000E+00 0.  1.
         -2   -1    0    0    0  501 -0.00000000000E+00 -0.00000000000E+00 -0.49223484006E+03  0.49223484006E+03  0.00000000000E+00 0. -1.
         23    2    1    2    0    0  0.20915320121E+02  0.47766373995E+02 -0.22322157136E+03  0.24411175962E+03  0.83926182819E+02 0.  0.
         23    2    1    2    0    0 -0.20915320121E+02 -0.47766373995E+02 -0.24083203934E+03  0.27630430980E+03  0.12499969337E+03 0.  0.
          5    1    4    4  502    0  0.22898305332E+02  0.19846667006E+02 -0.10775573619E+02  0.32502700890E+02  0.47000000000E+01 0.  1.
         -5    1    4    4    0  502 -0.43813625453E+02 -0.67613041000E+02 -0.23005646572E+03  0.24380160891E+03  0.47000000000E+01 0.  1.
        -11    1    3    3    0    0  0.40605282172E+02  0.24576021944E+02 -0.52804394522E+02  0.71000520250E+02  0.00000000000E+00 0.  1.
         11    1    3    3    0    0 -0.19689962052E+02  0.23190352050E+02 -0.17041717684E+03  0.17311123937E+03  0.00000000000E+00 0. -1.
<mgrwt>
<rscale>  0 0.12517177E+03</rscale>
<asrwt>0</asrwt>
<pdfrwt beam="1">  1        2 0.43355740E-02 0.13544003E+03</pdfrwt>
<pdfrwt beam="2">  1       -2 0.75728433E-01 0.13544003E+03</pdfrwt>
<totfact> 0.29206905E+03</totfact>
</mgrwt>
</event>
<event>
 8    1  0.1224355E-005  0.1426722E+03  0.7546771E-02  0.1220372E+00
          1   -1    0    0  501    0  0.00000000000E+00  0.00000000000E+00  0.56900723451E+03  0.56900723451E+03  0.00000000000E+00 0. -1.
         -1   -1    0    0    0  501 -0.00000000000E+00 -0.00000000000E+00 -0.29259630301E+02  0.29259630301E+02  0.00000000000E+00 0.  1.
         23    2    1    2    0    0  0.63759658116E+02 -0.25788415455E+02  0.20932659443E+03  0.23835939355E+03  0.90924369580E+02 0.  0.
         23    2    1    2    0    0 -0.63759658116E+02  0.25788415455E+02  0.33042100978E+03  0.35990747126E+03  0.12500003116E+03 0.  0.
          5    1    4    4  502    0  0.63942412928E+01 -0.42442352177E+02  0.78249618562E+02  0.89371876926E+02  0.47000000000E+01 0.  1.
         -5    1    4    4    0  502 -0.70153899409E+02  0.68230767632E+02  0.25217139122E+03  0.27053559434E+03  0.47000000000E+01 0.  1.
        -11    1    3    3    0    0  0.29396672027E+02 -0.50976945010E+02  0.64113901137E+02  0.87025315672E+02  0.00000000000E+00 0.  1.
         11    1    3    3    0    0  0.34362986090E+02  0.25188529555E+02  0.14521269329E+03  0.15133407788E+03  0.00000000000E+00 0. -1.
<mgrwt>
<rscale>  0 0.13489232E+03</rscale>
<asrwt>0</asrwt>
<pdfrwt beam="1">  1        1 0.87539566E-01 0.14267216E+03</pdfrwt>
<pdfrwt beam="2">  1       -1 0.45014820E-02 0.14267216E+03</pdfrwt>
<totfact> 0.75073499E+03</totfact>
</mgrwt>
</event>
<event>
 8    1  0.1224355E-005  0.1295242E+03  0.7546771E-02  0.1242962E+00
          1   -1    0    0  501    0  0.00000000000E+00  0.00000000000E+00  0.39278350052E+03  0.39278350052E+03  0.00000000000E+00 0. -1.
         -1   -1    0    0    0  501 -0.00000000000E+00 -0.00000000000E+00 -0.46229544455E+02  0.46229544455E+02  0.00000000000E+00 0.  1.
         23    2    1    2    0    0  0.24445281347E+02  0.23494444608E+02  0.35486533716E+02  0.10205687711E+03  0.89480452517E+02 0.  0.
         23    2    1    2    0    0 -0.24445281347E+02 -0.23494444608E+02  0.31106742235E+03  0.33695616787E+03  0.12500782819E+03 0.  0.
          5    1    4    4  502    0 -0.55933638369E+02  0.19566196328E+02  0.24397442962E+03  0.25111156932E+03  0.47000000000E+01 0.  1.
         -5    1    4    4    0  502  0.31488357022E+02 -0.43060640936E+02  0.67092992734E+02  0.85844598548E+02  0.47000000000E+01 0.  1.
        -11    1    3    3    0    0  0.54608238403E+02  0.26635414616E+02  0.37941796600E+02  0.71631591791E+02  0.00000000000E+00 0.  1.
         11    1    3    3    0    0 -0.30162957055E+02 -0.31409700079E+01 -0.24552628841E+01  0.30425285319E+02  0.00000000000E+00 0. -1.
<mgrwt>
<rscale>  0 0.12008210E+03</rscale>
<asrwt>0</asrwt>
<pdfrwt beam="1">  1        1 0.60428229E-01 0.12952420E+03</pdfrwt>
<pdfrwt beam="2">  1       -1 0.71122379E-02 0.12952420E+03</pdfrwt>
<totfact> 0.61086421E+03</totfact>
</mgrwt>
</event>
<event>
 8    1  0.1224355E-005  0.1305863E+03  0.7546771E-02  0.1239845E+00
          1   -1    0    0  501    0  0.00000000000E+00  0.00000000000E+00  0.89104546479E+02  0.89104546479E+02  0.00000000000E+00 0. -1.
         -1   -1    0    0    0  501 -0.00000000000E+00 -0.00000000000E+00 -0.17284558938E+03  0.17284558938E+03  0.00000000000E+00 0.  1.
         23    2    1    2    0    0 -0.35327994064E+02 -0.13430643940E+02 -0.85790267381E+02  0.13134776570E+03  0.91999001168E+02 0.  0.
         23    2    1    2    0    0  0.35327994064E+02  0.13430643940E+02  0.20492244789E+01  0.13060237016E+03  0.12499732161E+03 0.  0.
          5    1    4    4  502    0  0.91505635858E+01 -0.35052081512E+02  0.46867367389E+02  0.59422397783E+02  0.47000000000E+01 0. -1.
         -5    1    4    4    0  502  0.26177430478E+02  0.48482725452E+02 -0.44818142910E+02  0.71179972377E+02  0.47000000000E+01 0. -1.
        -11    1    3    3    0    0 -0.50943574741E+02  0.90022484776E+01 -0.89885740932E+02  0.10370985830E+03  0.00000000000E+00 0.  1.
         11    1    3    3    0    0  0.15615580677E+02 -0.22432892417E+02  0.40954735508E+01  0.27637907404E+02  0.00000000000E+00 0. -1.
<mgrwt>
<rscale>  0 0.12199307E+03</rscale>
<asrwt>0</asrwt>
<pdfrwt beam="1">  1        1 0.13708392E-01 0.13058629E+03</pdfrwt>
<pdfrwt beam="2">  1       -1 0.26591629E-01 0.13058629E+03</pdfrwt>
<totfact> 0.50151728E+03</totfact>
</mgrwt>
</event>
<event>
 8    1  0.1224355E-005  0.1297395E+03  0.7546771E-02  0.1239471E+00
         -3   -1    0    0    0  501 -0.00000000000E+00  0.00000000000E+00  0.14928879919E+03  0.14928879919E+03  0.00000000000E+00 0.  1.
          3   -1    0    0  501    0  0.00000000000E+00 -0.00000000000E+00 -0.97293776630E+02  0.97293776630E+02  0.00000000000E+00 0. -1.
         23    2    1    2    0    0 -0.21286268076E+02  0.27458145644E+02  0.56484245304E+02  0.11676542942E+03  0.96107442841E+02 0.  0.
         23    2    1    2    0    0  0.21286268076E+02 -0.27458145644E+02 -0.44892227410E+01  0.12981714640E+03  0.12500113363E+03 0.  0.
          5    1    4    4  502    0 -0.19297447920E+02  0.27954655746E+01  0.50855354981E+02  0.54667753331E+02  0.47000000000E+01 0. -1.
         -5    1    4    4    0  502  0.40583715996E+02 -0.30253611219E+02 -0.55344577722E+02  0.75149393072E+02  0.47000000000E+01 0. -1.
        -11    1    3    3    0    0 -0.44761994035E+02  0.29514224827E+02  0.71088803952E+02  0.89041246760E+02  0.00000000000E+00 0.  1.
         11    1    3    3    0    0  0.23475725959E+02 -0.20560791828E+01 -0.14604558648E+02  0.27724182661E+02  0.00000000000E+00 0. -1.
<mgrwt>
<rscale>  0 0.12222525E+03</rscale>
<asrwt>0</asrwt>
<pdfrwt beam="2">  1        3 0.14968273E-01 0.12973950E+03</pdfrwt>
<pdfrwt beam="1">  1       -3 0.22967508E-01 0.12973950E+03</pdfrwt>
<totfact> 0.14885709E+03</totfact>
</mgrwt>
</event>
<event>
 8    1  0.1224355E-005  0.1526991E+03  0.7546771E-02  0.1205866E+00
         -2   -1    0    0    0  501 -0.00000000000E+00  0.00000000000E+00  0.34014706445E+03  0.34014706445E+03  0.00000000000E+00 0.  1.
          2   -1    0    0  501    0  0.00000000000E+00 -0.00000000000E+00 -0.61630039002E+02  0.61630039002E+02  0.00000000000E+00 0. -1.
         23    2    1    2    0    0 -0.31530324994E+02  0.81847586885E+02  0.18008032581E+03  0.22009933122E+03  0.91222820531E+02 0.  0.
         23    2    1    2    0    0  0.31530324994E+02 -0.81847586885E+02  0.98436699640E+02  0.18167777223E+03  0.12499536077E+03 0.  0.
          5    1    4    4  502    0 -0.38482213653E+02 -0.66432712793E+02  0.30324812623E+02  0.82679322429E+02  0.47000000000E+01 0.  1.
         -5    1    4    4    0  502  0.70012538646E+02 -0.15414874092E+02  0.68111887017E+02  0.98998449806E+02  0.47000000000E+01 0.  1.
        -11    1    3    3    0    0  0.24765563264E+02  0.55791941266E+02  0.11496454517E+03  0.13016497409E+03  0.00000000000E+00 0.  1.
         11    1    3    3    0    0 -0.56295888258E+02  0.26055645619E+02  0.65115780634E+02  0.89934357122E+02  0.00000000000E+00 0. -1.
<mgrwt>
<rscale>  0 0.14569432E+03</rscale>
<asrwt>0</asrwt>
<pdfrwt beam="2">  1        2 0.94815447E-02 0.15269915E+03</pdfrwt>
<pdfrwt beam="1">  1       -2 0.52330316E-01 0.15269915E+03</pdfrwt>
<totfact> 0.23277548E+03</totfact>
</mgrwt>
</event>
<event>
 8    1  0.1224355E-005  0.1298085E+03  0.7546771E-02  0.1241456E+00
         -2   -1    0    0    0  501 -0.00000000000E+00  0.00000000000E+00  0.28970079550E+02  0.28970079550E+02  0.00000000000E+00 0.  1.
          2   -1    0    0  501    0  0.00000000000E+00 -0.00000000000E+00 -0.46790637114E+03  0.46790637114E+03  0.00000000000E+00 0. -1.
         23    2    1    2    0    0 -0.18264621134E+02 -0.29867946814E+02 -0.13919118389E+03  0.17023080557E+03  0.91534970691E+02 0.  0.
         23    2    1    2    0    0  0.18264621134E+02  0.29867946814E+02 -0.29974510769E+03  0.32664564511E+03  0.12499822901E+03 0.  0.
          5    1    4    4  502    0  0.46318920445E+02  0.33974841393E+02 -0.29092986112E+03  0.29658389425E+03  0.47000000000E+01 0. -1.
         -5    1    4    4    0  502 -0.28054299311E+02 -0.41068945783E+01 -0.88152465735E+01  0.30061750865E+02  0.47000000000E+01 0. -1.
        -11    1    3    3    0    0 -0.35521948904E+02 -0.29146119284E+02 -0.14492248532E+03  0.15203233825E+03  0.00000000000E+00 0. -1.
         11    1    3    3    0    0  0.17257327770E+02 -0.72182753005E+00  0.57313014248E+01  0.18198467319E+02  0.00000000000E+00 0.  1.
<mgrwt>
<rscale>  0 0.12100012E+03</rscale>
<asrwt>0</asrwt>
<pdfrwt beam="2">  1        2 0.71985594E-01 0.12980850E+03</pdfrwt>
<pdfrwt beam="1">  1       -2 0.44569354E-02 0.12980850E+03</pdfrwt>
<totfact> 0.14732998E+04</totfact>
</mgrwt>
</event>
<event>
 8    1  0.1224355E-005  0.1463525E+03  0.7546771E-02  0.1214892E+00
          3   -1    0    0  501    0  0.00000000000E+00  0.00000000000E+00  0.42303712533E+02  0.42303712533E+02  0.00000000000E+00 0. -1.
         -3   -1    0    0    0  501 -0.00000000000E+00 -0.00000000000E+00 -0.44762505215E+03  0.44762505215E+03  0.00000000000E+00 0.  1.
         23    2    1    2    0    0  0.71070449064E+02 -0.27279210353E+02 -0.24904458647E+03  0.27582250547E+03  0.90882805985E+02 0.  0.
         23    2    1    2    0    0 -0.71070449064E+02  0.27279210353E+02 -0.15627675315E+03  0.21410625922E+03  0.12499561038E+03 0.  0.
          5    1    4    4  502    0 -0.80254875269E+02  0.47764940572E+02 -0.51312067230E+02  0.10666467454E+03  0.47000000000E+01 0.  1.
         -5    1    4    4    0  502  0.91844262048E+01 -0.20485730219E+02 -0.10496468592E+03  0.10744158468E+03  0.47000000000E+01 0.  1.
        -11    1    3    3    0    0  0.47321662115E+02 -0.27425571961E+01 -0.23357178201E+03  0.23833304151E+03  0.00000000000E+00 0.  1.
         11    1    3    3    0    0  0.23748786949E+02 -0.24536653157E+02 -0.15472804461E+02  0.37489463954E+02  0.00000000000E+00 0. -1.
<mgrwt>
<rscale>  0 0.13884443E+03</rscale>
<asrwt>0</asrwt>
<pdfrwt beam="1">  1        3 0.65082638E-02 0.14635254E+03</pdfrwt>
<pdfrwt beam="2">  1       -3 0.68865390E-01 0.14635254E+03</pdfrwt>
<totfact> 0.71942870E+02</totfact>
</mgrwt>
</event>
<event>
 8    1  0.1224355E-005  0.1543586E+03  0.7546771E-02  0.1209474E+00
         -3   -1    0    0    0  501 -0.00000000000E+00  0.00000000000E+00  0.68884382715E+02  0.68884382715E+02  0.00000000000E+00 0.  1.
          3   -1    0    0  501    0  0.00000000000E+00 -0.00000000000E+00 -0.26257077941E+03  0.26257077941E+03  0.00000000000E+00 0. -1.
         23    2    1    2    0    0  0.83318641001E+02  0.35558576635E+02 -0.66553018012E+02  0.13148146260E+03  0.68203097357E+02 0.  0.
         23    2    1    2    0    0 -0.83318641001E+02 -0.35558576635E+02 -0.12713337869E+03  0.19997369953E+03  0.12498070338E+03 0.  0.
          5    1    4    4  502    0 -0.81895067428E+02 -0.16106342730E+02 -0.14865697682E+03  0.17054970860E+03  0.47000000000E+01 0.  1.
         -5    1    4    4    0  502 -0.14235735731E+01 -0.19452233905E+02  0.21523598138E+02  0.29423990933E+02  0.47000000000E+01 0.  1.
        -11    1    3    3    0    0  0.58933451849E+02  0.56176289694E+02 -0.46182580794E+02  0.93604262933E+02  0.00000000000E+00 0.  1.
         11    1    3    3    0    0  0.24385189153E+02 -0.20617713058E+02 -0.20370437218E+02  0.37877199662E+02  0.00000000000E+00 0. -1.
<mgrwt>
<rscale>  0 0.14290425E+03</rscale>
<asrwt>0</asrwt>
<pdfrwt beam="2">  1        3 0.40395505E-01 0.15435862E+03</pdfrwt>
<pdfrwt beam="1">  1       -3 0.10597597E-01 0.15435862E+03</pdfrwt>
<totfact> 0.96032158E+02</totfact>
</mgrwt>
</event>
<event>
 8    1  0.1224355E-005  0.1338570E+03  0.7546771E-02  0.1235711E+00
         -1   -1    0    0    0  501 -0.00000000000E+00  0.00000000000E+00  0.21364228226E+02  0.21364228226E+02  0.00000000000E+00 0.  1.
          1   -1    0    0  501    0  0.00000000000E+00 -0.00000000000E+00 -0.12979481266E+04  0.12979481266E+04  0.00000000000E+00 0. -1.
         23    2    1    2    0    0  0.47505966648E+02 -0.60453603120E+01 -0.12686045265E+03  0.16182295806E+03  0.88316091744E+02 0.  0.
         23    2    1    2    0    0 -0.47505966648E+02  0.60453603120E+01 -0.11497234458E+04  0.11574893968E+04  0.12499735486E+03 0.  0.
          5    1    4    4  502    0 -0.78506833396E+02  0.38822525480E+02 -0.69609504169E+03  0.70159882301E+03  0.47000000000E+01 0. -1.
         -5    1    4    4    0  502  0.31000866748E+02 -0.32777165169E+02 -0.45362840406E+03  0.45589057379E+03  0.47000000000E+01 0. -1.
        -11    1    3    3    0    0  0.15331144784E+02  0.18413964667E+02 -0.11805046910E+03  0.12045759150E+03  0.00000000000E+00 0. -1.
         11    1    3    3    0    0  0.32174821865E+02 -0.24459324979E+02 -0.88099835443E+01  0.41365366558E+02  0.00000000000E+00 0.  1.
<mgrwt>
<rscale>  0 0.12459021E+03</rscale>
<asrwt>0</asrwt>
<pdfrwt beam="2">  1        1 0.19968433E+00 0.13385702E+03</pdfrwt>
<pdfrwt beam="1">  1       -1 0.32868042E-02 0.13385702E+03</pdfrwt>
<totfact> 0.31876084E+03</totfact>
</mgrwt>
</event>
<event>
 8    1  0.1224355E-005  0.1332626E+03  0.7546771E-02  0.1235482E+00
         -2   -1    0    0    0  501 -0.00000000000E+00  0.00000000000E+00  0.21079550971E+03  0.21079550971E+03  0.00000000000E+00 0.  1.
          2   -1    0    0  501    0  0.00000000000E+00 -0.00000000000E+00 -0.92077344085E+02  0.92077344085E+02  0.00000000000E+00 0. -1.
         23    2    1    2    0    0 -0.39399332017E+02 -0.24078968961E+02  0.13417026088E+03  0.16871734503E+03  0.91278581823E+02 0.  0.
         23    2    1    2    0    0  0.39399332017E+02  0.24078968961E+02 -0.15452095254E+02  0.13415550877E+03  0.12500731649E+03 0.  0.
          5    1    4    4  502    0 -0.55005277400E+01  0.56867583608E+01 -0.64411660522E+02  0.65065713224E+02  0.47000000000E+01 0. -1.
         -5    1    4    4    0  502  0.44899859757E+02  0.18392210600E+02  0.48959565268E+02  0.69089795543E+02  0.47000000000E+01 0. -1.
        -11    1    3    3    0    0  0.44415588438E+01  0.31274207437E+02  0.38183065689E+02  0.49555524427E+02  0.00000000000E+00 0. -1.
         11    1    3    3    0    0 -0.43840890861E+02 -0.55353176398E+02  0.95987195194E+02  0.11916182061E+03  0.00000000000E+00 0.  1.
<mgrwt>
<rscale>  0 0.12473632E+03</rscale>
<asrwt>0</asrwt>
<pdfrwt beam="2">  1        2 0.14165745E-01 0.13326265E+03</pdfrwt>
<pdfrwt beam="1">  1       -2 0.32430078E-01 0.13326265E+03</pdfrwt>
<totfact> 0.35415455E+03</totfact>
</mgrwt>
</event>
<event>
 8    1  0.1752386E-005  0.1485372E+03  0.7546771E-02  0.1213706E+00
          1   -1    0    0  501    0  0.00000000000E+00  0.00000000000E+00  0.29446587646E+03  0.29446587646E+03  0.00000000000E+00 0. -1.
         -1   -1    0    0    0  501 -0.00000000000E+00 -0.00000000000E+00 -0.59610832374E+02  0.59610832374E+02  0.00000000000E+00 0.  1.
         23    2    1    2    0    0 -0.78482044256E+02 -0.16711982730E+02  0.97145568783E+02  0.15152495750E+03  0.84165489218E+02 0.  0.
         23    2    1    2    0    0  0.78482044256E+02  0.16711982730E+02  0.13770947530E+03  0.20255175133E+03  0.12499836295E+03 0.  0.
          5    1    4    4  502    0  0.27448881770E+02  0.58144133693E+02  0.11680166562E+03  0.13341251997E+03  0.47000000000E+01 0. -1.
         -5    1    4    4    0  502  0.51033162486E+02 -0.41432150964E+02  0.20907809678E+02  0.69139231355E+02  0.47000000000E+01 0. -1.
        -11    1    3    3    0    0 -0.49358616367E+02 -0.89993725606E+01  0.10833323815E+03  0.11938740387E+03  0.00000000000E+00 0. -1.
         11    1    3    3    0    0 -0.29123427889E+02 -0.77126101690E+01 -0.11187669364E+02  0.32137553631E+02  0.00000000000E+00 0.  1.
<mgrwt>
<rscale>  0 0.13972009E+03</rscale>
<asrwt>0</asrwt>
<pdfrwt beam="1">  1        1 0.45302441E-01 0.14853724E+03</pdfrwt>
<pdfrwt beam="2">  1       -1 0.91708975E-02 0.14853724E+03</pdfrwt>
<totfact> 0.60089439E+03</totfact>
</mgrwt>
</event>
<event>
 8    1  0.1224355E-005  0.1316700E+03  0.7546771E-02  0.1240563E+00
         -1   -1    0    0    0  501 -0.00000000000E+00  0.00000000000E+00  0.55770383035E+02  0.55770383035E+02  0.00000000000E+00 0.  1.
          1   -1    0    0  501    0  0.00000000000E+00 -0.00000000000E+00 -0.23942939056E+03  0.23942939056E+03  0.00000000000E+00 0. -1.
         23    2    1    2    0    0  0.77354693392E+01 -0.40550828713E+02 -0.51339864269E+02  0.10853066776E+03  0.86249156434E+02 0.  0.
         23    2    1    2    0    0 -0.77354693392E+01  0.40550828713E+02 -0.13231914326E+03  0.18666910584E+03  0.12503116494E+03 0.  0.
          5    1    4    4  502    0 -0.44107133074E+02 -0.15403930197E+02 -0.11156196636E+02  0.48262521452E+02  0.47000000000E+01 0.  1.
         -5    1    4    4    0  502  0.36371663735E+02  0.55954758910E+02 -0.12116294662E+03  0.13840658438E+03  0.47000000000E+01 0.  1.
        -11    1    3    3    0    0  0.45129565218E+02 -0.24487304299E+02 -0.13810306988E+02  0.53169825162E+02  0.00000000000E+00 0.  1.
         11    1    3    3    0    0 -0.37394095879E+02 -0.16063524414E+02 -0.37529557281E+02  0.55360842596E+02  0.00000000000E+00 0. -1.
<mgrwt>
<rscale>  0 0.12154919E+03</rscale>
<asrwt>0</asrwt>
<pdfrwt beam="2">  1        1 0.36835291E-01 0.13167004E+03</pdfrwt>
<pdfrwt beam="1">  1       -1 0.85800588E-02 0.13167004E+03</pdfrwt>
<totfact> 0.85192053E+03</totfact>
</mgrwt>
</event>
<event>
 8    1  0.1224355E-005  0.1358970E+03  0.7546771E-02  0.1229277E+00
          4   -1    0    0  501    0  0.00000000000E+00  0.00000000000E+00  0.11833100817E+03  0.11833100817E+03  0.00000000000E+00 0.  1.
         -4   -1    0    0    0  501 -0.00000000000E+00 -0.00000000000E+00 -0.18074290736E+03  0.18074290736E+03  0.00000000000E+00 0. -1.
         23    2    1    2    0    0  0.48576485874E+02 -0.21940555951E+02 -0.10981980688E+03  0.15514506079E+03  0.95752477413E+02 0.  0.
         23    2    1    2    0    0 -0.48576485874E+02  0.21940555951E+02  0.47407907695E+02  0.14392885474E+03  0.12500776991E+03 0.  0.
          5    1    4    4  502    0  0.18733589887E+02  0.59157446818E+01  0.68520232223E+02  0.71435674905E+02  0.47000000000E+01 0.  1.
         -5    1    4    4    0  502 -0.67310075761E+02  0.16024811269E+02 -0.21112324529E+02  0.72493179832E+02  0.47000000000E+01 0.  1.
        -11    1    3    3    0    0  0.20918143662E+02 -0.44790620878E+02 -0.10851550198E+03  0.11924505282E+03  0.00000000000E+00 0. -1.
         11    1    3    3    0    0  0.27658342212E+02  0.22850064927E+02 -0.13043048991E+01  0.35900007971E+02  0.00000000000E+00 0.  1.
<mgrwt>
<rscale>  0 0.12878004E+03</rscale>
<asrwt>0</asrwt>
<pdfrwt beam="1">  1        4 0.18204770E-01 0.13589704E+03</pdfrwt>
<pdfrwt beam="2">  1       -4 0.27806601E-01 0.13589704E+03</pdfrwt>
<totfact> 0.54414226E+02</totfact>
</mgrwt>
</event>
<event>
 8    1  0.1224355E-005  0.1494553E+03  0.7546771E-02  0.1210704E+00
         -1   -1    0    0    0  501 -0.00000000000E+00  0.00000000000E+00  0.15741144218E+02  0.15741144218E+02  0.00000000000E+00 0.  1.
          1   -1    0    0  501    0  0.00000000000E+00 -0.00000000000E+00 -0.12179477677E+04  0.12179477677E+04  0.00000000000E+00 0. -1.
         23    2    1    2    0    0 -0.25200808484E+02  0.77964929357E+02 -0.41728265200E+03  0.43466293302E+03  0.89963563288E+02 0.  0.
         23    2    1    2    0    0  0.25200808484E+02 -0.77964929357E+02 -0.78492397148E+03  0.79902597890E+03  0.12499305179E+03 0.  0.
          5    1    4    4  502    0 -0.13272406075E+02 -0.10228563566E+03 -0.51447276815E+03  0.52473119518E+03  0.47000000000E+01 0. -1.
         -5    1    4    4    0  502  0.38473214559E+02  0.24320706307E+02 -0.27045120333E+03  0.27429478372E+03  0.47000000000E+01 0. -1.
        -11    1    3    3    0    0 -0.52833125478E+02  0.18675966062E+02 -0.17912625332E+03  0.18768682821E+03  0.00000000000E+00 0.  1.
         11    1    3    3    0    0  0.27632316995E+02  0.59288963296E+02 -0.23815639868E+03  0.24697610481E+03  0.00000000000E+00 0. -1.
<mgrwt>
<rscale>  0 0.14196850E+03</rscale>
<asrwt>0</asrwt>
<pdfrwt beam="2">  1        1 0.18737662E+00 0.14945526E+03</pdfrwt>
<pdfrwt beam="1">  1       -1 0.24217140E-02 0.14945526E+03</pdfrwt>
<totfact> 0.56490933E+03</totfact>
</mgrwt>
</event>
<event>
 7    1  0.1224355E-005  0.2059684E+03  0.7546771E-02  0.1177278E+00
         -1   -1    0    0    0  501 -0.00000000000E+00  0.00000000000E+00  0.88249172973E+02  0.88249172973E+02  0.00000000000E+00 0.  1.
          1   -1    0    0  501    0  0.00000000000E+00 -0.00000000000E+00 -0.27614556254E+03  0.27614556254E+03  0.00000000000E+00 0. -1.
         23    2    1    2    0    0 -0.21379700148E+02 -0.22741398785E+02 -0.20475383186E+02  0.98965291190E+02  0.91654922108E+02 0.  0.
          5    1    1    2  502    0 -0.58876733835E+02  0.77956102714E+02 -0.12591150752E+03  0.15943469341E+03  0.47000000000E+01 0. -1.
         -5    1    1    2    0  502  0.80256433983E+02 -0.55214703929E+02 -0.41509498866E+02  0.10599475092E+03  0.47000000000E+01 0.  1.
        -11    1    3    3    0    0 -0.41798113106E+02 -0.89971954712E+01  0.23339002729E+02  0.48710787655E+02  0.00000000000E+00 0.  1.
         11    1    3    3    0    0  0.20418412958E+02 -0.13744203314E+02 -0.43814385915E+02  0.50254503535E+02  0.00000000000E+00 0. -1.
<mgrwt>
<rscale>  0 0.17054785E+03</rscale>
<asrwt>0</asrwt>
<pdfrwt beam="2">  1        1 0.42483932E-01 0.20596844E+03</pdfrwt>
<pdfrwt beam="1">  1       -1 0.13576796E-01 0.20596844E+03</pdfrwt>
<totfact> 0.36083056E+03</totfact>
</mgrwt>
</event>
<event>
 8    1  0.1224355E-005  0.1436402E+03  0.7546771E-02  0.1218731E+00
         -1   -1    0    0    0  501 -0.00000000000E+00  0.00000000000E+00  0.14944212704E+02  0.14944212704E+02  0.00000000000E+00 0.  1.
          1   -1    0    0  501    0  0.00000000000E+00 -0.00000000000E+00 -0.15701772440E+04  0.15701772440E+04  0.00000000000E+00 0. -1.
         23    2    1    2    0    0  0.49452290044E+02 -0.50602653796E+02 -0.29702002333E+03  0.31873586145E+03  0.91463093943E+02 0.  0.
         23    2    1    2    0    0 -0.49452290044E+02  0.50602653796E+02 -0.12582130080E+04  0.12663855953E+04  0.12500537945E+03 0.  0.
          5    1    4    4  502    0 -0.40261261435E+02  0.16917098716E+02 -0.12267574820E+03  0.13030190558E+03  0.47000000000E+01 0.  1.
         -5    1    4    4    0  502 -0.91910286090E+01  0.33685555081E+02 -0.11355372598E+04  0.11360836897E+04  0.47000000000E+01 0.  1.
        -11    1    3    3    0    0  0.39546860427E+02  0.12495301042E+02 -0.57827249929E+02  0.71162332397E+02  0.00000000000E+00 0. -1.
         11    1    3    3    0    0  0.99054296163E+01 -0.63097954838E+02 -0.23919277340E+03  0.24757352905E+03  0.00000000000E+00 0.  1.
<mgrwt>
<rscale>  0 0.13605989E+03</rscale>
<asrwt>0</asrwt>
<pdfrwt beam="2">  1        1 0.24156560E+00 0.14364018E+03</pdfrwt>
<pdfrwt beam="1">  1       -1 0.22991109E-02 0.14364018E+03</pdfrwt>
<totfact> 0.35601266E+03</totfact>
</mgrwt>
</event>
<event>
 7    1  0.1224355E-005  0.1424689E+03  0.7546771E-02  0.1222414E+00
          1   -1    0    0  501    0  0.00000000000E+00  0.00000000000E+00  0.26563715767E+03  0.26563715767E+03  0.00000000000E+00 0. -1.
         -1   -1    0    0    0  501 -0.00000000000E+00 -0.00000000000E+00 -0.86222086213E+02  0.86222086213E+02  0.00000000000E+00 0.  1.
         23    2    1    2    0    0 -0.61679503987E+02 -0.53888737346E+01 -0.15117252988E+02  0.11073643241E+03  0.90557302044E+02 0.  0.
          5    1    1    2  502    0  0.92853897865E+02  0.25111364870E+02  0.17340516448E+03  0.19835288771E+03  0.47000000000E+01 0. -1.
         -5    1    1    2    0  502 -0.31174393878E+02 -0.19722491135E+02  0.21127159966E+02  0.42769923761E+02  0.47000000000E+01 0.  1.
        -11    1    3    3    0    0 -0.59693306593E+02 -0.41147976799E+02 -0.18317459879E+02  0.74779517136E+02  0.00000000000E+00 0.  1.
         11    1    3    3    0    0 -0.19861973938E+01  0.35759103065E+02  0.32002068910E+01  0.35956915277E+02  0.00000000000E+00 0. -1.
<mgrwt>
<rscale>  0 0.13345701E+03</rscale>
<asrwt>0</asrwt>
<pdfrwt beam="1">  1        1 0.40867255E-01 0.14246889E+03</pdfrwt>
<pdfrwt beam="2">  1       -1 0.13264936E-01 0.14246889E+03</pdfrwt>
<totfact> 0.38609195E+03</totfact>
</mgrwt>
</event>
<event>
 8    1  0.1224355E-005  0.1586850E+03  0.7546771E-02  0.1198920E+00
          2   -1    0    0  501    0  0.00000000000E+00  0.00000000000E+00  0.60232266219E+03  0.60232266219E+03  0.00000000000E+00 0. -1.
         -2   -1    0    0    0  501 -0.00000000000E+00 -0.00000000000E+00 -0.35167180509E+02  0.35167180509E+02  0.00000000000E+00 0.  1.
         23    2    1    2    0    0  0.97649858404E+02  0.45687449668E+01  0.22621259605E+03  0.26142736638E+03  0.87268327607E+02 0.  0.
         23    2    1    2    0    0 -0.97649858404E+02 -0.45687449668E+01  0.34094288563E+03  0.37606247632E+03  0.12499826621E+03 0.  0.
          5    1    4    4  502    0 -0.71773987578E+02 -0.44559760113E+02  0.30412657459E+03  0.31567727332E+03  0.47000000000E+01 0. -1.
         -5    1    4    4    0  502 -0.25875870827E+02  0.39991015146E+02  0.36816311039E+02  0.60385203005E+02  0.47000000000E+01 0. -1.
        -11    1    3    3    0    0 -0.62911466230E+01 -0.22355469282E+02  0.32453380848E+02  0.39906985116E+02  0.00000000000E+00 0. -1.
         11    1    3    3    0    0  0.10394100503E+03  0.26924214248E+02  0.19375921521E+03  0.22152038127E+03  0.00000000000E+00 0.  1.
<mgrwt>
<rscale>  0 0.15127075E+03</rscale>
<asrwt>0</asrwt>
<pdfrwt beam="1">  1        2 0.92665017E-01 0.15868502E+03</pdfrwt>
<pdfrwt beam="2">  1       -2 0.54103359E-02 0.15868502E+03</pdfrwt>
<totfact> 0.84296742E+03</totfact>
</mgrwt>
</event>
<event>
 8    1  0.1224355E-005  0.1522991E+03  0.7546771E-02  0.1206924E+00
         -1   -1    0    0    0  501 -0.00000000000E+00  0.00000000000E+00  0.90819486259E+02  0.90819486259E+02  0.00000000000E+00 0.  1.
          1   -1    0    0  501    0  0.00000000000E+00 -0.00000000000E+00 -0.23924966054E+03  0.23924966054E+03  0.00000000000E+00 0. -1.
         23    2    1    2    0    0 -0.99642013503E+01 -0.86252986528E+02 -0.11406517212E+02  0.12520210631E+03  0.89479583119E+02 0.  0.
         23    2    1    2    0    0  0.99642013503E+01  0.86252986528E+02 -0.13702365707E+03  0.20486704049E+03  0.12512457268E+03 0.  0.
          5    1    4    4  502    0  0.46238043283E+02  0.53864667487E+02 -0.13880886008E+03  0.15597868023E+03  0.47000000000E+01 0.  1.
         -5    1    4    4    0  502 -0.36273841933E+02  0.32388319041E+02  0.17852030144E+01  0.48888360257E+02  0.47000000000E+01 0.  1.
        -11    1    3    3    0    0 -0.64701315005E+01 -0.35127301120E+02  0.39302926654E+02  0.53108473233E+02  0.00000000000E+00 0.  1.
         11    1    3    3    0    0 -0.34940698499E+01 -0.51125685408E+02 -0.50709443866E+02  0.72093633073E+02  0.00000000000E+00 0. -1.
<mgrwt>
<rscale>  0 0.14486834E+03</rscale>
<asrwt>0</asrwt>
<pdfrwt beam="2">  1        1 0.36807640E-01 0.15229912E+03</pdfrwt>
<pdfrwt beam="1">  1       -1 0.13972229E-01 0.15229912E+03</pdfrwt>
<totfact> 0.40673695E+03</totfact>
</mgrwt>
</event>
<event>
 8    1  0.1224355E-005  0.2269347E+03  0.7546771E-02  0.1131894E+00
         -2   -1    0    0    0  501 -0.00000000000E+00  0.00000000000E+00  0.31542872881E+02  0.31542872881E+02  0.00000000000E+00 0.  1.
          2   -1    0    0  501    0  0.00000000000E+00 -0.00000000000E+00 -0.15167526249E+04  0.15167526249E+04  0.00000000000E+00 0. -1.
         23    2    1    2    0    0  0.17311305072E+03  0.76849862723E+02 -0.69770597538E+03  0.72874589968E+03  0.91667488769E+02 0.  0.
         23    2    1    2    0    0 -0.17311305072E+03 -0.76849862723E+02 -0.78750377661E+03  0.81954959807E+03  0.12500126314E+03 0.  0.
          5    1    4    4  502    0 -0.16980375116E+03 -0.73686506558E+02 -0.79081319496E+03  0.81220109239E+03  0.47000000000E+01 0.  1.
         -5    1    4    4    0  502 -0.33092995536E+01 -0.31633561645E+01  0.33094183547E+01  0.73485056716E+01  0.47000000000E+01 0.  1.
        -11    1    3    3    0    0  0.16710531632E+03  0.57352719213E+02 -0.67701721839E+03  0.69968981351E+03  0.00000000000E+00 0. -1.
         11    1    3    3    0    0  0.60077343976E+01  0.19497143510E+02 -0.20688756994E+02  0.29056086171E+02  0.00000000000E+00 0.  1.
<mgrwt>
<rscale>  0 0.22268854E+03</rscale>
<asrwt>0</asrwt>
<pdfrwt beam="2">  1        2 0.23334663E+00 0.22693467E+03</pdfrwt>
<pdfrwt beam="1">  1       -2 0.48527482E-02 0.22693467E+03</pdfrwt>
<totfact> 0.27382552E+03</totfact>
</mgrwt>
</event>
<event>
 8    1  0.1224355E-005  0.1734338E+03  0.7546771E-02  0.1180141E+00
         -2   -1    0    0    0  501 -0.00000000000E+00  0.00000000000E+00  0.51930438007E+02  0.51930438007E+02  0.00000000000E+00 0.  1.
          2   -1    0    0  501    0  0.00000000000E+00 -0.00000000000E+00 -0.73528932211E+03  0.73528932211E+03  0.00000000000E+00 0. -1.
         23    2    1    2    0    0 -0.10106921166E+03 -0.65092613412E+02 -0.10855375480E+03  0.18681969705E+03  0.93089460528E+02 0.  0.
         23    2    1    2    0    0  0.10106921166E+03  0.65092613412E+02 -0.57480512930E+03  0.60040006306E+03  0.12500906041E+03 0.  0.
          5    1    4    4  502    0  0.59709087883E+02 -0.15557551533E+02 -0.10474799017E+03  0.12166118538E+03  0.47000000000E+01 0.  1.
         -5    1    4    4    0  502  0.41360123772E+02  0.80650164945E+02 -0.47005713914E+03  0.47873887768E+03  0.47000000000E+01 0.  1.
        -11    1    3    3    0    0 -0.36436929451E+01 -0.47820452904E+02 -0.14000787617E+02  0.49960927415E+02  0.00000000000E+00 0.  1.
         11    1    3    3    0    0 -0.97425518710E+02 -0.17272160508E+02 -0.94552967180E+02  0.13685876964E+03  0.00000000000E+00 0. -1.
<mgrwt>
<rscale>  0 0.16781989E+03</rscale>
<asrwt>0</asrwt>
<pdfrwt beam="2">  1        2 0.11312142E+00 0.17343385E+03</pdfrwt>
<pdfrwt beam="1">  1       -2 0.79892988E-02 0.17343385E+03</pdfrwt>
<totfact> 0.36803548E+03</totfact>
</mgrwt>
</event>
<event>
 8    1  0.1224355E-005  0.3511653E+03  0.7546771E-02  0.1063187E+00
          2   -1    0    0  501    0  0.00000000000E+00  0.00000000000E+00  0.11638497394E+03  0.11638497394E+03  0.00000000000E+00 0. -1.
         -2   -1    0    0    0  501 -0.00000000000E+00 -0.00000000000E+00 -0.10299694970E+04  0.10299694970E+04  0.00000000000E+00 0.  1.
         23    2    1    2    0    0 -0.22131402293E+03 -0.24230760412E+03 -0.43512201130E+03  0.55285346702E+03  0.92859676479E+02 0.  0.
         23    2    1    2    0    0  0.22131402293E+03  0.24230760412E+03 -0.47846251173E+03  0.59350100389E+03  0.12499677891E+03 0.  0.
          5    1    4    4  502    0 -0.14048143600E+02  0.10778180351E+02 -0.11626564462E+02  0.21697615341E+02  0.47000000000E+01 0.  1.
         -5    1    4    4    0  502  0.23536216653E+03  0.23152942376E+03 -0.46683594727E+03  0.57180338855E+03  0.47000000000E+01 0.  1.
        -11    1    3    3    0    0 -0.17251012050E+03 -0.16189912751E+03 -0.36727250589E+03  0.43687545450E+03  0.00000000000E+00 0.  1.
         11    1    3    3    0    0 -0.48803902432E+02 -0.80408476607E+02 -0.67849505414E+02  0.11597801252E+03  0.00000000000E+00 0. -1.
<mgrwt>
<rscale>  0 0.34860895E+03</rscale>
<asrwt>0</asrwt>
<pdfrwt beam="1">  1        2 0.17905380E-01 0.35116530E+03</pdfrwt>
<pdfrwt beam="2">  1       -2 0.15845685E+00 0.35116530E+03</pdfrwt>
<totfact> 0.86572331E+01</totfact>
</mgrwt>
</event>
<event>
 8    1  0.1224355E-005  0.1454095E+03  0.7546771E-02  0.1215568E+00
          1   -1    0    0  501    0  0.00000000000E+00  0.00000000000E+00  0.17398354955E+03  0.17398354955E+03  0.00000000000E+00 0. -1.
         -1   -1    0    0    0  501 -0.00000000000E+00 -0.00000000000E+00 -0.10295350146E+03  0.10295350146E+03  0.00000000000E+00 0.  1.
         23    2    1    2    0    0  0.42579959578E+02  0.60880252440E+02  0.11144879606E+02  0.11967876376E+03  0.93162975798E+02 0.  0.
         23    2    1    2    0    0 -0.42579959578E+02 -0.60880252440E+02  0.59885168489E+02  0.15725828724E+03  0.12499790961E+03 0.  0.
          5    1    4    4  502    0 -0.19002277523E+01 -0.43916300229E+02 -0.32447276279E+02  0.54837651565E+02  0.47000000000E+01 0. -1.
         -5    1    4    4    0  502 -0.40679731826E+02 -0.16963952212E+02  0.92332444767E+02  0.10242063568E+03  0.47000000000E+01 0. -1.
        -11    1    3    3    0    0  0.55904247370E+02  0.40860727473E+02  0.41671886924E+02  0.80817263524E+02  0.00000000000E+00 0. -1.
         11    1    3    3    0    0 -0.13324287792E+02  0.20019524967E+02 -0.30527007318E+02  0.38861500239E+02  0.00000000000E+00 0.  1.
<mgrwt>
<rscale>  0 0.13834903E+03</rscale>
<asrwt>0</asrwt>
<pdfrwt beam="1">  1        1 0.26766700E-01 0.14540954E+03</pdfrwt>
<pdfrwt beam="2">  1       -1 0.15839000E-01 0.14540954E+03</pdfrwt>
<totfact> 0.49552576E+03</totfact>
</mgrwt>
</event>
<event>
 8    1  0.1224355E-005  0.1353281E+03  0.7546771E-02  0.1232468E+00
          3   -1    0    0  501    0  0.00000000000E+00  0.00000000000E+00  0.16666865458E+03  0.16666865458E+03  0.00000000000E+00 0.  1.
         -3   -1    0    0    0  501 -0.00000000000E+00 -0.00000000000E+00 -0.90316642230E+02  0.90316642230E+02  0.00000000000E+00 0. -1.
         23    2    1    2    0    0  0.46115831124E+02 -0.23773437779E+02  0.50755117737E+01  0.10403423971E+03  0.90030639167E+02 0.  0.
         23    2    1    2    0    0 -0.46115831124E+02  0.23773437779E+02  0.71276500581E+02  0.15295105710E+03  0.12498735980E+03 0.  0.
          5    1    4    4  502    0 -0.69277075194E+02 -0.18083199975E+02  0.76159474052E+02  0.10463589612E+03  0.47000000000E+01 0. -1.
         -5    1    4    4    0  502  0.23161244069E+02  0.41856637754E+02 -0.48829734716E+01  0.48315160983E+02  0.47000000000E+01 0. -1.
        -11    1    3    3    0    0  0.64051262772E+01 -0.25540728641E+02  0.42136483388E+02  0.49687399755E+02  0.00000000000E+00 0.  1.
         11    1    3    3    0    0  0.39710704847E+02  0.17672908623E+01 -0.37060971614E+02  0.54346839958E+02  0.00000000000E+00 0. -1.
<mgrwt>
<rscale>  0 0.12667929E+03</rscale>
<asrwt>0</asrwt>
<pdfrwt beam="1">  1        3 0.25641331E-01 0.13532807E+03</pdfrwt>
<pdfrwt beam="2">  1       -3 0.13894868E-01 0.13532807E+03</pdfrwt>
<totfact> 0.13959423E+03</totfact>
</mgrwt>
</event>
<event>
 8    1  0.1224355E-005  0.2278937E+03  0.7546771E-02  0.1131213E+00
         -1   -1    0    0    0  501 -0.00000000000E+00  0.00000000000E+00  0.67756287647E+03  0.67756287647E+03  0.00000000000E+00 0.  1.
          1   -1    0    0  501    0  0.00000000000E+00 -0.00000000000E+00 -0.88395485995E+02  0.88395485995E+02  0.00000000000E+00 0. -1.
         23    2    1    2    0    0 -0.16788673501E+03  0.90127049252E+02  0.45461445166E+03  0.50130758439E+03  0.91247760033E+02 0.  0.
         23    2    1    2    0    0  0.16788673501E+03 -0.90127049252E+02  0.13455293881E+03  0.26465077807E+03  0.12500680059E+03 0.  0.
          5    1    4    4  502    0  0.54442201224E+02 -0.57968053551E+01  0.10739013522E+03  0.12063286189E+03  0.47000000000E+01 0.  1.
         -5    1    4    4    0  502  0.11344453378E+03 -0.84330243897E+02  0.27162803592E+02  0.14401791618E+03  0.47000000000E+01 0.  1.
        -11    1    3    3    0    0 -0.86936496464E+02  0.89628588172E+02  0.32868060549E+03  0.35159945771E+03  0.00000000000E+00 0. -1.
         11    1    3    3    0    0 -0.80950238543E+02  0.49846107952E+00  0.12593384617E+03  0.14970812668E+03  0.00000000000E+00 0.  1.
<mgrwt>
<rscale>  0 0.22361899E+03</rscale>
<asrwt>0</asrwt>
<pdfrwt beam="2">  1        1 0.13599306E-01 0.22789371E+03</pdfrwt>
<pdfrwt beam="1">  1       -1 0.10424044E+00 0.22789371E+03</pdfrwt>
<totfact> 0.39073129E+02</totfact>
</mgrwt>
</event>
<event>
 8    1  0.1224355E-005  0.1277528E+03  0.7546771E-02  0.1245312E+00
          4   -1    0    0  501    0  0.00000000000E+00  0.00000000000E+00  0.55464120541E+02  0.55464120541E+02  0.00000000000E+00 0. -1.
         -4   -1    0    0    0  501 -0.00000000000E+00 -0.00000000000E+00 -0.24523925597E+03  0.24523925597E+03  0.00000000000E+00 0.  1.
         23    2    1    2    0    0 -0.21324306625E+02  0.15503014394E+02 -0.12614603083E+03  0.15798186349E+03  0.91380405946E+02 0.  0.
         23    2    1    2    0    0  0.21324306625E+02 -0.15503014394E+02 -0.63629104594E+02  0.14272151301E+03  0.12500279123E+03 0.  0.
          5    1    4    4  502    0  0.42565523865E+02 -0.60749743449E+02 -0.53307171217E+02  0.91466385379E+02  0.47000000000E+01 0.  1.
         -5    1    4    4    0  502 -0.21241217240E+02  0.45246729055E+02 -0.10321933377E+02  0.51255127633E+02  0.47000000000E+01 0.  1.
        -11    1    3    3    0    0 -0.11453291670E+02  0.41683687692E+02 -0.18959268848E+02  0.47203406497E+02  0.00000000000E+00 0. -1.
         11    1    3    3    0    0 -0.98710149552E+01 -0.26180673298E+02 -0.10718676198E+03  0.11077845700E+03  0.00000000000E+00 0.  1.
<mgrwt>
<rscale>  0 0.11866741E+03</rscale>
<asrwt>0</asrwt>
<pdfrwt beam="1">  1        4 0.85329416E-02 0.12775276E+03</pdfrwt>
<pdfrwt beam="2">  1       -4 0.37729116E-01 0.12775276E+03</pdfrwt>
<totfact> 0.11023361E+03</totfact>
</mgrwt>
</event>
<event>
 8    1  0.1224355E-005  0.2597013E+03  0.7546771E-02  0.1109613E+00
         -2   -1    0    0    0  501 -0.00000000000E+00  0.00000000000E+00  0.25431098468E+02  0.25431098468E+02  0.00000000000E+00 0.  1.
          2   -1    0    0  501    0  0.00000000000E+00 -0.00000000000E+00 -0.28252702453E+04  0.28252702453E+04  0.00000000000E+00 0. -1.
         23    2    1    2    0    0  0.46773290310E+01 -0.22758750612E+03 -0.88281826583E+03  0.91616940155E+03  0.90445185047E+02 0.  0.
         23    2    1    2    0    0 -0.46773290310E+01  0.22758750612E+03 -0.19170208810E+04  0.19345319422E+04  0.12500730750E+03 0.  0.
          5    1    4    4  502    0  0.18484747120E+02  0.22575789670E+03 -0.15187149274E+04  0.15355212257E+04  0.47000000000E+01 0. -1.
         -5    1    4    4    0  502 -0.23162076151E+02  0.18296094221E+01 -0.39830595363E+03  0.39901071657E+03  0.47000000000E+01 0. -1.
        -11    1    3    3    0    0 -0.30974620097E+02 -0.47469415082E+02 -0.14102485922E+03  0.15198941864E+03  0.00000000000E+00 0.  1.
         11    1    3    3    0    0  0.35651949128E+02 -0.18011809104E+03 -0.74179340661E+03  0.76417998291E+03  0.00000000000E+00 0. -1.
<mgrwt>
<rscale>  0 0.25593105E+03</rscale>
<asrwt>0</asrwt>
<pdfrwt beam="2">  1        2 0.43465697E+00 0.25970132E+03</pdfrwt>
<pdfrwt beam="1">  1       -2 0.39124766E-02 0.25970132E+03</pdfrwt>
<totfact> 0.75049909E+02</totfact>
</mgrwt>
</event>
<event>
 8    1  0.1224355E-005  0.1322149E+03  0.7546771E-02  0.1237255E+00
          1   -1    0    0  501    0  0.00000000000E+00  0.00000000000E+00  0.16218428248E+03  0.16218428248E+03  0.00000000000E+00 0. -1.
         -1   -1    0    0    0  501 -0.00000000000E+00 -0.00000000000E+00 -0.85483181807E+02  0.85483181807E+02  0.00000000000E+00 0.  1.
         23    2    1    2    0    0  0.42127694937E+02 -0.90142590037E+01  0.16360220294E+02  0.10233407719E+03  0.91370711936E+02 0.  0.
         23    2    1    2    0    0 -0.42127694937E+02  0.90142590037E+01  0.60340880374E+02  0.14533338709E+03  0.12499908805E+03 0.  0.
          5    1    4    4  502    0  0.15716500706E+02  0.51510225239E+02  0.44511773111E+01  0.54242185410E+02  0.47000000000E+01 0. -1.
         -5    1    4    4    0  502 -0.57844195643E+02 -0.42495966236E+02  0.55889703063E+02  0.91091201684E+02  0.47000000000E+01 0. -1.
        -11    1    3    3    0    0  0.49960450445E+02 -0.40946607881E+02 -0.20940254373E+01  0.64630149684E+02  0.00000000000E+00 0.  1.
         11    1    3    3    0    0 -0.78327555078E+01  0.31932348877E+02  0.18454245732E+02  0.37703927504E+02  0.00000000000E+00 0. -1.
<mgrwt>
<rscale>  0 0.12361175E+03</rscale>
<asrwt>0</asrwt>
<pdfrwt beam="1">  1        1 0.24951428E-01 0.13221487E+03</pdfrwt>
<pdfrwt beam="2">  1       -1 0.13151259E-01 0.13221487E+03</pdfrwt>
<totfact> 0.71932358E+03</totfact>
</mgrwt>
</event>
<event>
 8    1  0.1224355E-005  0.1724383E+03  0.7546771E-02  0.1181727E+00
         -1   -1    0    0    0  501 -0.00000000000E+00  0.00000000000E+00  0.31141146741E+02  0.31141146741E+02  0.00000000000E+00 0.  1.
          1   -1    0    0  501    0  0.00000000000E+00 -0.00000000000E+00 -0.10671960951E+04  0.10671960951E+04  0.00000000000E+00 0. -1.
         23    2    1    2    0    0  0.11342511404E+03 -0.35260417542E+02 -0.23112355784E+03  0.27514254707E+03  0.90425486903E+02 0.  0.
         23    2    1    2    0    0 -0.11342511404E+03  0.35260417542E+02 -0.80493139051E+03  0.82319469476E+03  0.12500563392E+03 0.  0.
          5    1    4    4  502    0 -0.44435133103E+02 -0.33408924762E+01 -0.62502405409E+03  0.62662812003E+03  0.47000000000E+01 0.  1.
         -5    1    4    4    0  502 -0.68989980933E+02  0.38601310019E+02 -0.17990733641E+03  0.19656657473E+03  0.47000000000E+01 0.  1.
        -11    1    3    3    0    0  0.55822100762E+02  0.13514266100E+02 -0.40950987075E+02  0.70538823807E+02  0.00000000000E+00 0.  1.
         11    1    3    3    0    0  0.57603013274E+02 -0.48774683643E+02 -0.19017257077E+03  0.20460372327E+03  0.00000000000E+00 0. -1.
<mgrwt>
<rscale>  0 0.16633270E+03</rscale>
<asrwt>0</asrwt>
<pdfrwt beam="2">  1        1 0.16418402E+00 0.17243828E+03</pdfrwt>
<pdfrwt beam="1">  1       -1 0.47909456E-02 0.17243828E+03</pdfrwt>
<totfact> 0.26560190E+03</totfact>
</mgrwt>
</event>
<event>
 8    1  0.1224355E-005  0.1281605E+03  0.7546771E-02  0.1245234E+00
          1   -1    0    0  501    0  0.00000000000E+00  0.00000000000E+00  0.55595773332E+03  0.55595773332E+03  0.00000000000E+00 0. -1.
         -1   -1    0    0    0  501 -0.00000000000E+00 -0.00000000000E+00 -0.33554885068E+02  0.33554885068E+02  0.00000000000E+00 0.  1.
         23    2    1    2    0    0 -0.25575487615E+02 -0.12026292303E+02  0.65198712401E+02  0.11468556760E+03  0.90017609636E+02 0.  0.
         23    2    1    2    0    0  0.25575487615E+02  0.12026292303E+02  0.45720413586E+03  0.47482705079E+03  0.12500547605E+03 0.  0.
          5    1    4    4  502    0  0.33121527848E+02 -0.20596242890E+02  0.42900274263E+03  0.43079772981E+03  0.47000000000E+01 0. -1.
         -5    1    4    4    0  502 -0.75460402328E+01  0.32622535193E+02  0.28201393225E+02  0.44029320974E+02  0.47000000000E+01 0. -1.
        -11    1    3    3    0    0 -0.10546879129E+02 -0.51253631325E+02  0.37171411742E+02  0.64186332145E+02  0.00000000000E+00 0.  1.
         11    1    3    3    0    0 -0.15028608486E+02  0.39227339021E+02  0.28027300659E+02  0.50499235459E+02  0.00000000000E+00 0. -1.
<mgrwt>
<rscale>  0 0.11871373E+03</rscale>
<asrwt>0</asrwt>
<pdfrwt beam="1">  1        1 0.85531952E-01 0.12816047E+03</pdfrwt>
<pdfrwt beam="2">  1       -1 0.51622904E-02 0.12816047E+03</pdfrwt>
<totfact> 0.62858736E+03</totfact>
</mgrwt>
</event>
<event>
 8    1  0.1224355E-005  0.1978078E+03  0.7546771E-02  0.1155959E+00
          1   -1    0    0  501    0  0.00000000000E+00  0.00000000000E+00  0.39099758055E+03  0.39099758055E+03  0.00000000000E+00 0. -1.
         -1   -1    0    0    0  501 -0.00000000000E+00 -0.00000000000E+00 -0.91103502408E+02  0.91103502408E+02  0.00000000000E+00 0.  1.
         23    2    1    2    0    0  0.79469048609E+02 -0.13110321534E+03  0.16096350332E+03  0.24037883849E+03  0.91484172580E+02 0.  0.
         23    2    1    2    0    0 -0.79469048609E+02  0.13110321534E+03  0.13893057483E+03  0.24172224447E+03  0.12499822435E+03 0.  0.
          5    1    4    4  502    0 -0.51281505280E+02  0.13522317128E+03  0.15214916295E+03  0.20996798952E+03  0.47000000000E+01 0. -1.
         -5    1    4    4    0  502 -0.28187543329E+02 -0.41199559408E+01 -0.13218588121E+02  0.31754254955E+02  0.47000000000E+01 0. -1.
        -11    1    3    3    0    0  0.72466299241E+02 -0.10523344811E+03  0.70293492861E+02  0.14583078641E+03  0.00000000000E+00 0.  1.
         11    1    3    3    0    0  0.70027493679E+01 -0.25869767234E+02  0.90670010456E+02  0.94548052077E+02  0.00000000000E+00 0. -1.
<mgrwt>
<rscale>  0 0.19280133E+03</rscale>
<asrwt>0</asrwt>
<pdfrwt beam="1">  1        1 0.60153473E-01 0.19780783E+03</pdfrwt>
<pdfrwt beam="2">  1       -1 0.14015924E-01 0.19780783E+03</pdfrwt>
<totfact> 0.22116024E+03</totfact>
</mgrwt>
</event>
<event>
 8    1  0.1224355E-005  0.1714209E+03  0.7546771E-02  0.1182802E+00
         -2   -1    0    0    0  501 -0.00000000000E+00  0.00000000000E+00  0.57531630540E+02  0.57531630540E+02  0.00000000000E+00 0.  1.
          2   -1    0    0  501    0  0.00000000000E+00 -0.00000000000E+00 -0.54338967737E+03  0.54338967737E+03  0.00000000000E+00 0. -1.
         23    2    1    2    0    0  0.11631262384E+03  0.14711160583E+02 -0.10056838232E+03  0.17921849972E+03  0.90885787699E+02 0.  0.
         23    2    1    2    0    0 -0.11631262384E+03 -0.14711160583E+02 -0.38528966450E+03  0.42170280819E+03  0.12506033805E+03 0.  0.
          5    1    4    4  502    0 -0.14067591115E+03  0.55897528803E+00 -0.29562848462E+03  0.32742680915E+03  0.47000000000E+01 0. -1.
         -5    1    4    4    0  502  0.24363287303E+02 -0.15270135871E+02 -0.89661179877E+02  0.94275999038E+02  0.47000000000E+01 0. -1.
        -11    1    3    3    0    0  0.99934319953E+02  0.14683196067E+02 -0.27988026685E+02  0.10481313939E+03  0.00000000000E+00 0.  1.
         11    1    3    3    0    0  0.16378303891E+02  0.27964516174E-01 -0.72580355639E+02  0.74405360324E+02  0.00000000000E+00 0. -1.
<mgrwt>
<rscale>  0 0.16533459E+03</rscale>
<asrwt>0</asrwt>
<pdfrwt beam="2">  1        2 0.83598413E-01 0.17142092E+03</pdfrwt>
<pdfrwt beam="1">  1       -2 0.88510200E-02 0.17142092E+03</pdfrwt>
<totfact> 0.44621344E+03</totfact>
</mgrwt>
</event>
<event>
 8    1  0.1224355E-005  0.2267558E+03  0.7546771E-02  0.1132331E+00
          1   -1    0    0  501    0  0.00000000000E+00  0.00000000000E+00  0.19681843528E+03  0.19681843528E+03  0.00000000000E+00 0. -1.
         -1   -1    0    0    0  501 -0.00000000000E+00 -0.00000000000E+00 -0.25141963873E+03  0.25141963873E+03  0.00000000000E+00 0.  1.
         23    2    1    2    0    0  0.16529598459E+03 -0.91997305452E+02 -0.72161857055E+02  0.22080333988E+03  0.88093782735E+02 0.  0.
         23    2    1    2    0    0 -0.16529598459E+03  0.91997305452E+02  0.17560653605E+02  0.22743473413E+03  0.12502765695E+03 0.  0.
          5    1    4    4  502    0 -0.15340338636E+03  0.12066182250E+03  0.12356031621E+02  0.19561859797E+03  0.47000000000E+01 0.  1.
         -5    1    4    4    0  502 -0.11892598237E+02 -0.28664517048E+02  0.52046219830E+01  0.31816136164E+02  0.47000000000E+01 0.  1.
        -11    1    3    3    0    0  0.47586963621E+02 -0.42648760755E+02 -0.67692959235E+02  0.93090131757E+02  0.00000000000E+00 0.  1.
         11    1    3    3    0    0  0.11770902097E+03 -0.49348544697E+02 -0.44688978198E+01  0.12771320812E+03  0.00000000000E+00 0. -1.
<mgrwt>
<rscale>  0 0.22209474E+03</rscale>
<asrwt>0</asrwt>
<pdfrwt beam="1">  1        1 0.30279759E-01 0.22675578E+03</pdfrwt>
<pdfrwt beam="2">  1       -1 0.38679944E-01 0.22675578E+03</pdfrwt>
<totfact> 0.98030524E+02</totfact>
</mgrwt>
</event>
<event>
 8    1  0.1224355E-005  0.2526324E+03  0.7546771E-02  0.1114047E+00
          1   -1    0    0  501    0  0.00000000000E+00  0.00000000000E+00  0.45752939776E+03  0.45752939776E+03  0.00000000000E+00 0. -1.
         -1   -1    0    0    0  501 -0.00000000000E+00 -0.00000000000E+00 -0.13892041810E+03  0.13892041810E+03  0.00000000000E+00 0.  1.
         23    2    1    2    0    0 -0.40691499310E+02  0.21573479755E+03  0.85395353932E+02  0.25263051780E+03  0.91282589045E+02 0.  0.
         23    2    1    2    0    0  0.40691499310E+02 -0.21573479755E+03  0.23321362574E+03  0.34381929806E+03  0.12500325394E+03 0.  0.
          5    1    4    4  502    0  0.25285186627E+02 -0.13717931566E+03  0.58026113629E+02  0.15115100123E+03  0.47000000000E+01 0.  1.
         -5    1    4    4    0  502  0.15406312683E+02 -0.78555481885E+02  0.17518751211E+03  0.19266829683E+03  0.47000000000E+01 0.  1.
        -11    1    3    3    0    0 -0.20468217992E+02  0.62496039183E+02 -0.16117834953E+02  0.67708843329E+02  0.00000000000E+00 0.  1.
         11    1    3    3    0    0 -0.20223281318E+02  0.15323875837E+03  0.10151318889E+03  0.18492167447E+03  0.00000000000E+00 0. -1.
<mgrwt>
<rscale>  0 0.24882926E+03</rscale>
<asrwt>0</asrwt>
<pdfrwt beam="1">  1        1 0.70389137E-01 0.25263237E+03</pdfrwt>
<pdfrwt beam="2">  1       -1 0.21372372E-01 0.25263237E+03</pdfrwt>
<totfact> 0.92052524E+02</totfact>
</mgrwt>
</event>
<event>
 8    1  0.1224355E-005  0.1418277E+03  0.7546771E-02  0.1221290E+00
          2   -1    0    0  501    0  0.00000000000E+00  0.00000000000E+00  0.22010075846E+03  0.22010075846E+03  0.00000000000E+00 0. -1.
         -2   -1    0    0    0  501 -0.00000000000E+00 -0.00000000000E+00 -0.77700002040E+02  0.77700002040E+02  0.00000000000E+00 0.  1.
         23    2    1    2    0    0  0.24354240109E+01 -0.66959894363E+02  0.32541091621E+02  0.11840107052E+03  0.92034407226E+02 0.  0.
         23    2    1    2    0    0 -0.24354240109E+01  0.66959894363E+02  0.10985966480E+03  0.17939968998E+03  0.12500217627E+03 0.  0.
          5    1    4    4  502    0  0.48214624651E+02  0.54214775652E+02  0.20079700311E+02  0.75426628546E+02  0.47000000000E+01 0.  1.
         -5    1    4    4    0  502 -0.50650048662E+02  0.12745118711E+02  0.89779964486E+02  0.10397306143E+03  0.47000000000E+01 0.  1.
        -11    1    3    3    0    0 -0.26704815634E+02 -0.71945422837E+02  0.41843968767E+02  0.87408287750E+02  0.00000000000E+00 0.  1.
         11    1    3    3    0    0  0.29140239644E+02  0.49855284737E+01 -0.93028771459E+01  0.30992782771E+02  0.00000000000E+00 0. -1.
<mgrwt>
<rscale>  0 0.13424435E+03</rscale>
<asrwt>0</asrwt>
<pdfrwt beam="1">  1        2 0.33861655E-01 0.14182772E+03</pdfrwt>
<pdfrwt beam="2">  1       -2 0.11953847E-01 0.14182772E+03</pdfrwt>
<totfact> 0.72682124E+03</totfact>
</mgrwt>
</event>
<event>
 8    1  0.1224355E-005  0.1622231E+03  0.7546771E-02  0.1194432E+00
         -2   -1    0    0    0  501 -0.00000000000E+00  0.00000000000E+00  0.12657063225E+03  0.12657063225E+03  0.00000000000E+00 0.  1.
          2   -1    0    0  501    0  0.00000000000E+00 -0.00000000000E+00 -0.19214630270E+03  0.19214630270E+03  0.00000000000E+00 0. -1.
         23    2    1    2    0    0 -0.76137749797E+01 -0.10310724309E+03  0.17575003959E+02  0.13642497824E+03  0.87257210457E+02 0.  0.
         23    2    1    2    0    0  0.76137749797E+01  0.10310724309E+03 -0.83150674408E+02  0.18229195670E+03  0.12500899838E+03 0.  0.
          5    1    4    4  502    0  0.64363349413E+02  0.73595812140E+02 -0.45751144747E+02  0.10804740422E+03  0.47000000000E+01 0. -1.
         -5    1    4    4    0  502 -0.56749574434E+02  0.29511430950E+02 -0.37399529661E+02  0.74244552487E+02  0.47000000000E+01 0. -1.
        -11    1    3    3    0    0 -0.47115414571E+02 -0.51131803423E+02  0.14777933427E+02  0.71082423480E+02  0.00000000000E+00 0.  1.
         11    1    3    3    0    0  0.39501639592E+02 -0.51975439667E+02  0.27970705319E+01  0.65342554760E+02  0.00000000000E+00 0. -1.
<mgrwt>
<rscale>  0 0.15502417E+03</rscale>
<asrwt>0</asrwt>
<pdfrwt beam="2">  1        2 0.29560969E-01 0.16222307E+03</pdfrwt>
<pdfrwt beam="1">  1       -2 0.19472405E-01 0.16222307E+03</pdfrwt>
<totfact> 0.38080223E+03</totfact>
</mgrwt>
</event>
<event>
 8    1  0.1224355E-005  0.1785966E+03  0.7546771E-02  0.1172601E+00
          1   -1    0    0  501    0  0.00000000000E+00  0.00000000000E+00  0.17459004863E+03  0.17459004863E+03  0.00000000000E+00 0. -1.
         -1   -1    0    0    0  501 -0.00000000000E+00 -0.00000000000E+00 -0.17805371737E+03  0.17805371737E+03  0.00000000000E+00 0.  1.
         23    2    1    2    0    0 -0.12695378634E+03  0.12427555889E+02 -0.41005402193E+02  0.17014411356E+03  0.10486118614E+03 0.  0.
         23    2    1    2    0    0  0.12695378634E+03 -0.12427555889E+02  0.37541733445E+02  0.18249965244E+03  0.12500013351E+03 0.  0.
          5    1    4    4  502    0 -0.17566315402E+02  0.22214566267E+02  0.14068319100E+02  0.31969829426E+02  0.47000000000E+01 0.  1.
         -5    1    4    4    0  502  0.14452010174E+03 -0.34642122156E+02  0.23473414346E+02  0.15052982301E+03  0.47000000000E+01 0.  1.
        -11    1    3    3    0    0 -0.56503198376E+02 -0.63443844105E+01 -0.71297323810E+02  0.91193042623E+02  0.00000000000E+00 0.  1.
         11    1    3    3    0    0 -0.70450587965E+02  0.18771940300E+02  0.30291921617E+02  0.78951070939E+02  0.00000000000E+00 0. -1.
<mgrwt>
<rscale>  0 0.17513006E+03</rscale>
<asrwt>0</asrwt>
<pdfrwt beam="1">  1        1 0.26860008E-01 0.17859659E+03</pdfrwt>
<pdfrwt beam="2">  1       -1 0.27392879E-01 0.17859659E+03</pdfrwt>
<totfact> 0.20500824E+03</totfact>
</mgrwt>
</event>
<event>
 8    1  0.1224355E-005  0.2528581E+03  0.7546771E-02  0.1114084E+00
          2   -1    0    0  501    0  0.00000000000E+00  0.00000000000E+00  0.21446851771E+03  0.21446851771E+03  0.00000000000E+00 0. -1.
         -2   -1    0    0    0  501 -0.00000000000E+00 -0.00000000000E+00 -0.33050999761E+03  0.33050999761E+03  0.00000000000E+00 0.  1.
         23    2    1    2    0    0 -0.20249317604E+03 -0.85594783273E+02 -0.16331180447E+03  0.28773994863E+03  0.88281251064E+02 0.  0.
         23    2    1    2    0    0  0.20249317604E+03  0.85594783273E+02  0.47270324559E+02  0.25723856669E+03  0.12492895318E+03 0.  0.
          5    1    4    4  502    0  0.67802085086E+02  0.96054859646E+02  0.23233920527E+02  0.11993983436E+03  0.47000000000E+01 0. -1.
         -5    1    4    4    0  502  0.13469109096E+03 -0.10460076373E+02  0.24036404032E+02  0.13729873233E+03  0.47000000000E+01 0. -1.
        -11    1    3    3    0    0 -0.59827974652E+02  0.48584170291E+01 -0.12547918194E+02  0.61322434867E+02  0.00000000000E+00 0. -1.
         11    1    3    3    0    0 -0.14266520139E+03 -0.90453200302E+02 -0.15076388627E+03  0.22641751376E+03  0.00000000000E+00 0.  1.
<mgrwt>
<rscale>  0 0.24877156E+03</rscale>
<asrwt>0</asrwt>
<pdfrwt beam="1">  1        2 0.32995157E-01 0.25285806E+03</pdfrwt>
<pdfrwt beam="2">  1       -2 0.50847692E-01 0.25285806E+03</pdfrwt>
<totfact> 0.58760215E+02</totfact>
</mgrwt>
</event>
<event>
 8    1  0.1224355E-005  0.1606993E+03  0.7546771E-02  0.1195451E+00
         -1   -1    0    0    0  501 -0.00000000000E+00  0.00000000000E+00  0.15240477065E+03  0.15240477065E+03  0.00000000000E+00 0.  1.
          1   -1    0    0  501    0  0.00000000000E+00 -0.00000000000E+00 -0.15129707106E+03  0.15129707106E+03  0.00000000000E+00 0. -1.
         23    2    1    2    0    0  0.83082159622E+02  0.57423451808E+02  0.32591217594E+02  0.13994751533E+03  0.91230595298E+02 0.  0.
         23    2    1    2    0    0 -0.83082159622E+02 -0.57423451808E+02 -0.31483518002E+02  0.16375432638E+03  0.12499667770E+03 0.  0.
          5    1    4    4  502    0 -0.42960059229E+02  0.44202306156E+01 -0.68512761745E+02  0.81124556391E+02  0.47000000000E+01 0.  1.
         -5    1    4    4    0  502 -0.40122100393E+02 -0.61843682424E+02  0.37029243743E+02  0.82629769986E+02  0.47000000000E+01 0.  1.
        -11    1    3    3    0    0  0.12658935707E+02  0.62208024334E+02  0.34304726301E+01  0.63575585622E+02  0.00000000000E+00 0. -1.
         11    1    3    3    0    0  0.70423223915E+02 -0.47845725255E+01  0.29160744964E+02  0.76371929710E+02  0.00000000000E+00 0.  1.
<mgrwt>
<rscale>  0 0.15416109E+03</rscale>
<asrwt>0</asrwt>
<pdfrwt beam="2">  1        1 0.23276472E-01 0.16069931E+03</pdfrwt>
<pdfrwt beam="1">  1       -1 0.23446888E-01 0.16069931E+03</pdfrwt>
<totfact> 0.31644791E+03</totfact>
</mgrwt>
</event>
<event>
 8    1  0.1224355E-005  0.1352412E+03  0.7546771E-02  0.1232818E+00
         -2   -1    0    0    0  501 -0.00000000000E+00  0.00000000000E+00  0.50707360254E+02  0.50707360254E+02  0.00000000000E+00 0.  1.
          2   -1    0    0  501    0  0.00000000000E+00 -0.00000000000E+00 -0.28094657233E+03  0.28094657233E+03  0.00000000000E+00 0. -1.
         23    2    1    2    0    0 -0.15950885671E+02 -0.49009321425E+02 -0.94828397091E+02  0.14027404523E+03  0.89599322151E+02 0.  0.
         23    2    1    2    0    0  0.15950885671E+02  0.49009321425E+02 -0.13541081498E+03  0.19137988735E+03  0.12503530753E+03 0.  0.
          5    1    4    4  502    0  0.41893285645E+02 -0.12637880948E+02 -0.44256004165E+01  0.44231655587E+02  0.47000000000E+01 0. -1.
         -5    1    4    4    0  502 -0.25942399974E+02  0.61647202373E+02 -0.13098521457E+03  0.14714823176E+03  0.47000000000E+01 0. -1.
        -11    1    3    3    0    0 -0.46844328618E+02 -0.10471666234E+02 -0.23318500854E+02  0.53364776768E+02  0.00000000000E+00 0.  1.
         11    1    3    3    0    0  0.30893442947E+02 -0.38537655191E+02 -0.71509896238E+02  0.86909268462E+02  0.00000000000E+00 0. -1.
<mgrwt>
<rscale>  0 0.12645190E+03</rscale>
<asrwt>0</asrwt>
<pdfrwt beam="2">  1        2 0.43222550E-01 0.13524116E+03</pdfrwt>
<pdfrwt beam="1">  1       -2 0.78011322E-02 0.13524116E+03</pdfrwt>
<totfact> 0.10902960E+04</totfact>
</mgrwt>
</event>
<event>
 8    1  0.1224355E-005  0.1364761E+03  0.7546771E-02  0.1228205E+00
         -1   -1    0    0    0  501 -0.00000000000E+00  0.00000000000E+00  0.98554702504E+02  0.98554702504E+02  0.00000000000E+00 0.  1.
          1   -1    0    0  501    0  0.00000000000E+00 -0.00000000000E+00 -0.19053901724E+03  0.19053901724E+03  0.00000000000E+00 0. -1.
         23    2    1    2    0    0 -0.43828876116E+02  0.32833819312E+02  0.20164332459E+02  0.11244989002E+03  0.96121524075E+02 0.  0.
         23    2    1    2    0    0  0.43828876116E+02 -0.32833819312E+02 -0.11214864720E+03  0.17664382972E+03  0.12500677357E+03 0.  0.
          5    1    4    4  502    0  0.37077107490E+02 -0.47910467092E+02  0.24036760610E+01  0.60811120820E+02  0.47000000000E+01 0.  1.
         -5    1    4    4    0  502  0.67517686259E+01  0.15076647781E+02 -0.11455232326E+03  0.11583270890E+03  0.47000000000E+01 0.  1.
        -11    1    3    3    0    0 -0.34524081552E+02  0.40315622798E+02  0.54513140043E+02  0.76085110803E+02  0.00000000000E+00 0.  1.
         11    1    3    3    0    0 -0.93047945635E+01 -0.74818034864E+01 -0.34348807584E+02  0.36364779220E+02  0.00000000000E+00 0. -1.
<mgrwt>
<rscale>  0 0.12949646E+03</rscale>
<asrwt>0</asrwt>
<pdfrwt beam="2">  1        1 0.29313695E-01 0.13647609E+03</pdfrwt>
<pdfrwt beam="1">  1       -1 0.15162262E-01 0.13647609E+03</pdfrwt>
<totfact> 0.47203856E+03</totfact>
</mgrwt>
</event>
<event>
 8    1  0.1224355E-005  0.1253539E+03  0.7546771E-02  0.1249389E+00
         -2   -1    0    0    0  501 -0.00000000000E+00  0.00000000000E+00  0.26143331140E+02  0.26143331140E+02  0.00000000000E+00 0.  1.
          2   -1    0    0  501    0  0.00000000000E+00 -0.00000000000E+00 -0.51833559271E+03  0.51833559271E+03  0.00000000000E+00 0. -1.
         23    2    1    2    0    0  0.84102054959E+01  0.42362207653E+01 -0.11955997175E+03  0.15132701747E+03  0.92285438986E+02 0.  0.
         23    2    1    2    0    0 -0.84102054959E+01 -0.42362207653E+01 -0.37263228982E+03  0.39315190638E+03  0.12499968380E+03 0.  0.
          5    1    4    4  502    0 -0.56559575229E+02  0.28124643119E+02 -0.24177087050E+03  0.24993044017E+03  0.47000000000E+01 0. -1.
         -5    1    4    4    0  502  0.48149369733E+02 -0.32360863884E+02 -0.13086141932E+03  0.14322146621E+03  0.47000000000E+01 0. -1.
        -11    1    3    3    0    0 -0.35965332044E+02 -0.98921866417E+01 -0.86545148821E+02  0.94241303312E+02  0.00000000000E+00 0. -1.
         11    1    3    3    0    0  0.44375537540E+02  0.14128407407E+02 -0.33014822925E+02  0.57085714155E+02  0.00000000000E+00 0.  1.
<mgrwt>
<rscale>  0 0.11626500E+03</rscale>
<asrwt>0</asrwt>
<pdfrwt beam="2">  1        2 0.79743933E-01 0.12535389E+03</pdfrwt>
<pdfrwt beam="1">  1       -2 0.40220512E-02 0.12535389E+03</pdfrwt>
<totfact> 0.15303099E+04</totfact>
</mgrwt>
</event>
<event>
 8    1  0.1224355E-005  0.1387773E+03  0.7546771E-02  0.1226515E+00
          3   -1    0    0  501    0  0.00000000000E+00  0.00000000000E+00  0.45847634895E+02  0.45847634895E+02  0.00000000000E+00 0. -1.
         -3   -1    0    0    0  501 -0.00000000000E+00 -0.00000000000E+00 -0.48965648411E+03  0.48965648411E+03  0.00000000000E+00 0.  1.
         23    2    1    2    0    0  0.44850011070E+01 -0.60111922835E+02 -0.35353909203E+03  0.36995116575E+03  0.90776742318E+02 0.  0.
         23    2    1    2    0    0 -0.44850011070E+01  0.60111922835E+02 -0.90269757180E+02  0.16555295325E+03  0.12500237104E+03 0.  0.
          5    1    4    4  502    0  0.47217346236E+02 -0.38531456249E+01 -0.64767604771E+01  0.48045425829E+02  0.47000000000E+01 0. -1.
         -5    1    4    4    0  502 -0.51702347343E+02  0.63965068460E+02 -0.83792996703E+02  0.11750752742E+03  0.47000000000E+01 0. -1.
        -11    1    3    3    0    0 -0.30491914275E+02 -0.61315990297E+02 -0.17317414953E+03  0.18622216186E+03  0.00000000000E+00 0. -1.
         11    1    3    3    0    0  0.34976915382E+02  0.12040674623E+01 -0.18036494250E+03  0.18372900389E+03  0.00000000000E+00 0.  1.
<mgrwt>
<rscale>  0 0.13063617E+03</rscale>
<asrwt>0</asrwt>
<pdfrwt beam="1">  1        3 0.70534819E-02 0.13877734E+03</pdfrwt>
<pdfrwt beam="2">  1       -3 0.75331771E-01 0.13877734E+03</pdfrwt>
<totfact> 0.51798774E+02</totfact>
</mgrwt>
</event>
<event>
 7    1  0.1224355E-005  0.2013494E+03  0.7546771E-02  0.1177491E+00
          1   -1    0    0  501    0  0.00000000000E+00  0.00000000000E+00  0.23595668604E+03  0.23595668604E+03  0.00000000000E+00 0. -1.
         -1   -1    0    0    0  501 -0.00000000000E+00 -0.00000000000E+00 -0.16122414192E+03  0.16122414192E+03  0.00000000000E+00 0.  1.
         23    2    1    2    0    0  0.14695052060E+02  0.40950804635E+02 -0.90109610434E+02  0.13696072586E+03  0.93517835623E+02 0.  0.
          5    1    1    2  502    0  0.26480557177E+02 -0.10630576950E+03  0.14223786283E+03  0.17959909844E+03  0.47000000000E+01 0. -1.
         -5    1    1    2    0  502 -0.41175609237E+02  0.65354964860E+02  0.22604291717E+02  0.80621003665E+02  0.47000000000E+01 0.  1.
        -11    1    3    3    0    0  0.33451094897E+02  0.19212011216E+02 -0.99529173187E+02  0.10674330630E+03  0.00000000000E+00 0.  1.
         11    1    3    3    0    0 -0.18756042838E+02  0.21738793419E+02  0.94195627527E+01  0.30217419557E+02  0.00000000000E+00 0. -1.
<mgrwt>
<rscale>  0 0.17034239E+03</rscale>
<asrwt>0</asrwt>
<pdfrwt beam="1">  1        1 0.36301029E-01 0.20134936E+03</pdfrwt>
<pdfrwt beam="2">  1       -1 0.24803714E-01 0.20134936E+03</pdfrwt>
<totfact> 0.16629907E+03</totfact>
</mgrwt>
</event>
<event>
 7    1  0.1224355E-005  0.1166244E+03  0.7546771E-02  0.1310161E+00
         -2   -1    0    0    0  501 -0.00000000000E+00  0.00000000000E+00  0.32635905054E+02  0.32635905054E+02  0.00000000000E+00 0.  1.
          2   -1    0    0  501    0  0.00000000000E+00 -0.00000000000E+00 -0.18445898278E+03  0.18445898278E+03  0.00000000000E+00 0. -1.
         23    2    1    2    0    0 -0.20186642223E+02  0.11355572687E+02 -0.13077184647E+03  0.17522136142E+03  0.11430135657E+03 0.  0.
          5    1    3    3  502    0 -0.43010347371E+02 -0.20314748781E+02 -0.12702904013E+03  0.13572415420E+03  0.47000000000E+01 0. -1.
         -5    1    3    3    0  502  0.22823705149E+02  0.31670321468E+02 -0.37428063419E+01  0.39497207217E+02  0.47000000000E+01 0.  1.
        -11    1    1    2    0    0  0.81119855065E+01 -0.16900514464E+02 -0.22929684160E+01  0.18886222548E+02  0.00000000000E+00 0. -1.
         11    1    1    2    0    0  0.12074656716E+02  0.55449417763E+01 -0.18758262843E+02  0.22987303865E+02  0.00000000000E+00 0.  1.
<mgrwt>
<rscale>  0 0.87048406E+02</rscale>
<asrwt>0</asrwt>
<pdfrwt beam="2">  1        2 0.28378306E-01 0.11662440E+03</pdfrwt>
<pdfrwt beam="1">  1       -2 0.50209083E-02 0.11662440E+03</pdfrwt>
<totfact> 0.32901722E+04</totfact>
</mgrwt>
</event>
<event>
 8    1  0.1224355E-005  0.1448950E+03  0.7546771E-02  0.1216338E+00
         -2   -1    0    0    0  501 -0.00000000000E+00  0.00000000000E+00  0.18040387639E+02  0.18040387639E+02  0.00000000000E+00 0.  1.
          2   -1    0    0  501    0  0.00000000000E+00 -0.00000000000E+00 -0.97001184043E+03  0.97001184043E+03  0.00000000000E+00 0. -1.
         23    2    1    2    0    0  0.68575120435E+02 -0.25781775742E+02 -0.38217703855E+03  0.40012345085E+03  0.93124862567E+02 0.  0.
         23    2    1    2    0    0 -0.68575120435E+02  0.25781775742E+02 -0.56979441425E+03  0.58792877722E+03  0.12500930153E+03 0.  0.
          5    1    4    4  502    0 -0.13844639929E+02  0.70791571661E+02 -0.33082695628E+03  0.33863208011E+03  0.47000000000E+01 0.  1.
         -5    1    4    4    0  502 -0.54730480507E+02 -0.45009795919E+02 -0.23896745796E+03  0.24929669711E+03  0.47000000000E+01 0.  1.
        -11    1    3    3    0    0  0.21121552653E+02  0.19790844641E+02 -0.29376140004E+02  0.41240212410E+02  0.00000000000E+00 0.  1.
         11    1    3    3    0    0  0.47453567782E+02 -0.45572620383E+02 -0.35280089854E+03  0.35888323844E+03  0.00000000000E+00 0. -1.
<mgrwt>
<rscale>  0 0.13778725E+03</rscale>
<asrwt>0</asrwt>
<pdfrwt beam="2">  1        2 0.14923258E+00 0.14489504E+03</pdfrwt>
<pdfrwt beam="1">  1       -2 0.27754445E-02 0.14489504E+03</pdfrwt>
<totfact> 0.12567910E+04</totfact>
</mgrwt>
</event>
<event>
 8    1  0.1224355E-005  0.1457592E+03  0.7546771E-02  0.1216181E+00
         -1   -1    0    0    0  501 -0.00000000000E+00  0.00000000000E+00  0.23066832569E+03  0.23066832569E+03  0.00000000000E+00 0.  1.
          1   -1    0    0  501    0  0.00000000000E+00 -0.00000000000E+00 -0.90434459019E+02  0.90434459019E+02  0.00000000000E+00 0. -1.
         23    2    1    2    0    0 -0.56060196121E+02  0.49758998917E+02  0.13034717473E+03  0.17500863758E+03  0.89548499177E+02 0.  0.
         23    2    1    2    0    0  0.56060196121E+02 -0.49758998917E+02  0.98866919364E+01  0.14609414713E+03  0.12500819807E+03 0.  0.
          5    1    4    4  502    0  0.82374093101E+02 -0.59343585027E+01  0.33929653131E+02  0.89409279086E+02  0.47000000000E+01 0. -1.
         -5    1    4    4    0  502 -0.26313896979E+02 -0.43824640414E+02 -0.24042961195E+02  0.56684868040E+02  0.47000000000E+01 0. -1.
        -11    1    3    3    0    0 -0.18921521933E+01  0.51228720352E+02  0.10128502791E+03  0.11351924466E+03  0.00000000000E+00 0.  1.
         11    1    3    3    0    0 -0.54168043928E+02 -0.14697214349E+01  0.29062146819E+02  0.61489392921E+02  0.00000000000E+00 0. -1.
<mgrwt>
<rscale>  0 0.13790164E+03</rscale>
<asrwt>0</asrwt>
<pdfrwt beam="2">  1        1 0.13912994E-01 0.14575923E+03</pdfrwt>
<pdfrwt beam="1">  1       -1 0.35487434E-01 0.14575923E+03</pdfrwt>
<totfact> 0.30428560E+03</totfact>
</mgrwt>
</event>
<event>
 8    1  0.1224355E-005  0.1539971E+03  0.7546771E-02  0.1203596E+00
          2   -1    0    0  501    0  0.00000000000E+00  0.00000000000E+00  0.79491575238E+03  0.79491575238E+03  0.00000000000E+00 0. -1.
         -2   -1    0    0    0  501 -0.00000000000E+00 -0.00000000000E+00 -0.48054733991E+02  0.48054733991E+02  0.00000000000E+00 0.  1.
         23    2    1    2    0    0  0.31059543387E+02 -0.84366149081E+02  0.66944602636E+02  0.14583244873E+03  0.93290840564E+02 0.  0.
         23    2    1    2    0    0 -0.31059543387E+02  0.84366149081E+02  0.67991641576E+03  0.69713803765E+03  0.12503107124E+03 0.  0.
          5    1    4    4  502    0 -0.36838380502E+02  0.11372990459E+03  0.46720028629E+03  0.48227560066E+03  0.47000000000E+01 0.  1.
         -5    1    4    4    0  502  0.57788371152E+01 -0.29363755509E+02  0.21271612946E+03  0.21486243699E+03  0.47000000000E+01 0.  1.
        -11    1    3    3    0    0 -0.28180195571E+02 -0.21455231583E+02  0.43887845643E+02  0.56396749728E+02  0.00000000000E+00 0.  1.
         11    1    3    3    0    0  0.59239738957E+02 -0.62910917499E+02  0.23056756993E+02  0.89435698998E+02  0.00000000000E+00 0. -1.
<mgrwt>
<rscale>  0 0.14748617E+03</rscale>
<asrwt>0</asrwt>
<pdfrwt beam="1">  1        2 0.12229472E+00 0.15399711E+03</pdfrwt>
<pdfrwt beam="2">  1       -2 0.73930366E-02 0.15399711E+03</pdfrwt>
<totfact> 0.37546240E+03</totfact>
</mgrwt>
</event>
<event>
 8    1  0.1224355E-005  0.1435757E+03  0.7546771E-02  0.1217318E+00
          2   -1    0    0  501    0  0.00000000000E+00  0.00000000000E+00  0.38431010807E+03  0.38431010807E+03  0.00000000000E+00 0. -1.
         -2   -1    0    0    0  501 -0.00000000000E+00 -0.00000000000E+00 -0.46916826857E+02  0.46916826857E+02  0.00000000000E+00 0.  1.
         23    2    1    2    0    0 -0.54327428745E+02 -0.45121582268E+02  0.10979955527E+03  0.16213052050E+03  0.96140192638E+02 0.  0.
         23    2    1    2    0    0  0.54327428745E+02  0.45121582268E+02  0.22759372594E+03  0.26909641442E+03  0.12500619771E+03 0.  0.
          5    1    4    4  502    0 -0.12129058912E+02  0.22672954248E+02 -0.45574608232E+01  0.26533702598E+02  0.47000000000E+01 0. -1.
         -5    1    4    4    0  502  0.66456487657E+02  0.22448628021E+02  0.23215118676E+03  0.24256271182E+03  0.47000000000E+01 0. -1.
        -11    1    3    3    0    0  0.24741318593E+00 -0.61832906051E+02  0.50608561599E+02  0.79903666944E+02  0.00000000000E+00 0.  1.
         11    1    3    3    0    0 -0.54574841931E+02  0.16711323782E+02  0.59190993674E+02  0.82226853561E+02  0.00000000000E+00 0. -1.
<mgrwt>
<rscale>  0 0.13707639E+03</rscale>
<asrwt>0</asrwt>
<pdfrwt beam="1">  1        2 0.59124630E-01 0.14357568E+03</pdfrwt>
<pdfrwt beam="2">  1       -2 0.72179736E-02 0.14357568E+03</pdfrwt>
<totfact> 0.88468964E+03</totfact>
</mgrwt>
</event>
<event>
 8    1  0.1224355E-005  0.1374046E+03  0.7546771E-02  0.1228151E+00
          1   -1    0    0  501    0  0.00000000000E+00  0.00000000000E+00  0.35994576121E+03  0.35994576121E+03  0.00000000000E+00 0. -1.
         -1   -1    0    0    0  501 -0.00000000000E+00 -0.00000000000E+00 -0.50099980215E+02  0.50099980215E+02  0.00000000000E+00 0.  1.
         23    2    1    2    0    0 -0.38955185665E+02  0.41687869366E+02  0.57734120048E+02  0.12292153670E+03  0.92309753682E+02 0.  0.
         23    2    1    2    0    0  0.38955185665E+02 -0.41687869366E+02  0.25211166095E+03  0.28712420472E+03  0.12499853763E+03 0.  0.
          5    1    4    4  502    0  0.29313410952E+02  0.42620619222E+02  0.10742416982E+03  0.11932240152E+03  0.47000000000E+01 0.  1.
         -5    1    4    4    0  502  0.96417747129E+01 -0.84308488588E+02  0.14468749113E+03  0.16780180320E+03  0.47000000000E+01 0.  1.
        -11    1    3    3    0    0  0.11097641405E+02  0.49883949640E+02  0.50218672666E+02  0.71648315826E+02  0.00000000000E+00 0. -1.
         11    1    3    3    0    0 -0.50052827070E+02 -0.81960802732E+01  0.75154473818E+01  0.51273220875E+02  0.00000000000E+00 0.  1.
<mgrwt>
<rscale>  0 0.12953223E+03</rscale>
<asrwt>0</asrwt>
<pdfrwt beam="1">  1        1 0.55376269E-01 0.13740458E+03</pdfrwt>
<pdfrwt beam="2">  1       -1 0.77076895E-02 0.13740458E+03</pdfrwt>
<totfact> 0.60610054E+03</totfact>
</mgrwt>
</event>
<event>
 8    1  0.1224355E-005  0.3501434E+03  0.7546771E-02  0.1063701E+00
          2   -1    0    0  501    0  0.00000000000E+00  0.00000000000E+00  0.79053608002E+03  0.79053608002E+03  0.00000000000E+00 0. -1.
         -2   -1    0    0    0  501 -0.00000000000E+00 -0.00000000000E+00 -0.17041273366E+03  0.17041273366E+03  0.00000000000E+00 0.  1.
         23    2    1    2    0    0 -0.29026763558E+02 -0.32577775610E+03  0.14051636227E+03  0.36712790177E+03  0.89801719475E+02 0.  0.
         23    2    1    2    0    0  0.29026763558E+02  0.32577775610E+03  0.47960698409E+03  0.59382091192E+03  0.12500686731E+03 0.  0.
          5    1    4    4  502    0  0.70015145409E+02  0.12821489406E+03  0.16942972617E+03  0.22376260133E+03  0.47000000000E+01 0.  1.
         -5    1    4    4    0  502 -0.40988381851E+02  0.19756286204E+03  0.31017725792E+03  0.37005831059E+03  0.47000000000E+01 0.  1.
        -11    1    3    3    0    0  0.23480858497E+02 -0.14496819074E+03  0.89801275389E+02  0.17213772423E+03  0.00000000000E+00 0. -1.
         11    1    3    3    0    0 -0.52507622055E+02 -0.18080956536E+03  0.50715086885E+02  0.19499017754E+03  0.00000000000E+00 0.  1.
<mgrwt>
<rscale>  0 0.34736789E+03</rscale>
<asrwt>0</asrwt>
<pdfrwt beam="1">  1        2 0.12162093E+00 0.35014342E+03</pdfrwt>
<pdfrwt beam="2">  1       -2 0.26217344E-01 0.35014342E+03</pdfrwt>
<totfact> 0.47065286E+02</totfact>
</mgrwt>
</event>
<event>
 8    1  0.1224355E-005  0.1443804E+03  0.7546771E-02  0.1219868E+00
         -1   -1    0    0    0  501 -0.00000000000E+00  0.00000000000E+00  0.28775545022E+03  0.28775545022E+03  0.00000000000E+00 0.  1.
          1   -1    0    0  501    0  0.00000000000E+00 -0.00000000000E+00 -0.56759254000E+02  0.56759254000E+02  0.00000000000E+00 0. -1.
         23    2    1    2    0    0 -0.31881655956E+02 -0.64863329242E+02  0.10359577993E+03  0.15196191182E+03  0.84478669239E+02 0.  0.
         23    2    1    2    0    0  0.31881655956E+02  0.64863329242E+02  0.12740041629E+03  0.19255279240E+03  0.12498808073E+03 0.  0.
          5    1    4    4  502    0 -0.23963048186E+02 -0.18430177323E+02  0.71213609665E+02  0.77507208155E+02  0.47000000000E+01 0.  1.
         -5    1    4    4    0  502  0.55844704142E+02  0.83293506564E+02  0.56186806623E+02  0.11504558425E+03  0.47000000000E+01 0.  1.
        -11    1    3    3    0    0 -0.12579035594E+02 -0.37934064462E+02  0.11103142573E+03  0.11800509685E+03  0.00000000000E+00 0. -1.
         11    1    3    3    0    0 -0.19302620362E+02 -0.26929264780E+02 -0.74356457948E+01  0.33956814969E+02  0.00000000000E+00 0.  1.
<mgrwt>
<rscale>  0 0.13524931E+03</rscale>
<asrwt>0</asrwt>
<pdfrwt beam="2">  1        1 0.87321931E-02 0.14438044E+03</pdfrwt>
<pdfrwt beam="1">  1       -1 0.44270069E-01 0.14438044E+03</pdfrwt>
<totfact> 0.38182450E+03</totfact>
</mgrwt>
</event>
<event>
 8    1  0.1347615E-005  0.1643457E+03  0.7546771E-02  0.1191715E+00
          4   -1    0    0  501    0  0.00000000000E+00  0.00000000000E+00  0.10662778145E+03  0.10662778145E+03  0.00000000000E+00 0. -1.
         -4   -1    0    0    0  501 -0.00000000000E+00 -0.00000000000E+00 -0.21462472842E+03  0.21462472842E+03  0.00000000000E+00 0.  1.
         23    2    1    2    0    0  0.10156063592E+03 -0.32702162979E+02 -0.53235203152E+02  0.14802335153E+03  0.87709358176E+02 0.  0.
         23    2    1    2    0    0 -0.10156063592E+03  0.32702162979E+02 -0.54761743812E+02  0.17322915834E+03  0.12500199392E+03 0.  0.
          5    1    4    4  502    0 -0.44085387997E+02  0.29325352957E+02  0.37023482798E+02  0.64779055561E+02  0.47000000000E+01 0. -1.
         -5    1    4    4    0  502 -0.57475247920E+02  0.33768100225E+01 -0.91785226610E+02  0.10845010278E+03  0.47000000000E+01 0. -1.
        -11    1    3    3    0    0  0.84496133173E+02 -0.79852917750E+01  0.22807864535E+01  0.84903259023E+02  0.00000000000E+00 0. -1.
         11    1    3    3    0    0  0.17064502745E+02 -0.24716871204E+02 -0.55515989606E+02  0.63120092506E+02  0.00000000000E+00 0.  1.
<mgrwt>
<rscale>  0 0.15735560E+03</rscale>
<asrwt>0</asrwt>
<pdfrwt beam="1">  1        4 0.16404274E-01 0.16434565E+03</pdfrwt>
<pdfrwt beam="2">  1       -4 0.33019189E-01 0.16434565E+03</pdfrwt>
<totfact> 0.48974840E+02</totfact>
</mgrwt>
</event>
<event>
 8    1  0.1224355E-005  0.2436943E+03  0.7546771E-02  0.1120015E+00
         -2   -1    0    0    0  501 -0.00000000000E+00  0.00000000000E+00  0.25539766210E+02  0.25539766210E+02  0.00000000000E+00 0.  1.
          2   -1    0    0  501    0  0.00000000000E+00 -0.00000000000E+00 -0.31568591413E+04  0.31568591413E+04  0.00000000000E+00 0. -1.
         23    2    1    2    0    0  0.11640672659E+03  0.17381837530E+03 -0.64386282824E+03  0.68303358910E+03  0.90621126975E+02 0.  0.
         23    2    1    2    0    0 -0.11640672659E+03 -0.17381837530E+03 -0.24874565468E+04  0.24993653184E+04  0.12499427522E+03 0.  0.
          5    1    4    4  502    0 -0.13323551931E+03 -0.12244724301E+03 -0.15902258646E+04  0.16004953675E+04  0.47000000000E+01 0. -1.
         -5    1    4    4    0  502  0.16828792718E+02 -0.51371132289E+02 -0.89723068223E+03  0.89886995090E+03  0.47000000000E+01 0. -1.
        -11    1    3    3    0    0  0.13873491390E+02 -0.77406974461E+01 -0.86467524476E+02  0.87914873311E+02  0.00000000000E+00 0.  1.
         11    1    3    3    0    0  0.10253323520E+03  0.18155907275E+03 -0.55739530377E+03  0.59511871579E+03  0.00000000000E+00 0. -1.
<mgrwt>
<rscale>  0 0.23966738E+03</rscale>
<asrwt>0</asrwt>
<pdfrwt beam="2">  1        2 0.48567071E+00 0.24369432E+03</pdfrwt>
<pdfrwt beam="1">  1       -2 0.39291942E-02 0.24369432E+03</pdfrwt>
<totfact> 0.47681664E+02</totfact>
</mgrwt>
</event>
<event>
 8    1  0.1849147E-005  0.4044130E+03  0.7546771E-02  0.1043045E+00
         -3   -1    0    0    0  501 -0.00000000000E+00  0.00000000000E+00  0.11697304350E+04  0.11697304350E+04  0.00000000000E+00 0.  1.
          3   -1    0    0  501    0  0.00000000000E+00 -0.00000000000E+00 -0.15390261965E+03  0.15390261965E+03  0.00000000000E+00 0. -1.
         23    2    1    2    0    0 -0.10811706087E+03 -0.36910088238E+03  0.72402304501E+03  0.82493486919E+03  0.91560954967E+02 0.  0.
         23    2    1    2    0    0  0.10811706087E+03  0.36910088238E+03  0.29180477035E+03  0.49869818546E+03  0.12500038383E+03 0.  0.
          5    1    4    4  502    0 -0.14330333687E+02  0.16853906959E+03  0.11508516564E+03  0.20463983433E+03  0.47000000000E+01 0.  1.
         -5    1    4    4    0  502  0.12244739456E+03  0.20056181279E+03  0.17671960471E+03  0.29405835113E+03  0.47000000000E+01 0.  1.
        -11    1    3    3    0    0 -0.42905943671E+02 -0.22947939299E+03  0.51312294333E+03  0.56373474860E+03  0.00000000000E+00 0.  1.
         11    1    3    3    0    0 -0.65211117204E+02 -0.13962148939E+03  0.21090010168E+03  0.26120012059E+03  0.00000000000E+00 0. -1.
<mgrwt>
<rscale>  0 0.40213004E+03</rscale>
<asrwt>0</asrwt>
<pdfrwt beam="2">  1        3 0.23677327E-01 0.40441298E+03</pdfrwt>
<pdfrwt beam="1">  1       -3 0.17995852E+00 0.40441298E+03</pdfrwt>
<totfact> 0.87840287E+00</totfact>
</mgrwt>
</event>
<event>
 8    1  0.1224355E-005  0.1299496E+03  0.7546771E-02  0.1241354E+00
          1   -1    0    0  501    0  0.00000000000E+00  0.00000000000E+00  0.20404741989E+02  0.20404741989E+02  0.00000000000E+00 0.  1.
         -1   -1    0    0    0  501 -0.00000000000E+00 -0.00000000000E+00 -0.65550229525E+03  0.65550229525E+03  0.00000000000E+00 0. -1.
         23    2    1    2    0    0 -0.28860801997E+02  0.20718967090E+02 -0.33193636833E+03  0.34606829030E+03  0.91210127985E+02 0.  0.
         23    2    1    2    0    0  0.28860801997E+02 -0.20718967090E+02 -0.30316118494E+03  0.32983874694E+03  0.12499869375E+03 0.  0.
          5    1    4    4  502    0 -0.38520275146E+02  0.22547009322E+02 -0.68929348029E+02  0.82252806921E+02  0.47000000000E+01 0. -1.
         -5    1    4    4    0  502  0.67381077143E+02 -0.43265976412E+02 -0.23423183691E+03  0.24758594001E+03  0.47000000000E+01 0. -1.
        -11    1    3    3    0    0  0.20563388388E+01  0.52402797904E+02 -0.20627780436E+03  0.21283987956E+03  0.00000000000E+00 0. -1.
         11    1    3    3    0    0 -0.30917140836E+02 -0.31683830814E+02 -0.12565856396E+03  0.13322841074E+03  0.00000000000E+00 0.  1.
<mgrwt>
<rscale>  0 0.12106272E+03</rscale>
<asrwt>0</asrwt>
<pdfrwt beam="1">  1        1 0.31391911E-02 0.12994959E+03</pdfrwt>
<pdfrwt beam="2">  1       -1 0.10084651E+00 0.12994959E+03</pdfrwt>
<totfact> 0.30378179E+03</totfact>
</mgrwt>
</event>
<event>
 8    1  0.1224355E-005  0.1892227E+03  0.7546771E-02  0.1164167E+00
          2   -1    0    0  501    0  0.00000000000E+00  0.00000000000E+00  0.44723765284E+03  0.44723765284E+03  0.00000000000E+00 0. -1.
         -2   -1    0    0    0  501 -0.00000000000E+00 -0.00000000000E+00 -0.80945088425E+02  0.80945088425E+02  0.00000000000E+00 0.  1.
         23    2    1    2    0    0  0.39973504233E+02 -0.13631490900E+03  0.83788673471E+02  0.18816261859E+03  0.90581420708E+02 0.  0.
         23    2    1    2    0    0 -0.39973504233E+02  0.13631490900E+03  0.28250389094E+03  0.34002012267E+03  0.12500239985E+03 0.  0.
          5    1    4    4  502    0 -0.58380440799E+02  0.72673486270E+02  0.24840508194E+03  0.26536180247E+03  0.47000000000E+01 0. -1.
         -5    1    4    4    0  502  0.18406936566E+02  0.63641422726E+02  0.34098809000E+02  0.74658320203E+02  0.47000000000E+01 0. -1.
        -11    1    3    3    0    0  0.50572902638E+02 -0.70234814259E+02  0.84887449225E+02  0.12122881939E+03  0.00000000000E+00 0. -1.
         11    1    3    3    0    0 -0.10599398405E+02 -0.66080094738E+02 -0.10987757536E+01  0.66933799199E+02  0.00000000000E+00 0.  1.
<mgrwt>
<rscale>  0 0.18380840E+03</rscale>
<asrwt>0</asrwt>
<pdfrwt beam="1">  1        2 0.68805791E-01 0.18922271E+03</pdfrwt>
<pdfrwt beam="2">  1       -2 0.12453091E-01 0.18922271E+03</pdfrwt>
<totfact> 0.32310298E+03</totfact>
</mgrwt>
</event>
<event>
 8    1  0.1224355E-005  0.1625100E+03  0.7546771E-02  0.1194811E+00
         -2   -1    0    0    0  501 -0.00000000000E+00  0.00000000000E+00  0.59442869772E+02  0.59442869772E+02  0.00000000000E+00 0.  1.
          2   -1    0    0  501    0  0.00000000000E+00 -0.00000000000E+00 -0.40356299564E+03  0.40356299564E+03  0.00000000000E+00 0. -1.
         23    2    1    2    0    0 -0.69451570159E+02  0.77192793406E+02 -0.88620727308E+02  0.16020320918E+03  0.83840246730E+02 0.  0.
         23    2    1    2    0    0  0.69451570159E+02 -0.77192793406E+02 -0.25549939856E+03  0.30280265623E+03  0.12500903169E+03 0.  0.
          5    1    4    4  502    0  0.47327393761E+02 -0.46047839075E+01 -0.20740476724E+03  0.21283776382E+03  0.47000000000E+01 0. -1.
         -5    1    4    4    0  502  0.22124176398E+02 -0.72588009499E+02 -0.48094631317E+02  0.89964892407E+02  0.47000000000E+01 0. -1.
        -11    1    3    3    0    0 -0.43224849937E+02  0.48154931587E+02 -0.10030576708E+03  0.11936721492E+03  0.00000000000E+00 0. -1.
         11    1    3    3    0    0 -0.26226720222E+02  0.29037861819E+02  0.11685039774E+02  0.40835994259E+02  0.00000000000E+00 0.  1.
<mgrwt>
<rscale>  0 0.15470255E+03</rscale>
<asrwt>0</asrwt>
<pdfrwt beam="2">  1        2 0.62086612E-01 0.16251002E+03</pdfrwt>
<pdfrwt beam="1">  1       -2 0.91450573E-02 0.16251002E+03</pdfrwt>
<totfact> 0.58609255E+03</totfact>
</mgrwt>
</event>
<event>
 8    1  0.1224355E-005  0.1739129E+03  0.7546771E-02  0.1179923E+00
          2   -1    0    0  501    0  0.00000000000E+00  0.00000000000E+00  0.28803566431E+03  0.28803566431E+03  0.00000000000E+00 0. -1.
         -2   -1    0    0    0  501 -0.00000000000E+00 -0.00000000000E+00 -0.13348821122E+03  0.13348821122E+03  0.00000000000E+00 0.  1.
         23    2    1    2    0    0  0.31680415960E+02 -0.11672490080E+03 -0.43793768912E+02  0.15773428017E+03  0.91289965066E+02 0.  0.
         23    2    1    2    0    0 -0.31680415960E+02  0.11672490080E+03  0.19834122200E+03  0.26378959537E+03  0.12496943248E+03 0.  0.
          5    1    4    4  502    0 -0.13191081001E+01 -0.26685067709E+02  0.27480697645E+02  0.38614914578E+02  0.47000000000E+01 0. -1.
         -5    1    4    4    0  502 -0.30361307860E+02  0.14340996851E+03  0.17086052436E+03  0.22517468079E+03  0.47000000000E+01 0. -1.
        -11    1    3    3    0    0  0.14533914665E+02 -0.99301574377E+02  0.77797428989E+01  0.10066062661E+03  0.00000000000E+00 0. -1.
         11    1    3    3    0    0  0.17146501295E+02 -0.17423326428E+02 -0.51573511811E+02  0.57073653563E+02  0.00000000000E+00 0.  1.
<mgrwt>
<rscale>  0 0.16802567E+03</rscale>
<asrwt>0</asrwt>
<pdfrwt beam="1">  1        2 0.44313179E-01 0.17391294E+03</pdfrwt>
<pdfrwt beam="2">  1       -2 0.20536648E-01 0.17391294E+03</pdfrwt>
<totfact> 0.22560655E+03</totfact>
</mgrwt>
</event>
<event>
 8    1  0.1224355E-005  0.1766199E+03  0.7546771E-02  0.1176409E+00
          1   -1    0    0  501    0  0.00000000000E+00  0.00000000000E+00  0.79461543903E+03  0.79461543903E+03  0.00000000000E+00 0. -1.
         -1   -1    0    0    0  501 -0.00000000000E+00 -0.00000000000E+00 -0.42044214107E+02  0.42044214107E+02  0.00000000000E+00 0.  1.
         23    2    1    2    0    0  0.12482795444E+03  0.28806668719E+02  0.18572737467E+03  0.24293705226E+03  0.90066149512E+02 0.  0.
         23    2    1    2    0    0 -0.12482795444E+03 -0.28806668719E+02  0.56684385025E+03  0.59372260087E+03  0.12158426645E+03 0.  0.
          5    1    4    4  502    0  0.20208785196E+02 -0.21154009583E+02  0.68726834671E+02  0.74842200158E+02  0.47000000000E+01 0. -1.
         -5    1    4    4    0  502 -0.14503673964E+03 -0.76526591352E+01  0.49811701558E+03  0.51888040072E+03  0.47000000000E+01 0.  1.
        -11    1    3    3    0    0  0.11914209528E+03 -0.16848291415E+01  0.11450841678E+03  0.16525693641E+03  0.00000000000E+00 0. -1.
         11    1    3    3    0    0  0.56858591546E+01  0.30491497860E+02  0.71218957885E+02  0.77680115849E+02  0.00000000000E+00 0.  1.
<mgrwt>
<rscale>  0 0.17138706E+03</rscale>
<asrwt>0</asrwt>
<pdfrwt beam="1">  1        1 0.12224852E+00 0.17661986E+03</pdfrwt>
<pdfrwt beam="2">  1       -1 0.64683412E-02 0.17661986E+03</pdfrwt>
<totfact> 0.27453777E+03</totfact>
</mgrwt>
</event>
<event>
 8    1  0.1224355E-005  0.1466958E+03  0.7546771E-02  0.1214117E+00
          1   -1    0    0  501    0  0.00000000000E+00  0.00000000000E+00  0.12468107697E+04  0.12468107697E+04  0.00000000000E+00 0. -1.
         -1   -1    0    0    0  501 -0.00000000000E+00 -0.00000000000E+00 -0.14348159380E+02  0.14348159380E+02  0.00000000000E+00 0.  1.
         23    2    1    2    0    0  0.76660739037E+02  0.44990010420E+01  0.49657529351E+03  0.51079247902E+03  0.91786843195E+02 0.  0.
         23    2    1    2    0    0 -0.76660739037E+02 -0.44990010420E+01  0.73588731683E+03  0.75036645007E+03  0.12499022525E+03 0.  0.
          5    1    4    4  502    0 -0.10817903260E+03 -0.14752413694E+02  0.62690685827E+03  0.63636046055E+03  0.47000000000E+01 0.  1.
         -5    1    4    4    0  502  0.31518293561E+02  0.10253412652E+02  0.10898045856E+03  0.11400598952E+03  0.47000000000E+01 0.  1.
        -11    1    3    3    0    0  0.50557543082E+02 -0.38200532897E+02  0.35549870933E+03  0.36110203297E+03  0.00000000000E+00 0. -1.
         11    1    3    3    0    0  0.26103195955E+02  0.42699533939E+02  0.14107658418E+03  0.14969044606E+03  0.00000000000E+00 0.  1.
<mgrwt>
<rscale>  0 0.13941629E+03</rscale>
<asrwt>0</asrwt>
<pdfrwt beam="1">  1        1 0.19181696E+00 0.14669583E+03</pdfrwt>
<pdfrwt beam="2">  1       -1 0.22074101E-02 0.14669583E+03</pdfrwt>
<totfact> 0.61714625E+03</totfact>
</mgrwt>
</event>
<event>
 8    1  0.1224355E-005  0.1284896E+03  0.7546771E-02  0.1244399E+00
          1   -1    0    0  501    0  0.00000000000E+00  0.00000000000E+00  0.19248173036E+03  0.19248173036E+03  0.00000000000E+00 0. -1.
         -1   -1    0    0    0  501 -0.00000000000E+00 -0.00000000000E+00 -0.90997770223E+02  0.90997770223E+02  0.00000000000E+00 0.  1.
         23    2    1    2    0    0 -0.27958134606E+02  0.99066239599E+01 -0.29810491445E+02  0.99773743723E+02  0.90478373368E+02 0.  0.
         23    2    1    2    0    0  0.27958134606E+02 -0.99066239599E+01  0.13129445158E+03  0.18370575686E+03  0.12501909293E+03 0.  0.
          5    1    4    4  502    0  0.68911703344E+02  0.11117658588E+02  0.11507212153E+03  0.13467036922E+03  0.47000000000E+01 0.  1.
         -5    1    4    4    0  502 -0.40953568738E+02 -0.21024282548E+02  0.16222330042E+02  0.49035387640E+02  0.47000000000E+01 0.  1.
        -11    1    3    3    0    0 -0.32751307582E+02  0.42209905874E+02 -0.38651331390E+02  0.65941259621E+02  0.00000000000E+00 0.  1.
         11    1    3    3    0    0  0.47931729752E+01 -0.32303281914E+02  0.88408399453E+01  0.33832484102E+02  0.00000000000E+00 0. -1.
<mgrwt>
<rscale>  0 0.11921440E+03</rscale>
<asrwt>0</asrwt>
<pdfrwt beam="1">  1        1 0.29612574E-01 0.12848958E+03</pdfrwt>
<pdfrwt beam="2">  1       -1 0.13999657E-01 0.12848958E+03</pdfrwt>
<totfact> 0.52606704E+03</totfact>
</mgrwt>
</event>
<event>
 8    1  0.1224355E-005  0.2139924E+03  0.7546771E-02  0.1141900E+00
         -2   -1    0    0    0  501 -0.00000000000E+00  0.00000000000E+00  0.33560335165E+03  0.33560335165E+03  0.00000000000E+00 0.  1.
          2   -1    0    0  501    0  0.00000000000E+00 -0.00000000000E+00 -0.22417340326E+03  0.22417340326E+03  0.00000000000E+00 0. -1.
         23    2    1    2    0    0 -0.26447980184E+02 -0.17164843757E+03  0.23977517219E+03  0.31024669972E+03  0.92726477946E+02 0.  0.
         23    2    1    2    0    0  0.26447980184E+02  0.17164843757E+03 -0.12834522380E+03  0.24953005520E+03  0.12502027915E+03 0.  0.
          5    1    4    4  502    0  0.28698613669E+02  0.96047925533E+02 -0.14062588545E+03  0.17276152374E+03  0.47000000000E+01 0.  1.
         -5    1    4    4    0  502 -0.22506334856E+01  0.75600512039E+02  0.12280661654E+02  0.76768531459E+02  0.47000000000E+01 0.  1.
        -11    1    3    3    0    0 -0.61068694770E+01 -0.23990445934E+02 -0.34385736592E+01  0.24993181865E+02  0.00000000000E+00 0. -1.
         11    1    3    3    0    0 -0.20341110707E+02 -0.14765799164E+03  0.24321374585E+03  0.28525351785E+03  0.00000000000E+00 0.  1.
<mgrwt>
<rscale>  0 0.20957911E+03</rscale>
<asrwt>0</asrwt>
<pdfrwt beam="2">  1        2 0.34488216E-01 0.21399241E+03</pdfrwt>
<pdfrwt beam="1">  1       -2 0.51631285E-01 0.21399241E+03</pdfrwt>
<totfact> 0.54241636E+02</totfact>
</mgrwt>
</event>
<event>
 8    1  0.1224355E-005  0.2193067E+03  0.7546771E-02  0.1138818E+00
         -1   -1    0    0    0  501 -0.00000000000E+00  0.00000000000E+00  0.75208493141E+03  0.75208493141E+03  0.00000000000E+00 0.  1.
          1   -1    0    0  501    0  0.00000000000E+00 -0.00000000000E+00 -0.59183817616E+02  0.59183817616E+02  0.00000000000E+00 0. -1.
         23    2    1    2    0    0  0.67379394403E+02 -0.16712140251E+03  0.39436682580E+03  0.44083906362E+03  0.79651370049E+02 0.  0.
         23    2    1    2    0    0 -0.67379394403E+02  0.16712140251E+03  0.29853428799E+03  0.37042968541E+03  0.12500353899E+03 0.  0.
          5    1    4    4  502    0  0.72502469800E+01  0.13897813695E+03  0.19648532786E+03  0.24082371706E+03  0.47000000000E+01 0.  1.
         -5    1    4    4    0  502 -0.74629641383E+02  0.28143265557E+02  0.10204896013E+03  0.12960596836E+03  0.47000000000E+01 0.  1.
        -11    1    3    3    0    0  0.52598200528E+01 -0.61943654746E+02  0.21515706814E+03  0.22395813458E+03  0.00000000000E+00 0.  1.
         11    1    3    3    0    0  0.62119574350E+02 -0.10517774776E+03  0.17920975766E+03  0.21688092904E+03  0.00000000000E+00 0. -1.
<mgrwt>
<rscale>  0 0.21350710E+03</rscale>
<asrwt>0</asrwt>
<pdfrwt beam="2">  1        1 0.91052032E-02 0.21930670E+03</pdfrwt>
<pdfrwt beam="1">  1       -1 0.11570537E+00 0.21930670E+03</pdfrwt>
<totfact> 0.52536507E+02</totfact>
</mgrwt>
</event>
<event>
 8    1  0.1224355E-005  0.1951220E+03  0.7546771E-02  0.1158767E+00
         -1   -1    0    0    0  501 -0.00000000000E+00  0.00000000000E+00  0.85506414264E+02  0.85506414264E+02  0.00000000000E+00 0.  1.
          1   -1    0    0  501    0  0.00000000000E+00 -0.00000000000E+00 -0.40322360915E+03  0.40322360915E+03  0.00000000000E+00 0. -1.
         23    2    1    2    0    0 -0.12691957036E+03 -0.79617737357E+02 -0.17564947407E+03  0.24736760169E+03  0.88828099050E+02 0.  0.
         23    2    1    2    0    0  0.12691957036E+03  0.79617737357E+02 -0.14206772081E+03  0.24136242172E+03  0.12500007952E+03 0.  0.
          5    1    4    4  502    0 -0.11922502719E+02  0.30476753661E+02  0.46887984204E+01  0.33392415537E+02  0.47000000000E+01 0.  1.
         -5    1    4    4    0  502  0.13884207308E+03  0.49140983696E+02 -0.14675651923E+03  0.20797000618E+03  0.47000000000E+01 0.  1.
        -11    1    3    3    0    0 -0.35493057786E+02  0.87079536956E+01 -0.87679116586E+01  0.37582733847E+02  0.00000000000E+00 0. -1.
         11    1    3    3    0    0 -0.91426512574E+02 -0.88325691053E+02 -0.16688156241E+03  0.20978486784E+03  0.00000000000E+00 0.  1.
<mgrwt>
<rscale>  0 0.18966097E+03</rscale>
<asrwt>0</asrwt>
<pdfrwt beam="2">  1        1 0.62034401E-01 0.19512197E+03</pdfrwt>
<pdfrwt beam="1">  1       -1 0.13154833E-01 0.19512197E+03</pdfrwt>
<totfact> 0.23481694E+03</totfact>
</mgrwt>
</event>
<event>
 8    1  0.1224355E-005  0.1471130E+03  0.7546771E-02  0.1214488E+00
         -2   -1    0    0    0  501 -0.00000000000E+00  0.00000000000E+00  0.25788976403E+02  0.25788976403E+02  0.00000000000E+00 0. -1.
          2   -1    0    0  501    0  0.00000000000E+00 -0.00000000000E+00 -0.68021646178E+03  0.68021646178E+03  0.00000000000E+00 0.  1.
         23    2    1    2    0    0 -0.15864945130E+02  0.75926413475E+02 -0.28401760913E+03  0.30745090830E+03  0.88563773476E+02 0.  0.
         23    2    1    2    0    0  0.15864945130E+02 -0.75926413475E+02 -0.37040987625E+03  0.39855452988E+03  0.12500288045E+03 0.  0.
          5    1    4    4  502    0  0.32688756282E+01 -0.19473999693E+02 -0.32295047039E+03  0.32358772928E+03  0.47000000000E+01 0.  1.
         -5    1    4    4    0  502  0.12596069501E+02 -0.56452413783E+02 -0.47459405854E+02  0.74966800604E+02  0.47000000000E+01 0.  1.
        -11    1    3    3    0    0 -0.32902304405E+02 -0.63092189083E+01 -0.72289107171E+02  0.79674857352E+02  0.00000000000E+00 0. -1.
         11    1    3    3    0    0  0.17037359275E+02  0.82235632384E+02 -0.21172850196E+03  0.22777605095E+03  0.00000000000E+00 0.  1.
<mgrwt>
<rscale>  0 0.13914222E+03</rscale>
<asrwt>0</asrwt>
<pdfrwt beam="2">  1        2 0.10464870E+00 0.14711301E+03</pdfrwt>
<pdfrwt beam="1">  1       -2 0.39675345E-02 0.14711301E+03</pdfrwt>
<totfact> 0.11600602E+04</totfact>
</mgrwt>
</event>
<event>
 8    1  0.1224355E-005  0.2677023E+03  0.7546771E-02  0.1104668E+00
          2   -1    0    0  501    0  0.00000000000E+00  0.00000000000E+00  0.34949588390E+04  0.34949588390E+04  0.00000000000E+00 0. -1.
         -2   -1    0    0    0  501 -0.00000000000E+00 -0.00000000000E+00 -0.25328483034E+02  0.25328483034E+02  0.00000000000E+00 0.  1.
         23    2    1    2    0    0  0.10434281336E+03 -0.21249342699E+03  0.85204077326E+03  0.88904432085E+03  0.91572080480E+02 0.  0.
         23    2    1    2    0    0 -0.10434281336E+03  0.21249342699E+03  0.26175895827E+04  0.26312430012E+04  0.12499451419E+03 0.  0.
          5    1    4    4  502    0 -0.60568123313E+02  0.21476858943E+03  0.22379607975E+04  0.22490630640E+04  0.47000000000E+01 0. -1.
         -5    1    4    4    0  502 -0.43774690044E+02 -0.22751624328E+01  0.37962878518E+03  0.38217993719E+03  0.47000000000E+01 0. -1.
        -11    1    3    3    0    0  0.45022589417E+02 -0.16323724061E+02  0.19427006412E+03  0.20008586991E+03  0.00000000000E+00 0.  1.
         11    1    3    3    0    0  0.59320223939E+02 -0.19616970293E+03  0.65777070913E+03  0.68895845093E+03  0.00000000000E+00 0. -1.
<mgrwt>
<rscale>  0 0.26416299E+03</rscale>
<asrwt>0</asrwt>
<pdfrwt beam="1">  1        2 0.53768559E+00 0.26770227E+03</pdfrwt>
<pdfrwt beam="2">  1       -2 0.38966925E-02 0.26770227E+03</pdfrwt>
<totfact> 0.29257977E+02</totfact>
</mgrwt>
</event>
<event>
 8    1  0.1224355E-005  0.3102249E+03  0.7546771E-02  0.1081750E+00
          2   -1    0    0  501    0  0.00000000000E+00  0.00000000000E+00  0.17872196922E+04  0.17872196922E+04  0.00000000000E+00 0. -1.
         -2   -1    0    0    0  501 -0.00000000000E+00 -0.00000000000E+00 -0.52617638237E+02  0.52617638237E+02  0.00000000000E+00 0.  1.
         23    2    1    2    0    0 -0.26840411225E+03  0.92593124849E+02  0.73021468693E+03  0.78863159775E+03  0.90066940192E+02 0.  0.
         23    2    1    2    0    0  0.26840411225E+03 -0.92593124849E+02  0.10043873670E+04  0.10512057327E+04  0.12500102056E+03 0.  0.
          5    1    4    4  502    0  0.48657406305E+02 -0.50756095014E+02  0.41179780999E+03  0.41778373674E+03  0.47000000000E+01 0. -1.
         -5    1    4    4    0  502  0.21974670595E+03 -0.41837029835E+02  0.59258955705E+03  0.63342199596E+03  0.47000000000E+01 0. -1.
        -11    1    3    3    0    0 -0.23209863701E+03  0.56914274804E+02  0.65980477920E+03  0.70174878599E+03  0.00000000000E+00 0. -1.
         11    1    3    3    0    0 -0.36305475242E+02  0.35678850046E+02  0.70409907733E+02  0.86882811764E+02  0.00000000000E+00 0.  1.
<mgrwt>
<rscale>  0 0.30708887E+03</rscale>
<asrwt>0</asrwt>
<pdfrwt beam="1">  1        2 0.27495683E+00 0.31022493E+03</pdfrwt>
<pdfrwt beam="2">  1       -2 0.80950227E-02 0.31022493E+03</pdfrwt>
<totfact> 0.88922378E+02</totfact>
</mgrwt>
</event>
<event>
 8    1  0.1224355E-005  0.1715203E+03  0.7546771E-02  0.1183138E+00
          2   -1    0    0  501    0  0.00000000000E+00  0.00000000000E+00  0.40794577203E+03  0.40794577203E+03  0.00000000000E+00 0. -1.
         -2   -1    0    0    0  501 -0.00000000000E+00 -0.00000000000E+00 -0.62317245867E+02  0.62317245867E+02  0.00000000000E+00 0.  1.
         23    2    1    2    0    0  0.40094419628E+02 -0.11043853676E+03  0.14793606548E+03  0.20853505542E+03  0.88303776713E+02 0.  0.
         23    2    1    2    0    0 -0.40094419628E+02  0.11043853676E+03  0.19769246068E+03  0.26172796248E+03  0.12495993136E+03 0.  0.
          5    1    4    4  502    0  0.93371390299E+01 -0.25074120803E+02  0.29522983340E+02  0.40119698959E+02  0.47000000000E+01 0. -1.
         -5    1    4    4    0  502 -0.49431558658E+02  0.13551265756E+03  0.16816947734E+03  0.22160826352E+03  0.47000000000E+01 0. -1.
        -11    1    3    3    0    0  0.23172814528E+02 -0.11227470505E+03  0.15262063103E+03  0.19088123465E+03  0.00000000000E+00 0. -1.
         11    1    3    3    0    0  0.16921605100E+02  0.18361682965E+01 -0.46845655469E+01  0.17653820763E+02  0.00000000000E+00 0.  1.
<mgrwt>
<rscale>  0 0.16502429E+03</rscale>
<asrwt>0</asrwt>
<pdfrwt beam="1">  1        2 0.62760886E-01 0.17152031E+03</pdfrwt>
<pdfrwt beam="2">  1       -2 0.95872689E-02 0.17152031E+03</pdfrwt>
<totfact> 0.53939843E+03</totfact>
</mgrwt>
</event>
<event>
 8    1  0.1224355E-005  0.1455449E+03  0.7546771E-02  0.1216223E+00
         -1   -1    0    0    0  501 -0.00000000000E+00  0.00000000000E+00  0.96664371392E+02  0.96664371392E+02  0.00000000000E+00 0.  1.
          1   -1    0    0  501    0  0.00000000000E+00 -0.00000000000E+00 -0.26151899310E+03  0.26151899310E+03  0.00000000000E+00 0. -1.
         23    2    1    2    0    0 -0.67548424024E+01 -0.74249599639E+02  0.24129402437E+02  0.11964978687E+03  0.90416881679E+02 0.  0.
         23    2    1    2    0    0  0.67548424024E+01  0.74249599639E+02 -0.18898402414E+03  0.23853357762E+03  0.12499870132E+03 0.  0.
          5    1    4    4  502    0  0.11750386523E+02  0.10240195437E+03 -0.18122028561E+03  0.20853564146E+03  0.47000000000E+01 0.  1.
         -5    1    4    4    0  502 -0.49955441203E+01 -0.28152354735E+02 -0.77637385369E+01  0.29997936167E+02  0.47000000000E+01 0.  1.
        -11    1    3    3    0    0 -0.38619423375E+02 -0.22378865165E+02 -0.15225498259E+02  0.47160250902E+02  0.00000000000E+00 0. -1.
         11    1    3    3    0    0  0.31864580973E+02 -0.51870734474E+02  0.39354900696E+02  0.72489535963E+02  0.00000000000E+00 0.  1.
<mgrwt>
<rscale>  0 0.13787060E+03</rscale>
<asrwt>0</asrwt>
<pdfrwt beam="2">  1        1 0.40233691E-01 0.14554486E+03</pdfrwt>
<pdfrwt beam="1">  1       -1 0.14871442E-01 0.14554486E+03</pdfrwt>
<totfact> 0.32960142E+03</totfact>
</mgrwt>
</event>
<event>
 8    1  0.1224355E-005  0.1316942E+03  0.7546771E-02  0.1242506E+00
          1   -1    0    0  501    0  0.00000000000E+00  0.00000000000E+00  0.59621660032E+03  0.59621660032E+03  0.00000000000E+00 0. -1.
         -1   -1    0    0    0  501 -0.00000000000E+00 -0.00000000000E+00 -0.21360076046E+02  0.21360076046E+02  0.00000000000E+00 0.  1.
         23    2    1    2    0    0 -0.30945201260E+02  0.27584339982E+02  0.19555844949E+03  0.21606652198E+03  0.81994716062E+02 0.  0.
         23    2    1    2    0    0  0.30945201260E+02 -0.27584339982E+02  0.37929807478E+03  0.40151015438E+03  0.12499949298E+03 0.  0.
          5    1    4    4  502    0  0.44950840374E+01 -0.68678841262E+02  0.30319745095E+03  0.31094657625E+03  0.47000000000E+01 0.  1.
         -5    1    4    4    0  502  0.26450117223E+02  0.41094501281E+02  0.76100623832E+02  0.90563578133E+02  0.47000000000E+01 0.  1.
        -11    1    3    3    0    0  0.14939448754E+02  0.37657715261E+02  0.58321693244E+02  0.71012045109E+02  0.00000000000E+00 0.  1.
         11    1    3    3    0    0 -0.45884650014E+02 -0.10073375279E+02  0.13723675625E+03  0.14505447688E+03  0.00000000000E+00 0. -1.
<mgrwt>
<rscale>  0 0.12035896E+03</rscale>
<asrwt>0</asrwt>
<pdfrwt beam="1">  1        1 0.91725618E-01 0.13169425E+03</pdfrwt>
<pdfrwt beam="2">  1       -1 0.32861660E-02 0.13169425E+03</pdfrwt>
<totfact> 0.11125345E+04</totfact>
</mgrwt>
</event>
<event>
 8    1  0.1224355E-005  0.3110422E+03  0.7546771E-02  0.1081314E+00
          1   -1    0    0  501    0  0.00000000000E+00  0.00000000000E+00  0.35818459993E+03  0.35818459993E+03  0.00000000000E+00 0. -1.
         -1   -1    0    0    0  501 -0.00000000000E+00 -0.00000000000E+00 -0.26198234321E+03  0.26198234321E+03  0.00000000000E+00 0.  1.
         23    2    1    2    0    0  0.16360393057E+03  0.23311004573E+03  0.18562218773E+02  0.29958117027E+03  0.91092162665E+02 0.  0.
         23    2    1    2    0    0 -0.16360393057E+03 -0.23311004573E+03  0.77640037943E+02  0.32058577287E+03  0.12506287521E+03 0.  0.
          5    1    4    4  502    0 -0.84679621180E+02 -0.29518494206E+02  0.32475085397E+01  0.89858867426E+02  0.47000000000E+01 0. -1.
         -5    1    4    4    0  502 -0.78924309390E+02 -0.20359155152E+03  0.74392529403E+02  0.23072690544E+03  0.47000000000E+01 0. -1.
        -11    1    3    3    0    0  0.90733631067E+02  0.19818626739E+03  0.18753801340E+02  0.21877406943E+03  0.00000000000E+00 0. -1.
         11    1    3    3    0    0  0.72870299503E+02  0.34923778334E+02 -0.19158256692E+00  0.80807100843E+02  0.00000000000E+00 0.  1.
<mgrwt>
<rscale>  0 0.30798837E+03</rscale>
<asrwt>0</asrwt>
<pdfrwt beam="1">  1        1 0.55105323E-01 0.31104222E+03</pdfrwt>
<pdfrwt beam="2">  1       -1 0.40304976E-01 0.31104222E+03</pdfrwt>
<totfact> 0.42716865E+02</totfact>
</mgrwt>
</event>
<event>
 8    1  0.1224355E-005  0.1342054E+03  0.7546771E-02  0.1233329E+00
          1   -1    0    0  501    0  0.00000000000E+00  0.00000000000E+00  0.21822716662E+03  0.21822716662E+03  0.00000000000E+00 0. -1.
         -1   -1    0    0    0  501 -0.00000000000E+00 -0.00000000000E+00 -0.68042434624E+02  0.68042434624E+02  0.00000000000E+00 0.  1.
         23    2    1    2    0    0 -0.91538752160E+01  0.50525640606E+02  0.38013061146E+02  0.11135940319E+03  0.91210142371E+02 0.  0.
         23    2    1    2    0    0  0.91538752160E+01 -0.50525640606E+02  0.11217167085E+03  0.17491019805E+03  0.12399378957E+03 0.  0.
          5    1    4    4  502    0 -0.56450422557E+02 -0.19727748334E+02  0.64255831975E+02  0.87901855521E+02  0.47000000000E+01 0. -1.
         -5    1    4    4    0  502  0.65604297773E+02 -0.30797892272E+02  0.47915838871E+02  0.87008342528E+02  0.47000000000E+01 0.  1.
        -11    1    3    3    0    0  0.23858027879E+02 -0.52175293499E+01 -0.14114053650E+02  0.28206995892E+02  0.00000000000E+00 0.  1.
         11    1    3    3    0    0 -0.33011903095E+02  0.55743169956E+02  0.52127114796E+02  0.83152407299E+02  0.00000000000E+00 0. -1.
<mgrwt>
<rscale>  0 0.12611991E+03</rscale>
<asrwt>0</asrwt>
<pdfrwt beam="1">  1        1 0.33573410E-01 0.13420542E+03</pdfrwt>
<pdfrwt beam="2">  1       -1 0.10468067E-01 0.13420542E+03</pdfrwt>
<totfact> 0.70703665E+03</totfact>
</mgrwt>
</event>
<event>
 8    1  0.1224355E-005  0.1248917E+03  0.7546771E-02  0.1242574E+00
         -1   -1    0    0    0  501 -0.00000000000E+00  0.00000000000E+00  0.20316386686E+03  0.20316386686E+03  0.00000000000E+00 0.  1.
          1   -1    0    0  501    0  0.00000000000E+00 -0.00000000000E+00 -0.72523697011E+02  0.72523697011E+02  0.00000000000E+00 0. -1.
         23    2    1    2    0    0 -0.39860770226E+02 -0.38271001709E+02  0.10048596068E+03  0.14720720542E+03  0.92298334000E+02 0.  0.
         23    2    1    2    0    0  0.39860770226E+02  0.38271001709E+02  0.30154209161E+02  0.12848035844E+03  0.11200167678E+03 0.  0.
          5    1    4    4  502    0  0.61769185777E+02  0.64242338324E+02  0.30084579077E+02  0.94178990455E+02  0.47000000000E+01 0. -1.
         -5    1    4    4    0  502 -0.21908415551E+02 -0.25971336615E+02  0.69630084285E-01  0.34301367989E+02  0.47000000000E+01 0.  1.
        -11    1    3    3    0    0 -0.41761129039E+02 -0.66693630306E+02  0.67993582547E+02  0.10399595901E+03  0.00000000000E+00 0.  1.
         11    1    3    3    0    0  0.19003588129E+01  0.28422628597E+02  0.32492378137E+02  0.43211246418E+02  0.00000000000E+00 0. -1.
<mgrwt>
<rscale>  0 0.12031745E+03</rscale>
<asrwt>0</asrwt>
<pdfrwt beam="2">  1        1 0.11157492E-01 0.12489166E+03</pdfrwt>
<pdfrwt beam="1">  1       -1 0.31255979E-01 0.12489166E+03</pdfrwt>
<totfact> 0.49975110E+03</totfact>
</mgrwt>
</event>
<event>
 8    1  0.1224355E-005  0.1564045E+03  0.7546771E-02  0.1197070E+00
         -1   -1    0    0    0  501 -0.00000000000E+00  0.00000000000E+00  0.27978106115E+02  0.27978106115E+02  0.00000000000E+00 0.  1.
          1   -1    0    0  501    0  0.00000000000E+00 -0.00000000000E+00 -0.83417455466E+03  0.83417455466E+03  0.00000000000E+00 0. -1.
         23    2    1    2    0    0  0.47841545904E+01  0.94851842042E+02 -0.29581995396E+03  0.32834884039E+03  0.10622502412E+03 0.  0.
         23    2    1    2    0    0 -0.47841545904E+01 -0.94851842042E+02 -0.51037649458E+03  0.53380382039E+03  0.12426822748E+03 0.  0.
          5    1    4    4  502    0  0.37901117941E+01 -0.86125972365E+02 -0.14912610940E+03  0.17231579895E+03  0.47000000000E+01 0. -1.
         -5    1    4    4    0  502 -0.85742663844E+01 -0.87258696780E+01 -0.36125038518E+03  0.36148802144E+03  0.47000000000E+01 0.  1.
        -11    1    3    3    0    0 -0.20000457265E+01 -0.18442396654E+02 -0.10574546478E+02  0.21352826756E+02  0.00000000000E+00 0.  1.
         11    1    3    3    0    0  0.67842003169E+01  0.11329423870E+03 -0.28524540748E+03  0.30699601363E+03  0.00000000000E+00 0. -1.
<mgrwt>
<rscale>  0 0.15280348E+03</rscale>
<asrwt>0</asrwt>
<pdfrwt beam="2">  1        1 0.12833456E+00 0.15640445E+03</pdfrwt>
<pdfrwt beam="1">  1       -1 0.43043237E-02 0.15640445E+03</pdfrwt>
<totfact> 0.46583744E+03</totfact>
</mgrwt>
</event>
<event>
 8    1  0.1224355E-005  0.1405746E+03  0.7546771E-02  0.1222767E+00
         -2   -1    0    0    0  501 -0.00000000000E+00  0.00000000000E+00  0.79368338828E+02  0.79368338828E+02  0.00000000000E+00 0.  1.
          2   -1    0    0  501    0  0.00000000000E+00 -0.00000000000E+00 -0.21017208639E+03  0.21017208639E+03  0.00000000000E+00 0. -1.
         23    2    1    2    0    0 -0.57907407057E+02 -0.27980632487E+02 -0.32227214268E+02  0.11784726456E+03  0.93344527635E+02 0.  0.
         23    2    1    2    0    0  0.57907407057E+02  0.27980632487E+02 -0.98576533296E+02  0.17169316066E+03  0.12500009965E+03 0.  0.
          5    1    4    4  502    0  0.33789163716E+02  0.28966691889E+02 -0.12667796030E+03  0.13435093021E+03  0.47000000000E+01 0. -1.
         -5    1    4    4    0  502  0.24118243341E+02 -0.98605940192E+00  0.28101427002E+02  0.37342230444E+02  0.47000000000E+01 0. -1.
        -11    1    3    3    0    0 -0.82789628028E+02 -0.22034165523E+02 -0.34071130445E+02  0.92197987446E+02  0.00000000000E+00 0. -1.
         11    1    3    3    0    0  0.24882220971E+02 -0.59464669634E+01  0.18439161765E+01  0.25649277118E+02  0.00000000000E+00 0.  1.
<mgrwt>
<rscale>  0 0.13321108E+03</rscale>
<asrwt>0</asrwt>
<pdfrwt beam="2">  1        2 0.32334167E-01 0.14057457E+03</pdfrwt>
<pdfrwt beam="1">  1       -2 0.12210514E-01 0.14057457E+03</pdfrwt>
<totfact> 0.73788348E+03</totfact>
</mgrwt>
</event>
<event>
 8    1  0.1224355E-005  0.1274492E+03  0.7546771E-02  0.1246741E+00
         -2   -1    0    0    0  501 -0.00000000000E+00  0.00000000000E+00  0.33140806252E+02  0.33140806252E+02  0.00000000000E+00 0.  1.
          2   -1    0    0  501    0  0.00000000000E+00 -0.00000000000E+00 -0.13389925888E+04  0.13389925888E+04  0.00000000000E+00 0. -1.
         23    2    1    2    0    0  0.22137429480E+02 -0.11597696049E+02 -0.42412386886E+02  0.10228206143E+03  0.89656216693E+02 0.  0.
         23    2    1    2    0    0 -0.22137429480E+02  0.11597696049E+02 -0.12634393957E+04  0.12698513337E+04  0.12497492009E+03 0.  0.
          5    1    4    4  502    0 -0.34735478518E+02 -0.17285878592E+02 -0.12502504451E+03  0.13099124712E+03  0.47000000000E+01 0.  1.
         -5    1    4    4    0  502  0.12598049038E+02  0.28883574640E+02 -0.11384143512E+04  0.11388600865E+04  0.47000000000E+01 0.  1.
        -11    1    3    3    0    0 -0.24366512062E+02 -0.47382544983E+01 -0.48889998996E+02  0.54830739258E+02  0.00000000000E+00 0. -1.
         11    1    3    3    0    0  0.46503941543E+02 -0.68594415503E+01  0.64776121093E+01  0.47451322174E+02  0.00000000000E+00 0.  1.
<mgrwt>
<rscale>  0 0.11781761E+03</rscale>
<asrwt>0</asrwt>
<pdfrwt beam="2">  1        2 0.20599883E+00 0.12744922E+03</pdfrwt>
<pdfrwt beam="1">  1       -2 0.50985864E-02 0.12744922E+03</pdfrwt>
<totfact> 0.31415577E+03</totfact>
</mgrwt>
</event>
<event>
 7    1  0.1224355E-005  0.2405488E+03  0.7546771E-02  0.1119428E+00
         -2   -1    0    0    0  501 -0.00000000000E+00  0.00000000000E+00  0.84769167663E+02  0.84769167663E+02  0.00000000000E+00 0.  1.
          2   -1    0    0  501    0  0.00000000000E+00 -0.00000000000E+00 -0.17065085148E+03  0.17065085148E+03  0.00000000000E+00 0. -1.
         23    2    1    2    0    0 -0.21245273121E+01  0.13961649394E+02 -0.18548516783E+02  0.93201178031E+02  0.90238411119E+02 0.  0.
          5    1    1    2  502    0 -0.17329818625E+02 -0.69312360758E+02 -0.74018613563E+02  0.10298238258E+03  0.47000000000E+01 0. -1.
         -5    1    1    2    0  502  0.19454345937E+02  0.55350711365E+02  0.66854465293E+01  0.59236458534E+02  0.47000000000E+01 0.  1.
        -11    1    3    3    0    0  0.15275266445E+02  0.47977578569E+02  0.83556528457E+00  0.50357521580E+02  0.00000000000E+00 0.  1.
         11    1    3    3    0    0 -0.17399793757E+02 -0.34015929176E+02 -0.19384082068E+02  0.42843656451E+02  0.00000000000E+00 0. -1.
<mgrwt>
<rscale>  0 0.24054879E+03</rscale>
<asrwt>0</asrwt>
<pdfrwt beam="2">  1        2 0.26253977E-01 0.24054879E+03</pdfrwt>
<pdfrwt beam="1">  1       -2 0.13041411E-01 0.24054879E+03</pdfrwt>
<totfact> 0.86330573E+03</totfact>
</mgrwt>
</event>
<event>
 8    1  0.1224355E-005  0.1350650E+03  0.7546771E-02  0.1224058E+00
         -2   -1    0    0    0  501 -0.00000000000E+00  0.00000000000E+00  0.14949707231E+02  0.14949707231E+02  0.00000000000E+00 0.  1.
          2   -1    0    0  501    0  0.00000000000E+00 -0.00000000000E+00 -0.19397672291E+04  0.19397672291E+04  0.00000000000E+00 0. -1.
         23    2    1    2    0    0  0.12852026563E+02  0.49519838253E+02 -0.30667082609E+03  0.33094315444E+03  0.11339747320E+03 0.  0.
         23    2    1    2    0    0 -0.12852026563E+02 -0.49519838253E+02 -0.16181466958E+04  0.16237737819E+04  0.12500070693E+03 0.  0.
          5    1    4    4  502    0  0.76984056525E+01  0.40969838685E+02 -0.54528477717E+03  0.54689612482E+03  0.47000000000E+01 0.  1.
         -5    1    4    4    0  502 -0.20550432215E+02 -0.90489676938E+02 -0.10728619186E+04  0.10768776571E+04  0.47000000000E+01 0.  1.
        -11    1    3    3    0    0 -0.26942070617E+01  0.76842780942E+02 -0.27785776123E+03  0.28830020328E+03  0.00000000000E+00 0. -1.
         11    1    3    3    0    0  0.15546233625E+02 -0.27322942689E+02 -0.28813064862E+02  0.42642951163E+02  0.00000000000E+00 0.  1.
<mgrwt>
<rscale>  0 0.13231707E+03</rscale>
<asrwt>0</asrwt>
<pdfrwt beam="2">  1        2 0.29842574E+00 0.13506504E+03</pdfrwt>
<pdfrwt beam="1">  1       -2 0.22999548E-02 0.13506504E+03</pdfrwt>
<totfact> 0.49888033E+03</totfact>
</mgrwt>
</event>
<event>
 8    1  0.1224355E-005  0.1475958E+03  0.7546771E-02  0.1212934E+00
          1   -1    0    0  501    0  0.00000000000E+00  0.00000000000E+00  0.77939078423E+03  0.77939078423E+03  0.00000000000E+00 0. -1.
         -1   -1    0    0    0  501 -0.00000000000E+00 -0.00000000000E+00 -0.27184832143E+02  0.27184832143E+02  0.00000000000E+00 0.  1.
         23    2    1    2    0    0 -0.40331999205E+02 -0.67330912865E+02  0.18729184978E+03  0.22269852560E+03  0.91412659543E+02 0.  0.
         23    2    1    2    0    0  0.40331999205E+02  0.67330912865E+02  0.56491410231E+03  0.58387709077E+03  0.12499756859E+03 0.  0.
          5    1    4    4  502    0 -0.25856683810E+00  0.60676022458E+02  0.99575947540E+02  0.11670092496E+03  0.47000000000E+01 0. -1.
         -5    1    4    4    0  502  0.40590566043E+02  0.66548904078E+01  0.46533815477E+03  0.46717616581E+03  0.47000000000E+01 0. -1.
        -11    1    3    3    0    0  0.26068103038E+02 -0.31505642257E+01  0.59455148305E+02  0.64995282221E+02  0.00000000000E+00 0. -1.
         11    1    3    3    0    0 -0.66400102243E+02 -0.64180348640E+02  0.12783670147E+03  0.15770324338E+03  0.00000000000E+00 0.  1.
<mgrwt>
<rscale>  0 0.14029358E+03</rscale>
<asrwt>0</asrwt>
<pdfrwt beam="1">  1        1 0.11990626E+00 0.14759578E+03</pdfrwt>
<pdfrwt beam="2">  1       -1 0.41822825E-02 0.14759578E+03</pdfrwt>
<totfact> 0.53753819E+03</totfact>
</mgrwt>
</event>
<event>
 8    1  0.1224355E-005  0.1330346E+03  0.7546771E-02  0.1233836E+00
         -1   -1    0    0    0  501 -0.00000000000E+00  0.00000000000E+00  0.41504860074E+03  0.41504860074E+03  0.00000000000E+00 0.  1.
          1   -1    0    0  501    0  0.00000000000E+00 -0.00000000000E+00 -0.35986076443E+02  0.35986076443E+02  0.00000000000E+00 0. -1.
         23    2    1    2    0    0 -0.45290595705E+02 -0.46671356876E+01  0.21457055372E+03  0.23947899139E+03  0.96107463695E+02 0.  0.
         23    2    1    2    0    0  0.45290595705E+02  0.46671356876E+01  0.16449197057E+03  0.21155568579E+03  0.12500071837E+03 0.  0.
          5    1    4    4  502    0  0.26837654246E+02  0.18207743645E+02  0.18035901808E+03  0.18331188455E+03  0.47000000000E+01 0. -1.
         -5    1    4    4    0  502  0.18452941459E+02 -0.13540607957E+02 -0.15867047503E+02  0.28243801246E+02  0.47000000000E+01 0. -1.
        -11    1    3    3    0    0 -0.12548528566E+02 -0.38291429203E+02  0.33429410084E+02  0.52356705188E+02  0.00000000000E+00 0. -1.
         11    1    3    3    0    0 -0.32742067139E+02  0.33624293516E+02  0.18114114364E+03  0.18712228620E+03  0.00000000000E+00 0.  1.
<mgrwt>
<rscale>  0 0.12579246E+03</rscale>
<asrwt>0</asrwt>
<pdfrwt beam="2">  1        1 0.55363197E-02 0.13303458E+03</pdfrwt>
<pdfrwt beam="1">  1       -1 0.63853628E-01 0.13303458E+03</pdfrwt>
<totfact> 0.35674529E+03</totfact>
</mgrwt>
</event>
<event>
 8    1  0.1224355E-005  0.1384804E+03  0.7546771E-02  0.1226320E+00
          2   -1    0    0  501    0  0.00000000000E+00  0.00000000000E+00  0.94061381589E+02  0.94061381589E+02  0.00000000000E+00 0. -1.
         -2   -1    0    0    0  501 -0.00000000000E+00 -0.00000000000E+00 -0.21763699736E+03  0.21763699736E+03  0.00000000000E+00 0.  1.
         23    2    1    2    0    0  0.23192986591E+02  0.54920096166E+02 -0.13327391256E+03  0.17287877566E+03  0.92579715469E+02 0.  0.
         23    2    1    2    0    0 -0.23192986591E+02 -0.54920096166E+02  0.96982967903E+01  0.13881960328E+03  0.12499077448E+03 0.  0.
          5    1    4    4  502    0 -0.53276024708E+02  0.11842707412E+02  0.30305575029E+02  0.62602734808E+02  0.47000000000E+01 0. -1.
         -5    1    4    4    0  502  0.30083038117E+02 -0.66762803578E+02 -0.20607278239E+02  0.76216868476E+02  0.47000000000E+01 0. -1.
        -11    1    3    3    0    0  0.38217367603E+02  0.75224603911E+02 -0.95458931938E+02  0.12740375154E+03  0.00000000000E+00 0.  1.
         11    1    3    3    0    0 -0.15024381011E+02 -0.20304507746E+02 -0.37814980623E+02  0.45475024124E+02  0.00000000000E+00 0. -1.
<mgrwt>
<rscale>  0 0.13076818E+03</rscale>
<asrwt>0</asrwt>
<pdfrwt beam="1">  1        2 0.14470982E-01 0.13848041E+03</pdfrwt>
<pdfrwt beam="2">  1       -2 0.33482615E-01 0.13848041E+03</pdfrwt>
<totfact> 0.32651729E+03</totfact>
</mgrwt>
</event>
<event>
 8    1  0.1224355E-005  0.1988649E+03  0.7546771E-02  0.1155096E+00
          1   -1    0    0  501    0  0.00000000000E+00  0.00000000000E+00  0.26382179015E+03  0.26382179015E+03  0.00000000000E+00 0. -1.
         -1   -1    0    0    0  501 -0.00000000000E+00 -0.00000000000E+00 -0.13748694550E+03  0.13748694550E+03  0.00000000000E+00 0.  1.
         23    2    1    2    0    0  0.39954929942E+02  0.14941648314E+03  0.35920579564E+02  0.18285514886E+03  0.90686468486E+02 0.  0.
         23    2    1    2    0    0 -0.39954929942E+02 -0.14941648314E+03  0.90414265081E+02  0.21845358679E+03  0.12500219354E+03 0.  0.
          5    1    4    4  502    0  0.26290387914E+02 -0.46226139252E+02  0.78812543535E+02  0.95192160734E+02  0.47000000000E+01 0. -1.
         -5    1    4    4    0  502 -0.66245317856E+02 -0.10319034389E+03  0.11601721547E+02  0.12326142605E+03  0.47000000000E+01 0. -1.
        -11    1    3    3    0    0  0.19740343847E+02  0.15631357848E+03  0.35435389985E+02  0.16149081353E+03  0.00000000000E+00 0.  1.
         11    1    3    3    0    0  0.20214586096E+02 -0.68970953345E+01  0.48518957873E+00  0.21364335328E+02  0.00000000000E+00 0. -1.
<mgrwt>
<rscale>  0 0.19377998E+03</rscale>
<asrwt>0</asrwt>
<pdfrwt beam="1">  1        1 0.40587968E-01 0.19886485E+03</pdfrwt>
<pdfrwt beam="2">  1       -1 0.21151838E-01 0.19886485E+03</pdfrwt>
<totfact> 0.18782300E+03</totfact>
</mgrwt>
</event>
<event>
 8    1  0.1224355E-005  0.1851190E+03  0.7546771E-02  0.1168157E+00
          2   -1    0    0  501    0  0.00000000000E+00  0.00000000000E+00  0.15674208659E+03  0.15674208659E+03  0.00000000000E+00 0. -1.
         -2   -1    0    0    0  501 -0.00000000000E+00 -0.00000000000E+00 -0.19517721165E+03  0.19517721165E+03  0.00000000000E+00 0.  1.
         23    2    1    2    0    0 -0.10100167650E+03  0.91881947420E+02 -0.81396483480E+01  0.16433773197E+03  0.91087899062E+02 0.  0.
         23    2    1    2    0    0  0.10100167650E+03 -0.91881947420E+02 -0.30295476708E+02  0.18758156627E+03  0.12500158871E+03 0.  0.
          5    1    4    4  502    0  0.44159185747E+02 -0.45691850401E+02 -0.77490734183E+02  0.10032289252E+03  0.47000000000E+01 0.  1.
         -5    1    4    4    0  502  0.56842490751E+02 -0.46190097019E+02  0.47195257475E+02  0.87258673755E+02  0.47000000000E+01 0.  1.
        -11    1    3    3    0    0 -0.70059360820E+02  0.10533824228E+03 -0.20977865495E+02  0.12823622798E+03  0.00000000000E+00 0. -1.
         11    1    3    3    0    0 -0.30942315678E+02 -0.13456294858E+02  0.12838217147E+02  0.36101503990E+02  0.00000000000E+00 0.  1.
<mgrwt>
<rscale>  0 0.17963425E+03</rscale>
<asrwt>0</asrwt>
<pdfrwt beam="1">  1        2 0.24114167E-01 0.18511896E+03</pdfrwt>
<pdfrwt beam="2">  1       -2 0.30027263E-01 0.18511896E+03</pdfrwt>
<totfact> 0.22489466E+03</totfact>
</mgrwt>
</event>
<event>
 8    1  0.1224355E-005  0.1437834E+03  0.7546771E-02  0.1218487E+00
          1   -1    0    0  501    0  0.00000000000E+00  0.00000000000E+00  0.27647018853E+03  0.27647018853E+03  0.00000000000E+00 0. -1.
         -1   -1    0    0    0  501 -0.00000000000E+00 -0.00000000000E+00 -0.71705335229E+02  0.71705335229E+02  0.00000000000E+00 0.  1.
         23    2    1    2    0    0 -0.93784901559E+00  0.71024431614E+02  0.26006346152E+02  0.11876697687E+03  0.91563722662E+02 0.  0.
         23    2    1    2    0    0  0.93784901559E+00 -0.71024431614E+02  0.17875850715E+03  0.22940854689E+03  0.12501331154E+03 0.  0.
          5    1    4    4  502    0 -0.49555225995E+02 -0.50100062890E+02  0.15359501508E+03  0.16905400138E+03  0.47000000000E+01 0. -1.
         -5    1    4    4    0  502  0.50493075011E+02 -0.20924368724E+02  0.25163492067E+02  0.60354545509E+02  0.47000000000E+01 0. -1.
        -11    1    3    3    0    0  0.35284046802E+02  0.39662324857E+02  0.42597400129E+02  0.68063224061E+02  0.00000000000E+00 0. -1.
         11    1    3    3    0    0 -0.36221895817E+02  0.31362106757E+02 -0.16591053977E+02  0.50703752809E+02  0.00000000000E+00 0.  1.
<mgrwt>
<rscale>  0 0.13623484E+03</rscale>
<asrwt>0</asrwt>
<pdfrwt beam="1">  1        1 0.42533875E-01 0.14378344E+03</pdfrwt>
<pdfrwt beam="2">  1       -1 0.11031590E-01 0.14378344E+03</pdfrwt>
<totfact> 0.48886944E+03</totfact>
</mgrwt>
</event>
<event>
 8    1  0.1224355E-005  0.1323137E+03  0.7546771E-02  0.1236983E+00
         -1   -1    0    0    0  501 -0.00000000000E+00  0.00000000000E+00  0.44127242647E+03  0.44127242647E+03  0.00000000000E+00 0.  1.
          1   -1    0    0  501    0  0.00000000000E+00 -0.00000000000E+00 -0.34227314374E+02  0.34227314374E+02  0.00000000000E+00 0. -1.
         23    2    1    2    0    0  0.34783679930E+02 -0.26058212680E+02  0.25232128857E+03  0.27191591184E+03  0.91560338622E+02 0.  0.
         23    2    1    2    0    0 -0.34783679930E+02  0.26058212680E+02  0.15472382353E+03  0.20358382900E+03  0.12497191295E+03 0.  0.
          5    1    4    4  502    0  0.46745858934E+02  0.16757235678E+02  0.64449943522E+02  0.81497641039E+02  0.47000000000E+01 0.  1.
         -5    1    4    4    0  502 -0.81529538864E+02  0.93009770020E+01  0.90273880005E+02  0.12208618796E+03  0.47000000000E+01 0.  1.
        -11    1    3    3    0    0 -0.95992692863E+01 -0.42567533051E+02  0.18185139605E+03  0.18701355856E+03  0.00000000000E+00 0. -1.
         11    1    3    3    0    0  0.44382949217E+02  0.16509320371E+02  0.70469892520E+02  0.84902353278E+02  0.00000000000E+00 0.  1.
<mgrwt>
<rscale>  0 0.12378320E+03</rscale>
<asrwt>0</asrwt>
<pdfrwt beam="2">  1        1 0.52657410E-02 0.13231369E+03</pdfrwt>
<pdfrwt beam="1">  1       -1 0.67888062E-01 0.13231369E+03</pdfrwt>
<totfact> 0.33900362E+03</totfact>
</mgrwt>
</event>
<event>
 7    1  0.1224355E-005  0.3400904E+03  0.7546771E-02  0.1105854E+00
         -2   -1    0    0    0  501 -0.00000000000E+00  0.00000000000E+00  0.31080078231E+03  0.31080078231E+03  0.00000000000E+00 0.  1.
          2   -1    0    0  501    0  0.00000000000E+00 -0.00000000000E+00 -0.18372596731E+03  0.18372596731E+03  0.00000000000E+00 0. -1.
         23    2    1    2    0    0 -0.84359554957E+02 -0.11370644201E+02  0.94646093474E+02  0.15289371105E+03  0.84692253522E+02 0.  0.
          5    1    1    2  502    0 -0.13204609796E+02  0.89468849272E+02 -0.11624366728E+03  0.14735574944E+03  0.47000000000E+01 0. -1.
         -5    1    1    2    0  502  0.97564164753E+02 -0.78098205071E+02  0.14867238881E+03  0.19427728913E+03  0.47000000000E+01 0.  1.
        -11    1    3    3    0    0 -0.12079700803E+02 -0.37147558380E+02  0.13804226001E+02  0.41429662328E+02  0.00000000000E+00 0.  1.
         11    1    3    3    0    0 -0.72279854154E+02  0.25776914179E+02  0.80841867472E+02  0.11146404872E+03  0.00000000000E+00 0. -1.
<mgrwt>
<rscale>  0 0.26215686E+03</rscale>
<asrwt>0</asrwt>
<pdfrwt beam="2">  1        2 0.28265533E-01 0.34009045E+03</pdfrwt>
<pdfrwt beam="1">  1       -2 0.47815505E-01 0.34009045E+03</pdfrwt>
<totfact> 0.79029299E+02</totfact>
</mgrwt>
</event>
<event>
 8    1  0.1224355E-005  0.1279221E+03  0.7546771E-02  0.1245765E+00
         -2   -1    0    0    0  501 -0.00000000000E+00  0.00000000000E+00  0.46366765236E+03  0.46366765236E+03  0.00000000000E+00 0.  1.
          2   -1    0    0  501    0  0.00000000000E+00 -0.00000000000E+00 -0.26901609543E+02  0.26901609543E+02  0.00000000000E+00 0. -1.
         23    2    1    2    0    0 -0.32893894971E+01  0.26996709411E+02  0.21407071230E+03  0.23374777709E+03  0.89844927671E+02 0.  0.
         23    2    1    2    0    0  0.32893894971E+01 -0.26996709411E+02  0.22269533052E+03  0.25682148481E+03  0.12499768968E+03 0.  0.
          5    1    4    4  502    0 -0.19016937584E+02 -0.19040788048E+02 -0.50659874781E+01  0.27783983762E+02  0.47000000000E+01 0. -1.
         -5    1    4    4    0  502  0.22306327081E+02 -0.79559213622E+01  0.22776131799E+03  0.22903750105E+03  0.47000000000E+01 0. -1.
        -11    1    3    3    0    0  0.20834469777E+02  0.48667233552E+02  0.80871578253E+02  0.96658092892E+02  0.00000000000E+00 0. -1.
         11    1    3    3    0    0 -0.24123859274E+02 -0.21670524141E+02  0.13319913405E+03  0.13708968420E+03  0.00000000000E+00 0.  1.
<mgrwt>
<rscale>  0 0.11839735E+03</rscale>
<asrwt>0</asrwt>
<pdfrwt beam="2">  1        2 0.41387095E-02 0.12792210E+03</pdfrwt>
<pdfrwt beam="1">  1       -2 0.71333479E-01 0.12792210E+03</pdfrwt>
<totfact> 0.35155145E+03</totfact>
</mgrwt>
</event>
<event>
 8    1  0.1224355E-005  0.1404872E+03  0.7546771E-02  0.1222682E+00
          1   -1    0    0  501    0  0.00000000000E+00  0.00000000000E+00  0.12002008805E+04  0.12002008805E+04  0.00000000000E+00 0.  1.
         -1   -1    0    0    0  501 -0.00000000000E+00 -0.00000000000E+00 -0.15058684033E+02  0.15058684033E+02  0.00000000000E+00 0. -1.
         23    2    1    2    0    0 -0.31286506185E+02 -0.55974287156E+02  0.34024061520E+03  0.35875776101E+03  0.93975999899E+02 0.  0.
         23    2    1    2    0    0  0.31286506185E+02  0.55974287156E+02  0.84490158131E+03  0.85650180357E+03  0.12499876451E+03 0.  0.
          5    1    4    4  502    0 -0.21950295591E+02  0.36232512481E+02  0.91403674340E+02  0.10085302236E+03  0.47000000000E+01 0.  1.
         -5    1    4    4    0  502  0.53236801776E+02  0.19741774675E+02  0.75349790697E+03  0.75564878121E+03  0.47000000000E+01 0.  1.
        -11    1    3    3    0    0  0.13935874760E+02  0.18823534423E+02  0.43401827289E+02  0.49317873692E+02  0.00000000000E+00 0. -1.
         11    1    3    3    0    0 -0.45222380945E+02 -0.74797821579E+02  0.29683878792E+03  0.30943988732E+03  0.00000000000E+00 0.  1.
<mgrwt>
<rscale>  0 0.13327045E+03</rscale>
<asrwt>0</asrwt>
<pdfrwt beam="1">  1        1 0.18464621E+00 0.14048721E+03</pdfrwt>
<pdfrwt beam="2">  1       -1 0.23167216E-02 0.14048721E+03</pdfrwt>
<totfact> 0.61802407E+03</totfact>
</mgrwt>
</event>
<event>
 8    1  0.1224355E-005  0.1936957E+03  0.7546771E-02  0.1159828E+00
          1   -1    0    0  501    0  0.00000000000E+00  0.00000000000E+00  0.16901975894E+03  0.16901975894E+03  0.00000000000E+00 0. -1.
         -1   -1    0    0    0  501 -0.00000000000E+00 -0.00000000000E+00 -0.24615185173E+03  0.24615185173E+03  0.00000000000E+00 0.  1.
         23    2    1    2    0    0  0.14298798960E+03 -0.37970913837E+02 -0.12697559050E+03  0.21516563521E+03  0.91027987591E+02 0.  0.
         23    2    1    2    0    0 -0.14298798960E+03  0.37970913837E+02  0.49843497709E+02  0.20000597546E+03  0.12502263991E+03 0.  0.
          5    1    4    4  502    0 -0.13209397193E+03 -0.14843859305E+01 -0.39529808577E+01  0.13224498811E+03  0.47000000000E+01 0.  1.
         -5    1    4    4    0  502 -0.10894017661E+02  0.39455299767E+02  0.53796478567E+02  0.67760987351E+02  0.47000000000E+01 0.  1.
        -11    1    3    3    0    0  0.82439343014E+02  0.13598129738E+02 -0.27839307168E+02  0.88069185488E+02  0.00000000000E+00 0. -1.
         11    1    3    3    0    0  0.60548646582E+02 -0.51569043575E+02 -0.99136283336E+02  0.12709644972E+03  0.00000000000E+00 0.  1.
<mgrwt>
<rscale>  0 0.18849206E+03</rscale>
<asrwt>0</asrwt>
<pdfrwt beam="1">  1        1 0.26003040E-01 0.19369568E+03</pdfrwt>
<pdfrwt beam="2">  1       -1 0.37869515E-01 0.19369568E+03</pdfrwt>
<totfact> 0.12302824E+03</totfact>
</mgrwt>
</event>
<event>
 8    1  0.1224355E-005  0.1472222E+03  0.7546771E-02  0.1214360E+00
         -1   -1    0    0    0  501 -0.00000000000E+00  0.00000000000E+00  0.29575706488E+02  0.29575706488E+02  0.00000000000E+00 0.  1.
          1   -1    0    0  501    0  0.00000000000E+00 -0.00000000000E+00 -0.20241940350E+04  0.20241940350E+04  0.00000000000E+00 0. -1.
         23    2    1    2    0    0 -0.75433601577E+02  0.18996173225E+02 -0.10311041382E+03  0.15654108323E+03  0.88443600419E+02 0.  0.
         23    2    1    2    0    0  0.75433601577E+02 -0.18996173225E+02 -0.18915079147E+04  0.18972286583E+04  0.12499323001E+03 0.  0.
          5    1    4    4  502    0 -0.55733688932E+01 -0.54315605203E+02 -0.94681828539E+03  0.94840297498E+03  0.47000000000E+01 0. -1.
         -5    1    4    4    0  502  0.81006970470E+02  0.35319431978E+02 -0.94468962935E+03  0.94882568333E+03  0.47000000000E+01 0. -1.
        -11    1    3    3    0    0 -0.59967388377E+02 -0.21153904442E+02 -0.92460979233E+02  0.11221679029E+03  0.00000000000E+00 0. -1.
         11    1    3    3    0    0 -0.15466213200E+02  0.40150077667E+02 -0.10649434589E+02  0.44324292938E+02  0.00000000000E+00 0.  1.
<mgrwt>
<rscale>  0 0.13923639E+03</rscale>
<asrwt>0</asrwt>
<pdfrwt beam="2">  1        1 0.31141435E+00 0.14722225E+03</pdfrwt>
<pdfrwt beam="1">  1       -1 0.45501105E-02 0.14722225E+03</pdfrwt>
<totfact> 0.67277549E+02</totfact>
</mgrwt>
</event>
<event>
 8    1  0.1224355E-005  0.1461430E+03  0.7546771E-02  0.1219600E+00
          1   -1    0    0  501    0  0.00000000000E+00  0.00000000000E+00  0.59575674947E+03  0.59575674947E+03  0.00000000000E+00 0. -1.
         -1   -1    0    0    0  501 -0.00000000000E+00 -0.00000000000E+00 -0.31456607431E+02  0.31456607431E+02  0.00000000000E+00 0.  1.
         23    2    1    2    0    0  0.56944981058E+02  0.49876330037E+02  0.12945970035E+03  0.16847161617E+03  0.76762570798E+02 0.  0.
         23    2    1    2    0    0 -0.56944981058E+02 -0.49876330037E+02  0.43484044169E+03  0.45874174073E+03  0.12500958280E+03 0.  0.
          5    1    4    4  502    0 -0.68034621896E+02  0.18702268857E+02  0.28294796890E+03  0.29165069474E+03  0.47000000000E+01 0.  1.
         -5    1    4    4    0  502  0.11089640837E+02 -0.68578598894E+02  0.15189247279E+03  0.16709104599E+03  0.47000000000E+01 0.  1.
        -11    1    3    3    0    0  0.26486840444E+02  0.52941512371E+02  0.34095057405E+02  0.68314196096E+02  0.00000000000E+00 0.  1.
         11    1    3    3    0    0  0.30458140614E+02 -0.30651823334E+01  0.95364642946E+02  0.10015742008E+03  0.00000000000E+00 0. -1.
<mgrwt>
<rscale>  0 0.13544023E+03</rscale>
<asrwt>0</asrwt>
<pdfrwt beam="1">  1        1 0.91654876E-01 0.14614299E+03</pdfrwt>
<pdfrwt beam="2">  1       -1 0.48394785E-02 0.14614299E+03</pdfrwt>
<totfact> 0.63474387E+03</totfact>
</mgrwt>
</event>
<event>
 8    1  0.1224355E-005  0.1207583E+03  0.7546771E-02  0.1250858E+00
         -1   -1    0    0    0  501 -0.00000000000E+00  0.00000000000E+00  0.84638339501E+02  0.84638339501E+02  0.00000000000E+00 0.  1.
          1   -1    0    0  501    0  0.00000000000E+00 -0.00000000000E+00 -0.15916401159E+03  0.15916401159E+03  0.00000000000E+00 0. -1.
         23    2    1    2    0    0 -0.20673281245E+02 -0.37584454158E+02  0.21011773078E+01  0.10078400903E+03  0.91175796009E+02 0.  0.
         23    2    1    2    0    0  0.20673281245E+02  0.37584454158E+02 -0.76626849394E+02  0.14301834206E+03  0.11288310930E+03 0.  0.
          5    1    4    4  502    0 -0.35446735587E+02  0.18079541824E+01  0.65414285196E+01  0.36395330046E+02  0.47000000000E+01 0. -1.
         -5    1    4    4    0  502  0.56120016832E+02  0.35776499976E+02 -0.83168277914E+02  0.10662301201E+03  0.47000000000E+01 0.  1.
        -11    1    3    3    0    0  0.18292158931E+02 -0.37031687719E+02  0.31520549057E+02  0.51956654882E+02  0.00000000000E+00 0.  1.
         11    1    3    3    0    0 -0.38965440176E+02 -0.55276643952E+00 -0.29419371749E+02  0.48827354146E+02  0.00000000000E+00 0. -1.
<mgrwt>
<rscale>  0 0.11541496E+03</rscale>
<asrwt>0</asrwt>
<pdfrwt beam="2">  1        1 0.24486771E-01 0.12075832E+03</pdfrwt>
<pdfrwt beam="1">  1       -1 0.13021283E-01 0.12075832E+03</pdfrwt>
<totfact> 0.74288229E+03</totfact>
</mgrwt>
</event>
<event>
 7    1  0.1224355E-005  0.1730776E+03  0.7546771E-02  0.1184495E+00
         -2   -1    0    0    0  501 -0.00000000000E+00  0.00000000000E+00  0.23842626160E+02  0.23842626160E+02  0.00000000000E+00 0.  1.
          2   -1    0    0  501    0  0.00000000000E+00 -0.00000000000E+00 -0.38081870217E+04  0.38081870217E+04  0.00000000000E+00 0. -1.
         23    2    1    2    0    0  0.34234746057E+02 -0.10296752344E+03 -0.19956302114E+03  0.24307250487E+03  0.86513088563E+02 0.  0.
          5    1    1    2  502    0 -0.47742266144E+02  0.65612498562E+02 -0.33352471760E+04  0.33362374225E+04  0.47000000000E+01 0. -1.
         -5    1    1    2    0  502  0.13507520087E+02  0.37355024878E+02 -0.24953419838E+03  0.25271972052E+03  0.47000000000E+01 0. -1.
        -11    1    3    3    0    0  0.54859296781E+02 -0.61117852203E+02 -0.79669695629E+02  0.11442112874E+03  0.00000000000E+00 0.  1.
         11    1    3    3    0    0 -0.20624550724E+02 -0.41849671238E+02 -0.11989332552E+03  0.12865137612E+03  0.00000000000E+00 0. -1.
<mgrwt>
<rscale>  0 0.16377949E+03</rscale>
<asrwt>0</asrwt>
<pdfrwt beam="2">  1        2 0.58587456E+00 0.17307765E+03</pdfrwt>
<pdfrwt beam="1">  1       -2 0.36680986E-02 0.17307765E+03</pdfrwt>
<totfact> 0.20336630E+02</totfact>
</mgrwt>
</event>
<event>
 8    1  0.1224355E-005  0.1557372E+03  0.7546771E-02  0.1202330E+00
          3   -1    0    0  501    0  0.00000000000E+00  0.00000000000E+00  0.27067892170E+03  0.27067892170E+03  0.00000000000E+00 0. -1.
         -3   -1    0    0    0  501 -0.00000000000E+00 -0.00000000000E+00 -0.10940758211E+03  0.10940758211E+03  0.00000000000E+00 0.  1.
         23    2    1    2    0    0 -0.24815656246E+02  0.89530019506E+02 -0.31233417536E+02  0.13247361726E+03  0.89119536077E+02 0.  0.
         23    2    1    2    0    0  0.24815656246E+02 -0.89530019506E+02  0.19250475712E+03  0.24761288655E+03  0.12499047517E+03 0.  0.
          5    1    4    4  502    0 -0.29783344413E+02 -0.86708035876E+02  0.15817784735E+03  0.18288699375E+03  0.47000000000E+01 0.  1.
         -5    1    4    4    0  502  0.54599000659E+02 -0.28219836297E+01  0.34326909771E+02  0.64725892802E+02  0.47000000000E+01 0.  1.
        -11    1    3    3    0    0 -0.87518441268E+01  0.17317049609E+02 -0.52110959258E+02  0.55605998395E+02  0.00000000000E+00 0.  1.
         11    1    3    3    0    0 -0.16063812119E+02  0.72212969897E+02  0.20877541722E+02  0.76867618862E+02  0.00000000000E+00 0. -1.
<mgrwt>
<rscale>  0 0.14849838E+03</rscale>
<asrwt>0</asrwt>
<pdfrwt beam="1">  1        3 0.41642911E-01 0.15573715E+03</pdfrwt>
<pdfrwt beam="2">  1       -3 0.16831936E-01 0.15573715E+03</pdfrwt>
<totfact> 0.41323443E+02</totfact>
</mgrwt>
</event>
<event>
 8    1  0.1306663E-005  0.1384506E+03  0.7546771E-02  0.1227735E+00
         -1   -1    0    0    0  501 -0.00000000000E+00  0.00000000000E+00  0.43495909203E+02  0.43495909203E+02  0.00000000000E+00 0.  1.
          1   -1    0    0  501    0  0.00000000000E+00 -0.00000000000E+00 -0.59421621477E+03  0.59421621477E+03  0.00000000000E+00 0. -1.
         23    2    1    2    0    0 -0.56484718823E+02  0.18789141196E+02 -0.49816501093E+02  0.11802645801E+03  0.88910099094E+02 0.  0.
         23    2    1    2    0    0  0.56484718823E+02 -0.18789141196E+02 -0.50090380447E+03  0.51968566597E+03  0.12500005915E+03 0.  0.
          5    1    4    4  502    0  0.10411741721E+02 -0.63552130755E+02 -0.15627119457E+03  0.16908593656E+03  0.47000000000E+01 0.  1.
         -5    1    4    4    0  502  0.46072977103E+02  0.44762989558E+02 -0.34463260990E+03  0.35059972941E+03  0.47000000000E+01 0.  1.
        -11    1    3    3    0    0 -0.38797636623E+02  0.53495590619E+02 -0.20229324529E+02  0.69110494096E+02  0.00000000000E+00 0.  1.
         11    1    3    3    0    0 -0.17687082201E+02 -0.34706449423E+02 -0.29587176564E+02  0.48915963911E+02  0.00000000000E+00 0. -1.
<mgrwt>
<rscale>  0 0.12981205E+03</rscale>
<asrwt>0</asrwt>
<pdfrwt beam="2">  1        1 0.91417873E-01 0.13845061E+03</pdfrwt>
<pdfrwt beam="1">  1       -1 0.66916788E-02 0.13845061E+03</pdfrwt>
<totfact> 0.39221491E+03</totfact>
</mgrwt>
</event>
<event>
 8    1  0.1224355E-005  0.1603394E+03  0.7546771E-02  0.1196167E+00
         -2   -1    0    0    0  501 -0.00000000000E+00  0.00000000000E+00  0.75347099318E+02  0.75347099318E+02  0.00000000000E+00 0.  1.
          2   -1    0    0  501    0  0.00000000000E+00 -0.00000000000E+00 -0.85194252244E+03  0.85194252244E+03  0.00000000000E+00 0. -1.
         23    2    1    2    0    0 -0.46007260921E+02 -0.89265050641E+02 -0.58683827191E+00  0.13488944496E+03  0.90054986868E+02 0.  0.
         23    2    1    2    0    0  0.46007260921E+02  0.89265050641E+02 -0.77600858485E+03  0.79240017679E+03  0.12499519631E+03 0.  0.
          5    1    4    4  502    0  0.87970406277E+02  0.62678906029E+02 -0.58946312796E+03  0.59929650998E+03  0.47000000000E+01 0.  1.
         -5    1    4    4    0  502 -0.41963145356E+02  0.26586144612E+02 -0.18654545688E+03  0.19310366681E+03  0.47000000000E+01 0.  1.
        -11    1    3    3    0    0 -0.27959370153E+02 -0.10331806072E+03 -0.14659092696E+02  0.10803349966E+03  0.00000000000E+00 0. -1.
         11    1    3    3    0    0 -0.18047890768E+02  0.14053010079E+02  0.14072254424E+02  0.26855945302E+02  0.00000000000E+00 0.  1.
<mgrwt>
<rscale>  0 0.15355841E+03</rscale>
<asrwt>0</asrwt>
<pdfrwt beam="2">  1        2 0.13106808E+00 0.16033938E+03</pdfrwt>
<pdfrwt beam="1">  1       -2 0.11591862E-01 0.16033938E+03</pdfrwt>
<totfact> 0.17008797E+03</totfact>
</mgrwt>
</event>
<event>
 8    1  0.1224355E-005  0.1290589E+03  0.7546771E-02  0.1240815E+00
          1   -1    0    0  501    0  0.00000000000E+00  0.00000000000E+00  0.50871101871E+02  0.50871101871E+02  0.00000000000E+00 0. -1.
         -1   -1    0    0    0  501 -0.00000000000E+00 -0.00000000000E+00 -0.26424328752E+03  0.26424328752E+03  0.00000000000E+00 0.  1.
         23    2    1    2    0    0 -0.23154707190E+01 -0.32005734825E+02 -0.11333370894E+03  0.15182353621E+03  0.95792108749E+02 0.  0.
         23    2    1    2    0    0  0.23154707190E+01  0.32005734825E+02 -0.10003847671E+03  0.16329085318E+03  0.12500590964E+03 0.  0.
          5    1    4    4  502    0  0.62267288645E+02  0.42060234379E+01 -0.53391321838E+02  0.82265601049E+02  0.47000000000E+01 0. -1.
         -5    1    4    4    0  502 -0.59951817926E+02  0.27799711387E+02 -0.46647154872E+02  0.81025252134E+02  0.47000000000E+01 0. -1.
        -11    1    3    3    0    0  0.31904218937E+02  0.20780521973E+02 -0.40639178152E+02  0.55688886507E+02  0.00000000000E+00 0. -1.
         11    1    3    3    0    0 -0.34219689656E+02 -0.52786256798E+02 -0.72694530788E+02  0.96134649702E+02  0.00000000000E+00 0.  1.
<mgrwt>
<rscale>  0 0.12139400E+03</rscale>
<asrwt>0</asrwt>
<pdfrwt beam="1">  1        1 0.78263232E-02 0.12905892E+03</pdfrwt>
<pdfrwt beam="2">  1       -1 0.40652815E-01 0.12905892E+03</pdfrwt>
<totfact> 0.51056348E+03</totfact>
</mgrwt>
</event>
<event>
 8    1  0.1224355E-005  0.2837375E+03  0.7546771E-02  0.1095468E+00
         -1   -1    0    0    0  501 -0.00000000000E+00  0.00000000000E+00  0.99761148563E+02  0.99761148563E+02  0.00000000000E+00 0.  1.
          1   -1    0    0  501    0  0.00000000000E+00 -0.00000000000E+00 -0.77123173509E+03  0.77123173509E+03  0.00000000000E+00 0. -1.
         23    2    1    2    0    0 -0.19267638546E+03  0.16660197743E+03 -0.34395748035E+03  0.43766643921E+03  0.91459036327E+02 0.  0.
         23    2    1    2    0    0  0.19267638546E+03 -0.16660197743E+03 -0.32751310618E+03  0.43332644444E+03  0.12500625720E+03 0.  0.
          5    1    4    4  502    0  0.73625787760E+02 -0.78945458293E+02 -0.50444503734E+02  0.11924713819E+03  0.47000000000E+01 0.  1.
         -5    1    4    4    0  502  0.11905059770E+03 -0.87656519136E+02 -0.27706860244E+03  0.31407930626E+03  0.47000000000E+01 0.  1.
        -11    1    3    3    0    0 -0.10069430567E+03  0.14263514488E+03 -0.24019897941E+03  0.29695063134E+03  0.00000000000E+00 0.  1.
         11    1    3    3    0    0 -0.91982079793E+02  0.23966832552E+02 -0.10375850095E+03  0.14071580787E+03  0.00000000000E+00 0. -1.
<mgrwt>
<rscale>  0 0.28040447E+03</rscale>
<asrwt>0</asrwt>
<pdfrwt beam="2">  1        1 0.11865104E+00 0.28373751E+03</pdfrwt>
<pdfrwt beam="1">  1       -1 0.15347869E-01 0.28373751E+03</pdfrwt>
<totfact> 0.75724818E+02</totfact>
</mgrwt>
</event>
<event>
 8    1  0.1224355E-005  0.1337045E+03  0.7546771E-02  0.1235550E+00
         -2   -1    0    0    0  501 -0.00000000000E+00  0.00000000000E+00  0.53967698609E+02  0.53967698609E+02  0.00000000000E+00 0.  1.
          2   -1    0    0  501    0  0.00000000000E+00 -0.00000000000E+00 -0.26030247678E+03  0.26030247678E+03  0.00000000000E+00 0. -1.
         23    2    1    2    0    0 -0.45618158776E+02 -0.13153693119E+02 -0.67957297791E+02  0.12185076195E+03  0.89304970810E+02 0.  0.
         23    2    1    2    0    0  0.45618158776E+02  0.13153693119E+02 -0.13837748038E+03  0.19241941344E+03  0.12499146987E+03 0.  0.
          5    1    4    4  502    0  0.70689544431E+02 -0.30307506357E+02 -0.11083801033E+03  0.13499152258E+03  0.47000000000E+01 0. -1.
         -5    1    4    4    0  502 -0.25071385655E+02  0.43461199476E+02 -0.27539470048E+02  0.57427890864E+02  0.47000000000E+01 0. -1.
        -11    1    3    3    0    0 -0.73297907380E+01  0.30751757974E+02  0.93835804641E+00  0.31627155525E+02  0.00000000000E+00 0.  1.
         11    1    3    3    0    0 -0.38288368038E+02 -0.43905451093E+02 -0.68895655837E+02  0.90223606423E+02  0.00000000000E+00 0. -1.
<mgrwt>
<rscale>  0 0.12469268E+03</rscale>
<asrwt>0</asrwt>
<pdfrwt beam="2">  1        2 0.40046535E-01 0.13370454E+03</pdfrwt>
<pdfrwt beam="1">  1       -2 0.83027229E-02 0.13370454E+03</pdfrwt>
<totfact> 0.10728092E+04</totfact>
</mgrwt>
</event>
<event>
 8    1  0.1224355E-005  0.1341666E+03  0.7546771E-02  0.1233768E+00
         -2   -1    0    0    0  501 -0.00000000000E+00  0.00000000000E+00  0.35847373300E+02  0.35847373300E+02  0.00000000000E+00 0.  1.
          2   -1    0    0  501    0  0.00000000000E+00 -0.00000000000E+00 -0.43779398444E+03  0.43779398444E+03  0.00000000000E+00 0. -1.
         23    2    1    2    0    0  0.34467245918E+02  0.34442542020E+02 -0.10435544112E+03  0.14720423878E+03  0.91677424065E+02 0.  0.
         23    2    1    2    0    0 -0.34467245918E+02 -0.34442542020E+02 -0.29759117002E+03  0.32643711895E+03  0.12500563353E+03 0.  0.
          5    1    4    4  502    0 -0.64872734059E+02  0.21698673857E+02 -0.17874872452E+03  0.19144842801E+03  0.47000000000E+01 0.  1.
         -5    1    4    4    0  502  0.30405488141E+02 -0.56141215877E+02 -0.11884244551E+03  0.13498869094E+03  0.47000000000E+01 0.  1.
        -11    1    3    3    0    0  0.29178899125E+02  0.43676192190E+02 -0.11843248845E+03  0.12955798794E+03  0.00000000000E+00 0. -1.
         11    1    3    3    0    0  0.52883467921E+01 -0.92336501698E+01  0.14077047333E+02  0.17646250844E+02  0.00000000000E+00 0.  1.
<mgrwt>
<rscale>  0 0.12583628E+03</rscale>
<asrwt>0</asrwt>
<pdfrwt beam="2">  1        2 0.67352925E-01 0.13416664E+03</pdfrwt>
<pdfrwt beam="1">  1       -2 0.55149801E-02 0.13416664E+03</pdfrwt>
<totfact> 0.11531921E+04</totfact>
</mgrwt>
</event>
<event>
 8    1  0.1224355E-005  0.1299464E+03  0.7546771E-02  0.1238162E+00
          2   -1    0    0  501    0  0.00000000000E+00  0.00000000000E+00  0.52768887162E+03  0.52768887162E+03  0.00000000000E+00 0. -1.
         -2   -1    0    0    0  501 -0.00000000000E+00 -0.00000000000E+00 -0.27457489279E+02  0.27457489279E+02  0.00000000000E+00 0.  1.
         23    2    1    2    0    0  0.13274927483E+02  0.32963065999E+02  0.16138943370E+03  0.19224151490E+03  0.98221501311E+02 0.  0.
         23    2    1    2    0    0 -0.13274927483E+02 -0.32963065999E+02  0.33884194864E+03  0.36290484600E+03  0.12499309450E+03 0.  0.
          5    1    4    4  502    0 -0.61958675056E+02  0.11755490917E+02  0.18032273219E+03  0.19109015339E+03  0.47000000000E+01 0.  1.
         -5    1    4    4    0  502  0.48683747573E+02 -0.44718556916E+02  0.15851921645E+03  0.17181469260E+03  0.47000000000E+01 0.  1.
        -11    1    3    3    0    0  0.43808904897E+02 -0.23655993808E+01  0.12667172615E+03  0.13405425175E+03  0.00000000000E+00 0. -1.
         11    1    3    3    0    0 -0.30533977414E+02  0.35328665380E+02  0.34717707558E+02  0.58187263145E+02  0.00000000000E+00 0.  1.
<mgrwt>
<rscale>  0 0.12304174E+03</rscale>
<asrwt>0</asrwt>
<pdfrwt beam="1">  1        2 0.81182896E-01 0.12994638E+03</pdfrwt>
<pdfrwt beam="2">  1       -2 0.42242295E-02 0.12994638E+03</pdfrwt>
<totfact> 0.13990152E+04</totfact>
</mgrwt>
</event>
<event>
 8    1  0.1224355E-005  0.1252073E+03  0.7546771E-02  0.1250284E+00
         -2   -1    0    0    0  501 -0.00000000000E+00  0.00000000000E+00  0.23909165258E+02  0.23909165258E+02  0.00000000000E+00 0.  1.
          2   -1    0    0  501    0  0.00000000000E+00 -0.00000000000E+00 -0.49089979243E+03  0.49089979243E+03  0.00000000000E+00 0. -1.
         23    2    1    2    0    0  0.61023615159E+01  0.37856043041E+01 -0.20109120621E+03  0.22090529408E+03  0.91158686467E+02 0.  0.
         23    2    1    2    0    0 -0.61023615159E+01 -0.37856043041E+01 -0.26589942096E+03  0.29390366361E+03  0.12500116721E+03 0.  0.
          5    1    4    4  502    0  0.74700556877E+01 -0.62975566962E+02 -0.12017482217E+03  0.13596250089E+03  0.47000000000E+01 0.  1.
         -5    1    4    4    0  502 -0.13572417204E+02  0.59189962658E+02 -0.14572459879E+03  0.15794116272E+03  0.47000000000E+01 0.  1.
        -11    1    3    3    0    0  0.12753031271E+02 -0.28395491910E+02 -0.17810011554E+03  0.18079987534E+03  0.00000000000E+00 0. -1.
         11    1    3    3    0    0 -0.66506697550E+01  0.32181096214E+02 -0.22991090676E+02  0.40105418739E+02  0.00000000000E+00 0.  1.
<mgrwt>
<rscale>  0 0.11574641E+03</rscale>
<asrwt>0</asrwt>
<pdfrwt beam="2">  1        2 0.75523045E-01 0.12520727E+03</pdfrwt>
<pdfrwt beam="1">  1       -2 0.36783331E-02 0.12520727E+03</pdfrwt>
<totfact> 0.18538214E+04</totfact>
</mgrwt>
</event>
<event>
 8    1  0.1224355E-005  0.1304337E+03  0.7546771E-02  0.1241202E+00
          1   -1    0    0  501    0  0.00000000000E+00  0.00000000000E+00  0.83947977572E+03  0.83947977572E+03  0.00000000000E+00 0. -1.
         -1   -1    0    0    0  501 -0.00000000000E+00 -0.00000000000E+00 -0.16279536566E+02  0.16279536566E+02  0.00000000000E+00 0.  1.
         23    2    1    2    0    0 -0.33396926679E+02 -0.16495594109E+02  0.25702723740E+03  0.27475601553E+03  0.89668321979E+02 0.  0.
         23    2    1    2    0    0  0.33396926679E+02  0.16495594109E+02  0.56617300175E+03  0.58100329676E+03  0.12500201436E+03 0.  0.
          5    1    4    4  502    0  0.75508689932E+02  0.25218501389E+02  0.26500816998E+03  0.27674709614E+03  0.47000000000E+01 0. -1.
         -5    1    4    4    0  502 -0.42111763253E+02 -0.87229072795E+01  0.30116483177E+03  0.30425620061E+03  0.47000000000E+01 0. -1.
        -11    1    3    3    0    0 -0.35891118237E+00  0.14859446108E+02  0.12072075350E+01  0.14912722954E+02  0.00000000000E+00 0.  1.
         11    1    3    3    0    0 -0.33038015497E+02 -0.31355040218E+02  0.25582002987E+03  0.25984329258E+03  0.00000000000E+00 0. -1.
<mgrwt>
<rscale>  0 0.12115579E+03</rscale>
<asrwt>0</asrwt>
<pdfrwt beam="1">  1        1 0.12915070E+00 0.13043375E+03</pdfrwt>
<pdfrwt beam="2">  1       -1 0.25045447E-02 0.13043375E+03</pdfrwt>
<totfact> 0.10088241E+04</totfact>
</mgrwt>
</event>
<event>
 7    1  0.1224355E-005  0.3025208E+03  0.7546771E-02  0.1085298E+00
         -2   -1    0    0    0  501 -0.00000000000E+00  0.00000000000E+00  0.74921662695E+02  0.74921662695E+02  0.00000000000E+00 0.  1.
          2   -1    0    0  501    0  0.00000000000E+00 -0.00000000000E+00 -0.14109145780E+04  0.14109145780E+04  0.00000000000E+00 0. -1.
         23    2    1    2    0    0  0.22898906428E+03 -0.13142046203E+03 -0.95880965974E+03  0.10023219563E+04  0.12500404446E+03 0.  0.
          5    1    3    3  502    0  0.83161425118E+02  0.10777986407E+02 -0.20684888729E+03  0.22324994915E+03  0.47000000000E+01 0. -1.
         -5    1    3    3    0  502  0.14582763916E+03 -0.14219844844E+03 -0.75196077244E+03  0.77907200718E+03  0.47000000000E+01 0. -1.
        -11    1    1    2    0    0 -0.23565229615E+03  0.10004862741E+03 -0.27191800751E+03  0.37347173298E+03  0.00000000000E+00 0.  1.
         11    1    1    2    0    0  0.66632318693E+01  0.31371834619E+02 -0.10526524802E+03  0.11004255135E+03  0.00000000000E+00 0. -1.
<mgrwt>
<rscale>  0 0.29988608E+03</rscale>
<asrwt>0</asrwt>
<pdfrwt beam="2">  1        2 0.21706377E+00 0.30252083E+03</pdfrwt>
<pdfrwt beam="1">  1       -2 0.11526410E-01 0.30252083E+03</pdfrwt>
<totfact> 0.80448314E+02</totfact>
</mgrwt>
</event>
<event>
 8    1  0.1224355E-005  0.1491212E+03  0.7546771E-02  0.1211754E+00
         -1   -1    0    0    0  501 -0.00000000000E+00  0.00000000000E+00  0.27865714993E+02  0.27865714993E+02  0.00000000000E+00 0.  1.
          1   -1    0    0  501    0  0.00000000000E+00 -0.00000000000E+00 -0.68137391714E+03  0.68137391714E+03  0.00000000000E+00 0. -1.
         23    2    1    2    0    0  0.52125519507E+02  0.62411617059E+02 -0.21570707192E+03  0.24673886881E+03  0.87967316526E+02 0.  0.
         23    2    1    2    0    0 -0.52125519507E+02 -0.62411617059E+02 -0.43780113022E+03  0.46250076332E+03  0.12499938688E+03 0.  0.
          5    1    4    4  502    0 -0.92657188694E+02 -0.32568240806E+02 -0.27643566410E+03  0.29340213243E+03  0.47000000000E+01 0.  1.
         -5    1    4    4    0  502  0.40531669187E+02 -0.29843376253E+02 -0.16136546612E+03  0.16909863089E+03  0.47000000000E+01 0.  1.
        -11    1    3    3    0    0  0.29956293476E+02  0.19728229389E+02 -0.12604802469E+02  0.38019253003E+02  0.00000000000E+00 0.  1.
         11    1    3    3    0    0  0.22169226031E+02  0.42683387671E+02 -0.20310226945E+03  0.20871961581E+03  0.00000000000E+00 0. -1.
<mgrwt>
<rscale>  0 0.14117669E+03</rscale>
<asrwt>0</asrwt>
<pdfrwt beam="2">  1        1 0.10482675E+00 0.14912118E+03</pdfrwt>
<pdfrwt beam="1">  1       -1 0.42870332E-02 0.14912118E+03</pdfrwt>
<totfact> 0.63062491E+03</totfact>
</mgrwt>
</event>
<event>
 8    1  0.1224355E-005  0.1272781E+03  0.7546771E-02  0.1245115E+00
         -2   -1    0    0    0  501 -0.00000000000E+00  0.00000000000E+00  0.15845009910E+02  0.15845009910E+02  0.00000000000E+00 0. -1.
          2   -1    0    0  501    0  0.00000000000E+00 -0.00000000000E+00 -0.80445511931E+03  0.80445511931E+03  0.00000000000E+00 0.  1.
         23    2    1    2    0    0  0.43841833423E+01  0.23585616175E+02 -0.28762710118E+03  0.30340199358E+03  0.93530305338E+02 0.  0.
         23    2    1    2    0    0 -0.43841833423E+01 -0.23585616175E+02 -0.50098300822E+03  0.51689813564E+03  0.12499682299E+03 0.  0.
          5    1    4    4  502    0  0.11802822308E+02 -0.19080708774E+02 -0.90327659808E+01  0.24638606353E+02  0.47000000000E+01 0.  1.
         -5    1    4    4    0  502 -0.16187005651E+02 -0.45049074008E+01 -0.49195024223E+03  0.49225952929E+03  0.47000000000E+01 0.  1.
        -11    1    3    3    0    0  0.34390715625E+02  0.40532590606E+02 -0.23162419864E+03  0.23764549568E+03  0.00000000000E+00 0.  1.
         11    1    3    3    0    0 -0.30006532282E+02 -0.16946974431E+02 -0.56002902544E+02  0.65756497894E+02  0.00000000000E+00 0. -1.
<mgrwt>
<rscale>  0 0.11878514E+03</rscale>
<asrwt>0</asrwt>
<pdfrwt beam="2">  1        2 0.12376235E+00 0.12727807E+03</pdfrwt>
<pdfrwt beam="1">  1       -2 0.24376934E-02 0.12727807E+03</pdfrwt>
<totfact> 0.19196779E+04</totfact>
</mgrwt>
</event>
<event>
 8    1  0.1224355E-005  0.1362718E+03  0.7546771E-02  0.1230316E+00
          2   -1    0    0  501    0  0.00000000000E+00  0.00000000000E+00  0.21997116618E+03  0.21997116618E+03  0.00000000000E+00 0. -1.
         -2   -1    0    0    0  501 -0.00000000000E+00 -0.00000000000E+00 -0.69184293557E+02  0.69184293557E+02  0.00000000000E+00 0.  1.
         23    2    1    2    0    0  0.50438316676E+02 -0.20027493186E+02  0.40435890449E+02  0.11380623834E+03  0.91496854468E+02 0.  0.
         23    2    1    2    0    0 -0.50438316676E+02  0.20027493186E+02  0.11035098217E+03  0.17534922139E+03  0.12499954361E+03 0.  0.
          5    1    4    4  502    0 -0.70989809017E+02 -0.24552005726E+02  0.29893471182E+02  0.80981871976E+02  0.47000000000E+01 0. -1.
         -5    1    4    4    0  502  0.20551492341E+02  0.44579498912E+02  0.80457510993E+02  0.94367349416E+02  0.47000000000E+01 0. -1.
        -11    1    3    3    0    0  0.21692487254E+02 -0.38581934117E+02 -0.16618994162E+02  0.47279177345E+02  0.00000000000E+00 0.  1.
         11    1    3    3    0    0  0.28745829422E+02  0.18554440930E+02  0.57054884611E+02  0.66527061000E+02  0.00000000000E+00 0. -1.
<mgrwt>
<rscale>  0 0.12809141E+03</rscale>
<asrwt>0</asrwt>
<pdfrwt beam="1">  1        2 0.33841718E-01 0.13627182E+03</pdfrwt>
<pdfrwt beam="2">  1       -2 0.10643738E-01 0.13627182E+03</pdfrwt>
<totfact> 0.87211821E+03</totfact>
</mgrwt>
</event>
<event>
 8    1  0.1224355E-005  0.1398501E+03  0.7546771E-02  0.1224380E+00
         -2   -1    0    0    0  501 -0.00000000000E+00  0.00000000000E+00  0.24344140919E+02  0.24344140919E+02  0.00000000000E+00 0.  1.
          2   -1    0    0  501    0  0.00000000000E+00 -0.00000000000E+00 -0.85656144564E+03  0.85656144564E+03  0.00000000000E+00 0. -1.
         23    2    1    2    0    0 -0.55621559448E+02  0.28968904207E+02 -0.16399498003E+03  0.19820570506E+03  0.91968433476E+02 0.  0.
         23    2    1    2    0    0  0.55621559448E+02 -0.28968904207E+02 -0.66822232470E+03  0.68269988151E+03  0.12500039079E+03 0.  0.
          5    1    4    4  502    0 -0.74957303277E+01 -0.23971496454E+02 -0.23053521660E+02  0.34414727608E+02  0.47000000000E+01 0.  1.
         -5    1    4    4    0  502  0.63117289776E+02 -0.49974077534E+01 -0.64516880304E+03  0.64828515390E+03  0.47000000000E+01 0.  1.
        -11    1    3    3    0    0 -0.60547236603E+02 -0.73006204122E+01 -0.51226112811E+02  0.79645348592E+02  0.00000000000E+00 0.  1.
         11    1    3    3    0    0  0.49256771548E+01  0.36269524620E+02 -0.11276886722E+03  0.11856035646E+03  0.00000000000E+00 0. -1.
<mgrwt>
<rscale>  0 0.13209490E+03</rscale>
<asrwt>0</asrwt>
<pdfrwt beam="2">  1        2 0.13177867E+00 0.13985011E+03</pdfrwt>
<pdfrwt beam="1">  1       -2 0.37452529E-02 0.13985011E+03</pdfrwt>
<totfact> 0.94955817E+03</totfact>
</mgrwt>
</event>
<event>
 7    1  0.1224355E-005  0.2007886E+03  0.7546771E-02  0.1164432E+00
          1   -1    0    0  501    0  0.00000000000E+00  0.00000000000E+00  0.53852111431E+03  0.53852111431E+03  0.00000000000E+00 0. -1.
         -1   -1    0    0    0  501 -0.00000000000E+00 -0.00000000000E+00 -0.27067254880E+03  0.27067254880E+03  0.00000000000E+00 0.  1.
         23    2    1    2    0    0 -0.10796488624E+03  0.18883083804E+01 -0.23170818470E+03  0.27079508528E+03  0.89338194431E+02 0.  0.
          5    1    1    2  502    0  0.13181068754E+03 -0.11584118955E+02  0.49427822548E+03  0.51170431242E+03  0.47000000000E+01 0. -1.
         -5    1    1    2    0  502 -0.23845801307E+02  0.96958105747E+01  0.52785247309E+01  0.26694265414E+02  0.47000000000E+01 0.  1.
        -11    1    3    3    0    0  0.93770873726E+01  0.19348984395E+02 -0.34288727441E+02  0.40472580770E+02  0.00000000000E+00 0. -1.
         11    1    3    3    0    0 -0.11734197361E+03 -0.17460676015E+02 -0.19741945726E+03  0.23032250451E+03  0.00000000000E+00 0.  1.
<mgrwt>
<rscale>  0 0.18352728E+03</rscale>
<asrwt>0</asrwt>
<pdfrwt beam="1">  1        1 0.82849402E-01 0.20078865E+03</pdfrwt>
<pdfrwt beam="2">  1       -1 0.41641931E-01 0.20078865E+03</pdfrwt>
<totfact> 0.23889458E+02</totfact>
</mgrwt>
</event>
<event>
 8    1  0.1224355E-005  0.1345336E+03  0.7546771E-02  0.1233285E+00
         -1   -1    0    0    0  501 -0.00000000000E+00  0.00000000000E+00  0.20968180905E+02  0.20968180905E+02  0.00000000000E+00 0.  1.
          1   -1    0    0  501    0  0.00000000000E+00 -0.00000000000E+00 -0.67928018791E+03  0.67928018791E+03  0.00000000000E+00 0. -1.
         23    2    1    2    0    0  0.43438034113E+02 -0.24194479487E+02 -0.27451419286E+03  0.29355431714E+03  0.91344728280E+02 0.  0.
         23    2    1    2    0    0 -0.43438034113E+02  0.24194479487E+02 -0.38379781415E+03  0.40669405168E+03  0.12500821525E+03 0.  0.
          5    1    4    4  502    0 -0.17060524153E+02 -0.32392732996E+02 -0.29909191708E+03  0.30136093891E+03  0.47000000000E+01 0. -1.
         -5    1    4    4    0  502 -0.26377509960E+02  0.56587212483E+02 -0.84705897064E+02  0.10533311277E+03  0.47000000000E+01 0. -1.
        -11    1    3    3    0    0 -0.14625687061E+02 -0.40072020167E+02 -0.13579715733E+03  0.14233954286E+03  0.00000000000E+00 0. -1.
         11    1    3    3    0    0  0.58063721175E+02  0.15877540680E+02 -0.13871703553E+03  0.15121477428E+03  0.00000000000E+00 0.  1.
<mgrwt>
<rscale>  0 0.12614844E+03</rscale>
<asrwt>0</asrwt>
<pdfrwt beam="2">  1        1 0.10450462E+00 0.13453360E+03</pdfrwt>
<pdfrwt beam="1">  1       -1 0.32258746E-02 0.13453360E+03</pdfrwt>
<totfact> 0.95552830E+03</totfact>
</mgrwt>
</event>
<event>
 7    1  0.1224355E-005  0.1345406E+03  0.7546771E-02  0.1260847E+00
          2   -1    0    0  501    0  0.00000000000E+00  0.00000000000E+00  0.10561515593E+04  0.10561515593E+04  0.00000000000E+00 0. -1.
         -2   -1    0    0    0  501 -0.00000000000E+00 -0.00000000000E+00 -0.11997244076E+02  0.11997244076E+02  0.00000000000E+00 0.  1.
         23    2    1    2    0    0  0.44313201384E+02  0.19961272597E+02  0.92604058473E+03  0.93576296834E+03  0.12545539501E+03 0.  0.
          5    1    3    3  502    0 -0.22300506798E+02 -0.22109432034E+01  0.66533058554E+03  0.66572447674E+03  0.47000000000E+01 0. -1.
         -5    1    3    3    0  502  0.66613708182E+02  0.22172215801E+02  0.26070999919E+03  0.27003849161E+03  0.47000000000E+01 0.  1.
        -11    1    1    2    0    0 -0.37505315495E+02 -0.20974243426E+01  0.56281565208E+02  0.67665814571E+02  0.00000000000E+00 0.  1.
         11    1    1    2    0    0 -0.68078858887E+01 -0.17863848255E+02  0.61832165305E+02  0.64720020481E+02  0.00000000000E+00 0. -1.
<mgrwt>
<rscale>  0 0.10985045E+03</rscale>
<asrwt>0</asrwt>
<pdfrwt beam="1">  1        2 0.16248478E+00 0.13454058E+03</pdfrwt>
<pdfrwt beam="2">  1       -2 0.18457307E-02 0.13454058E+03</pdfrwt>
<totfact> 0.20147942E+04</totfact>
</mgrwt>
</event>
<event>
 8    1  0.1224355E-005  0.1736011E+03  0.7546771E-02  0.1180375E+00
         -1   -1    0    0    0  501 -0.00000000000E+00  0.00000000000E+00  0.20610960069E+03  0.20610960069E+03  0.00000000000E+00 0.  1.
          1   -1    0    0  501    0  0.00000000000E+00 -0.00000000000E+00 -0.13330048064E+03  0.13330048064E+03  0.00000000000E+00 0. -1.
         23    2    1    2    0    0  0.10784022264E+03  0.53687697331E+02 -0.88997582421E+00  0.15081291274E+03  0.90729598968E+02 0.  0.
         23    2    1    2    0    0 -0.10784022264E+03 -0.53687697331E+02  0.73699095880E+02  0.18859716859E+03  0.12500181121E+03 0.  0.
          5    1    4    4  502    0 -0.43266503323E+02  0.22969015493E+02 -0.18263163061E+02  0.52489990546E+02  0.47000000000E+01 0. -1.
         -5    1    4    4    0  502 -0.64573719312E+02 -0.76656712824E+02  0.91962258941E+02  0.13610717805E+03  0.47000000000E+01 0. -1.
        -11    1    3    3    0    0  0.53372475023E+02  0.42332861364E+02  0.42467290383E+02  0.80275544183E+02  0.00000000000E+00 0.  1.
         11    1    3    3    0    0  0.54467747612E+02  0.11354835968E+02 -0.43357266207E+02  0.70537368556E+02  0.00000000000E+00 0. -1.
<mgrwt>
<rscale>  0 0.16759925E+03</rscale>
<asrwt>0</asrwt>
<pdfrwt beam="2">  1        1 0.20507766E-01 0.17360108E+03</pdfrwt>
<pdfrwt beam="1">  1       -1 0.31709169E-01 0.17360108E+03</pdfrwt>
<totfact> 0.22534381E+03</totfact>
</mgrwt>
</event>
<event>
 8    1  0.1224355E-005  0.1298915E+03  0.7546771E-02  0.1242872E+00
          1   -1    0    0  501    0  0.00000000000E+00  0.00000000000E+00  0.24543836792E+03  0.24543836792E+03  0.00000000000E+00 0. -1.
         -1   -1    0    0    0  501 -0.00000000000E+00 -0.00000000000E+00 -0.53974392815E+02  0.53974392815E+02  0.00000000000E+00 0.  1.
         23    2    1    2    0    0 -0.28763219041E+02  0.20629509132E+02  0.50140542245E+02  0.10746452030E+03  0.88213659544E+02 0.  0.
         23    2    1    2    0    0  0.28763219041E+02 -0.20629509132E+02  0.14132343286E+03  0.19194824044E+03  0.12497565729E+03 0.  0.
          5    1    4    4  502    0  0.48807562640E+02 -0.33869203850E+02  0.12590758913E+02  0.60909099076E+02  0.47000000000E+01 0.  1.
         -5    1    4    4    0  502 -0.20044343599E+02  0.13239694717E+02  0.12873267395E+03  0.13103914136E+03  0.47000000000E+01 0.  1.
        -11    1    3    3    0    0 -0.38438404945E+02  0.14372848620E+02 -0.13181556788E+02  0.43102705153E+02  0.00000000000E+00 0.  1.
         11    1    3    3    0    0  0.96751859038E+01  0.62566605123E+01  0.63322099033E+02  0.64361815147E+02  0.00000000000E+00 0. -1.
<mgrwt>
<rscale>  0 0.12013622E+03</rscale>
<asrwt>0</asrwt>
<pdfrwt beam="1">  1        1 0.37759748E-01 0.12989155E+03</pdfrwt>
<pdfrwt beam="2">  1       -1 0.83037529E-02 0.12989155E+03</pdfrwt>
<totfact> 0.86722033E+03</totfact>
</mgrwt>
</event>
<event>
 8    1  0.1224355E-005  0.1506388E+03  0.7546771E-02  0.1208177E+00
          1   -1    0    0  501    0  0.00000000000E+00  0.00000000000E+00  0.92883375754E+03  0.92883375754E+03  0.00000000000E+00 0. -1.
         -1   -1    0    0    0  501 -0.00000000000E+00 -0.00000000000E+00 -0.23053161450E+02  0.23053161450E+02  0.00000000000E+00 0.  1.
         23    2    1    2    0    0 -0.69952138440E+02  0.46649211502E+02  0.25873255229E+03  0.28753519175E+03  0.93083308244E+02 0.  0.
         23    2    1    2    0    0  0.69952138440E+02 -0.46649211502E+02  0.64704804380E+03  0.66435172724E+03  0.12499038321E+03 0.  0.
          5    1    4    4  502    0  0.94952834280E+02 -0.21825335333E+01  0.33951284596E+03  0.35257888020E+03  0.47000000000E+01 0.  1.
         -5    1    4    4    0  502 -0.25000695840E+02 -0.44466677968E+02  0.30753519784E+03  0.31177284705E+03  0.47000000000E+01 0.  1.
        -11    1    3    3    0    0 -0.65697290932E+02  0.73109544147E+02  0.19415640638E+03  0.21761858748E+03  0.00000000000E+00 0. -1.
         11    1    3    3    0    0 -0.42548475079E+01 -0.26460332646E+02  0.64576145913E+02  0.69916604266E+02  0.00000000000E+00 0.  1.
<mgrwt>
<rscale>  0 0.14389886E+03</rscale>
<asrwt>0</asrwt>
<pdfrwt beam="1">  1        1 0.14289747E+00 0.15063879E+03</pdfrwt>
<pdfrwt beam="2">  1       -1 0.35466409E-02 0.15063879E+03</pdfrwt>
<totfact> 0.52173782E+03</totfact>
</mgrwt>
</event>
<event>
 8    1  0.1224355E-005  0.1581018E+03  0.7546771E-02  0.1198909E+00
         -2   -1    0    0    0  501 -0.00000000000E+00  0.00000000000E+00  0.15455860935E+02  0.15455860935E+02  0.00000000000E+00 0.  1.
          2   -1    0    0  501    0  0.00000000000E+00 -0.00000000000E+00 -0.13682537978E+04  0.13682537978E+04  0.00000000000E+00 0. -1.
         23    2    1    2    0    0 -0.16838014704E+02 -0.95326563873E+02 -0.64333644978E+03  0.65684530171E+03  0.90516795401E+02 0.  0.
         23    2    1    2    0    0  0.16838014704E+02  0.95326563873E+02 -0.70946148708E+03  0.72686435701E+03  0.12500207731E+03 0.  0.
          5    1    4    4  502    0 -0.27563897617E+02 -0.17077417339E+02 -0.23296127354E+03  0.23525401506E+03  0.47000000000E+01 0. -1.
         -5    1    4    4    0  502  0.44401912321E+02  0.11240398121E+03 -0.47650021354E+03  0.49161034195E+03  0.47000000000E+01 0. -1.
        -11    1    3    3    0    0 -0.18437392029E+02 -0.11301491900E+03 -0.57007319927E+03  0.58146002603E+03  0.00000000000E+00 0. -1.
         11    1    3    3    0    0  0.15993773254E+01  0.17688355131E+02 -0.73263250504E+02  0.75385275680E+02  0.00000000000E+00 0.  1.
<mgrwt>
<rscale>  0 0.15127965E+03</rscale>
<asrwt>0</asrwt>
<pdfrwt beam="2">  1        2 0.21050061E+00 0.15810184E+03</pdfrwt>
<pdfrwt beam="1">  1       -2 0.23778245E-02 0.15810184E+03</pdfrwt>
<totfact> 0.94344360E+03</totfact>
</mgrwt>
</event>
<event>
 8    1  0.1224355E-005  0.1262957E+03  0.7546771E-02  0.1248302E+00
          1   -1    0    0  501    0  0.00000000000E+00  0.00000000000E+00  0.63450210290E+03  0.63450210290E+03  0.00000000000E+00 0. -1.
         -1   -1    0    0    0  501 -0.00000000000E+00 -0.00000000000E+00 -0.19893122955E+02  0.19893122955E+02  0.00000000000E+00 0.  1.
         23    2    1    2    0    0 -0.71613639120E+00 -0.18034333192E+02  0.19010288979E+03  0.21150017765E+03  0.90925609252E+02 0.  0.
         23    2    1    2    0    0  0.71613639120E+00  0.18034333192E+02  0.42450609016E+03  0.44289504821E+03  0.12499941245E+03 0.  0.
          5    1    4    4  502    0 -0.99308347474E+01 -0.11222481334E+02  0.40613971306E+03  0.40644325815E+03  0.47000000000E+01 0. -1.
         -5    1    4    4    0  502  0.10646971139E+02  0.29256814526E+02  0.18366377100E+02  0.36451790058E+02  0.47000000000E+01 0. -1.
        -11    1    3    3    0    0  0.21582374078E+02 -0.36761056270E+02  0.39525024297E+02  0.58132621432E+02  0.00000000000E+00 0.  1.
         11    1    3    3    0    0 -0.22298510469E+02  0.18726723077E+02  0.15057786549E+03  0.15336755622E+03  0.00000000000E+00 0. -1.
<mgrwt>
<rscale>  0 0.11689902E+03</rscale>
<asrwt>0</asrwt>
<pdfrwt beam="1">  1        1 0.97615693E-01 0.12629570E+03</pdfrwt>
<pdfrwt beam="2">  1       -1 0.30604809E-02 0.12629570E+03</pdfrwt>
<totfact> 0.11298564E+04</totfact>
</mgrwt>
</event>
<event>
 8    1  0.1224355E-005  0.1720024E+03  0.7546771E-02  0.1176137E+00
         -2   -1    0    0    0  501 -0.00000000000E+00  0.00000000000E+00  0.18188792642E+03  0.18188792642E+03  0.00000000000E+00 0.  1.
          2   -1    0    0  501    0  0.00000000000E+00 -0.00000000000E+00 -0.22534454486E+03  0.22534454486E+03  0.00000000000E+00 0. -1.
         23    2    1    2    0    0 -0.35734727139E+02 -0.11262447192E+03  0.86858212892E+02  0.19143911899E+03  0.12305829811E+03 0.  0.
         23    2    1    2    0    0  0.35734727139E+02  0.11262447192E+03 -0.13031483134E+03  0.21579335229E+03  0.12499429278E+03 0.  0.
          5    1    4    4  502    0  0.66885926179E+02  0.20509285849E+02 -0.79404956602E+02  0.10593203038E+03  0.47000000000E+01 0. -1.
         -5    1    4    4    0  502 -0.31151199040E+02  0.92115186073E+02 -0.50909874736E+02  0.10986132191E+03  0.47000000000E+01 0. -1.
        -11    1    3    3    0    0 -0.23744381778E+02  0.11149108912E+02  0.58182825352E+02  0.63822719007E+02  0.00000000000E+00 0.  1.
         11    1    3    3    0    0 -0.11990345361E+02 -0.12377358083E+03  0.28675387540E+02  0.12761639998E+03  0.00000000000E+00 0. -1.
<mgrwt>
<rscale>  0 0.17165087E+03</rscale>
<asrwt>0</asrwt>
<pdfrwt beam="2">  1        2 0.34668392E-01 0.17200237E+03</pdfrwt>
<pdfrwt beam="1">  1       -2 0.27982758E-01 0.17200237E+03</pdfrwt>
<totfact> 0.17101504E+03</totfact>
</mgrwt>
</event>
<event>
 8    1  0.1224355E-005  0.1348524E+03  0.7546771E-02  0.1232467E+00
         -4   -1    0    0    0  501 -0.00000000000E+00  0.00000000000E+00  0.18085887111E+03  0.18085887111E+03  0.00000000000E+00 0.  1.
          4   -1    0    0  501    0  0.00000000000E+00 -0.00000000000E+00 -0.79533129083E+02  0.79533129083E+02  0.00000000000E+00 0. -1.
         23    2    1    2    0    0 -0.38008826104E+02 -0.33391764982E+02  0.43920191875E+02  0.11382952542E+03  0.92024435732E+02 0.  0.
         23    2    1    2    0    0  0.38008826104E+02  0.33391764982E+02  0.57405550154E+02  0.14656247478E+03  0.12500192396E+03 0.  0.
          5    1    4    4  502    0  0.81758044968E+02  0.25911748077E+02  0.19675244535E+02  0.88119247914E+02  0.47000000000E+01 0. -1.
         -5    1    4    4    0  502 -0.43749218864E+02  0.74800169050E+01  0.37730305619E+02  0.58443226864E+02  0.47000000000E+01 0. -1.
        -11    1    3    3    0    0 -0.79581967293E+01 -0.61847598852E+02  0.34945958955E+02  0.71482014704E+02  0.00000000000E+00 0.  1.
         11    1    3    3    0    0 -0.30050629375E+02  0.28455833870E+02  0.89742329199E+01  0.42347510712E+02  0.00000000000E+00 0. -1.
<mgrwt>
<rscale>  0 0.12667967E+03</rscale>
<asrwt>0</asrwt>
<pdfrwt beam="2">  1        4 0.12235866E-01 0.13485237E+03</pdfrwt>
<pdfrwt beam="1">  1       -4 0.27824442E-01 0.13485237E+03</pdfrwt>
<totfact> 0.10857598E+03</totfact>
</mgrwt>
</event>
<event>
 8    1  0.1224355E-005  0.1635341E+03  0.7546771E-02  0.1191636E+00
         -4   -1    0    0    0  501 -0.00000000000E+00  0.00000000000E+00  0.20615594011E+02  0.20615594011E+02  0.00000000000E+00 0.  1.
          4   -1    0    0  501    0  0.00000000000E+00 -0.00000000000E+00 -0.12496899227E+04  0.12496899227E+04  0.00000000000E+00 0. -1.
         23    2    1    2    0    0 -0.49240060639E+02 -0.93239765315E+02 -0.36891817841E+03  0.39474169728E+03  0.92747764394E+02 0.  0.
         23    2    1    2    0    0  0.49240060639E+02  0.93239765315E+02 -0.86015615027E+03  0.87556381942E+03  0.12500064653E+03 0.  0.
          5    1    4    4  502    0  0.66050772765E+02  0.11624690300E+03 -0.66988583546E+03  0.68311431664E+03  0.47000000000E+01 0.  1.
         -5    1    4    4    0  502 -0.16810712126E+02 -0.23007137687E+02 -0.19027031481E+03  0.19244950279E+03  0.47000000000E+01 0.  1.
        -11    1    3    3    0    0 -0.66556838547E+02 -0.29236247133E+02 -0.22082828818E+03  0.23248592165E+03  0.00000000000E+00 0.  1.
         11    1    3    3    0    0  0.17316777908E+02 -0.64003518182E+02 -0.14808989023E+03  0.16225577563E+03  0.00000000000E+00 0. -1.
<mgrwt>
<rscale>  0 0.15742389E+03</rscale>
<asrwt>0</asrwt>
<pdfrwt beam="2">  1        4 0.19225996E+00 0.16353409E+03</pdfrwt>
<pdfrwt beam="1">  1       -4 0.31716304E-02 0.16353409E+03</pdfrwt>
<totfact> 0.13939721E+02</totfact>
</mgrwt>
</event>
<event>
 8    1  0.1224355E-005  0.1266045E+03  0.7546771E-02  0.1246514E+00
         -2   -1    0    0    0  501 -0.00000000000E+00  0.00000000000E+00  0.24859900262E+02  0.24859900262E+02  0.00000000000E+00 0.  1.
          2   -1    0    0  501    0  0.00000000000E+00 -0.00000000000E+00 -0.63268744081E+03  0.63268744081E+03  0.00000000000E+00 0. -1.
         23    2    1    2    0    0 -0.18313765435E+02  0.83736405048E+01 -0.11856689976E+03  0.15217155378E+03  0.93233900490E+02 0.  0.
         23    2    1    2    0    0  0.18313765435E+02 -0.83736405048E+01 -0.48926064079E+03  0.50537578730E+03  0.12499279939E+03 0.  0.
          5    1    4    4  502    0 -0.50595656318E+02  0.12404289823E+02 -0.25301600340E+03  0.25836597071E+03  0.47000000000E+01 0.  1.
         -5    1    4    4    0  502  0.68909421753E+02 -0.20777930328E+02 -0.23624463739E+03  0.24700981659E+03  0.47000000000E+01 0.  1.
        -11    1    3    3    0    0  0.14368120593E+02 -0.34750647794E+02 -0.28830698106E+02  0.47384169981E+02  0.00000000000E+00 0.  1.
         11    1    3    3    0    0 -0.32681886028E+02  0.43124288299E+02 -0.89736201656E+02  0.10478738380E+03  0.00000000000E+00 0. -1.
<mgrwt>
<rscale>  0 0.11795209E+03</rscale>
<asrwt>0</asrwt>
<pdfrwt beam="2">  1        2 0.97336539E-01 0.12660455E+03</pdfrwt>
<pdfrwt beam="1">  1       -2 0.38245997E-02 0.12660455E+03</pdfrwt>
<totfact> 0.13189996E+04</totfact>
</mgrwt>
</event>
<event>
 8    1  0.1224355E-005  0.1299283E+03  0.7546771E-02  0.1241448E+00
          1   -1    0    0  501    0  0.00000000000E+00  0.00000000000E+00  0.57161183734E+03  0.57161183734E+03  0.00000000000E+00 0. -1.
         -1   -1    0    0    0  501 -0.00000000000E+00 -0.00000000000E+00 -0.26552359247E+02  0.26552359247E+02  0.00000000000E+00 0.  1.
         23    2    1    2    0    0  0.32099476957E+02 -0.15012762631E+02  0.12626945169E+03  0.15968222241E+03  0.91097081515E+02 0.  0.
         23    2    1    2    0    0 -0.32099476957E+02  0.15012762631E+02  0.41879002640E+03  0.43848197417E+03  0.12500238399E+03 0.  0.
          5    1    4    4  502    0  0.47715347212E+02  0.58817532007E+01  0.18620909145E+03  0.19237272446E+03  0.47000000000E+01 0.  1.
         -5    1    4    4    0  502 -0.79814824169E+02  0.91310094299E+01  0.23258093495E+03  0.24610924971E+03  0.47000000000E+01 0.  1.
        -11    1    3    3    0    0 -0.75827414150E+01  0.83628858424E+01 -0.10469042674E+02  0.15395995632E+02  0.00000000000E+00 0.  1.
         11    1    3    3    0    0  0.39682218372E+02 -0.23375648473E+02  0.13673849437E+03  0.14428622678E+03  0.00000000000E+00 0. -1.
<mgrwt>
<rscale>  0 0.12100502E+03</rscale>
<asrwt>0</asrwt>
<pdfrwt beam="1">  1        1 0.87940273E-01 0.12992827E+03</pdfrwt>
<pdfrwt beam="2">  1       -1 0.40849788E-02 0.12992827E+03</pdfrwt>
<totfact> 0.85577228E+03</totfact>
</mgrwt>
</event>
<event>
 7    1  0.1224355E-005  0.4076319E+03  0.7546771E-02  0.1042282E+00
         -2   -1    0    0    0  501 -0.00000000000E+00  0.00000000000E+00  0.86038436553E+02  0.86038436553E+02  0.00000000000E+00 0.  1.
          2   -1    0    0  501    0  0.00000000000E+00 -0.00000000000E+00 -0.18706866358E+04  0.18706866358E+04  0.00000000000E+00 0. -1.
         23    2    1    2    0    0  0.26758581694E+03 -0.26182165151E+03 -0.88943652449E+03  0.97307488483E+03  0.12499861503E+03 0.  0.
          5    1    3    3  502    0  0.82149512803E+02 -0.16610830306E+03 -0.44478209077E+03  0.48186482447E+03  0.47000000000E+01 0. -1.
         -5    1    3    3    0  502  0.18543630414E+03 -0.95713348455E+02 -0.44465443372E+03  0.49121006036E+03  0.47000000000E+01 0. -1.
        -11    1    1    2    0    0 -0.14063705599E+03  0.20319395390E+03 -0.70865302828E+03  0.75050361686E+03  0.00000000000E+00 0. -1.
         11    1    1    2    0    0 -0.12694876095E+03  0.58627697615E+02 -0.18655864642E+03  0.23314657062E+03  0.00000000000E+00 0.  1.
<mgrwt>
<rscale>  0 0.40435625E+03</rscale>
<asrwt>0</asrwt>
<pdfrwt beam="2">  1        2 0.28779796E+00 0.40763188E+03</pdfrwt>
<pdfrwt beam="1">  1       -2 0.13236682E-01 0.40763188E+03</pdfrwt>
<totfact> 0.35941502E+02</totfact>
</mgrwt>
</event>
<event>
 8    1  0.1224355E-005  0.1120208E+03  0.7546771E-02  0.1264230E+00
         -4   -1    0    0    0  501 -0.00000000000E+00  0.00000000000E+00  0.28482697455E+03  0.28482697455E+03  0.00000000000E+00 0.  1.
          4   -1    0    0  501    0  0.00000000000E+00 -0.00000000000E+00 -0.60511604743E+02  0.60511604743E+02  0.00000000000E+00 0. -1.
         23    2    1    2    0    0  0.21655171664E+00 -0.16409318408E+02  0.21140496382E+03  0.23257631071E+03  0.95552964107E+02 0.  0.
         23    2    1    2    0    0 -0.21655171664E+00  0.16409318408E+02  0.12910405980E+02  0.11276226858E+03  0.11081217445E+03 0.  0.
          5    1    4    4  502    0 -0.99146574092E+01 -0.23044698190E+02 -0.39040695893E+02  0.46643589935E+02  0.47000000000E+01 0. -1.
         -5    1    4    4    0  502  0.96981056926E+01  0.39454016598E+02  0.51951101873E+02  0.66118678643E+02  0.47000000000E+01 0.  1.
        -11    1    3    3    0    0 -0.42019110548E+02  0.71799274034E+01  0.59788438728E+02  0.73428975305E+02  0.00000000000E+00 0. -1.
         11    1    3    3    0    0  0.42235662265E+02 -0.23589245812E+02  0.15161652510E+03  0.15914733541E+03  0.00000000000E+00 0.  1.
<mgrwt>
<rscale>  0 0.10804708E+03</rscale>
<asrwt>0</asrwt>
<pdfrwt beam="2">  1        4 0.93094778E-02 0.11202076E+03</pdfrwt>
<pdfrwt beam="1">  1       -4 0.43819534E-01 0.11202076E+03</pdfrwt>
<totfact> 0.69036361E+02</totfact>
</mgrwt>
</event>
<event>
 8    1  0.1224355E-005  0.1531154E+03  0.7546771E-02  0.1204947E+00
          1   -1    0    0  501    0  0.00000000000E+00  0.00000000000E+00  0.10816253040E+03  0.10816253040E+03  0.00000000000E+00 0. -1.
         -1   -1    0    0    0  501 -0.00000000000E+00 -0.00000000000E+00 -0.18479129465E+03  0.18479129465E+03  0.00000000000E+00 0.  1.
         23    2    1    2    0    0  0.49288048974E+02 -0.73410033001E+02 -0.50489159689E+02  0.13762321766E+03  0.92588606615E+02 0.  0.
         23    2    1    2    0    0 -0.49288048974E+02  0.73410033001E+02 -0.26139604566E+02  0.15533060740E+03  0.12500389574E+03 0.  0.
          5    1    4    4  502    0 -0.54484173807E+02  0.72096209495E+02 -0.67795298464E+02  0.11306936417E+03  0.47000000000E+01 0. -1.
         -5    1    4    4    0  502  0.51961248332E+01  0.13138235057E+01  0.41655693898E+02  0.42261243233E+02  0.47000000000E+01 0. -1.
        -11    1    3    3    0    0  0.49655270738E+02 -0.42663351173E+02  0.13305732101E+02  0.66804565354E+02  0.00000000000E+00 0. -1.
         11    1    3    3    0    0 -0.36722176417E+00 -0.30746681828E+02 -0.63794891791E+02  0.70818652301E+02  0.00000000000E+00 0.  1.
<mgrwt>
<rscale>  0 0.14641642E+03</rscale>
<asrwt>0</asrwt>
<pdfrwt beam="1">  1        1 0.16640389E-01 0.15311538E+03</pdfrwt>
<pdfrwt beam="2">  1       -1 0.28429430E-01 0.15311538E+03</pdfrwt>
<totfact> 0.35237841E+03</totfact>
</mgrwt>
</event>
<event>
 8    1  0.1224355E-005  0.1363784E+03  0.7546771E-02  0.1230697E+00
         -2   -1    0    0    0  501 -0.00000000000E+00  0.00000000000E+00  0.13705947771E+02  0.13705947771E+02  0.00000000000E+00 0.  1.
          2   -1    0    0  501    0  0.00000000000E+00 -0.00000000000E+00 -0.11271562418E+04  0.11271562418E+04  0.00000000000E+00 0. -1.
         23    2    1    2    0    0 -0.53212792969E+02 -0.11936059232E+02 -0.35656547645E+03  0.37178891712E+03  0.90077683411E+02 0.  0.
         23    2    1    2    0    0  0.53212792969E+02  0.11936059232E+02 -0.75688481755E+03  0.76907327243E+03  0.12500000191E+03 0.  0.
          5    1    4    4  502    0  0.17813547706E+02  0.26676255538E+02 -0.69734510448E+03  0.69809829526E+03  0.47000000000E+01 0. -1.
         -5    1    4    4    0  502  0.35399245263E+02 -0.14740196307E+02 -0.59539713068E+02  0.70974977172E+02  0.47000000000E+01 0. -1.
        -11    1    3    3    0    0  0.19053164787E+02  0.11870085920E+02 -0.36887881894E+02  0.43181452717E+02  0.00000000000E+00 0.  1.
         11    1    3    3    0    0 -0.72265957756E+02 -0.23806145152E+02 -0.31967759456E+03  0.32860746440E+03  0.00000000000E+00 0. -1.
<mgrwt>
<rscale>  0 0.12783983E+03</rscale>
<asrwt>0</asrwt>
<pdfrwt beam="2">  1        2 0.17340873E+00 0.13637841E+03</pdfrwt>
<pdfrwt beam="1">  1       -2 0.21086065E-02 0.13637841E+03</pdfrwt>
<totfact> 0.15133053E+04</totfact>
</mgrwt>
</event>
<event>
 7    1  0.1224355E-005  0.2050419E+03  0.7546771E-02  0.1150243E+00
          1   -1    0    0  501    0  0.00000000000E+00  0.00000000000E+00  0.13567589197E+03  0.13567589197E+03  0.00000000000E+00 0. -1.
         -1   -1    0    0    0  501 -0.00000000000E+00 -0.00000000000E+00 -0.29084094158E+03  0.29084094158E+03  0.00000000000E+00 0.  1.
         23    2    1    2    0    0 -0.31882792840E+02  0.13036822142E+03 -0.28769308145E+02  0.18564745695E+03  0.12499967817E+03 0.  0.
          5    1    3    3  502    0  0.25214036074E+02  0.11873072380E+03 -0.36122842177E+02  0.12672680110E+03  0.47000000000E+01 0.  1.
         -5    1    3    3    0  502 -0.57096828914E+02  0.11637497624E+02  0.73535340317E+01  0.58920655850E+02  0.47000000000E+01 0.  1.
        -11    1    1    2    0    0 -0.43353005210E+02 -0.11885341219E+03 -0.60678823998E+02  0.14031228147E+03  0.00000000000E+00 0.  1.
         11    1    1    2    0    0  0.75235798050E+02 -0.11514809235E+02 -0.65716917474E+02  0.10055709514E+03  0.00000000000E+00 0. -1.
<mgrwt>
<rscale>  0 0.19940433E+03</rscale>
<asrwt>0</asrwt>
<pdfrwt beam="1">  1        1 0.20873214E-01 0.20504188E+03</pdfrwt>
<pdfrwt beam="2">  1       -1 0.44744760E-01 0.20504188E+03</pdfrwt>
<totfact> 0.12111699E+03</totfact>
</mgrwt>
</event>
<event>
 8    1  0.1224355E-005  0.1403577E+03  0.7546771E-02  0.1222806E+00
          1   -1    0    0  501    0  0.00000000000E+00  0.00000000000E+00  0.11083549673E+03  0.11083549673E+03  0.00000000000E+00 0. -1.
         -1   -1    0    0    0  501 -0.00000000000E+00 -0.00000000000E+00 -0.15949194574E+03  0.15949194574E+03  0.00000000000E+00 0.  1.
         23    2    1    2    0    0 -0.63758688636E+02  0.30865326705E+01 -0.61568147975E+02  0.12937707055E+03  0.94197093797E+02 0.  0.
         23    2    1    2    0    0  0.63758688636E+02 -0.30865326705E+01  0.12911698963E+02  0.14095037192E+03  0.12500239323E+03 0.  0.
          5    1    4    4  502    0  0.29735704413E+02  0.30302168979E+02 -0.47481591234E+02  0.63867245657E+02  0.47000000000E+01 0. -1.
         -5    1    4    4    0  502  0.34022984223E+02 -0.33388701649E+02  0.60393290198E+02  0.77083126261E+02  0.47000000000E+01 0. -1.
        -11    1    3    3    0    0 -0.66612878885E+02 -0.34251243770E+02 -0.50472566787E+02  0.90321112323E+02  0.00000000000E+00 0. -1.
         11    1    3    3    0    0  0.28541902497E+01  0.37337776440E+02 -0.11095581188E+02  0.39055958232E+02  0.00000000000E+00 0.  1.
<mgrwt>
<rscale>  0 0.13318390E+03</rscale>
<asrwt>0</asrwt>
<pdfrwt beam="1">  1        1 0.17051615E-01 0.14035774E+03</pdfrwt>
<pdfrwt beam="2">  1       -1 0.24537222E-01 0.14035774E+03</pdfrwt>
<totfact> 0.43369683E+03</totfact>
</mgrwt>
</event>
<event>
 8    1  0.1224355E-005  0.1312070E+03  0.7546771E-02  0.1240303E+00
         -2   -1    0    0    0  501 -0.00000000000E+00  0.00000000000E+00  0.33882490061E+02  0.33882490061E+02  0.00000000000E+00 0.  1.
          2   -1    0    0  501    0  0.00000000000E+00 -0.00000000000E+00 -0.41136354441E+03  0.41136354441E+03  0.00000000000E+00 0. -1.
         23    2    1    2    0    0 -0.70599643224E+01 -0.39246673111E+02 -0.10637928427E+03  0.14406260256E+03  0.88585195645E+02 0.  0.
         23    2    1    2    0    0  0.70599643224E+01  0.39246673111E+02 -0.27110177008E+03  0.30118343191E+03  0.12500058189E+03 0.  0.
          5    1    4    4  502    0 -0.47937576412E+02  0.43419018862E+02 -0.20474385384E+03  0.21476814968E+03  0.47000000000E+01 0. -1.
         -5    1    4    4    0  502  0.54997540735E+02 -0.41723457508E+01 -0.66357916235E+02  0.86415282231E+02  0.47000000000E+01 0. -1.
        -11    1    3    3    0    0  0.40063214895E+02 -0.13377725492E+02 -0.35974749446E+02  0.55481594468E+02  0.00000000000E+00 0.  1.
         11    1    3    3    0    0 -0.47123179217E+02 -0.25868947619E+02 -0.70404534823E+02  0.88581008090E+02  0.00000000000E+00 0. -1.
<mgrwt>
<rscale>  0 0.12170962E+03</rscale>
<asrwt>0</asrwt>
<pdfrwt beam="2">  1        2 0.63286700E-01 0.13120705E+03</pdfrwt>
<pdfrwt beam="1">  1       -2 0.52126907E-02 0.13120705E+03</pdfrwt>
<totfact> 0.13398738E+04</totfact>
</mgrwt>
</event>
<event>
 8    1  0.1224355E-005  0.1314863E+03  0.7546771E-02  0.1231465E+00
          1   -1    0    0  501    0  0.00000000000E+00  0.00000000000E+00  0.78014377565E+03  0.78014377565E+03  0.00000000000E+00 0. -1.
         -1   -1    0    0    0  501 -0.00000000000E+00 -0.00000000000E+00 -0.20033177930E+02  0.20033177930E+02  0.00000000000E+00 0.  1.
         23    2    1    2    0    0 -0.33152165643E+02  0.23772748180E+02  0.29568051348E+03  0.31749283887E+03  0.10821518857E+03 0.  0.
         23    2    1    2    0    0  0.33152165643E+02 -0.23772748180E+02  0.46443008424E+03  0.48268411471E+03  0.12499776720E+03 0.  0.
          5    1    4    4  502    0 -0.29339589882E+02  0.29878833812E+02  0.23782520943E+03  0.24152945262E+03  0.47000000000E+01 0.  1.
         -5    1    4    4    0  502  0.62491755526E+02 -0.53651581992E+02  0.22660487481E+03  0.24115466209E+03  0.47000000000E+01 0.  1.
        -11    1    3    3    0    0  0.67066693845E+01 -0.11253923498E+02 -0.35666679141E+01  0.13577603925E+02  0.00000000000E+00 0.  1.
         11    1    3    3    0    0 -0.39858835028E+02  0.35026671678E+02  0.29924718139E+03  0.30391523494E+03  0.00000000000E+00 0. -1.
<mgrwt>
<rscale>  0 0.12733450E+03</rscale>
<asrwt>0</asrwt>
<pdfrwt beam="1">  1        1 0.12002210E+00 0.13148632E+03</pdfrwt>
<pdfrwt beam="2">  1       -1 0.30820280E-02 0.13148632E+03</pdfrwt>
<totfact> 0.83436514E+03</totfact>
</mgrwt>
</event>
<event>
 8    1  0.1224355E-005  0.1271730E+03  0.7546771E-02  0.1245014E+00
          2   -1    0    0  501    0  0.00000000000E+00  0.00000000000E+00  0.30437697818E+03  0.30437697818E+03  0.00000000000E+00 0. -1.
         -2   -1    0    0    0  501 -0.00000000000E+00 -0.00000000000E+00 -0.41866488894E+02  0.41866488894E+02  0.00000000000E+00 0.  1.
         23    2    1    2    0    0 -0.13642279161E+02 -0.19070952957E+02  0.93413036473E+02  0.13466154401E+03  0.94116539593E+02 0.  0.
         23    2    1    2    0    0  0.13642279161E+02  0.19070952957E+02  0.16909745281E+03  0.21158192306E+03  0.12499259415E+03 0.  0.
          5    1    4    4  502    0  0.15553237505E+02  0.49835200174E+01 -0.17494427491E+02  0.24390237020E+02  0.47000000000E+01 0. -1.
         -5    1    4    4    0  502 -0.19109583441E+01  0.14087432940E+02  0.18659188030E+03  0.18719168604E+03  0.47000000000E+01 0. -1.
        -11    1    3    3    0    0  0.16332586973E+02  0.79579464942E+01 -0.12008242721E+02  0.21777975179E+02  0.00000000000E+00 0.  1.
         11    1    3    3    0    0 -0.29974866134E+02 -0.27028899452E+02  0.10542127919E+03  0.11288356883E+03  0.00000000000E+00 0. -1.
<mgrwt>
<rscale>  0 0.11884522E+03</rscale>
<asrwt>0</asrwt>
<pdfrwt beam="1">  1        2 0.46827226E-01 0.12717296E+03</pdfrwt>
<pdfrwt beam="2">  1       -2 0.64409985E-02 0.12717296E+03</pdfrwt>
<totfact> 0.13363433E+04</totfact>
</mgrwt>
</event>
<event>
 8    1  0.1224355E-005  0.1890565E+03  0.7546771E-02  0.1164265E+00
         -2   -1    0    0    0  501 -0.00000000000E+00  0.00000000000E+00  0.17505649502E+02  0.17505649502E+02  0.00000000000E+00 0.  1.
          2   -1    0    0  501    0  0.00000000000E+00 -0.00000000000E+00 -0.19483515003E+04  0.19483515003E+04  0.00000000000E+00 0. -1.
         23    2    1    2    0    0  0.40329802754E+02  0.13597815445E+03 -0.66779039494E+03  0.68873090416E+03  0.91047763766E+02 0.  0.
         23    2    1    2    0    0 -0.40329802754E+02 -0.13597815445E+03 -0.12630554558E+04  0.12771262456E+04  0.12500324503E+03 0.  0.
          5    1    4    4  502    0  0.81095034691E+01 -0.13845399711E+03 -0.85794012345E+03  0.86909068501E+03  0.47000000000E+01 0. -1.
         -5    1    4    4    0  502 -0.48439306224E+02  0.24758426562E+01 -0.40511533237E+03  0.40803556059E+03  0.47000000000E+01 0. -1.
        -11    1    3    3    0    0 -0.13950622432E+02  0.53535734068E+02 -0.12027009286E+03  0.13238425105E+03  0.00000000000E+00 0.  1.
         11    1    3    3    0    0  0.54280425186E+02  0.82442420383E+02 -0.54752030208E+03  0.55634665311E+03  0.00000000000E+00 0. -1.
<mgrwt>
<rscale>  0 0.18370478E+03</rscale>
<asrwt>0</asrwt>
<pdfrwt beam="2">  1        2 0.29974639E+00 0.18905651E+03</pdfrwt>
<pdfrwt beam="1">  1       -2 0.26931768E-02 0.18905651E+03</pdfrwt>
<totfact> 0.39298637E+03</totfact>
</mgrwt>
</event>
<event>
 8    1  0.2190937E-005  0.3389302E+03  0.7546771E-02  0.1068343E+00
         -3   -1    0    0    0  501 -0.00000000000E+00  0.00000000000E+00  0.17125832451E+03  0.17125832451E+03  0.00000000000E+00 0.  1.
          3   -1    0    0  501    0  0.00000000000E+00 -0.00000000000E+00 -0.65752938911E+03  0.65752938911E+03  0.00000000000E+00 0. -1.
         23    2    1    2    0    0 -0.15672713276E+03 -0.27328366526E+03 -0.19835548512E+03  0.38407539393E+03  0.94454507081E+02 0.  0.
         23    2    1    2    0    0  0.15672713276E+03  0.27328366526E+03 -0.28791557948E+03  0.44471231969E+03  0.12500524203E+03 0.  0.
          5    1    4    4  502    0  0.14698236680E+03  0.23171286842E+03 -0.17905958061E+03  0.32768749282E+03  0.47000000000E+01 0. -1.
         -5    1    4    4    0  502  0.97447659652E+01  0.41570796835E+02 -0.10885599887E+03  0.11702482687E+03  0.47000000000E+01 0. -1.
        -11    1    3    3    0    0 -0.89947101918E+02 -0.15151407233E+03 -0.16466760539E+03  0.24116885272E+03  0.00000000000E+00 0.  1.
         11    1    3    3    0    0 -0.66780030845E+02 -0.12176959293E+03 -0.33687879730E+02  0.14290654121E+03  0.00000000000E+00 0. -1.
<mgrwt>
<rscale>  0 0.33639191E+03</rscale>
<asrwt>0</asrwt>
<pdfrwt beam="2">  1        3 0.10115836E+00 0.33893018E+03</pdfrwt>
<pdfrwt beam="1">  1       -3 0.26347435E-01 0.33893018E+03</pdfrwt>
<totfact> 0.30307405E+01</totfact>
</mgrwt>
</event>
<event>
 8    1  0.1224355E-005  0.2194196E+03  0.7546771E-02  0.1137928E+00
          1   -1    0    0  501    0  0.00000000000E+00  0.00000000000E+00  0.30817267745E+03  0.30817267745E+03  0.00000000000E+00 0. -1.
         -1   -1    0    0    0  501 -0.00000000000E+00 -0.00000000000E+00 -0.14356995553E+03  0.14356995553E+03  0.00000000000E+00 0.  1.
         23    2    1    2    0    0 -0.16374796362E+03  0.75539077886E+02  0.86843997699E+02  0.21895223689E+03  0.88761783568E+02 0.  0.
         23    2    1    2    0    0  0.16374796362E+03 -0.75539077886E+02  0.77758724221E+02  0.23279039609E+03  0.12500160575E+03 0.  0.
          5    1    4    4  502    0  0.59433692205E+02 -0.41018985520E+01 -0.29756944564E+02  0.66758932666E+02  0.47000000000E+01 0. -1.
         -5    1    4    4    0  502  0.10431427142E+03 -0.71437179334E+02  0.10751566879E+03  0.16603146343E+03  0.47000000000E+01 0. -1.
        -11    1    3    3    0    0 -0.77482107630E+01 -0.16855247649E+02  0.16446958011E+01  0.18623618542E+02  0.00000000000E+00 0.  1.
         11    1    3    3    0    0 -0.15599975286E+03  0.92394325535E+02  0.85199301898E+02  0.20032861834E+03  0.00000000000E+00 0. -1.
<mgrwt>
<rscale>  0 0.21466032E+03</rscale>
<asrwt>0</asrwt>
<pdfrwt beam="1">  1        1 0.47411181E-01 0.21941957E+03</pdfrwt>
<pdfrwt beam="2">  1       -1 0.22087686E-01 0.21941957E+03</pdfrwt>
<totfact> 0.14434435E+03</totfact>
</mgrwt>
</event>
<event>
 8    1  0.1224355E-005  0.1140351E+03  0.7546771E-02  0.1262789E+00
          1   -1    0    0  501    0  0.00000000000E+00  0.00000000000E+00  0.81459085522E+03  0.81459085522E+03  0.00000000000E+00 0. -1.
         -1   -1    0    0    0  501 -0.00000000000E+00 -0.00000000000E+00 -0.35680860967E+02  0.35680860967E+02  0.00000000000E+00 0.  1.
         23    2    1    2    0    0 -0.31552233556E+01 -0.15483887515E+02  0.40048491224E+02  0.10266197174E+03  0.93198136172E+02 0.  0.
         23    2    1    2    0    0  0.31552233556E+01  0.15483887515E+02  0.73886150303E+03  0.74760974444E+03  0.11293495084E+03 0.  0.
          5    1    4    4  502    0 -0.35495873867E+02  0.16418786420E+02  0.64205782397E+03  0.64326500988E+03  0.47000000000E+01 0. -1.
         -5    1    4    4    0  502  0.38651097223E+02 -0.93489890493E+00  0.96803679058E+02  0.10434473457E+03  0.47000000000E+01 0.  1.
        -11    1    3    3    0    0  0.19148371495E+02 -0.22390953586E+02  0.63231818295E+02  0.69758711129E+02  0.00000000000E+00 0. -1.
         11    1    3    3    0    0 -0.22303594851E+02  0.69070660702E+01 -0.23183327072E+02  0.32903260615E+02  0.00000000000E+00 0.  1.
<mgrwt>
<rscale>  0 0.10881016E+03</rscale>
<asrwt>0</asrwt>
<pdfrwt beam="1">  1        1 0.12532166E+00 0.11403512E+03</pdfrwt>
<pdfrwt beam="2">  1       -1 0.54893639E-02 0.11403512E+03</pdfrwt>
<totfact> 0.33324013E+03</totfact>
</mgrwt>
</event>
<event>
 8    1  0.1224355E-005  0.1614646E+03  0.7546771E-02  0.1194668E+00
          1   -1    0    0  501    0  0.00000000000E+00  0.00000000000E+00  0.18722039505E+03  0.18722039505E+03  0.00000000000E+00 0. -1.
         -1   -1    0    0    0  501 -0.00000000000E+00 -0.00000000000E+00 -0.12754194697E+03  0.12754194697E+03  0.00000000000E+00 0.  1.
         23    2    1    2    0    0 -0.37144845597E+02  0.95211373374E+02 -0.14137821608E+02  0.13722453930E+03  0.90475140297E+02 0.  0.
         23    2    1    2    0    0  0.37144845597E+02 -0.95211373374E+02  0.73816269689E+02  0.17753780272E+03  0.12500353815E+03 0.  0.
          5    1    4    4  502    0  0.65707973590E+02 -0.29661606992E+02  0.77288580777E+02  0.10579680260E+03  0.47000000000E+01 0. -1.
         -5    1    4    4    0  502 -0.28563127993E+02 -0.65549766382E+02 -0.34723110874E+01  0.71741000117E+02  0.47000000000E+01 0. -1.
        -11    1    3    3    0    0 -0.27101303625E+02  0.90999774706E+02  0.23689809264E+02  0.97860342927E+02  0.00000000000E+00 0. -1.
         11    1    3    3    0    0 -0.10043541972E+02  0.42115986681E+01 -0.37827630872E+02  0.39364196372E+02  0.00000000000E+00 0.  1.
<mgrwt>
<rscale>  0 0.15482344E+03</rscale>
<asrwt>0</asrwt>
<pdfrwt beam="1">  1        1 0.28803138E-01 0.16146464E+03</pdfrwt>
<pdfrwt beam="2">  1       -1 0.19621838E-01 0.16146464E+03</pdfrwt>
<totfact> 0.32320454E+03</totfact>
</mgrwt>
</event>
<event>
 7    1  0.1224355E-005  0.1635534E+03  0.7546771E-02  0.1193175E+00
          2   -1    0    0  501    0  0.00000000000E+00  0.00000000000E+00  0.94628982421E+03  0.94628982421E+03  0.00000000000E+00 0. -1.
         -2   -1    0    0    0  501 -0.00000000000E+00 -0.00000000000E+00 -0.30676658624E+02  0.30676658624E+02  0.00000000000E+00 0.  1.
         23    2    1    2    0    0  0.14126562984E+01 -0.97574803642E+02  0.19210770635E+03  0.23520516590E+03  0.94304089633E+02 0.  0.
          5    1    1    2  502    0 -0.47170564841E+02  0.83567258203E+02  0.62277960393E+03  0.63014686693E+03  0.47000000000E+01 0. -1.
         -5    1    1    2    0  502  0.45757908543E+02  0.14007545439E+02  0.10072585530E+03  0.11161445001E+03  0.47000000000E+01 0.  1.
        -11    1    3    3    0    0 -0.65754993383E+01  0.17989839292E+02  0.19537098501E+02  0.27360002324E+02  0.00000000000E+00 0. -1.
         11    1    3    3    0    0  0.79881556367E+01 -0.11556464293E+03  0.17257060785E+03  0.20784516357E+03  0.00000000000E+00 0.  1.
<mgrwt>
<rscale>  0 0.15609691E+03</rscale>
<asrwt>0</asrwt>
<pdfrwt beam="1">  1        2 0.14558303E+00 0.16355336E+03</pdfrwt>
<pdfrwt beam="2">  1       -2 0.47194867E-02 0.16355336E+03</pdfrwt>
<totfact> 0.59431486E+03</totfact>
</mgrwt>
</event>
<event>
 7    1  0.1224355E-005  0.1374542E+03  0.7546771E-02  0.1242722E+00
          2   -1    0    0  501    0  0.00000000000E+00  0.00000000000E+00  0.36831228361E+03  0.36831228361E+03  0.00000000000E+00 0. -1.
         -2   -1    0    0    0  501 -0.00000000000E+00 -0.00000000000E+00 -0.50883810108E+02  0.50883810108E+02  0.00000000000E+00 0.  1.
         23    2    1    2    0    0  0.33312347743E+01  0.58314149165E+01  0.82939820594E+01  0.80879965160E+02  0.80172789030E+02 0.  0.
          5    1    1    2  502    0 -0.67057031548E+02 -0.14854940262E+02  0.20014909688E+03  0.21165789782E+03  0.47000000000E+01 0. -1.
         -5    1    1    2    0  502  0.63725796774E+02  0.90235253460E+01  0.10898539457E+03  0.12665823074E+03  0.47000000000E+01 0.  1.
        -11    1    3    3    0    0 -0.17012734099E+02 -0.31339448075E+02 -0.59987846323E+01  0.36160469358E+02  0.00000000000E+00 0. -1.
         11    1    3    3    0    0  0.20343968873E+02  0.37170862992E+02  0.14292766692E+02  0.44719495802E+02  0.00000000000E+00 0.  1.
<mgrwt>
<rscale>  0 0.12022782E+03</rscale>
<asrwt>0</asrwt>
<pdfrwt beam="1">  1        2 0.56663427E-01 0.13745424E+03</pdfrwt>
<pdfrwt beam="2">  1       -2 0.78282787E-02 0.13745424E+03</pdfrwt>
<totfact> 0.81462871E+03</totfact>
</mgrwt>
</event>
<event>
 8    1  0.1224355E-005  0.1264935E+03  0.7546771E-02  0.1246942E+00
         -2   -1    0    0    0  501 -0.00000000000E+00  0.00000000000E+00  0.32451111392E+02  0.32451111392E+02  0.00000000000E+00 0.  1.
          2   -1    0    0  501    0  0.00000000000E+00 -0.00000000000E+00 -0.40199972921E+03  0.40199972921E+03  0.00000000000E+00 0. -1.
         23    2    1    2    0    0  0.16792611231E+02 -0.96890017499E+01 -0.10665381073E+03  0.14270729298E+03  0.92814156131E+02 0.  0.
         23    2    1    2    0    0 -0.16792611231E+02  0.96890017499E+01 -0.26289480709E+03  0.29174354762E+03  0.12499899776E+03 0.  0.
          5    1    4    4  502    0 -0.20173260470E+01  0.61616642829E+02 -0.19673404081E+03  0.20622088423E+03  0.47000000000E+01 0. -1.
         -5    1    4    4    0  502 -0.14775285184E+02 -0.51927641079E+02 -0.66160766273E+02  0.85522663395E+02  0.47000000000E+01 0. -1.
        -11    1    3    3    0    0  0.32374844099E+02  0.34577073997E+02 -0.61042594376E+02  0.77265146766E+02  0.00000000000E+00 0. -1.
         11    1    3    3    0    0 -0.15582232868E+02 -0.44266075747E+02 -0.45611216358E+02  0.65442146213E+02  0.00000000000E+00 0.  1.
<mgrwt>
<rscale>  0 0.11769914E+03</rscale>
<asrwt>0</asrwt>
<pdfrwt beam="2">  1        2 0.61846113E-01 0.12649355E+03</pdfrwt>
<pdfrwt beam="1">  1       -2 0.49924786E-02 0.12649355E+03</pdfrwt>
<totfact> 0.14607334E+04</totfact>
</mgrwt>
</event>
<event>
 8    1  0.1224355E-005  0.3150275E+03  0.7546771E-02  0.1078833E+00
         -2   -1    0    0    0  501 -0.00000000000E+00  0.00000000000E+00  0.18470239973E+03  0.18470239973E+03  0.00000000000E+00 0.  1.
          2   -1    0    0  501    0  0.00000000000E+00 -0.00000000000E+00 -0.10853349382E+04  0.10853349382E+04  0.00000000000E+00 0. -1.
         23    2    1    2    0    0  0.54029595987E+02 -0.28852627242E+03  0.85676785761E+01  0.30780691948E+03  0.92223031006E+02 0.  0.
         23    2    1    2    0    0 -0.54029595987E+02  0.28852627242E+03 -0.90920021708E+03  0.96223041848E+03  0.11434918623E+03 0.  0.
          5    1    4    4  502    0 -0.77501697674E+02  0.18030022570E+03 -0.47193693102E+03  0.51113720408E+03  0.47000000000E+01 0. -1.
         -5    1    4    4    0  502  0.23472101687E+02  0.10822604672E+03 -0.43726328605E+03  0.45109321439E+03  0.47000000000E+01 0.  1.
        -11    1    3    3    0    0  0.42282387618E+02 -0.26443881089E+03  0.35108377227E+02  0.27008939846E+03  0.00000000000E+00 0.  1.
         11    1    3    3    0    0  0.11747208369E+02 -0.24087461522E+02 -0.26540698651E+02  0.37717521021E+02  0.00000000000E+00 0. -1.
<mgrwt>
<rscale>  0 0.31317631E+03</rscale>
<asrwt>0</asrwt>
<pdfrwt beam="2">  1        2 0.16697460E+00 0.31502753E+03</pdfrwt>
<pdfrwt beam="1">  1       -2 0.28415755E-01 0.31502753E+03</pdfrwt>
<totfact> 0.26384009E+02</totfact>
</mgrwt>
</event>
<event>
 8    1  0.1224355E-005  0.1455945E+03  0.7546771E-02  0.1215464E+00
          2   -1    0    0  501    0  0.00000000000E+00  0.00000000000E+00  0.99950873884E+03  0.99950873884E+03  0.00000000000E+00 0.  1.
         -2   -1    0    0    0  501 -0.00000000000E+00 -0.00000000000E+00 -0.29922322972E+02  0.29922322972E+02  0.00000000000E+00 0. -1.
         23    2    1    2    0    0 -0.44213246748E+02  0.60114441389E+02  0.12567208011E+03  0.17304962905E+03  0.92650661864E+02 0.  0.
         23    2    1    2    0    0  0.44213246748E+02 -0.60114441389E+02  0.84391433576E+03  0.85638143276E+03  0.12501677900E+03 0.  0.
          5    1    4    4  502    0  0.35389557717E+01  0.20666902599E+02  0.50854528401E+03  0.50899905792E+03  0.47000000000E+01 0. -1.
         -5    1    4    4    0  502  0.40674290976E+02 -0.80781343988E+02  0.33536905174E+03  0.34738237484E+03  0.47000000000E+01 0. -1.
        -11    1    3    3    0    0 -0.10242007534E+02  0.72782746565E+02  0.11268621501E+03  0.13453776410E+03  0.00000000000E+00 0.  1.
         11    1    3    3    0    0 -0.33971239213E+02 -0.12668305176E+02  0.12985865106E+02  0.38511864955E+02  0.00000000000E+00 0. -1.
<mgrwt>
<rscale>  0 0.13842470E+03</rscale>
<asrwt>0</asrwt>
<pdfrwt beam="1">  1        2 0.15377055E+00 0.14559448E+03</pdfrwt>
<pdfrwt beam="2">  1       -2 0.46034351E-02 0.14559448E+03</pdfrwt>
<totfact> 0.56995345E+03</totfact>
</mgrwt>
</event>
<event>
 8    1  0.1224355E-005  0.1439549E+03  0.7546771E-02  0.1218860E+00
         -4   -1    0    0    0  501 -0.00000000000E+00  0.00000000000E+00  0.65764551325E+02  0.65764551325E+02  0.00000000000E+00 0.  1.
          4   -1    0    0  501    0  0.00000000000E+00 -0.00000000000E+00 -0.31519917789E+03  0.31519917789E+03  0.00000000000E+00 0. -1.
         23    2    1    2    0    0  0.20712275957E+02 -0.68337006963E+02 -0.29841791393E+02  0.11839179776E+03  0.89594309906E+02 0.  0.
         23    2    1    2    0    0 -0.20712275957E+02  0.68337006963E+02 -0.21959283517E+03  0.26257193145E+03  0.12499624407E+03 0.  0.
          5    1    4    4  502    0 -0.61212370917E+02  0.30401534934E+01 -0.62663064373E+02  0.87777824780E+02  0.47000000000E+01 0. -1.
         -5    1    4    4    0  502  0.40500094959E+02  0.65296853470E+02 -0.15692977080E+03  0.17479410667E+03  0.47000000000E+01 0. -1.
        -11    1    3    3    0    0  0.44957574842E+02 -0.63996496659E+02  0.18777144815E+01  0.78232096559E+02  0.00000000000E+00 0.  1.
         11    1    3    3    0    0 -0.24245298885E+02 -0.43405103041E+01 -0.31719505874E+02  0.40159701202E+02  0.00000000000E+00 0. -1.
<mgrwt>
<rscale>  0 0.13596799E+03</rscale>
<asrwt>0</asrwt>
<pdfrwt beam="2">  1        4 0.48492182E-01 0.14395487E+03</pdfrwt>
<pdfrwt beam="1">  1       -4 0.10117623E-01 0.14395487E+03</pdfrwt>
<totfact> 0.51547328E+02</totfact>
</mgrwt>
</event>
<event>
 8    1  0.1224355E-005  0.1263455E+03  0.7546771E-02  0.1249183E+00
         -1   -1    0    0    0  501 -0.00000000000E+00  0.00000000000E+00  0.46855622560E+02  0.46855622560E+02  0.00000000000E+00 0.  1.
          1   -1    0    0  501    0  0.00000000000E+00 -0.00000000000E+00 -0.30943293452E+03  0.30943293452E+03  0.00000000000E+00 0. -1.
         23    2    1    2    0    0 -0.72255517533E+01  0.16869358762E+02 -0.37956573350E+02  0.98572309079E+02  0.89101149227E+02 0.  0.
         23    2    1    2    0    0  0.72255517533E+01 -0.16869358762E+02 -0.22462073861E+03  0.25771624800E+03  0.12500561750E+03 0.  0.
          5    1    4    4  502    0 -0.40945788414E+02 -0.39156381576E+02 -0.17819469361E+03  0.18704336032E+03  0.47000000000E+01 0.  1.
         -5    1    4    4    0  502  0.48171340168E+02  0.22287022814E+02 -0.46426044999E+02  0.70672887685E+02  0.47000000000E+01 0.  1.
        -11    1    3    3    0    0  0.42061258572E+01 -0.26683394057E+02  0.13498068971E+02  0.30197564125E+02  0.00000000000E+00 0.  1.
         11    1    3    3    0    0 -0.11431677610E+02  0.43552752820E+02 -0.51454642321E+02  0.68374744954E+02  0.00000000000E+00 0. -1.
<mgrwt>
<rscale>  0 0.11638476E+03</rscale>
<asrwt>0</asrwt>
<pdfrwt beam="2">  1        1 0.47605067E-01 0.12634551E+03</pdfrwt>
<pdfrwt beam="1">  1       -1 0.72085574E-02 0.12634551E+03</pdfrwt>
<totfact> 0.80432749E+03</totfact>
</mgrwt>
</event>
<event>
 8    1  0.1224355E-005  0.2315469E+03  0.7546771E-02  0.1128243E+00
         -2   -1    0    0    0  501 -0.00000000000E+00  0.00000000000E+00  0.29110430244E+02  0.29110430244E+02  0.00000000000E+00 0.  1.
          2   -1    0    0  501    0  0.00000000000E+00 -0.00000000000E+00 -0.17255005556E+04  0.17255005556E+04  0.00000000000E+00 0. -1.
         23    2    1    2    0    0 -0.17051664862E+03  0.94404295885E+02 -0.82790554519E+03  0.85578986314E+03  0.94660443474E+02 0.  0.
         23    2    1    2    0    0  0.17051664862E+03 -0.94404295885E+02 -0.86848458018E+03  0.89882112272E+03  0.12500338433E+03 0.  0.
          5    1    4    4  502    0  0.12448691573E+03 -0.12927707040E+02 -0.34529355539E+03  0.36730620358E+03  0.47000000000E+01 0. -1.
         -5    1    4    4    0  502  0.46029732891E+02 -0.81476588845E+02 -0.52319102479E+03  0.53151491914E+03  0.47000000000E+01 0. -1.
        -11    1    3    3    0    0 -0.24427471368E+02 -0.97714627982E+01 -0.41213161456E+02  0.48894861896E+02  0.00000000000E+00 0.  1.
         11    1    3    3    0    0 -0.14608917726E+03  0.10417575868E+03 -0.78669238373E+03  0.80689500124E+03  0.00000000000E+00 0. -1.
<mgrwt>
<rscale>  0 0.22773622E+03</rscale>
<asrwt>0</asrwt>
<pdfrwt beam="2">  1        2 0.26546162E+00 0.23154685E+03</pdfrwt>
<pdfrwt beam="1">  1       -2 0.44785278E-02 0.23154685E+03</pdfrwt>
<totfact> 0.24005355E+03</totfact>
</mgrwt>
</event>
<event>
 8    1  0.1224355E-005  0.1766780E+03  0.7546771E-02  0.1176861E+00
         -3   -1    0    0    0  501 -0.00000000000E+00  0.00000000000E+00  0.24383750981E+03  0.24383750981E+03  0.00000000000E+00 0.  1.
          3   -1    0    0  501    0  0.00000000000E+00 -0.00000000000E+00 -0.11297508109E+03  0.11297508109E+03  0.00000000000E+00 0. -1.
         23    2    1    2    0    0 -0.21554845792E+01  0.12483934288E+03  0.52238503539E+02  0.16342995498E+03  0.91602299570E+02 0.  0.
         23    2    1    2    0    0  0.21554845792E+01 -0.12483934288E+03  0.78623925184E+02  0.19338263592E+03  0.12500245845E+03 0.  0.
          5    1    4    4  502    0  0.82258144749E+01 -0.88181464651E+01  0.75983311614E+02  0.77077735921E+02  0.47000000000E+01 0.  1.
         -5    1    4    4    0  502 -0.60703298958E+01 -0.11602119642E+03  0.26406135696E+01  0.11630490000E+03  0.47000000000E+01 0.  1.
        -11    1    3    3    0    0  0.34918190053E+02  0.10203317415E+03  0.21037534078E+02  0.10987550438E+03  0.00000000000E+00 0.  1.
         11    1    3    3    0    0 -0.37073674632E+02  0.22806168734E+02  0.31200969461E+02  0.53554450593E+02  0.00000000000E+00 0. -1.
<mgrwt>
<rscale>  0 0.17095002E+03</rscale>
<asrwt>0</asrwt>
<pdfrwt beam="2">  1        3 0.17380782E-01 0.17667802E+03</pdfrwt>
<pdfrwt beam="1">  1       -3 0.37513463E-01 0.17667802E+03</pdfrwt>
<totfact> 0.48577112E+02</totfact>
</mgrwt>
</event>
<event>
 8    1  0.1224355E-005  0.1351510E+03  0.7546771E-02  0.1235481E+00
          3   -1    0    0  501    0  0.00000000000E+00  0.00000000000E+00  0.18076936389E+03  0.18076936389E+03  0.00000000000E+00 0. -1.
         -3   -1    0    0    0  501 -0.00000000000E+00 -0.00000000000E+00 -0.11236935754E+03  0.11236935754E+03  0.00000000000E+00 0.  1.
         23    2    1    2    0    0  0.51460517441E+01 -0.51107541655E+02 -0.52996655659E+02  0.11147162185E+03  0.83539297962E+02 0.  0.
         23    2    1    2    0    0 -0.51460517441E+01  0.51107541655E+02  0.12139666201E+03  0.18166709958E+03  0.12500929110E+03 0.  0.
          5    1    4    4  502    0  0.42518963827E+02 -0.16619749852E+02  0.71202327440E+02  0.84710919030E+02  0.47000000000E+01 0. -1.
         -5    1    4    4    0  502 -0.47665015571E+02  0.67727291506E+02  0.50194334572E+02  0.96956180552E+02  0.47000000000E+01 0. -1.
        -11    1    3    3    0    0 -0.12700814332E+02  0.11237393108E+02  0.11118769415E+02  0.20278479279E+02  0.00000000000E+00 0. -1.
         11    1    3    3    0    0  0.17846866076E+02 -0.62344934763E+02 -0.64115425074E+02  0.91193142570E+02  0.00000000000E+00 0.  1.
<mgrwt>
<rscale>  0 0.12473717E+03</rscale>
<asrwt>0</asrwt>
<pdfrwt beam="1">  1        3 0.27810671E-01 0.13515097E+03</pdfrwt>
<pdfrwt beam="2">  1       -3 0.17287593E-01 0.13515097E+03</pdfrwt>
<totfact> 0.82752884E+02</totfact>
</mgrwt>
</event>
<event>
 8    1  0.1224355E-005  0.1792603E+03  0.7546771E-02  0.1174283E+00
          1   -1    0    0  501    0  0.00000000000E+00  0.00000000000E+00  0.18562223502E+03  0.18562223502E+03  0.00000000000E+00 0. -1.
         -1   -1    0    0    0  501 -0.00000000000E+00 -0.00000000000E+00 -0.18759712369E+03  0.18759712369E+03  0.00000000000E+00 0.  1.
         23    2    1    2    0    0  0.98131318090E+02  0.82906942150E+02 -0.81572874071E+02  0.17708142295E+03  0.90555949122E+02 0.  0.
         23    2    1    2    0    0 -0.98131318090E+02 -0.82906942150E+02  0.79597985400E+02  0.19613793577E+03  0.12502373344E+03 0.  0.
          5    1    4    4  502    0 -0.60022980583E+02 -0.17975262981E+02  0.99901617446E+02  0.11801818269E+03  0.47000000000E+01 0. -1.
         -5    1    4    4    0  502 -0.38108337507E+02 -0.64931679169E+02 -0.20303632046E+02  0.78119753082E+02  0.47000000000E+01 0. -1.
        -11    1    3    3    0    0  0.20447116822E+02  0.32116215265E+02 -0.74907620612E+02  0.84027897123E+02  0.00000000000E+00 0.  1.
         11    1    3    3    0    0  0.77684201269E+02  0.50790726886E+02 -0.66652534596E+01  0.93053525823E+02  0.00000000000E+00 0. -1.
<mgrwt>
<rscale>  0 0.17346358E+03</rscale>
<asrwt>0</asrwt>
<pdfrwt beam="1">  1        1 0.28557267E-01 0.17926029E+03</pdfrwt>
<pdfrwt beam="2">  1       -1 0.28861096E-01 0.17926029E+03</pdfrwt>
<totfact> 0.17390018E+03</totfact>
</mgrwt>
</event>
<event>
 8    1  0.1224355E-005  0.1491666E+03  0.7546771E-02  0.1211105E+00
          2   -1    0    0  501    0  0.00000000000E+00  0.00000000000E+00  0.39758984411E+03  0.39758984411E+03  0.00000000000E+00 0.  1.
         -2   -1    0    0    0  501 -0.00000000000E+00 -0.00000000000E+00 -0.52102569663E+02  0.52102569663E+02  0.00000000000E+00 0. -1.
         23    2    1    2    0    0 -0.41107890578E+02 -0.70263210932E+02  0.80560668890E+02  0.14565822734E+03  0.89997335193E+02 0.  0.
         23    2    1    2    0    0  0.41107890578E+02  0.70263210932E+02  0.26492660556E+03  0.30403418644E+03  0.12499561076E+03 0.  0.
          5    1    4    4  502    0  0.11047482136E+02  0.80976511934E+02  0.25848841711E+03  0.27114128075E+03  0.47000000000E+01 0.  1.
         -5    1    4    4    0  502  0.30060408443E+02 -0.10713301002E+02  0.64381884545E+01  0.32892905689E+02  0.47000000000E+01 0.  1.
        -11    1    3    3    0    0 -0.22466970023E+02 -0.21126716257E+02 -0.16726546262E+02  0.35083902743E+02  0.00000000000E+00 0. -1.
         11    1    3    3    0    0 -0.18640920555E+02 -0.49136494675E+02  0.97287215152E+02  0.11057432460E+03  0.00000000000E+00 0.  1.
<mgrwt>
<rscale>  0 0.14166593E+03</rscale>
<asrwt>0</asrwt>
<pdfrwt beam="1">  1        2 0.61167667E-01 0.14916662E+03</pdfrwt>
<pdfrwt beam="2">  1       -2 0.80157802E-02 0.14916662E+03</pdfrwt>
<totfact> 0.72758240E+03</totfact>
</mgrwt>
</event>
<event>
 8    1  0.1450860E-005  0.2790937E+03  0.7546771E-02  0.1098150E+00
          2   -1    0    0  501    0  0.00000000000E+00  0.00000000000E+00  0.36399932216E+04  0.36399932216E+04  0.00000000000E+00 0. -1.
         -2   -1    0    0    0  501 -0.00000000000E+00 -0.00000000000E+00 -0.21111472651E+02  0.21111472651E+02  0.00000000000E+00 0.  1.
         23    2    1    2    0    0 -0.24860348752E+03 -0.21543647027E+02  0.14157340371E+04  0.14403496139E+04  0.89645545120E+02 0.  0.
         23    2    1    2    0    0  0.24860348752E+03  0.21543647027E+02  0.22031477118E+04  0.22207550803E+04  0.12500185556E+03 0.  0.
          5    1    4    4  502    0  0.48867036385E+02 -0.46028983651E+02  0.61244100857E+03  0.61612720566E+03  0.47000000000E+01 0. -1.
         -5    1    4    4    0  502  0.19973645113E+03  0.67572630678E+02  0.15907067033E+04  0.16046278747E+04  0.47000000000E+01 0. -1.
        -11    1    3    3    0    0 -0.23560451820E+03 -0.43455159714E+02  0.12679606003E+04  0.12903960337E+04  0.00000000000E+00 0. -1.
         11    1    3    3    0    0 -0.12998969316E+02  0.21911512687E+02  0.14777343686E+03  0.14995358026E+03  0.00000000000E+00 0.  1.
<mgrwt>
<rscale>  0 0.27554030E+03</rscale>
<asrwt>0</asrwt>
<pdfrwt beam="1">  1        2 0.55999846E+00 0.27909369E+03</pdfrwt>
<pdfrwt beam="2">  1       -2 0.32479218E-02 0.27909369E+03</pdfrwt>
<totfact> 0.30605200E+02</totfact>
</mgrwt>
</event>
<event>
 8    1  0.1378556E-005  0.1896741E+03  0.7546771E-02  0.1163693E+00
          2   -1    0    0  501    0  0.00000000000E+00  0.00000000000E+00  0.54532665785E+03  0.54532665785E+03  0.00000000000E+00 0. -1.
         -2   -1    0    0    0  501 -0.00000000000E+00 -0.00000000000E+00 -0.59018023611E+02  0.59018023611E+02  0.00000000000E+00 0.  1.
         23    2    1    2    0    0 -0.14172586552E+03 -0.16273990281E+02  0.23020504396E+03  0.28565154033E+03  0.90837087747E+02 0.  0.
         23    2    1    2    0    0  0.14172586552E+03  0.16273990281E+02  0.25610359028E+03  0.31869314113E+03  0.12500082214E+03 0.  0.
          5    1    4    4  502    0  0.26217693934E+02 -0.49058476745E+02  0.60981408718E+02  0.82673598113E+02  0.47000000000E+01 0. -1.
         -5    1    4    4    0  502  0.11550817158E+03  0.65332467026E+02  0.19512218156E+03  0.23601954302E+03  0.47000000000E+01 0. -1.
        -11    1    3    3    0    0 -0.10798504559E+03  0.19236788501E+02  0.10772078085E+03  0.15373545697E+03  0.00000000000E+00 0.  1.
         11    1    3    3    0    0 -0.33740819931E+02 -0.35510778783E+02  0.12248426311E+03  0.13191608336E+03  0.00000000000E+00 0. -1.
<mgrwt>
<rscale>  0 0.18431320E+03</rscale>
<asrwt>0</asrwt>
<pdfrwt beam="1">  1        2 0.83896406E-01 0.18967411E+03</pdfrwt>
<pdfrwt beam="2">  1       -2 0.90796963E-02 0.18967411E+03</pdfrwt>
<totfact> 0.42880439E+03</totfact>
</mgrwt>
</event>
<event>
 8    1  0.1224355E-005  0.1476908E+03  0.7546771E-02  0.1212987E+00
         -1   -1    0    0    0  501 -0.00000000000E+00  0.00000000000E+00  0.71496313219E+02  0.71496313219E+02  0.00000000000E+00 0.  1.
          1   -1    0    0  501    0  0.00000000000E+00 -0.00000000000E+00 -0.25134319975E+03  0.25134319975E+03  0.00000000000E+00 0. -1.
         23    2    1    2    0    0 -0.73849073563E+02 -0.27082007243E+02 -0.88233523839E+02  0.14904195814E+03  0.90781219285E+02 0.  0.
         23    2    1    2    0    0  0.73849073563E+02  0.27082007243E+02 -0.91613362692E+02  0.17379755483E+03  0.12500184422E+03 0.  0.
          5    1    4    4  502    0  0.44495302434E+02  0.76776560651E+02 -0.64820388379E+02  0.10999202223E+03  0.47000000000E+01 0.  1.
         -5    1    4    4    0  502  0.29353771129E+02 -0.49694553409E+02 -0.26792974313E+02  0.63805532601E+02  0.47000000000E+01 0.  1.
        -11    1    3    3    0    0 -0.95314318115E+02 -0.23134239234E+02 -0.68662314544E+02  0.11972687961E+03  0.00000000000E+00 0.  1.
         11    1    3    3    0    0  0.21465244552E+02 -0.39477680090E+01 -0.19571209294E+02  0.29315078529E+02  0.00000000000E+00 0. -1.
<mgrwt>
<rscale>  0 0.14025464E+03</rscale>
<asrwt>0</asrwt>
<pdfrwt beam="2">  1        1 0.38668185E-01 0.14769083E+03</pdfrwt>
<pdfrwt beam="1">  1       -1 0.10999433E-01 0.14769083E+03</pdfrwt>
<totfact> 0.55342488E+03</totfact>
</mgrwt>
</event>
<event>
 8    1  0.1224355E-005  0.1539514E+03  0.7546771E-02  0.1203419E+00
         -1   -1    0    0    0  501 -0.00000000000E+00  0.00000000000E+00  0.51339910063E+02  0.51339910063E+02  0.00000000000E+00 0.  1.
          1   -1    0    0  501    0  0.00000000000E+00 -0.00000000000E+00 -0.48132350949E+03  0.48132350949E+03  0.00000000000E+00 0. -1.
         23    2    1    2    0    0  0.88460916351E+02 -0.15861478774E+02 -0.86595032912E+02  0.15634341251E+03  0.94168161711E+02 0.  0.
         23    2    1    2    0    0 -0.88460916351E+02  0.15861478774E+02 -0.34338856652E+03  0.37632000704E+03  0.12499647938E+03 0.  0.
          5    1    4    4  502    0 -0.72738896277E+01  0.60537432490E+02 -0.13421498967E+03  0.14749048666E+03  0.47000000000E+01 0.  1.
         -5    1    4    4    0  502 -0.81187026723E+02 -0.44675953716E+02 -0.20917357685E+03  0.22882952038E+03  0.47000000000E+01 0.  1.
        -11    1    3    3    0    0  0.98951817817E+02 -0.34634760805E+02 -0.55744848854E+02  0.11873717648E+03  0.00000000000E+00 0.  1.
         11    1    3    3    0    0 -0.10490901466E+02  0.18773282032E+02 -0.30850184058E+02  0.37606236029E+02  0.00000000000E+00 0. -1.
<mgrwt>
<rscale>  0 0.14762726E+03</rscale>
<asrwt>0</asrwt>
<pdfrwt beam="2">  1        1 0.74049773E-01 0.15395142E+03</pdfrwt>
<pdfrwt beam="1">  1       -1 0.78984474E-02 0.15395142E+03</pdfrwt>
<totfact> 0.40611506E+03</totfact>
</mgrwt>
</event>
<event>
 8    1  0.1224355E-005  0.1606627E+03  0.7546771E-02  0.1194725E+00
          1   -1    0    0  501    0  0.00000000000E+00  0.00000000000E+00  0.18974954208E+03  0.18974954208E+03  0.00000000000E+00 0. -1.
         -1   -1    0    0    0  501 -0.00000000000E+00 -0.00000000000E+00 -0.13149466700E+03  0.13149466700E+03  0.00000000000E+00 0.  1.
         23    2    1    2    0    0 -0.85102347197E+02  0.54288246400E+02 -0.24487798728E+02  0.14052656137E+03  0.94649030460E+02 0.  0.
         23    2    1    2    0    0  0.85102347197E+02 -0.54288246400E+02  0.82742673809E+02  0.18071764771E+03  0.12499157944E+03 0.  0.
          5    1    4    4  502    0  0.11170280540E+03 -0.18208671102E+02  0.44836918320E+02  0.12182574310E+03  0.47000000000E+01 0. -1.
         -5    1    4    4    0  502 -0.26600458198E+02 -0.36079575298E+02  0.37905755489E+02  0.58891904615E+02  0.47000000000E+01 0. -1.
        -11    1    3    3    0    0 -0.50098726810E+02  0.31308904469E+02 -0.61038093717E+02  0.84945740397E+02  0.00000000000E+00 0.  1.
         11    1    3    3    0    0 -0.35003620387E+02  0.22979341930E+02  0.36550294989E+02  0.55580820968E+02  0.00000000000E+00 0. -1.
<mgrwt>
<rscale>  0 0.15477542E+03</rscale>
<asrwt>0</asrwt>
<pdfrwt beam="1">  1        1 0.29192237E-01 0.16066275E+03</pdfrwt>
<pdfrwt beam="2">  1       -1 0.20229949E-01 0.16066275E+03</pdfrwt>
<totfact> 0.30249713E+03</totfact>
</mgrwt>
</event>
<event>
 8    1  0.1224355E-005  0.1234738E+03  0.7546771E-02  0.1246139E+00
          2   -1    0    0  501    0  0.00000000000E+00  0.00000000000E+00  0.59992405671E+03  0.59992405671E+03  0.00000000000E+00 0. -1.
         -2   -1    0    0    0  501 -0.00000000000E+00 -0.00000000000E+00 -0.31306288091E+02  0.31306288091E+02  0.00000000000E+00 0.  1.
         23    2    1    2    0    0 -0.33143244159E+02 -0.35957794104E+02  0.90944610331E+02  0.13785681830E+03  0.91335330591E+02 0.  0.
         23    2    1    2    0    0  0.33143244159E+02  0.35957794104E+02  0.47767315829E+03  0.49337352650E+03  0.11337703873E+03 0.  0.
          5    1    4    4  502    0  0.10192121129E+02  0.60535771521E+02  0.43251045799E+03  0.43687051312E+03  0.47000000000E+01 0. -1.
         -5    1    4    4    0  502  0.22951123030E+02 -0.24577977417E+02  0.45162700303E+02  0.56503013379E+02  0.47000000000E+01 0.  1.
        -11    1    3    3    0    0 -0.60282650312E+02 -0.42365500088E+02  0.52977323201E+02  0.90749271622E+02  0.00000000000E+00 0.  1.
         11    1    3    3    0    0  0.27139406153E+02  0.64077059839E+01  0.37967287129E+02  0.47107546681E+02  0.00000000000E+00 0. -1.
<mgrwt>
<rscale>  0 0.11817464E+03</rscale>
<asrwt>0</asrwt>
<pdfrwt beam="1">  1        2 0.92296000E-01 0.12347385E+03</pdfrwt>
<pdfrwt beam="2">  1       -2 0.48163524E-02 0.12347385E+03</pdfrwt>
<totfact> 0.99281693E+03</totfact>
</mgrwt>
</event>
<event>
 8    1  0.1224355E-005  0.1263597E+03  0.7546771E-02  0.1247519E+00
         -2   -1    0    0    0  501 -0.00000000000E+00  0.00000000000E+00  0.55331752823E+02  0.55331752823E+02  0.00000000000E+00 0. -1.
          2   -1    0    0  501    0  0.00000000000E+00 -0.00000000000E+00 -0.26750869101E+03  0.26750869101E+03  0.00000000000E+00 0.  1.
         23    2    1    2    0    0 -0.17201430109E+02  0.69404109711E+01 -0.25502663007E+02  0.97420731914E+02  0.92175672951E+02 0.  0.
         23    2    1    2    0    0  0.17201430109E+02 -0.69404109711E+01 -0.18667427518E+03  0.22541971192E+03  0.12499081168E+03 0.  0.
          5    1    4    4  502    0 -0.39397925272E+02  0.28261163969E+02 -0.35931148088E+02  0.60531209367E+02  0.47000000000E+01 0.  1.
         -5    1    4    4    0  502  0.56599355381E+02 -0.35201574940E+02 -0.15074312709E+03  0.16488850255E+03  0.47000000000E+01 0.  1.
        -11    1    3    3    0    0 -0.49057728381E+02  0.27322580429E+02 -0.16817794321E+02  0.58617593955E+02  0.00000000000E+00 0.  1.
         11    1    3    3    0    0  0.31856298272E+02 -0.20382169458E+02 -0.86848686853E+01  0.38803137959E+02  0.00000000000E+00 0. -1.
<mgrwt>
<rscale>  0 0.11735873E+03</rscale>
<asrwt>0</asrwt>
<pdfrwt beam="2">  1        2 0.41155184E-01 0.12635965E+03</pdfrwt>
<pdfrwt beam="1">  1       -2 0.85125773E-02 0.12635965E+03</pdfrwt>
<totfact> 0.99824740E+03</totfact>
</mgrwt>
</event>
<event>
 8    1  0.1224355E-005  0.1853901E+03  0.7546771E-02  0.1167790E+00
          1   -1    0    0  501    0  0.00000000000E+00  0.00000000000E+00  0.94047092302E+03  0.94047092302E+03  0.00000000000E+00 0. -1.
         -1   -1    0    0    0  501 -0.00000000000E+00 -0.00000000000E+00 -0.35594955542E+02  0.35594955542E+02  0.00000000000E+00 0.  1.
         23    2    1    2    0    0  0.51643638594E+02  0.12680375883E+03  0.28672065145E+03  0.33070902621E+03  0.91724965991E+02 0.  0.
         23    2    1    2    0    0 -0.51643638594E+02 -0.12680375883E+03  0.61815531603E+03  0.64535685236E+03  0.12499285374E+03 0.  0.
          5    1    4    4  502    0 -0.85877978212E+02 -0.12364389420E+03  0.49507652410E+03  0.51748013916E+03  0.47000000000E+01 0.  1.
         -5    1    4    4    0  502  0.34234339618E+02 -0.31598646271E+01  0.12307879193E+03  0.12787671319E+03  0.47000000000E+01 0.  1.
        -11    1    3    3    0    0 -0.19198348574E+02  0.64940952278E+02  0.15204151295E+03  0.16644075682E+03  0.00000000000E+00 0.  1.
         11    1    3    3    0    0  0.70841987168E+02  0.61862806554E+02  0.13467913851E+03  0.16426826939E+03  0.00000000000E+00 0. -1.
<mgrwt>
<rscale>  0 0.18001368E+03</rscale>
<asrwt>0</asrwt>
<pdfrwt beam="1">  1        1 0.14468782E+00 0.18539005E+03</pdfrwt>
<pdfrwt beam="2">  1       -1 0.54761477E-02 0.18539005E+03</pdfrwt>
<totfact> 0.27034850E+03</totfact>
</mgrwt>
</event>
<event>
 8    1  0.1224355E-005  0.1666261E+03  0.7546771E-02  0.1188113E+00
          2   -1    0    0  501    0  0.00000000000E+00  0.00000000000E+00  0.10211477436E+04  0.10211477436E+04  0.00000000000E+00 0. -1.
         -2   -1    0    0    0  501 -0.00000000000E+00 -0.00000000000E+00 -0.23549845997E+02  0.23549845997E+02  0.00000000000E+00 0.  1.
         23    2    1    2    0    0  0.46876549330E+02 -0.99706518739E+02  0.46701220349E+03  0.48856321698E+03  0.91950084421E+02 0.  0.
         23    2    1    2    0    0 -0.46876549330E+02  0.99706518739E+02  0.53058569411E+03  0.55613437261E+03  0.12500184337E+03 0.  0.
          5    1    4    4  502    0 -0.83889029770E+02  0.53488105519E+02  0.40707781634E+03  0.41908565390E+03  0.47000000000E+01 0.  1.
         -5    1    4    4    0  502  0.37012480440E+02  0.46218413220E+02  0.12350787777E+03  0.13704871871E+03  0.47000000000E+01 0.  1.
        -11    1    3    3    0    0 -0.14824354867E+02 -0.75956688236E+02  0.25093803128E+03  0.26260060077E+03  0.00000000000E+00 0.  1.
         11    1    3    3    0    0  0.61700904197E+02 -0.23749830504E+02  0.21607417221E+03  0.22596261621E+03  0.00000000000E+00 0. -1.
<mgrwt>
<rscale>  0 0.16051805E+03</rscale>
<asrwt>0</asrwt>
<pdfrwt beam="1">  1        2 0.15709962E+00 0.16662611E+03</pdfrwt>
<pdfrwt beam="2">  1       -2 0.36230540E-02 0.16662611E+03</pdfrwt>
<totfact> 0.79542614E+03</totfact>
</mgrwt>
</event>
<event>
 8    1  0.1224355E-005  0.1501035E+03  0.7546771E-02  0.1212813E+00
          3   -1    0    0  501    0  0.00000000000E+00  0.00000000000E+00  0.36276684108E+02  0.36276684108E+02  0.00000000000E+00 0. -1.
         -3   -1    0    0    0  501 -0.00000000000E+00 -0.00000000000E+00 -0.48402784000E+03  0.48402784000E+03  0.00000000000E+00 0.  1.
         23    2    1    2    0    0  0.78212905588E+02 -0.28082083181E+02 -0.18793696827E+03  0.22024707255E+03  0.79262897544E+02 0.  0.
         23    2    1    2    0    0 -0.78212905588E+02  0.28082083181E+02 -0.25981418762E+03  0.30005745156E+03  0.12500080060E+03 0.  0.
          5    1    4    4  502    0  0.26459750119E+02  0.32360165084E+01 -0.12302831300E+03  0.12597081400E+03  0.47000000000E+01 0. -1.
         -5    1    4    4    0  502 -0.10467265571E+03  0.24846066672E+02 -0.13678587462E+03  0.17408663756E+03  0.47000000000E+01 0. -1.
        -11    1    3    3    0    0  0.90997517643E+02 -0.38009417293E+02 -0.15942378808E+03  0.18745988431E+03  0.00000000000E+00 0.  1.
         11    1    3    3    0    0 -0.12784612055E+02  0.99273341119E+01 -0.28513180184E+02  0.32787188232E+02  0.00000000000E+00 0. -1.
<mgrwt>
<rscale>  0 0.14038394E+03</rscale>
<asrwt>0</asrwt>
<pdfrwt beam="1">  1        3 0.55810287E-02 0.15010350E+03</pdfrwt>
<pdfrwt beam="2">  1       -3 0.74465816E-01 0.15010350E+03</pdfrwt>
<totfact> 0.78191663E+02</totfact>
</mgrwt>
</event>
<event>
 8    1  0.1224355E-005  0.2031419E+03  0.7546771E-02  0.1150924E+00
          2   -1    0    0  501    0  0.00000000000E+00  0.00000000000E+00  0.17327255916E+04  0.17327255916E+04  0.00000000000E+00 0. -1.
         -2   -1    0    0    0  501 -0.00000000000E+00 -0.00000000000E+00 -0.30385554064E+02  0.30385554064E+02  0.00000000000E+00 0.  1.
         23    2    1    2    0    0  0.12782828649E+03  0.96444719847E+02  0.35538134850E+03  0.40092013164E+03  0.93805086614E+02 0.  0.
         23    2    1    2    0    0 -0.12782828649E+03 -0.96444719847E+02  0.13469586890E+04  0.13621910140E+04  0.12499997567E+03 0.  0.
          5    1    4    4  502    0 -0.11847312272E+03 -0.10228650369E+03  0.80439348167E+03  0.81949336361E+03  0.47000000000E+01 0.  1.
         -5    1    4    4    0  502 -0.93551637681E+01  0.58417838462E+01  0.54256520734E+03  0.54269765039E+03  0.47000000000E+01 0.  1.
        -11    1    3    3    0    0  0.90278721589E+02  0.53015583651E+02  0.12286531331E+03  0.16142114142E+03  0.00000000000E+00 0.  1.
         11    1    3    3    0    0  0.37549564904E+02  0.43429136196E+02  0.23251603519E+03  0.23949899022E+03  0.00000000000E+00 0. -1.
<mgrwt>
<rscale>  0 0.19860229E+03</rscale>
<asrwt>0</asrwt>
<pdfrwt beam="1">  1        2 0.26657309E+00 0.20314194E+03</pdfrwt>
<pdfrwt beam="2">  1       -2 0.46747020E-02 0.20314194E+03</pdfrwt>
<totfact> 0.22321669E+03</totfact>
</mgrwt>
</event>
<event>
 8    1  0.1224355E-005  0.2895256E+03  0.7546771E-02  0.1092377E+00
         -2   -1    0    0    0  501 -0.00000000000E+00  0.00000000000E+00  0.37484878669E+02  0.37484878669E+02  0.00000000000E+00 0. -1.
          2   -1    0    0  501    0  0.00000000000E+00 -0.00000000000E+00 -0.27280077991E+04  0.27280077991E+04  0.00000000000E+00 0.  1.
         23    2    1    2    0    0 -0.26050548998E+03 -0.18339106595E+02 -0.67598660322E+03  0.73025764930E+03  0.90105013690E+02 0.  0.
         23    2    1    2    0    0  0.26050548998E+03  0.18339106595E+02 -0.20145363172E+04  0.20352350285E+04  0.12500245834E+03 0.  0.
          5    1    4    4  502    0 -0.41058497760E+00 -0.24340241213E+02 -0.14817774869E+03  0.15023764884E+03  0.47000000000E+01 0.  1.
         -5    1    4    4    0  502  0.26091607496E+03  0.42679347809E+02 -0.18663585686E+04  0.18849973797E+04  0.47000000000E+01 0.  1.
        -11    1    3    3    0    0 -0.20025984174E+03 -0.48252868913E+02 -0.55230887193E+03  0.58947216523E+03  0.00000000000E+00 0.  1.
         11    1    3    3    0    0 -0.60245648237E+02  0.29913762317E+02 -0.12367773129E+03  0.14078548407E+03  0.00000000000E+00 0. -1.
<mgrwt>
<rscale>  0 0.28615003E+03</rscale>
<asrwt>0</asrwt>
<pdfrwt beam="2">  1        2 0.41969362E+00 0.28952556E+03</pdfrwt>
<pdfrwt beam="1">  1       -2 0.57669029E-02 0.28952556E+03</pdfrwt>
<totfact> 0.46927812E+02</totfact>
</mgrwt>
</event>
<event>
 8    1  0.1224355E-005  0.1442120E+03  0.7546771E-02  0.1217695E+00
          1   -1    0    0  501    0  0.00000000000E+00  0.00000000000E+00  0.95367528150E+02  0.95367528150E+02  0.00000000000E+00 0. -1.
         -1   -1    0    0    0  501 -0.00000000000E+00 -0.00000000000E+00 -0.18305865007E+03  0.18305865007E+03  0.00000000000E+00 0.  1.
         23    2    1    2    0    0  0.43738372425E+02 -0.57118786693E+02 -0.17680863206E+02  0.11811851624E+03  0.91998749668E+02 0.  0.
         23    2    1    2    0    0 -0.43738372425E+02  0.57118786693E+02 -0.70010258716E+02  0.16030766198E+03  0.12498603581E+03 0.  0.
          5    1    4    4  502    0 -0.35164411025E+02  0.73591152441E+02 -0.97247240278E+02  0.12700909126E+03  0.47000000000E+01 0.  1.
         -5    1    4    4    0  502 -0.85739613997E+01 -0.16472365748E+02  0.27236981561E+02  0.33298570720E+02  0.47000000000E+01 0.  1.
        -11    1    3    3    0    0  0.64075444527E+02 -0.13837222037E+02 -0.24154097803E+02  0.69860945783E+02  0.00000000000E+00 0.  1.
         11    1    3    3    0    0 -0.20337072102E+02 -0.43281564655E+02  0.64732345967E+01  0.48257570461E+02  0.00000000000E+00 0. -1.
<mgrwt>
<rscale>  0 0.13680451E+03</rscale>
<asrwt>0</asrwt>
<pdfrwt beam="1">  1        1 0.14671928E-01 0.14421203E+03</pdfrwt>
<pdfrwt beam="2">  1       -1 0.28162869E-01 0.14421203E+03</pdfrwt>
<totfact> 0.41993571E+03</totfact>
</mgrwt>
</event>
<event>
 8    1  0.1224355E-005  0.2552235E+03  0.7546771E-02  0.1112309E+00
          1   -1    0    0  501    0  0.00000000000E+00  0.00000000000E+00  0.17827804591E+04  0.17827804591E+04  0.00000000000E+00 0. -1.
         -1   -1    0    0    0  501 -0.00000000000E+00 -0.00000000000E+00 -0.34743079674E+02  0.34743079674E+02  0.00000000000E+00 0.  1.
         23    2    1    2    0    0 -0.13855398017E+03  0.17411769097E+03  0.77709958253E+03  0.81360161108E+03  0.92464288490E+02 0.  0.
         23    2    1    2    0    0  0.13855398017E+03 -0.17411769097E+03  0.97093779692E+03  0.10039219277E+04  0.12499942298E+03 0.  0.
          5    1    4    4  502    0  0.96068739820E-01 -0.12055647315E+01 -0.25888717637E+01  0.55004429398E+01  0.47000000000E+01 0. -1.
         -5    1    4    4    0  502  0.13845791143E+03 -0.17291212624E+03  0.97352666868E+03  0.99842148478E+03  0.47000000000E+01 0. -1.
        -11    1    3    3    0    0 -0.91197370391E+02  0.56612108567E+02  0.45482728392E+03  0.46732189056E+03  0.00000000000E+00 0. -1.
         11    1    3    3    0    0 -0.47356609779E+02  0.11750558240E+03  0.32227229861E+03  0.34627972051E+03  0.00000000000E+00 0.  1.
<mgrwt>
<rscale>  0 0.25158149E+03</rscale>
<asrwt>0</asrwt>
<pdfrwt beam="1">  1        1 0.27427385E+00 0.25522349E+03</pdfrwt>
<pdfrwt beam="2">  1       -1 0.53450906E-02 0.25522349E+03</pdfrwt>
<totfact> 0.74435119E+02</totfact>
</mgrwt>
</event>
<event>
 8    1  0.1224355E-005  0.2055546E+03  0.7546771E-02  0.1148731E+00
         -1   -1    0    0    0  501 -0.00000000000E+00  0.00000000000E+00  0.56644120535E+02  0.56644120535E+02  0.00000000000E+00 0.  1.
          1   -1    0    0  501    0  0.00000000000E+00 -0.00000000000E+00 -0.81210547544E+03  0.81210547544E+03  0.00000000000E+00 0. -1.
         23    2    1    2    0    0 -0.74403087365E+02 -0.14522784972E+03 -0.19300417000E+03  0.26990839634E+03  0.94725841434E+02 0.  0.
         23    2    1    2    0    0  0.74403087365E+02  0.14522784972E+03 -0.56245718490E+03  0.59884119963E+03  0.12500299908E+03 0.  0.
          5    1    4    4  502    0 -0.18506105085E+01  0.88697013054E+02 -0.13987494916E+03  0.16570357958E+03  0.47000000000E+01 0.  1.
         -5    1    4    4    0  502  0.76253697874E+02  0.56530836666E+02 -0.42258223575E+03  0.43313762005E+03  0.47000000000E+01 0.  1.
        -11    1    3    3    0    0 -0.19271180681E+01 -0.39455696624E+02 -0.16116037519E+01  0.39535592152E+02  0.00000000000E+00 0.  1.
         11    1    3    3    0    0 -0.72475969297E+02 -0.10577215310E+03 -0.19139256625E+03  0.23037280419E+03  0.00000000000E+00 0. -1.
<mgrwt>
<rscale>  0 0.20119934E+03</rscale>
<asrwt>0</asrwt>
<pdfrwt beam="2">  1        1 0.12493930E+00 0.20555461E+03</pdfrwt>
<pdfrwt beam="1">  1       -1 0.87144804E-02 0.20555461E+03</pdfrwt>
<totfact> 0.16939919E+03</totfact>
</mgrwt>
</event>
<event>
 8    1  0.1224355E-005  0.1692655E+03  0.7546771E-02  0.1184983E+00
          1   -1    0    0  501    0  0.00000000000E+00  0.00000000000E+00  0.10139537794E+04  0.10139537794E+04  0.00000000000E+00 0. -1.
         -1   -1    0    0    0  501 -0.00000000000E+00 -0.00000000000E+00 -0.25472517740E+02  0.25472517740E+02  0.00000000000E+00 0.  1.
         23    2    1    2    0    0 -0.17168717195E+02  0.11283220612E+03  0.36561834588E+03  0.39397373289E+03  0.92264054610E+02 0.  0.
         23    2    1    2    0    0  0.17168717195E+02 -0.11283220612E+03  0.62286291578E+03  0.64545256425E+03  0.12499971704E+03 0.  0.
          5    1    4    4  502    0 -0.25389975882E+02 -0.11913223666E+03  0.51502757242E+03  0.52925667784E+03  0.47000000000E+01 0.  1.
         -5    1    4    4    0  502  0.42558693077E+02  0.63000305440E+01  0.10783534336E+03  0.11619588641E+03  0.47000000000E+01 0.  1.
        -11    1    3    3    0    0 -0.40094940284E+02  0.51762827985E+02  0.27266293060E+03  0.28041410150E+03  0.00000000000E+00 0. -1.
         11    1    3    3    0    0  0.22926223089E+02  0.61069378133E+02  0.92955415285E+02  0.11355963139E+03  0.00000000000E+00 0.  1.
<mgrwt>
<rscale>  0 0.16333464E+03</rscale>
<asrwt>0</asrwt>
<pdfrwt beam="1">  1        1 0.15599286E+00 0.16926547E+03</pdfrwt>
<pdfrwt beam="2">  1       -1 0.39188497E-02 0.16926547E+03</pdfrwt>
<totfact> 0.39077377E+03</totfact>
</mgrwt>
</event>
<event>
 8    1  0.1224355E-005  0.1744461E+03  0.7546771E-02  0.1183411E+00
         -2   -1    0    0    0  501 -0.00000000000E+00  0.00000000000E+00  0.35205683277E+02  0.35205683277E+02  0.00000000000E+00 0.  1.
          2   -1    0    0  501    0  0.00000000000E+00 -0.00000000000E+00 -0.69815880697E+03  0.69815880697E+03  0.00000000000E+00 0. -1.
         23    2    1    2    0    0  0.10036645727E+03  0.68794376254E+02 -0.27923881811E+03  0.31185754703E+03  0.66893349108E+02 0.  0.
         23    2    1    2    0    0 -0.10036645727E+03 -0.68794376254E+02 -0.38371430558E+03  0.42150694321E+03  0.12500137167E+03 0.  0.
          5    1    4    4  502    0 -0.37703555870E+01 -0.97862016540E+00 -0.21756413658E+03  0.21764975719E+03  0.47000000000E+01 0. -1.
         -5    1    4    4    0  502 -0.96596101679E+02 -0.67815756088E+02 -0.16615016900E+03  0.20385718602E+03  0.47000000000E+01 0. -1.
        -11    1    3    3    0    0  0.41255028531E+02  0.68131303866E+02 -0.15464166037E+03  0.17394796655E+03  0.00000000000E+00 0.  1.
         11    1    3    3    0    0  0.59111428736E+02  0.66307238790E+00 -0.12459715774E+03  0.13790958048E+03  0.00000000000E+00 0. -1.
<mgrwt>
<rscale>  0 0.16477320E+03</rscale>
<asrwt>0</asrwt>
<pdfrwt beam="2">  1        2 0.10740904E+00 0.17444608E+03</pdfrwt>
<pdfrwt beam="1">  1       -2 0.54162591E-02 0.17444608E+03</pdfrwt>
<totfact> 0.71151224E+03</totfact>
</mgrwt>
</event>
<event>
 8    1  0.1224355E-005  0.1580042E+03  0.7546771E-02  0.1198852E+00
          3   -1    0    0  501    0  0.00000000000E+00  0.00000000000E+00  0.33587790856E+03  0.33587790856E+03  0.00000000000E+00 0. -1.
         -3   -1    0    0    0  501 -0.00000000000E+00 -0.00000000000E+00 -0.75123927131E+02  0.75123927131E+02  0.00000000000E+00 0.  1.
         23    2    1    2    0    0 -0.58195953014E+02  0.77154630472E+02  0.38676432081E+02  0.13845134570E+03  0.91286925554E+02 0.  0.
         23    2    1    2    0    0  0.58195953014E+02 -0.77154630472E+02  0.22207754934E+03  0.27255048999E+03  0.12500290284E+03 0.  0.
          5    1    4    4  502    0 -0.15779207839E+02 -0.79014982240E+02  0.14258883775E+03  0.16384754337E+03  0.47000000000E+01 0.  1.
         -5    1    4    4    0  502  0.73975160853E+02  0.18603517681E+01  0.79488711597E+02  0.10870294662E+03  0.47000000000E+01 0.  1.
        -11    1    3    3    0    0 -0.54880682166E+02  0.47610833350E+02  0.65938205781E+02  0.98114869968E+02  0.00000000000E+00 0. -1.
         11    1    3    3    0    0 -0.33152708484E+01  0.29543797122E+02 -0.27261773700E+02  0.40336475732E+02  0.00000000000E+00 0.  1.
<mgrwt>
<rscale>  0 0.15132651E+03</rscale>
<asrwt>0</asrwt>
<pdfrwt beam="1">  1        3 0.51673523E-01 0.15800421E+03</pdfrwt>
<pdfrwt beam="2">  1       -3 0.11557527E-01 0.15800421E+03</pdfrwt>
<totfact> 0.51296033E+02</totfact>
</mgrwt>
</event>
<event>
 8    1  0.1224355E-005  0.1549680E+03  0.7546771E-02  0.1202439E+00
          3   -1    0    0  501    0  0.00000000000E+00  0.00000000000E+00  0.26489809032E+02  0.26489809032E+02  0.00000000000E+00 0. -1.
         -3   -1    0    0    0  501 -0.00000000000E+00 -0.00000000000E+00 -0.77773085018E+03  0.77773085018E+03  0.00000000000E+00 0.  1.
         23    2    1    2    0    0 -0.60927202308E+02  0.68395646708E+02 -0.29955325925E+03  0.32668853072E+03  0.92753180560E+02 0.  0.
         23    2    1    2    0    0  0.60927202308E+02 -0.68395646708E+02 -0.45168778190E+03  0.47753212849E+03  0.12499997184E+03 0.  0.
          5    1    4    4  502    0  0.91212228756E+02 -0.40108245319E+02 -0.21265921100E+03  0.23489225624E+03  0.47000000000E+01 0.  1.
         -5    1    4    4    0  502 -0.30285026448E+02 -0.28287401390E+02 -0.23902857090E+03  0.24263987226E+03  0.47000000000E+01 0.  1.
        -11    1    3    3    0    0 -0.29258708978E+02 -0.71264344415E+01 -0.17535049867E+03  0.17791755254E+03  0.00000000000E+00 0.  1.
         11    1    3    3    0    0 -0.31668493330E+02  0.75522081150E+02 -0.12420276058E+03  0.14877097818E+03  0.00000000000E+00 0. -1.
<mgrwt>
<rscale>  0 0.14841099E+03</rscale>
<asrwt>0</asrwt>
<pdfrwt beam="1">  1        3 0.40753554E-02 0.15496800E+03</pdfrwt>
<pdfrwt beam="2">  1       -3 0.11965089E+00 0.15496800E+03</pdfrwt>
<totfact> 0.44432240E+02</totfact>
</mgrwt>
</event>
<event>
 8    1  0.1224355E-005  0.1256184E+03  0.7546771E-02  0.1249660E+00
          1   -1    0    0  501    0  0.00000000000E+00  0.00000000000E+00  0.79877184302E+03  0.79877184302E+03  0.00000000000E+00 0. -1.
         -1   -1    0    0    0  501 -0.00000000000E+00 -0.00000000000E+00 -0.15254652448E+02  0.15254652448E+02  0.00000000000E+00 0.  1.
         23    2    1    2    0    0  0.10379358937E+01 -0.12388602050E+02  0.26144307813E+03  0.27705222992E+03  0.90834466101E+02 0.  0.
         23    2    1    2    0    0 -0.10379358937E+01  0.12388602050E+02  0.52207411244E+03  0.53697426555E+03  0.12500171280E+03 0.  0.
          5    1    4    4  502    0 -0.58618831979E+02 -0.65384119219E+01  0.17816806912E+03  0.18773616899E+03  0.47000000000E+01 0.  1.
         -5    1    4    4    0  502  0.57580896085E+02  0.18927013972E+02  0.34390604332E+03  0.34923809656E+03  0.47000000000E+01 0.  1.
        -11    1    3    3    0    0 -0.35243915407E+02 -0.30935922796E+02  0.17966952098E+03  0.18568872250E+03  0.00000000000E+00 0. -1.
         11    1    3    3    0    0  0.36281851301E+02  0.18547320747E+02  0.81773557147E+02  0.91363507426E+02  0.00000000000E+00 0.  1.
<mgrwt>
<rscale>  0 0.11610745E+03</rscale>
<asrwt>0</asrwt>
<pdfrwt beam="1">  1        1 0.12288794E+00 0.12561840E+03</pdfrwt>
<pdfrwt beam="2">  1       -1 0.23468702E-02 0.12561840E+03</pdfrwt>
<totfact> 0.11922467E+04</totfact>
</mgrwt>
</event>
<event>
 8    1  0.1224355E-005  0.1361422E+03  0.7546771E-02  0.1231061E+00
         -2   -1    0    0    0  501 -0.00000000000E+00  0.00000000000E+00  0.24438252051E+02  0.24438252051E+02  0.00000000000E+00 0. -1.
          2   -1    0    0  501    0  0.00000000000E+00 -0.00000000000E+00 -0.66125644966E+03  0.66125644966E+03  0.00000000000E+00 0.  1.
         23    2    1    2    0    0 -0.33091210190E+02  0.42593678693E+02 -0.17387645147E+03  0.20314961741E+03  0.90152631794E+02 0.  0.
         23    2    1    2    0    0  0.33091210190E+02 -0.42593678693E+02 -0.46294174614E+03  0.48254508430E+03  0.12500179365E+03 0.  0.
          5    1    4    4  502    0 -0.90908855484E+01 -0.68921858557E+02 -0.14697182411E+03  0.16265200235E+03  0.47000000000E+01 0. -1.
         -5    1    4    4    0  502  0.42182095738E+02  0.26328179864E+02 -0.31596992203E+03  0.31989308195E+03  0.47000000000E+01 0. -1.
        -11    1    3    3    0    0 -0.15130875295E+01  0.32234916836E+02 -0.16584999834E+03  0.16896035406E+03  0.00000000000E+00 0.  1.
         11    1    3    3    0    0 -0.31578122660E+02  0.10358761857E+02 -0.80264531355E+01  0.34189263342E+02  0.00000000000E+00 0. -1.
<mgrwt>
<rscale>  0 0.12759971E+03</rscale>
<asrwt>0</asrwt>
<pdfrwt beam="2">  1        2 0.10173176E+00 0.13614220E+03</pdfrwt>
<pdfrwt beam="1">  1       -2 0.37597313E-02 0.13614220E+03</pdfrwt>
<totfact> 0.12921672E+04</totfact>
</mgrwt>
</event>
<event>
 8    1  0.1224355E-005  0.1276157E+03  0.7546771E-02  0.1238390E+00
         -2   -1    0    0    0  501 -0.00000000000E+00  0.00000000000E+00  0.64786648635E+02  0.64786648635E+02  0.00000000000E+00 0.  1.
          2   -1    0    0  501    0  0.00000000000E+00 -0.00000000000E+00 -0.22275536093E+03  0.22275536093E+03  0.00000000000E+00 0. -1.
         23    2    1    2    0    0  0.58039995711E+02 -0.24380438379E+02 -0.51060984510E+02  0.12106367083E+03  0.89922974696E+02 0.  0.
         23    2    1    2    0    0 -0.58039995711E+02  0.24380438379E+02 -0.10690772779E+03  0.16647833874E+03  0.11100778410E+03 0.  0.
          5    1    4    4  502    0 -0.62494259665E+01 -0.33736580068E+02 -0.74251351172E+02  0.81930246616E+02  0.47000000000E+01 0. -1.
         -5    1    4    4    0  502 -0.51790569744E+02  0.58117018447E+02 -0.32656376616E+02  0.84548092121E+02  0.47000000000E+01 0.  1.
        -11    1    3    3    0    0  0.22599075354E+02  0.79947860916E+01 -0.66460730996E+02  0.70651706109E+02  0.00000000000E+00 0.  1.
         11    1    3    3    0    0  0.35440920357E+02 -0.32375224471E+02  0.15399746486E+02  0.50411964722E+02  0.00000000000E+00 0. -1.
<mgrwt>
<rscale>  0 0.12289887E+03</rscale>
<asrwt>0</asrwt>
<pdfrwt beam="2">  1        2 0.34270056E-01 0.12761573E+03</pdfrwt>
<pdfrwt beam="1">  1       -2 0.99671765E-02 0.12761573E+03</pdfrwt>
<totfact> 0.94941902E+03</totfact>
</mgrwt>
</event>
<event>
 8    1  0.1224355E-005  0.1335809E+03  0.7546771E-02  0.1229659E+00
         -1   -1    0    0    0  501 -0.00000000000E+00  0.00000000000E+00  0.41824919564E+02  0.41824919564E+02  0.00000000000E+00 0.  1.
          1   -1    0    0  501    0  0.00000000000E+00 -0.00000000000E+00 -0.47230545676E+03  0.47230545676E+03  0.00000000000E+00 0. -1.
         23    2    1    2    0    0 -0.14492002343E+02 -0.44896886604E+02 -0.81701911944E+02  0.14064624967E+03  0.10430923532E+03 0.  0.
         23    2    1    2    0    0  0.14492002343E+02  0.44896886604E+02 -0.34877862525E+03  0.37348412665E+03  0.12497245645E+03 0.  0.
          5    1    4    4  502    0 -0.13216497431E+01 -0.27626119164E+02 -0.15589563827E+02  0.32094761542E+02  0.47000000000E+01 0.  1.
         -5    1    4    4    0  502  0.15813652086E+02  0.72523005768E+02 -0.33318906142E+03  0.34138936511E+03  0.47000000000E+01 0.  1.
        -11    1    3    3    0    0  0.39791366569E+01  0.23474938763E+02 -0.63068333567E+02  0.67413062364E+02  0.00000000000E+00 0. -1.
         11    1    3    3    0    0 -0.18471138999E+02 -0.68371825367E+02 -0.18633578378E+02  0.73233187306E+02  0.00000000000E+00 0.  1.
<mgrwt>
<rscale>  0 0.12852653E+03</rscale>
<asrwt>0</asrwt>
<pdfrwt beam="2">  1        1 0.72662376E-01 0.13358092E+03</pdfrwt>
<pdfrwt beam="1">  1       -1 0.64346032E-02 0.13358092E+03</pdfrwt>
<totfact> 0.56230702E+03</totfact>
</mgrwt>
</event>
<event>
 8    1  0.1224355E-005  0.1241301E+03  0.7546771E-02  0.1241763E+00
          2   -1    0    0  501    0  0.00000000000E+00  0.00000000000E+00  0.59113470396E+02  0.59113470396E+02  0.00000000000E+00 0. -1.
         -2   -1    0    0    0  501 -0.00000000000E+00 -0.00000000000E+00 -0.53376396245E+03  0.53376396245E+03  0.00000000000E+00 0.  1.
         23    2    1    2    0    0 -0.10795933311E+02  0.53849381822E+02 -0.45347620245E+03  0.46695426645E+03  0.96898465737E+02 0.  0.
         23    2    1    2    0    0  0.10795933311E+02 -0.53849381822E+02 -0.21174289604E+02  0.12592316640E+03  0.11131929392E+03 0.  0.
          5    1    4    4  502    0  0.52617443622E+01 -0.52329083566E+02  0.38778966061E+02  0.65512725095E+02  0.47000000000E+01 0. -1.
         -5    1    4    4    0  502  0.55341889490E+01 -0.15202982560E+01 -0.59953255665E+02  0.60410441308E+02  0.47000000000E+01 0.  1.
        -11    1    3    3    0    0  0.20096314232E+02  0.72383834834E+02 -0.32029215191E+03  0.32898380502E+03  0.00000000000E+00 0.  1.
         11    1    3    3    0    0 -0.30892247543E+02 -0.18534453013E+02 -0.13318405054E+03  0.13797046143E+03  0.00000000000E+00 0. -1.
<mgrwt>
<rscale>  0 0.12081205E+03</rscale>
<asrwt>0</asrwt>
<pdfrwt beam="1">  1        2 0.90943804E-02 0.12413015E+03</pdfrwt>
<pdfrwt beam="2">  1       -2 0.82117530E-01 0.12413015E+03</pdfrwt>
<totfact> 0.94399762E+02</totfact>
</mgrwt>
</event>
<event>
 8    1  0.1224355E-005  0.1267995E+03  0.7546771E-02  0.1246565E+00
         -2   -1    0    0    0  501 -0.00000000000E+00  0.00000000000E+00  0.20870320369E+02  0.20870320369E+02  0.00000000000E+00 0.  1.
          2   -1    0    0  501    0  0.00000000000E+00 -0.00000000000E+00 -0.58986188544E+03  0.58986188544E+03  0.00000000000E+00 0. -1.
         23    2    1    2    0    0  0.41697363812E+01 -0.22138643006E+02 -0.25817384525E+03  0.27504520732E+03  0.92133736917E+02 0.  0.
         23    2    1    2    0    0 -0.41697363812E+01  0.22138643006E+02 -0.31081771982E+03  0.33568699849E+03  0.12478220943E+03 0.  0.
          5    1    4    4  502    0 -0.54650208818E+02  0.19658379048E+02 -0.24886547465E+03  0.25559579743E+03  0.47000000000E+01 0. -1.
         -5    1    4    4    0  502  0.50480472437E+02  0.24802639580E+01 -0.61952245166E+02  0.80091201064E+02  0.47000000000E+01 0. -1.
        -11    1    3    3    0    0 -0.36571301170E+02  0.14115869087E+02 -0.87753226271E+02  0.96111115644E+02  0.00000000000E+00 0.  1.
         11    1    3    3    0    0  0.40741037551E+02 -0.36254512092E+02 -0.17042061898E+03  0.17893409167E+03  0.00000000000E+00 0. -1.
<mgrwt>
<rscale>  0 0.11792206E+03</rscale>
<asrwt>0</asrwt>
<pdfrwt beam="2">  1        2 0.90747982E-01 0.12679947E+03</pdfrwt>
<pdfrwt beam="1">  1       -2 0.32108185E-02 0.12679947E+03</pdfrwt>
<totfact> 0.18496482E+04</totfact>
</mgrwt>
</event>
<event>
 7    1  0.1224355E-005  0.1405093E+03  0.7546771E-02  0.1229418E+00
          1   -1    0    0  501    0  0.00000000000E+00  0.00000000000E+00  0.72068709785E+02  0.72068709785E+02  0.00000000000E+00 0. -1.
         -1   -1    0    0    0  501 -0.00000000000E+00 -0.00000000000E+00 -0.22401842044E+03  0.22401842044E+03  0.00000000000E+00 0.  1.
         23    2    1    2    0    0 -0.75136923388E+01  0.40618390393E+02 -0.11328571697E+03  0.15035530286E+03  0.89815111304E+02 0.  0.
          5    1    1    2  502    0 -0.34523226154E+02  0.31839277160E+02  0.10686971936E+02  0.48393120206E+02  0.47000000000E+01 0. -1.
         -5    1    1    2    0  502  0.42036918493E+02 -0.72457667553E+02 -0.49350965627E+02  0.97338707161E+02  0.47000000000E+01 0.  1.
        -11    1    3    3    0    0 -0.41796653933E+02  0.40745548475E+02 -0.44154118984E+02  0.73189795899E+02  0.00000000000E+00 0. -1.
         11    1    3    3    0    0  0.34282961594E+02 -0.12715808201E+00 -0.69131597982E+02  0.77165506960E+02  0.00000000000E+00 0.  1.
<mgrwt>
<rscale>  0 0.12868639E+03</rscale>
<asrwt>0</asrwt>
<pdfrwt beam="1">  1        1 0.11087494E-01 0.14050929E+03</pdfrwt>
<pdfrwt beam="2">  1       -1 0.34464371E-01 0.14050929E+03</pdfrwt>
<totfact> 0.43004772E+03</totfact>
</mgrwt>
</event>
<event>
 8    1  0.1224355E-005  0.1411364E+03  0.7546771E-02  0.1224683E+00
         -2   -1    0    0    0  501 -0.00000000000E+00  0.00000000000E+00  0.13548242829E+03  0.13548242829E+03  0.00000000000E+00 0.  1.
          2   -1    0    0  501    0  0.00000000000E+00 -0.00000000000E+00 -0.12083932659E+03  0.12083932659E+03  0.00000000000E+00 0. -1.
         23    2    1    2    0    0 -0.95363653267E+01 -0.64841193477E+02  0.36210275242E+02  0.11354698760E+03  0.85360481050E+02 0.  0.
         23    2    1    2    0    0  0.95363653267E+01  0.64841193477E+02 -0.21567173543E+02  0.14277476728E+03  0.12499667421E+03 0.  0.
          5    1    4    4  502    0 -0.54458288481E+02  0.25068108683E+02 -0.29286782621E+02  0.66887374694E+02  0.47000000000E+01 0. -1.
         -5    1    4    4    0  502  0.63994653807E+02  0.39773084793E+02  0.77196090783E+01  0.75887392591E+02  0.47000000000E+01 0. -1.
        -11    1    3    3    0    0  0.57794701618E+01 -0.63426467198E+02  0.58491169537E+02  0.86472746749E+02  0.00000000000E+00 0.  1.
         11    1    3    3    0    0 -0.15315835488E+02 -0.14147262784E+01 -0.22280894295E+02  0.27074240852E+02  0.00000000000E+00 0. -1.
<mgrwt>
<rscale>  0 0.13188671E+03</rscale>
<asrwt>0</asrwt>
<pdfrwt beam="2">  1        2 0.18590666E-01 0.14113643E+03</pdfrwt>
<pdfrwt beam="1">  1       -2 0.20843450E-01 0.14113643E+03</pdfrwt>
<totfact> 0.56424972E+03</totfact>
</mgrwt>
</event>
<event>
 8    1  0.1224355E-005  0.1286877E+03  0.7546771E-02  0.1243193E+00
         -2   -1    0    0    0  501 -0.00000000000E+00  0.00000000000E+00  0.19579319803E+02  0.19579319803E+02  0.00000000000E+00 0.  1.
          2   -1    0    0  501    0  0.00000000000E+00 -0.00000000000E+00 -0.70419601837E+03  0.70419601837E+03  0.00000000000E+00 0. -1.
         23    2    1    2    0    0 -0.28793475141E+02  0.10201235853E+02 -0.19950920740E+03  0.22188910326E+03  0.92183083517E+02 0.  0.
         23    2    1    2    0    0  0.28793475141E+02 -0.10201235853E+02 -0.48510749117E+03  0.50188623491E+03  0.12500954115E+03 0.  0.
          5    1    4    4  502    0 -0.42020571591E+02  0.12029883392E+02 -0.28568757399E+03  0.28905004145E+03  0.47000000000E+01 0. -1.
         -5    1    4    4    0  502  0.70814046733E+02 -0.22231119245E+02 -0.19941991718E+03  0.21283619346E+03  0.47000000000E+01 0. -1.
        -11    1    3    3    0    0 -0.58483434366E+02 -0.94133514178E+01 -0.10023511460E+03  0.11643024298E+03  0.00000000000E+00 0.  1.
         11    1    3    3    0    0  0.29689959225E+02  0.19614587271E+02 -0.99274092797E+02  0.10545886029E+03  0.00000000000E+00 0. -1.
<mgrwt>
<rscale>  0 0.11994207E+03</rscale>
<asrwt>0</asrwt>
<pdfrwt beam="2">  1        2 0.10833785E+00 0.12868766E+03</pdfrwt>
<pdfrwt beam="1">  1       -2 0.30122029E-02 0.12868766E+03</pdfrwt>
<totfact> 0.16570984E+04</totfact>
</mgrwt>
</event>
<event>
 8    1  0.1224355E-005  0.1413602E+03  0.7546771E-02  0.1221594E+00
         -1   -1    0    0    0  501 -0.00000000000E+00  0.00000000000E+00  0.18844694166E+02  0.18844694166E+02  0.00000000000E+00 0.  1.
          1   -1    0    0  501    0  0.00000000000E+00 -0.00000000000E+00 -0.11213656796E+04  0.11213656796E+04  0.00000000000E+00 0. -1.
         23    2    1    2    0    0 -0.10774254456E+02 -0.65111718649E+02 -0.23559025080E+03  0.26183026357E+03  0.93256100006E+02 0.  0.
         23    2    1    2    0    0  0.10774254456E+02  0.65111718649E+02 -0.86693073465E+03  0.87838011020E+03  0.12500839515E+03 0.  0.
          5    1    4    4  502    0  0.37399672381E+02  0.89490010386E+02 -0.47891208503E+03  0.48865741848E+03  0.47000000000E+01 0. -1.
         -5    1    4    4    0  502 -0.26625417925E+02 -0.24378291738E+02 -0.38801864962E+03  0.38972269172E+03  0.47000000000E+01 0. -1.
        -11    1    3    3    0    0  0.17317419467E+02 -0.40987419362E+02 -0.31769429204E+02  0.54673194483E+02  0.00000000000E+00 0.  1.
         11    1    3    3    0    0 -0.28091673923E+02 -0.24124299286E+02 -0.20382082159E+03  0.20715706909E+03  0.00000000000E+00 0. -1.
<mgrwt>
<rscale>  0 0.13403136E+03</rscale>
<asrwt>0</asrwt>
<pdfrwt beam="2">  1        1 0.17251785E+00 0.14136025E+03</pdfrwt>
<pdfrwt beam="1">  1       -1 0.28991828E-02 0.14136025E+03</pdfrwt>
<totfact> 0.50612012E+03</totfact>
</mgrwt>
</event>
<event>
 8    1  0.1224355E-005  0.1472434E+03  0.7546771E-02  0.1212785E+00
         -2   -1    0    0    0  501 -0.00000000000E+00  0.00000000000E+00  0.24199451218E+02  0.24199451218E+02  0.00000000000E+00 0.  1.
          2   -1    0    0  501    0  0.00000000000E+00 -0.00000000000E+00 -0.11468011743E+04  0.11468011743E+04  0.00000000000E+00 0. -1.
         23    2    1    2    0    0  0.61422943616E+02 -0.47833074257E+02 -0.18211231421E+03  0.21905475656E+03  0.93591187552E+02 0.  0.
         23    2    1    2    0    0 -0.61422943616E+02  0.47833074257E+02 -0.94048940883E+03  0.95194586892E+03  0.12497931124E+03 0.  0.
          5    1    4    4  502    0 -0.38880023372E+02  0.90385444036E+02 -0.66096835801E+03  0.66826824330E+03  0.47000000000E+01 0.  1.
         -5    1    4    4    0  502 -0.22542920244E+02 -0.42552369778E+02 -0.27952105082E+03  0.28367762562E+03  0.47000000000E+01 0.  1.
        -11    1    3    3    0    0  0.51366088092E+02  0.64411468891E+01 -0.36529773855E+02  0.63359196309E+02  0.00000000000E+00 0.  1.
         11    1    3    3    0    0  0.10056855525E+02 -0.54274221147E+02 -0.14558254036E+03  0.15569556025E+03  0.00000000000E+00 0. -1.
<mgrwt>
<rscale>  0 0.14040519E+03</rscale>
<asrwt>0</asrwt>
<pdfrwt beam="2">  1        2 0.17643097E+00 0.14724337E+03</pdfrwt>
<pdfrwt beam="1">  1       -2 0.37229920E-02 0.14724337E+03</pdfrwt>
<totfact> 0.64259183E+03</totfact>
</mgrwt>
</event>
<event>
 8    1  0.1224355E-005  0.1317313E+03  0.7546771E-02  0.1238314E+00
          1   -1    0    0  501    0  0.00000000000E+00  0.00000000000E+00  0.26699182088E+03  0.26699182088E+03  0.00000000000E+00 0. -1.
         -1   -1    0    0    0  501 -0.00000000000E+00 -0.00000000000E+00 -0.50266415005E+02  0.50266415005E+02  0.00000000000E+00 0.  1.
         23    2    1    2    0    0 -0.30584365108E+02  0.28150785174E+02  0.91927390930E+02  0.13579839001E+03  0.90899325797E+02 0.  0.
         23    2    1    2    0    0  0.30584365108E+02 -0.28150785174E+02  0.12479801495E+03  0.18145984588E+03  0.12500104414E+03 0.  0.
          5    1    4    4  502    0  0.13503529505E+02  0.17371365979E+01 -0.24365054603E+02  0.28303866140E+02  0.47000000000E+01 0.  1.
         -5    1    4    4    0  502  0.17080835603E+02 -0.29887921772E+02  0.14916306955E+03  0.15315597974E+03  0.47000000000E+01 0.  1.
        -11    1    3    3    0    0 -0.47814023032E+02  0.41381162848E+02  0.29649156811E+02  0.69840202869E+02  0.00000000000E+00 0.  1.
         11    1    3    3    0    0  0.17229657924E+02 -0.13230377674E+02  0.62278234119E+02  0.65958187138E+02  0.00000000000E+00 0. -1.
<mgrwt>
<rscale>  0 0.12294628E+03</rscale>
<asrwt>0</asrwt>
<pdfrwt beam="1">  1        1 0.41075664E-01 0.13173128E+03</pdfrwt>
<pdfrwt beam="2">  1       -1 0.77332947E-02 0.13173128E+03</pdfrwt>
<totfact> 0.87105540E+03</totfact>
</mgrwt>
</event>
<event>
 8    1  0.1224355E-005  0.1630752E+03  0.7546771E-02  0.1192446E+00
          2   -1    0    0  501    0  0.00000000000E+00  0.00000000000E+00  0.90849786796E+03  0.90849786796E+03  0.00000000000E+00 0.  1.
         -2   -1    0    0    0  501 -0.00000000000E+00 -0.00000000000E+00 -0.25520496874E+02  0.25520496874E+02  0.00000000000E+00 0. -1.
         23    2    1    2    0    0 -0.29670927374E+02 -0.10044048811E+03  0.34939207340E+03  0.37606963955E+03  0.91569084591E+02 0.  0.
         23    2    1    2    0    0  0.29670927374E+02  0.10044048811E+03  0.53358529769E+03  0.55794872529E+03  0.12499941822E+03 0.  0.
          5    1    4    4  502    0  0.10795380336E+02  0.36631036361E+02  0.44696709404E+03  0.44862015806E+03  0.47000000000E+01 0. -1.
         -5    1    4    4    0  502  0.18875547038E+02  0.63809451754E+02  0.86618203651E+02  0.10932856723E+03  0.47000000000E+01 0. -1.
        -11    1    3    3    0    0  0.10703278456E+02 -0.60910451894E+02  0.27916648401E+03  0.28593455390E+03  0.00000000000E+00 0.  1.
         11    1    3    3    0    0 -0.40374205830E+02 -0.39530036221E+02  0.70225589391E+02  0.90135085651E+02  0.00000000000E+00 0. -1.
<mgrwt>
<rscale>  0 0.15672416E+03</rscale>
<asrwt>0</asrwt>
<pdfrwt beam="1">  1        2 0.13976888E+00 0.16307517E+03</pdfrwt>
<pdfrwt beam="2">  1       -2 0.39262310E-02 0.16307517E+03</pdfrwt>
<totfact> 0.82661693E+03</totfact>
</mgrwt>
</event>
<event>
 8    1  0.1224355E-005  0.1577953E+03  0.7546771E-02  0.1199207E+00
         -2   -1    0    0    0  501 -0.00000000000E+00  0.00000000000E+00  0.48525265934E+02  0.48525265934E+02  0.00000000000E+00 0.  1.
          2   -1    0    0  501    0  0.00000000000E+00 -0.00000000000E+00 -0.44691282819E+03  0.44691282819E+03  0.00000000000E+00 0. -1.
         23    2    1    2    0    0  0.87441693435E+02  0.40270360309E+02 -0.14032883610E+03  0.19295888244E+03  0.90957112981E+02 0.  0.
         23    2    1    2    0    0 -0.87441693435E+02 -0.40270360309E+02 -0.25805872616E+03  0.30247921168E+03  0.12502645994E+03 0.  0.
          5    1    4    4  502    0 -0.43471046069E+02  0.25229140848E+02 -0.19484473126E+03  0.20127791904E+03  0.47000000000E+01 0. -1.
         -5    1    4    4    0  502 -0.43970647367E+02 -0.65499501157E+02 -0.63213994902E+02  0.10120129265E+03  0.47000000000E+01 0. -1.
        -11    1    3    3    0    0  0.71712240337E+02 -0.38021331738E+01 -0.39876442189E+02  0.82141538046E+02  0.00000000000E+00 0.  1.
         11    1    3    3    0    0  0.15729453098E+02  0.44072493483E+02 -0.10045239391E+03  0.11081734440E+03  0.00000000000E+00 0. -1.
<mgrwt>
<rscale>  0 0.15103488E+03</rscale>
<asrwt>0</asrwt>
<pdfrwt beam="2">  1        2 0.68755822E-01 0.15779533E+03</pdfrwt>
<pdfrwt beam="1">  1       -2 0.74654253E-02 0.15779533E+03</pdfrwt>
<totfact> 0.71831661E+03</totfact>
</mgrwt>
</event>
<event>
 7    1  0.1224355E-005  0.2120279E+03  0.7546771E-02  0.1147384E+00
          2   -1    0    0  501    0  0.00000000000E+00  0.00000000000E+00  0.62489752569E+03  0.62489752569E+03  0.00000000000E+00 0. -1.
         -2   -1    0    0    0  501 -0.00000000000E+00 -0.00000000000E+00 -0.98136803538E+02  0.98136803538E+02  0.00000000000E+00 0.  1.
         23    2    1    2    0    0 -0.54217559597E+02 -0.14188535333E+03  0.26222371818E+02  0.17944028987E+03  0.91870602407E+02 0.  0.
          5    1    1    2  502    0  0.14390636603E+02  0.10410064867E+03  0.46784359461E+03  0.47952450875E+03  0.47000000000E+01 0. -1.
         -5    1    1    2    0  502  0.39826922994E+02  0.37784704652E+02  0.32694755729E+02  0.64069530613E+02  0.47000000000E+01 0.  1.
        -11    1    3    3    0    0  0.18079267562E+02 -0.79107533177E+02  0.45834362639E+01  0.81276500964E+02  0.00000000000E+00 0. -1.
         11    1    3    3    0    0 -0.72296827159E+02 -0.62777820149E+02  0.21638935554E+02  0.98163788903E+02  0.00000000000E+00 0.  1.
<mgrwt>
<rscale>  0 0.20281633E+03</rscale>
<asrwt>0</asrwt>
<pdfrwt beam="1">  1        2 0.96138078E-01 0.21202792E+03</pdfrwt>
<pdfrwt beam="2">  1       -2 0.15097970E-01 0.21202792E+03</pdfrwt>
<totfact> 0.16228314E+03</totfact>
</mgrwt>
</event>
<event>
 8    1  0.1224355E-005  0.1942534E+03  0.7546771E-02  0.1159490E+00
          1   -1    0    0  501    0  0.00000000000E+00  0.00000000000E+00  0.16466864842E+03  0.16466864842E+03  0.00000000000E+00 0. -1.
         -1   -1    0    0    0  501 -0.00000000000E+00 -0.00000000000E+00 -0.20616545707E+03  0.20616545707E+03  0.00000000000E+00 0.  1.
         23    2    1    2    0    0  0.14255151103E+01 -0.14870080609E+03 -0.30801415875E+02  0.17628645691E+03  0.89522208677E+02 0.  0.
         23    2    1    2    0    0 -0.14255151103E+01  0.14870080609E+03 -0.10695392777E+02  0.19454764858E+03  0.12498173593E+03 0.  0.
          5    1    4    4  502    0  0.24772814527E+02  0.70738825104E+02 -0.62097061990E+02  0.97446440799E+02  0.47000000000E+01 0.  1.
         -5    1    4    4    0  502 -0.26198329637E+02  0.77961980986E+02  0.51401669213E+02  0.97101207783E+02  0.47000000000E+01 0.  1.
        -11    1    3    3    0    0  0.32346947247E+02 -0.40254865387E+02  0.16189830030E+02  0.54119218213E+02  0.00000000000E+00 0. -1.
         11    1    3    3    0    0 -0.30921432137E+02 -0.10844594070E+03 -0.46991245905E+02  0.12216723870E+03  0.00000000000E+00 0.  1.
<mgrwt>
<rscale>  0 0.18886355E+03</rscale>
<asrwt>0</asrwt>
<pdfrwt beam="1">  1        1 0.25333638E-01 0.19425343E+03</pdfrwt>
<pdfrwt beam="2">  1       -1 0.31717762E-01 0.19425343E+03</pdfrwt>
<totfact> 0.17277429E+03</totfact>
</mgrwt>
</event>
<event>
 8    1  0.1224355E-005  0.1407399E+03  0.7546771E-02  0.1227972E+00
         -2   -1    0    0    0  501 -0.00000000000E+00  0.00000000000E+00  0.62653546154E+02  0.62653546154E+02  0.00000000000E+00 0. -1.
          2   -1    0    0  501    0  0.00000000000E+00 -0.00000000000E+00 -0.23461071648E+03  0.23461071648E+03  0.00000000000E+00 0.  1.
         23    2    1    2    0    0 -0.37586689387E+02 -0.52629730976E+02 -0.80233113453E+02  0.12927314538E+03  0.78048355660E+02 0.  0.
         23    2    1    2    0    0  0.37586689387E+02  0.52629730976E+02 -0.91724056872E+02  0.16799111725E+03  0.12500026026E+03 0.  0.
          5    1    4    4  502    0 -0.10043759693E+02  0.55611591343E+01 -0.99629614844E+02  0.10039897287E+03  0.47000000000E+01 0.  1.
         -5    1    4    4    0  502  0.47630449080E+02  0.47068571842E+02  0.79055579718E+01  0.67592144378E+02  0.47000000000E+01 0.  1.
        -11    1    3    3    0    0 -0.35340089873E+02 -0.49066288520E+01  0.24760484712E+00  0.35679942084E+02  0.00000000000E+00 0. -1.
         11    1    3    3    0    0 -0.22465995134E+01 -0.47723102124E+02 -0.80480718300E+02  0.93593203300E+02  0.00000000000E+00 0.  1.
<mgrwt>
<rscale>  0 0.12965263E+03</rscale>
<asrwt>0</asrwt>
<pdfrwt beam="2">  1        2 0.36093957E-01 0.14073988E+03</pdfrwt>
<pdfrwt beam="1">  1       -2 0.96390070E-02 0.14073988E+03</pdfrwt>
<totfact> 0.95361018E+03</totfact>
</mgrwt>
</event>
<event>
 8    1  0.1224355E-005  0.1418019E+03  0.7546771E-02  0.1221878E+00
         -1   -1    0    0    0  501 -0.00000000000E+00  0.00000000000E+00  0.13844779834E+03  0.13844779834E+03  0.00000000000E+00 0.  1.
          1   -1    0    0  501    0  0.00000000000E+00 -0.00000000000E+00 -0.24916572758E+03  0.24916572758E+03  0.00000000000E+00 0. -1.
         23    2    1    2    0    0  0.44641218715E+02 -0.50005889453E+02  0.88455201020E+02  0.14311873940E+03  0.90361626771E+02 0.  0.
         23    2    1    2    0    0 -0.44641218715E+02  0.50005889453E+02 -0.19917313026E+03  0.24449478652E+03  0.12495734244E+03 0.  0.
          5    1    4    4  502    0 -0.18709043303E+02  0.57247113494E+02 -0.20734656044E+03  0.21596746614E+03  0.47000000000E+01 0. -1.
         -5    1    4    4    0  502 -0.25932175412E+02 -0.72412240411E+01  0.81734301787E+01  0.28527320381E+02  0.47000000000E+01 0. -1.
        -11    1    3    3    0    0  0.64430361027E+02 -0.61725353577E+02  0.66076206760E+02  0.11102862602E+03  0.00000000000E+00 0.  1.
         11    1    3    3    0    0 -0.19789142312E+02  0.11719464124E+02  0.22378994260E+02  0.32090113382E+02  0.00000000000E+00 0. -1.
<mgrwt>
<rscale>  0 0.13383196E+03</rscale>
<asrwt>0</asrwt>
<pdfrwt beam="2">  1        1 0.38333189E-01 0.14180185E+03</pdfrwt>
<pdfrwt beam="1">  1       -1 0.21299661E-01 0.14180185E+03</pdfrwt>
<totfact> 0.19734748E+03</totfact>
</mgrwt>
</event>
<event>
 7    1  0.1224355E-005  0.1523981E+03  0.7546771E-02  0.1218945E+00
          1   -1    0    0  501    0  0.00000000000E+00  0.00000000000E+00  0.43825390416E+03  0.43825390416E+03  0.00000000000E+00 0. -1.
         -1   -1    0    0    0  501 -0.00000000000E+00 -0.00000000000E+00 -0.35350897053E+02  0.35350897053E+02  0.00000000000E+00 0.  1.
         23    2    1    2    0    0 -0.17137348104E+02  0.24084464188E+02  0.14809750986E+03  0.17670243010E+03  0.91744897748E+02 0.  0.
          5    1    1    2  502    0 -0.40578897275E+02  0.27023836564E+02  0.18959527944E+03  0.19581980143E+03  0.47000000000E+01 0. -1.
         -5    1    1    2    0  502  0.57716245379E+02 -0.51108300752E+02  0.65210217810E+02  0.10108256968E+03  0.47000000000E+01 0.  1.
        -11    1    3    3    0    0 -0.34703204862E+02  0.51433042597E+02  0.11266239584E+03  0.12861759497E+03  0.00000000000E+00 0. -1.
         11    1    3    3    0    0  0.17565856758E+02 -0.27348578409E+02  0.35435114018E+02  0.48084835136E+02  0.00000000000E+00 0.  1.
<mgrwt>
<rscale>  0 0.13590697E+03</rscale>
<asrwt>0</asrwt>
<pdfrwt beam="1">  1        1 0.67423674E-01 0.15239809E+03</pdfrwt>
<pdfrwt beam="2">  1       -1 0.54385999E-02 0.15239809E+03</pdfrwt>
<totfact> 0.80166518E+03</totfact>
</mgrwt>
</event>
<event>
 8    1  0.1224355E-005  0.2159797E+03  0.7546771E-02  0.1140422E+00
          1   -1    0    0  501    0  0.00000000000E+00  0.00000000000E+00  0.13062430630E+04  0.13062430630E+04  0.00000000000E+00 0. -1.
         -1   -1    0    0    0  501 -0.00000000000E+00 -0.00000000000E+00 -0.38304458248E+02  0.38304458248E+02  0.00000000000E+00 0.  1.
         23    2    1    2    0    0 -0.16546761395E+03 -0.60367896803E+02  0.35784490001E+03  0.40917711288E+03  0.91373535596E+02 0.  0.
         23    2    1    2    0    0  0.16546761395E+03  0.60367896803E+02  0.91009370477E+03  0.93537040840E+03  0.12499374071E+03 0.  0.
          5    1    4    4  502    0  0.18179432064E+03  0.59930187691E+02  0.88192838708E+03  0.90247469346E+03  0.47000000000E+01 0.  1.
         -5    1    4    4    0  502 -0.16326706682E+02  0.43770911240E+00  0.28165317695E+02  0.32895714936E+02  0.47000000000E+01 0.  1.
        -11    1    3    3    0    0 -0.48027000563E+02 -0.14113030223E+02  0.20464195406E+03  0.21067534210E+03  0.00000000000E+00 0. -1.
         11    1    3    3    0    0 -0.11744061339E+03 -0.46254866580E+02  0.15320294595E+03  0.19850177078E+03  0.00000000000E+00 0.  1.
<mgrwt>
<rscale>  0 0.21145088E+03</rscale>
<asrwt>0</asrwt>
<pdfrwt beam="1">  1        1 0.20096044E+00 0.21597974E+03</pdfrwt>
<pdfrwt beam="2">  1       -1 0.58929946E-02 0.21597974E+03</pdfrwt>
<totfact> 0.13297002E+03</totfact>
</mgrwt>
</event>
<event>
 8    1  0.1224355E-005  0.1596975E+03  0.7546771E-02  0.1196717E+00
         -2   -1    0    0    0  501 -0.00000000000E+00  0.00000000000E+00  0.58193113279E+02  0.58193113279E+02  0.00000000000E+00 0.  1.
          2   -1    0    0  501    0  0.00000000000E+00 -0.00000000000E+00 -0.38250110769E+03  0.38250110769E+03  0.00000000000E+00 0. -1.
         23    2    1    2    0    0 -0.84365147238E+02  0.52551617026E+02 -0.11392099383E+03  0.17656174332E+03  0.91197071500E+02 0.  0.
         23    2    1    2    0    0  0.84365147238E+02 -0.52551617026E+02 -0.21038700058E+03  0.26413247764E+03  0.12499650080E+03 0.  0.
          5    1    4    4  502    0  0.48569528308E+02 -0.22432572785E+02 -0.55763565810E+01  0.53994491891E+02  0.47000000000E+01 0. -1.
         -5    1    4    4    0  502  0.35795618929E+02 -0.30119044242E+02 -0.20481064400E+03  0.21013798575E+03  0.47000000000E+01 0. -1.
        -11    1    3    3    0    0 -0.96172491174E+02  0.66203268300E+02 -0.10077609861E+03  0.15423307960E+03  0.00000000000E+00 0.  1.
         11    1    3    3    0    0  0.11807343936E+02 -0.13651651274E+02 -0.13144895214E+02  0.22328663720E+02  0.00000000000E+00 0. -1.
<mgrwt>
<rscale>  0 0.15309840E+03</rscale>
<asrwt>0</asrwt>
<pdfrwt beam="2">  1        2 0.58846326E-01 0.15969745E+03</pdfrwt>
<pdfrwt beam="1">  1       -2 0.89527864E-02 0.15969745E+03</pdfrwt>
<totfact> 0.64119760E+03</totfact>
</mgrwt>
</event>
<event>
 8    1  0.1224355E-005  0.1282605E+03  0.7546771E-02  0.1242002E+00
          2   -1    0    0  501    0  0.00000000000E+00  0.00000000000E+00  0.56839959503E+03  0.56839959503E+03  0.00000000000E+00 0. -1.
         -2   -1    0    0    0  501 -0.00000000000E+00 -0.00000000000E+00 -0.53985326981E+02  0.53985326981E+02  0.00000000000E+00 0.  1.
         23    2    1    2    0    0 -0.28036102443E+02 -0.63828816226E+01  0.89190271842E+01  0.10087155939E+03  0.96274390313E+02 0.  0.
         23    2    1    2    0    0  0.28036102443E+02  0.63828816226E+01  0.50549524086E+03  0.52151336262E+03  0.12499593848E+03 0.  0.
          5    1    4    4  502    0  0.51764705590E+02  0.42017690642E+02  0.16079289589E+03  0.17413074525E+03  0.47000000000E+01 0.  1.
         -5    1    4    4    0  502 -0.23728603148E+02 -0.35634809019E+02  0.34470234497E+03  0.34738261737E+03  0.47000000000E+01 0.  1.
        -11    1    3    3    0    0  0.16682305430E+02  0.13044419249E+02  0.38430991189E+02  0.43879349036E+02  0.00000000000E+00 0. -1.
         11    1    3    3    0    0 -0.44718407872E+02 -0.19427300872E+02 -0.29511964005E+02  0.56992210356E+02  0.00000000000E+00 0.  1.
<mgrwt>
<rscale>  0 0.12066623E+03</rscale>
<asrwt>0</asrwt>
<pdfrwt beam="1">  1        2 0.87446088E-01 0.12826047E+03</pdfrwt>
<pdfrwt beam="2">  1       -2 0.83054353E-02 0.12826047E+03</pdfrwt>
<totfact> 0.46220928E+03</totfact>
</mgrwt>
</event>
<event>
 8    1  0.1224355E-005  0.1157773E+03  0.7546771E-02  0.1258886E+00
          1   -1    0    0  501    0  0.00000000000E+00  0.00000000000E+00  0.23804872990E+04  0.23804872990E+04  0.00000000000E+00 0. -1.
         -1   -1    0    0    0  501 -0.00000000000E+00 -0.00000000000E+00 -0.12829168794E+02  0.12829168794E+02  0.00000000000E+00 0.  1.
         23    2    1    2    0    0 -0.31276272788E+02 -0.82557258554E+00  0.19938490513E+03  0.22195441696E+03  0.92360900853E+02 0.  0.
         23    2    1    2    0    0  0.31276272788E+02  0.82557258554E+00  0.21682732251E+04  0.21713620508E+04  0.11146968376E+03 0.  0.
          5    1    4    4  502    0  0.66067551500E+02 -0.13341791612E+02  0.17711859354E+04  0.17724741556E+04  0.47000000000E+01 0. -1.
         -5    1    4    4    0  502 -0.34791278712E+02  0.14167364197E+02  0.39708728974E+03  0.39888789522E+03  0.47000000000E+01 0.  1.
        -11    1    3    3    0    0  0.16000226853E+02 -0.32796050894E+02  0.48930380809E+02  0.61039088949E+02  0.00000000000E+00 0. -1.
         11    1    3    3    0    0 -0.47276499641E+02  0.31970478308E+02  0.15045452432E+03  0.16091532801E+03  0.00000000000E+00 0.  1.
<mgrwt>
<rscale>  0 0.11091410E+03</rscale>
<asrwt>0</asrwt>
<pdfrwt beam="1">  1        1 0.36622846E+00 0.11577727E+03</pdfrwt>
<pdfrwt beam="2">  1       -1 0.19737202E-02 0.11577727E+03</pdfrwt>
<totfact> 0.13496093E+03</totfact>
</mgrwt>
</event>
<event>
 8    1  0.1224355E-005  0.1477288E+03  0.7546771E-02  0.1210871E+00
          2   -1    0    0  501    0  0.00000000000E+00  0.00000000000E+00  0.11366235316E+04  0.11366235316E+04  0.00000000000E+00 0. -1.
         -2   -1    0    0    0  501 -0.00000000000E+00 -0.00000000000E+00 -0.20566004272E+02  0.20566004272E+02  0.00000000000E+00 0.  1.
         23    2    1    2    0    0  0.85963112568E+02 -0.16174669621E+02  0.26296823933E+03  0.29140369297E+03  0.90069643727E+02 0.  0.
         23    2    1    2    0    0 -0.85963112568E+02  0.16174669621E+02  0.85308928801E+03  0.86578584291E+03  0.11904837593E+03 0.  0.
          5    1    4    4  502    0  0.15639540490E+02  0.21587894224E+02  0.42036915464E+03  0.42123977563E+03  0.47000000000E+01 0. -1.
         -5    1    4    4    0  502 -0.10160265306E+03 -0.54132246030E+01  0.43272013337E+03  0.44454606728E+03  0.47000000000E+01 0.  1.
        -11    1    3    3    0    0  0.85547405551E+02  0.21230297542E+02  0.18572391205E+03  0.20557834428E+03  0.00000000000E+00 0. -1.
         11    1    3    3    0    0  0.41570701770E+00 -0.37404967163E+02  0.77244327278E+02  0.85825348688E+02  0.00000000000E+00 0.  1.
<mgrwt>
<rscale>  0 0.14184254E+03</rscale>
<asrwt>0</asrwt>
<pdfrwt beam="1">  1        2 0.17486511E+00 0.14772878E+03</pdfrwt>
<pdfrwt beam="2">  1       -2 0.31640016E-02 0.14772878E+03</pdfrwt>
<totfact> 0.82857159E+03</totfact>
</mgrwt>
</event>
<event>
 8    1  0.1224355E-005  0.2145664E+03  0.7546771E-02  0.1141454E+00
          2   -1    0    0  501    0  0.00000000000E+00  0.00000000000E+00  0.35820216619E+04  0.35820216619E+04  0.00000000000E+00 0. -1.
         -2   -1    0    0    0  501 -0.00000000000E+00 -0.00000000000E+00 -0.20136729230E+02  0.20136729230E+02  0.00000000000E+00 0.  1.
         23    2    1    2    0    0 -0.11851332262E+03  0.12793638718E+03  0.58218990685E+03  0.61474794494E+03  0.92503088370E+02 0.  0.
         23    2    1    2    0    0  0.11851332262E+03 -0.12793638718E+03  0.29796950258E+04  0.29874104462E+04  0.12500240133E+03 0.  0.
          5    1    4    4  502    0  0.12500495029E+03 -0.10067716019E+03  0.17409302860E+04  0.17483199017E+04  0.47000000000E+01 0.  1.
         -5    1    4    4    0  502 -0.64916276708E+01 -0.27259226995E+02  0.12387647398E+04  0.12390905444E+04  0.47000000000E+01 0.  1.
        -11    1    3    3    0    0 -0.12838994220E+02  0.73288442155E+01  0.48588391805E+01  0.15561492483E+02  0.00000000000E+00 0.  1.
         11    1    3    3    0    0 -0.10567432840E+03  0.12060754297E+03  0.57733106767E+03  0.59918645245E+03  0.00000000000E+00 0. -1.
<mgrwt>
<rscale>  0 0.21014181E+03</rscale>
<asrwt>0</asrwt>
<pdfrwt beam="1">  1        2 0.55107975E+00 0.21456637E+03</pdfrwt>
<pdfrwt beam="2">  1       -2 0.30979612E-02 0.21456637E+03</pdfrwt>
<totfact> 0.36763993E+02</totfact>
</mgrwt>
</event>
<event>
 8    1  0.1224355E-005  0.1409471E+03  0.7546771E-02  0.1222206E+00
          2   -1    0    0  501    0  0.00000000000E+00  0.00000000000E+00  0.13049580678E+04  0.13049580678E+04  0.00000000000E+00 0. -1.
         -2   -1    0    0    0  501 -0.00000000000E+00 -0.00000000000E+00 -0.51611889988E+02  0.51611889988E+02  0.00000000000E+00 0.  1.
         23    2    1    2    0    0  0.61483980511E+02  0.29251814948E+02  0.20408045063E+02  0.11560157231E+03  0.91166258451E+02 0.  0.
         23    2    1    2    0    0 -0.61483980511E+02 -0.29251814948E+02  0.12329381328E+04  0.12409683855E+04  0.12341047781E+03 0.  0.
          5    1    4    4  502    0  0.13412159681E+02 -0.50671970199E+02  0.74222272658E+03  0.74408615122E+03  0.47000000000E+01 0. -1.
         -5    1    4    4    0  502 -0.74896140192E+02  0.21420155250E+02  0.49071540622E+03  0.49688223430E+03  0.47000000000E+01 0.  1.
        -11    1    3    3    0    0  0.61678057973E+02 -0.12968520322E+02  0.33527413878E+02  0.71389444850E+02  0.00000000000E+00 0. -1.
         11    1    3    3    0    0 -0.19407746131E+00  0.42220335270E+02 -0.13119368815E+02  0.44212127460E+02  0.00000000000E+00 0.  1.
<mgrwt>
<rscale>  0 0.13360242E+03</rscale>
<asrwt>0</asrwt>
<pdfrwt beam="1">  1        2 0.20076275E+00 0.14094713E+03</pdfrwt>
<pdfrwt beam="2">  1       -2 0.79402917E-02 0.14094713E+03</pdfrwt>
<totfact> 0.16714319E+03</totfact>
</mgrwt>
</event>
<event>
 8    1  0.1224355E-005  0.1764084E+03  0.7546771E-02  0.1177557E+00
          4   -1    0    0  501    0  0.00000000000E+00  0.00000000000E+00  0.23216161829E+02  0.23216161829E+02  0.00000000000E+00 0. -1.
         -4   -1    0    0    0  501 -0.00000000000E+00 -0.00000000000E+00 -0.11978100648E+04  0.11978100648E+04  0.00000000000E+00 0.  1.
         23    2    1    2    0    0  0.38233640423E+02 -0.11845856267E+03 -0.64049474055E+03  0.65854792125E+03  0.89205434735E+02 0.  0.
         23    2    1    2    0    0 -0.38233640423E+02  0.11845856267E+03 -0.53409916246E+03  0.56247830541E+03  0.12500274554E+03 0.  0.
          5    1    4    4  502    0 -0.33959889768E+01  0.17392459411E+02 -0.34276509995E+03  0.34325505697E+03  0.47000000000E+01 0. -1.
         -5    1    4    4    0  502 -0.34837651446E+02  0.10106610325E+03 -0.19133406250E+03  0.21922324845E+03  0.47000000000E+01 0. -1.
        -11    1    3    3    0    0  0.40379395586E+02 -0.96124834499E+02 -0.61815568887E+03  0.62688670035E+03  0.00000000000E+00 0.  1.
         11    1    3    3    0    0 -0.21457551632E+01 -0.22333728167E+02 -0.22339051680E+02  0.31661220902E+02  0.00000000000E+00 0. -1.
<mgrwt>
<rscale>  0 0.17027921E+03</rscale>
<asrwt>0</asrwt>
<pdfrwt beam="1">  1        4 0.35717170E-02 0.17640841E+03</pdfrwt>
<pdfrwt beam="2">  1       -4 0.18427848E+00 0.17640841E+03</pdfrwt>
<totfact> 0.13138776E+02</totfact>
</mgrwt>
</event>
<event>
 8    1  0.1224355E-005  0.1266244E+03  0.7546771E-02  0.1246998E+00
         -3   -1    0    0    0  501 -0.00000000000E+00  0.00000000000E+00  0.27650024064E+02  0.27650024064E+02  0.00000000000E+00 0.  1.
          3   -1    0    0  501    0  0.00000000000E+00 -0.00000000000E+00 -0.53119535450E+03  0.53119535450E+03  0.00000000000E+00 0. -1.
         23    2    1    2    0    0 -0.20029806692E+02  0.26724110477E+01 -0.10763003068E+03  0.14317402366E+03  0.92229293659E+02 0.  0.
         23    2    1    2    0    0  0.20029806692E+02 -0.26724110477E+01 -0.39591529975E+03  0.41567135490E+03  0.12500166308E+03 0.  0.
          5    1    4    4  502    0  0.48595603570E+02 -0.49148583016E+02 -0.26176291850E+03  0.27077487218E+03  0.47000000000E+01 0.  1.
         -5    1    4    4    0  502 -0.28565796878E+02  0.46476171968E+02 -0.13415238125E+03  0.14489648272E+03  0.47000000000E+01 0.  1.
        -11    1    3    3    0    0 -0.43757649628E+02 -0.62630275615E+01 -0.10916302234E+03  0.11777318397E+03  0.00000000000E+00 0. -1.
         11    1    3    3    0    0  0.23727842936E+02  0.89354386092E+01  0.15329916587E+01  0.25400839690E+02  0.00000000000E+00 0.  1.
<mgrwt>
<rscale>  0 0.11766594E+03</rscale>
<asrwt>0</asrwt>
<pdfrwt beam="2">  1        3 0.81722356E-01 0.12662445E+03</pdfrwt>
<pdfrwt beam="1">  1       -3 0.42538502E-02 0.12662445E+03</pdfrwt>
<totfact> 0.95824080E+02</totfact>
</mgrwt>
</event>
<event>
 8    1  0.1224355E-005  0.1275342E+03  0.7546771E-02  0.1245254E+00
         -2   -1    0    0    0  501 -0.00000000000E+00  0.00000000000E+00  0.16644653390E+02  0.16644653390E+02  0.00000000000E+00 0.  1.
          2   -1    0    0  501    0  0.00000000000E+00 -0.00000000000E+00 -0.78794669999E+03  0.78794669999E+03  0.00000000000E+00 0. -1.
         23    2    1    2    0    0  0.22044159150E+02 -0.12334122948E+02 -0.24433404370E+03  0.26241035387E+03  0.92314643297E+02 0.  0.
         23    2    1    2    0    0 -0.22044159150E+02  0.12334122948E+02 -0.52696800290E+03  0.54218099951E+03  0.12500753819E+03 0.  0.
          5    1    4    4  502    0 -0.53015728136E+02 -0.28172907313E+01 -0.95939236741E+02  0.10974985970E+03  0.47000000000E+01 0.  1.
         -5    1    4    4    0  502  0.30971568987E+02  0.15151413679E+02 -0.43102876616E+03  0.43243113981E+03  0.47000000000E+01 0.  1.
        -11    1    3    3    0    0  0.16621274836E+02 -0.51833929299E+02 -0.11835114190E+03  0.13026901317E+03  0.00000000000E+00 0.  1.
         11    1    3    3    0    0  0.54228843132E+01  0.39499806351E+02 -0.12598290180E+03  0.13214134070E+03  0.00000000000E+00 0. -1.
<mgrwt>
<rscale>  0 0.11870178E+03</rscale>
<asrwt>0</asrwt>
<pdfrwt beam="2">  1        2 0.12122257E+00 0.12753415E+03</pdfrwt>
<pdfrwt beam="1">  1       -2 0.25607158E-02 0.12753415E+03</pdfrwt>
<totfact> 0.18334038E+04</totfact>
</mgrwt>
</event>
<event>
 8    1  0.1224355E-005  0.2078817E+03  0.7546771E-02  0.1147447E+00
         -1   -1    0    0    0  501 -0.00000000000E+00  0.00000000000E+00  0.38473223201E+02  0.38473223201E+02  0.00000000000E+00 0. -1.
          1   -1    0    0  501    0  0.00000000000E+00 -0.00000000000E+00 -0.10669234121E+04  0.10669234121E+04  0.00000000000E+00 0.  1.
         23    2    1    2    0    0  0.13167425245E+03  0.10124916661E+03 -0.37233338902E+03  0.41713502582E+03  0.88204164805E+02 0.  0.
         23    2    1    2    0    0 -0.13167425245E+03 -0.10124916661E+03 -0.65611679986E+03  0.68826160946E+03  0.12500114200E+03 0.  0.
          5    1    4    4  502    0 -0.10501072246E+03 -0.56487921790E+02 -0.59915519324E+03  0.61092321344E+03  0.47000000000E+01 0.  1.
         -5    1    4    4    0  502 -0.26663529992E+02 -0.44761244822E+02 -0.56961606623E+02  0.77338396018E+02  0.47000000000E+01 0.  1.
        -11    1    3    3    0    0  0.10932614976E+03  0.48727391403E+02 -0.31155707473E+03  0.33375796097E+03  0.00000000000E+00 0.  1.
         11    1    3    3    0    0  0.22348102696E+02  0.52521775208E+02 -0.60776314288E+02  0.83377064853E+02  0.00000000000E+00 0. -1.
<mgrwt>
<rscale>  0 0.20274060E+03</rscale>
<asrwt>0</asrwt>
<pdfrwt beam="2">  1        1 0.16414208E+00 0.20788167E+03</pdfrwt>
<pdfrwt beam="1">  1       -1 0.59189569E-02 0.20788167E+03</pdfrwt>
<totfact> 0.19416457E+03</totfact>
</mgrwt>
</event>
<event>
 8    1  0.1224355E-005  0.1359972E+03  0.7546771E-02  0.1229522E+00
         -1   -1    0    0    0  501 -0.00000000000E+00  0.00000000000E+00  0.26612304276E+02  0.26612304276E+02  0.00000000000E+00 0.  1.
          1   -1    0    0  501    0  0.00000000000E+00 -0.00000000000E+00 -0.57031169952E+03  0.57031169952E+03  0.00000000000E+00 0. -1.
         23    2    1    2    0    0 -0.52963779549E+02 -0.83422169222E+01 -0.27578546596E+03  0.29646916302E+03  0.94665658274E+02 0.  0.
         23    2    1    2    0    0  0.52963779549E+02  0.83422169222E+01 -0.26791392928E+03  0.30045484077E+03  0.12498193196E+03 0.  0.
          5    1    4    4  502    0 -0.36667845759E+02 -0.19621149082E+02 -0.88813448131E+02  0.98180644594E+02  0.47000000000E+01 0.  1.
         -5    1    4    4    0  502  0.89631625308E+02  0.27963366004E+02 -0.17910048114E+03  0.20227419618E+03  0.47000000000E+01 0.  1.
        -11    1    3    3    0    0 -0.17303210887E+02  0.38236293752E+02 -0.17399363922E+03  0.17898380306E+03  0.00000000000E+00 0. -1.
         11    1    3    3    0    0 -0.35660568662E+02 -0.46578510674E+02 -0.10179182674E+03  0.11748535996E+03  0.00000000000E+00 0.  1.
<mgrwt>
<rscale>  0 0.12861738E+03</rscale>
<asrwt>0</asrwt>
<pdfrwt beam="2">  1        1 0.87740259E-01 0.13599720E+03</pdfrwt>
<pdfrwt beam="1">  1       -1 0.40942008E-02 0.13599720E+03</pdfrwt>
<totfact> 0.85807915E+03</totfact>
</mgrwt>
</event>
<event>
 8    1  0.1224355E-005  0.1851970E+03  0.7546771E-02  0.1168054E+00
         -1   -1    0    0    0  501 -0.00000000000E+00  0.00000000000E+00  0.14457843820E+03  0.14457843820E+03  0.00000000000E+00 0.  1.
          1   -1    0    0  501    0  0.00000000000E+00 -0.00000000000E+00 -0.31181486212E+03  0.31181486212E+03  0.00000000000E+00 0. -1.
         23    2    1    2    0    0  0.12808161310E+03 -0.47642763894E+02  0.49210452017E+02  0.17152986992E+03  0.91247438974E+02 0.  0.
         23    2    1    2    0    0 -0.12808161310E+03  0.47642763894E+02 -0.21644687593E+03  0.28486343040E+03  0.12499276505E+03 0.  0.
          5    1    4    4  502    0 -0.61682438647E+02 -0.40847841376E+02 -0.95261616285E+02  0.12070681389E+03  0.47000000000E+01 0. -1.
         -5    1    4    4    0  502 -0.66399174456E+02  0.88490605270E+02 -0.12118525965E+03  0.16415661651E+03  0.47000000000E+01 0. -1.
        -11    1    3    3    0    0  0.10594209165E+03 -0.85231268821E+01  0.64172561162E+02  0.12415509688E+03  0.00000000000E+00 0.  1.
         11    1    3    3    0    0  0.22139521450E+02 -0.39119637012E+02 -0.14962109145E+02  0.47374773034E+02  0.00000000000E+00 0. -1.
<mgrwt>
<rscale>  0 0.17974117E+03</rscale>
<asrwt>0</asrwt>
<pdfrwt beam="2">  1        1 0.47971516E-01 0.18519699E+03</pdfrwt>
<pdfrwt beam="1">  1       -1 0.22242837E-01 0.18519699E+03</pdfrwt>
<totfact> 0.14016345E+03</totfact>
</mgrwt>
</event>
<event>
 8    1  0.1224355E-005  0.1462903E+03  0.7546771E-02  0.1214486E+00
         -3   -1    0    0    0  501 -0.00000000000E+00  0.00000000000E+00  0.40960336781E+02  0.40960336781E+02  0.00000000000E+00 0.  1.
          3   -1    0    0  501    0  0.00000000000E+00 -0.00000000000E+00 -0.51402293410E+03  0.51402293410E+03  0.00000000000E+00 0. -1.
         23    2    1    2    0    0 -0.75900212715E+02  0.41846317794E+01 -0.10625216268E+03  0.16007727577E+03  0.92503290273E+02 0.  0.
         23    2    1    2    0    0  0.75900212715E+02 -0.41846317794E+01 -0.36681043464E+03  0.39490599511E+03  0.12498998591E+03 0.  0.
          5    1    4    4  502    0  0.10037395747E+03  0.64241006110E+01 -0.18090973833E+03  0.20704256526E+03  0.47000000000E+01 0. -1.
         -5    1    4    4    0  502 -0.24473744758E+02 -0.10608732390E+02 -0.18590069631E+03  0.18786342984E+03  0.47000000000E+01 0. -1.
        -11    1    3    3    0    0  0.17367940719E+02 -0.14373498303E+02 -0.33336701409E+02  0.40243986869E+02  0.00000000000E+00 0.  1.
         11    1    3    3    0    0 -0.93268153434E+02  0.18558130082E+02 -0.72915461273E+02  0.11983328890E+03  0.00000000000E+00 0. -1.
<mgrwt>
<rscale>  0 0.13914325E+03</rscale>
<asrwt>0</asrwt>
<pdfrwt beam="2">  1        3 0.79080454E-01 0.14629029E+03</pdfrwt>
<pdfrwt beam="1">  1       -3 0.63015901E-02 0.14629029E+03</pdfrwt>
<totfact> 0.56417398E+02</totfact>
</mgrwt>
</event>
<event>
 8    1  0.1224355E-005  0.1298643E+03  0.7546771E-02  0.1243483E+00
         -2   -1    0    0    0  501 -0.00000000000E+00  0.00000000000E+00  0.26855407605E+03  0.26855407605E+03  0.00000000000E+00 0.  1.
          2   -1    0    0  501    0  0.00000000000E+00 -0.00000000000E+00 -0.53718597430E+02  0.53718597430E+02  0.00000000000E+00 0. -1.
         23    2    1    2    0    0 -0.19132564886E+02 -0.29564207428E+02  0.15033016962E+03  0.17727038122E+03  0.87094952549E+02 0.  0.
         23    2    1    2    0    0  0.19132564886E+02  0.29564207428E+02  0.64505308994E+02  0.14500229226E+03  0.12499852988E+03 0.  0.
          5    1    4    4  502    0 -0.17358283589E+02  0.62330660050E+02  0.69988808377E+02  0.95430312215E+02  0.47000000000E+01 0. -1.
         -5    1    4    4    0  502  0.36490848474E+02 -0.32766452622E+02 -0.54834993824E+01  0.49571980042E+02  0.47000000000E+01 0. -1.
        -11    1    3    3    0    0  0.21161761976E+02  0.18357124555E+02  0.70176224445E+02  0.75561277578E+02  0.00000000000E+00 0.  1.
         11    1    3    3    0    0 -0.40294326862E+02 -0.47921331983E+02  0.80153945177E+02  0.10170910364E+03  0.00000000000E+00 0. -1.
<mgrwt>
<rscale>  0 0.11976653E+03</rscale>
<asrwt>0</asrwt>
<pdfrwt beam="2">  1        2 0.82643998E-02 0.12986427E+03</pdfrwt>
<pdfrwt beam="1">  1       -2 0.41316011E-01 0.12986427E+03</pdfrwt>
<totfact> 0.43354454E+03</totfact>
</mgrwt>
</event>
<event>
 7    1  0.1224355E-005  0.1434895E+03  0.7546771E-02  0.1234180E+00
         -2   -1    0    0    0  501 -0.00000000000E+00  0.00000000000E+00  0.50408117486E+02  0.50408117486E+02  0.00000000000E+00 0.  1.
          2   -1    0    0  501    0  0.00000000000E+00 -0.00000000000E+00 -0.25790651130E+03  0.25790651130E+03  0.00000000000E+00 0. -1.
         23    2    1    2    0    0 -0.59219648216E+02 -0.38183860665E+02 -0.13943222145E+03  0.20007645259E+03  0.12499707417E+03 0.  0.
          5    1    3    3  502    0 -0.64783935733E+02 -0.29250671303E+02 -0.16075832694E+03  0.17583483666E+03  0.47000000000E+01 0. -1.
         -5    1    3    3    0  502  0.55642875168E+01 -0.89331893620E+01  0.21326105490E+02  0.24241615935E+02  0.47000000000E+01 0. -1.
        -11    1    1    2    0    0  0.93997949469E+01  0.12436428680E+02  0.47805222688E+01  0.16305652288E+02  0.00000000000E+00 0.  1.
         11    1    1    2    0    0  0.49819853269E+02  0.25747431984E+02 -0.72846694635E+02  0.91932523912E+02  0.00000000000E+00 0. -1.
<mgrwt>
<rscale>  0 0.12557074E+03</rscale>
<asrwt>0</asrwt>
<pdfrwt beam="2">  1        2 0.39677924E-01 0.14348952E+03</pdfrwt>
<pdfrwt beam="1">  1       -2 0.77550951E-02 0.14348952E+03</pdfrwt>
<totfact> 0.12104937E+04</totfact>
</mgrwt>
</event>
<event>
 8    1  0.1224355E-005  0.1222176E+03  0.7546771E-02  0.1258220E+00
          1   -1    0    0  501    0  0.00000000000E+00  0.00000000000E+00  0.48414676519E+03  0.48414676519E+03  0.00000000000E+00 0. -1.
         -1   -1    0    0    0  501 -0.00000000000E+00 -0.00000000000E+00 -0.26411128581E+02  0.26411128581E+02  0.00000000000E+00 0.  1.
         23    2    1    2    0    0 -0.10817463737E+02  0.26518691979E+02  0.90282041536E+02  0.12331213651E+03  0.78960606889E+02 0.  0.
         23    2    1    2    0    0  0.10817463737E+02 -0.26518691979E+02  0.36745359507E+03  0.38724575726E+03  0.11881444963E+03 0.  0.
          5    1    4    4  502    0 -0.28080813548E+02 -0.35048798582E+02  0.32764558591E+03  0.33074260436E+03  0.47000000000E+01 0. -1.
         -5    1    4    4    0  502  0.38898277285E+02  0.85301066034E+01  0.39808009158E+02  0.56503152899E+02  0.47000000000E+01 0.  1.
        -11    1    3    3    0    0  0.33818007967E+02  0.95861934262E+01  0.28610650851E+02  0.45322423913E+02  0.00000000000E+00 0. -1.
         11    1    3    3    0    0 -0.44635471704E+02  0.16932498553E+02  0.61671390685E+02  0.77989712594E+02  0.00000000000E+00 0.  1.
<mgrwt>
<rscale>  0 0.11127885E+03</rscale>
<asrwt>0</asrwt>
<pdfrwt beam="1">  1        1 0.74484111E-01 0.12221756E+03</pdfrwt>
<pdfrwt beam="2">  1       -1 0.40632509E-02 0.12221756E+03</pdfrwt>
<totfact> 0.10683505E+04</totfact>
</mgrwt>
</event>
<event>
 8    1  0.1224355E-005  0.1463606E+03  0.7546771E-02  0.1214232E+00
         -1   -1    0    0    0  501 -0.00000000000E+00  0.00000000000E+00  0.53165431809E+02  0.53165431809E+02  0.00000000000E+00 0.  1.
          1   -1    0    0  501    0  0.00000000000E+00 -0.00000000000E+00 -0.37925489273E+03  0.37925489273E+03  0.00000000000E+00 0. -1.
         23    2    1    2    0    0 -0.75229014839E+02 -0.11713351750E+02 -0.74684671020E+02  0.14151518370E+03  0.93016879376E+02 0.  0.
         23    2    1    2    0    0  0.75229014839E+02  0.11713351750E+02 -0.25140478991E+03  0.29090514084E+03  0.12499930120E+03 0.  0.
          5    1    4    4  502    0  0.10815997120E+03  0.29202758041E+01 -0.15971103314E+03  0.19296842096E+03  0.47000000000E+01 0. -1.
         -5    1    4    4    0  502 -0.32930956365E+02  0.87930759457E+01 -0.91693756764E+02  0.97936719882E+02  0.47000000000E+01 0. -1.
        -11    1    3    3    0    0 -0.42274613787E+02 -0.27808036689E+02  0.78435091261E+01  0.51204985214E+02  0.00000000000E+00 0.  1.
         11    1    3    3    0    0 -0.32954401052E+02  0.16094684939E+02 -0.82528180146E+02  0.90310198484E+02  0.00000000000E+00 0. -1.
<mgrwt>
<rscale>  0 0.13933075E+03</rscale>
<asrwt>0</asrwt>
<pdfrwt beam="2">  1        1 0.58346907E-01 0.14636063E+03</pdfrwt>
<pdfrwt beam="1">  1       -1 0.81792972E-02 0.14636063E+03</pdfrwt>
<totfact> 0.52085514E+03</totfact>
</mgrwt>
</event>
<event>
 8    1  0.1224355E-005  0.1526216E+03  0.7546771E-02  0.1205424E+00
          1   -1    0    0  501    0  0.00000000000E+00  0.00000000000E+00  0.86105013204E+03  0.86105013204E+03  0.00000000000E+00 0. -1.
         -1   -1    0    0    0  501 -0.00000000000E+00 -0.00000000000E+00 -0.33242095896E+02  0.33242095896E+02  0.00000000000E+00 0.  1.
         23    2    1    2    0    0  0.65823366586E+02 -0.57794669128E+02  0.13961730265E+03  0.18938100266E+03  0.93269682121E+02 0.  0.
         23    2    1    2    0    0 -0.65823366586E+02  0.57794669128E+02  0.68819073350E+03  0.70491122528E+03  0.12498164055E+03 0.  0.
          5    1    4    4  502    0 -0.17126343846E+01 -0.29293559919E+02  0.31330820106E+03  0.31471441756E+03  0.47000000000E+01 0. -1.
         -5    1    4    4    0  502 -0.64110732202E+02  0.87088229047E+02  0.37488253245E+03  0.39019680772E+03  0.47000000000E+01 0. -1.
        -11    1    3    3    0    0 -0.19572664377E+02  0.18469620571E+01  0.43120626188E+02  0.47390809895E+02  0.00000000000E+00 0.  1.
         11    1    3    3    0    0  0.85396030963E+02 -0.59641631185E+02  0.96496676458E+02  0.14199019277E+03  0.00000000000E+00 0. -1.
<mgrwt>
<rscale>  0 0.14604116E+03</rscale>
<asrwt>0</asrwt>
<pdfrwt beam="1">  1        1 0.13246923E+00 0.15262159E+03</pdfrwt>
<pdfrwt beam="2">  1       -1 0.51141692E-02 0.15262159E+03</pdfrwt>
<totfact> 0.34322115E+03</totfact>
</mgrwt>
</event>
<event>
 8    1  0.1224355E-005  0.1393210E+03  0.7546771E-02  0.1225468E+00
          2   -1    0    0  501    0  0.00000000000E+00  0.00000000000E+00  0.45779289754E+03  0.45779289754E+03  0.00000000000E+00 0. -1.
         -2   -1    0    0    0  501 -0.00000000000E+00 -0.00000000000E+00 -0.34926915245E+02  0.34926915245E+02  0.00000000000E+00 0.  1.
         23    2    1    2    0    0 -0.47368344248E+02 -0.39259300967E+02  0.14667995633E+03  0.18338331700E+03  0.91265429477E+02 0.  0.
         23    2    1    2    0    0  0.47368344248E+02  0.39259300967E+02  0.27618602597E+03  0.30933649578E+03  0.12500117573E+03 0.  0.
          5    1    4    4  502    0 -0.26862717081E+02  0.49129846062E+02  0.17198980018E+03  0.18093625593E+03  0.47000000000E+01 0.  1.
         -5    1    4    4    0  502  0.74231061329E+02 -0.98705450948E+01  0.10419622579E+03  0.12840023985E+03  0.47000000000E+01 0.  1.
        -11    1    3    3    0    0 -0.37814101914E+01 -0.46755532079E+02  0.23421434696E+02  0.52430358060E+02  0.00000000000E+00 0.  1.
         11    1    3    3    0    0 -0.43586934057E+02  0.74962311121E+01  0.12325852163E+03  0.13095295894E+03  0.00000000000E+00 0. -1.
<mgrwt>
<rscale>  0 0.13134857E+03</rscale>
<asrwt>0</asrwt>
<pdfrwt beam="1">  1        2 0.70429673E-01 0.13932102E+03</pdfrwt>
<pdfrwt beam="2">  1       -2 0.53733719E-02 0.13932102E+03</pdfrwt>
<totfact> 0.11459101E+04</totfact>
</mgrwt>
</event>
<event>
 8    1  0.1224355E-005  0.1515572E+03  0.7546771E-02  0.1207497E+00
         -2   -1    0    0    0  501 -0.00000000000E+00  0.00000000000E+00  0.50234733131E+02  0.50234733131E+02  0.00000000000E+00 0.  1.
          2   -1    0    0  501    0  0.00000000000E+00 -0.00000000000E+00 -0.56563990193E+03  0.56563990193E+03  0.00000000000E+00 0. -1.
         23    2    1    2    0    0 -0.74736514525E+02  0.41938340606E+02 -0.65441314394E+02  0.14107251340E+03  0.90964374297E+02 0.  0.
         23    2    1    2    0    0  0.74736514525E+02 -0.41938340606E+02 -0.44996385441E+03  0.47480212167E+03  0.12500085378E+03 0.  0.
          5    1    4    4  502    0 -0.65874943872E+01 -0.72518054523E+01 -0.30324182350E+03  0.30343644686E+03  0.47000000000E+01 0.  1.
         -5    1    4    4    0  502  0.81324008912E+02 -0.34686535153E+02 -0.14672203091E+03  0.17136567480E+03  0.47000000000E+01 0.  1.
        -11    1    3    3    0    0 -0.20925044438E+02 -0.25927060371E+02 -0.37279948612E+02  0.49998645109E+02  0.00000000000E+00 0. -1.
         11    1    3    3    0    0 -0.53811470087E+02  0.67865400977E+02 -0.28161365782E+02  0.91073868290E+02  0.00000000000E+00 0.  1.
<mgrwt>
<rscale>  0 0.14442377E+03</rscale>
<asrwt>0</asrwt>
<pdfrwt beam="2">  1        2 0.87021525E-01 0.15155720E+03</pdfrwt>
<pdfrwt beam="1">  1       -2 0.77284203E-02 0.15155720E+03</pdfrwt>
<totfact> 0.52366803E+03</totfact>
</mgrwt>
</event>
<event>
 8    1  0.1224355E-005  0.1379689E+03  0.7546771E-02  0.1226442E+00
          2   -1    0    0  501    0  0.00000000000E+00  0.00000000000E+00  0.15999850668E+04  0.15999850668E+04  0.00000000000E+00 0. -1.
         -2   -1    0    0    0  501 -0.00000000000E+00 -0.00000000000E+00 -0.13466863453E+02  0.13466863453E+02  0.00000000000E+00 0.  1.
         23    2    1    2    0    0  0.93170810095E+01  0.63099849732E+02  0.30616926566E+03  0.32569076414E+03  0.90920050453E+02 0.  0.
         23    2    1    2    0    0 -0.93170810095E+01 -0.63099849732E+02  0.12803489376E+04  0.12877611661E+04  0.12233977148E+03 0.  0.
          5    1    4    4  502    0  0.16010700490E+02 -0.52972619326E+02  0.12211345110E+04  0.12223968361E+04  0.47000000000E+01 0. -1.
         -5    1    4    4    0  502 -0.25327781499E+02 -0.10127230407E+02  0.59214426648E+02  0.65364329987E+02  0.47000000000E+01 0.  1.
        -11    1    3    3    0    0 -0.16789321720E+02 -0.14912101212E+02  0.29647661761E+02  0.37191879951E+02  0.00000000000E+00 0. -1.
         11    1    3    3    0    0  0.26106402730E+02  0.78011950944E+02  0.27652160390E+03  0.28849888419E+03  0.00000000000E+00 0.  1.
<mgrwt>
<rscale>  0 0.13068558E+03</rscale>
<asrwt>0</asrwt>
<pdfrwt beam="1">  1        2 0.24615140E+00 0.13796890E+03</pdfrwt>
<pdfrwt beam="2">  1       -2 0.20718264E-02 0.13796890E+03</pdfrwt>
<totfact> 0.86737298E+03</totfact>
</mgrwt>
</event>
<event>
 8    1  0.1224355E-005  0.1626491E+03  0.7546771E-02  0.1193285E+00
         -2   -1    0    0    0  501 -0.00000000000E+00  0.00000000000E+00  0.22028722288E+02  0.22028722288E+02  0.00000000000E+00 0.  1.
          2   -1    0    0  501    0  0.00000000000E+00 -0.00000000000E+00 -0.10647715097E+04  0.10647715097E+04  0.00000000000E+00 0. -1.
         23    2    1    2    0    0  0.92275151522E+02  0.48120673985E+02 -0.37293841555E+03  0.39753059459E+03  0.90095554788E+02 0.  0.
         23    2    1    2    0    0 -0.92275151522E+02 -0.48120673985E+02 -0.66980437188E+03  0.68926963741E+03  0.12499773444E+03 0.  0.
          5    1    4    4  502    0 -0.30792758045E+02 -0.18241144917E+02 -0.55055011450E+03  0.55173222844E+03  0.47000000000E+01 0. -1.
         -5    1    4    4    0  502 -0.61482393477E+02 -0.29879529068E+02 -0.11925425738E+03  0.13753740897E+03  0.47000000000E+01 0. -1.
        -11    1    3    3    0    0  0.42436147408E+02  0.70169984579E+02 -0.19832547060E+03  0.21461045089E+03  0.00000000000E+00 0. -1.
         11    1    3    3    0    0  0.49839004114E+02 -0.22049310593E+02 -0.17461294495E+03  0.18292014370E+03  0.00000000000E+00 0.  1.
<mgrwt>
<rscale>  0 0.15600295E+03</rscale>
<asrwt>0</asrwt>
<pdfrwt beam="2">  1        2 0.16381104E+00 0.16264912E+03</pdfrwt>
<pdfrwt beam="1">  1       -2 0.33890333E-02 0.16264912E+03</pdfrwt>
<totfact> 0.82686698E+03</totfact>
</mgrwt>
</event>
<event>
 8    1  0.1224355E-005  0.1714685E+03  0.7546771E-02  0.1183018E+00
          3   -1    0    0  501    0  0.00000000000E+00  0.00000000000E+00  0.59356911471E+02  0.59356911471E+02  0.00000000000E+00 0. -1.
         -3   -1    0    0    0  501 -0.00000000000E+00 -0.00000000000E+00 -0.72128009647E+03  0.72128009647E+03  0.00000000000E+00 0.  1.
         23    2    1    2    0    0 -0.22248248715E+02 -0.11524228570E+03 -0.56443897443E+03  0.58339445171E+03  0.89341823649E+02 0.  0.
         23    2    1    2    0    0  0.22248248715E+02  0.11524228570E+03 -0.97484210576E+02  0.19724255623E+03  0.12500274274E+03 0.  0.
          5    1    4    4  502    0 -0.18488668469E+02 -0.21477369842E+02 -0.15757058033E+02  0.32764052786E+02  0.47000000000E+01 0.  1.
         -5    1    4    4    0  502  0.40736917184E+02  0.13671965554E+03 -0.81727152543E+02  0.16447850345E+03  0.47000000000E+01 0.  1.
        -11    1    3    3    0    0  0.23059494574E+01 -0.12183634882E+03 -0.45432401824E+03  0.47038253247E+03  0.00000000000E+00 0. -1.
         11    1    3    3    0    0 -0.24554198172E+02  0.65940631218E+01 -0.11011495618E+03  0.11301191925E+03  0.00000000000E+00 0.  1.
<mgrwt>
<rscale>  0 0.16513533E+03</rscale>
<asrwt>0</asrwt>
<pdfrwt beam="1">  1        3 0.91318321E-02 0.17146852E+03</pdfrwt>
<pdfrwt beam="2">  1       -3 0.11096617E+00 0.17146852E+03</pdfrwt>
<totfact> 0.14669061E+02</totfact>
</mgrwt>
</event>
<event>
 8    1  0.1224355E-005  0.1308733E+03  0.7546771E-02  0.1238736E+00
          1   -1    0    0  501    0  0.00000000000E+00  0.00000000000E+00  0.81744633927E+02  0.81744633927E+02  0.00000000000E+00 0. -1.
         -1   -1    0    0    0  501 -0.00000000000E+00 -0.00000000000E+00 -0.21876038990E+03  0.21876038990E+03  0.00000000000E+00 0.  1.
         23    2    1    2    0    0 -0.10127506565E+02  0.37414125255E+02 -0.13623945303E+03  0.16962941386E+03  0.93330414790E+02 0.  0.
         23    2    1    2    0    0  0.10127506565E+02 -0.37414125255E+02 -0.77630293584E+00  0.13087560997E+03  0.12500175791E+03 0.  0.
          5    1    4    4  502    0 -0.39045448585E+02 -0.10093895736E+02 -0.43931412680E+02  0.59820504899E+02  0.47000000000E+01 0. -1.
         -5    1    4    4    0  502  0.49172955150E+02 -0.27320229519E+02  0.43155109744E+02  0.71055105067E+02  0.47000000000E+01 0. -1.
        -11    1    3    3    0    0 -0.34689158092E+02  0.45473694903E+02 -0.39532330251E+02  0.69526971402E+02  0.00000000000E+00 0. -1.
         11    1    3    3    0    0  0.24561651527E+02 -0.80595696482E+01 -0.96707122782E+02  0.10010244245E+03  0.00000000000E+00 0.  1.
<mgrwt>
<rscale>  0 0.12268238E+03</rscale>
<asrwt>0</asrwt>
<pdfrwt beam="1">  1        1 0.12576098E-01 0.13087331E+03</pdfrwt>
<pdfrwt beam="2">  1       -1 0.33655445E-01 0.13087331E+03</pdfrwt>
<totfact> 0.37798601E+03</totfact>
</mgrwt>
</event>
<event>
 7    1  0.1224355E-005  0.1393925E+03  0.7546771E-02  0.1236335E+00
         -1   -1    0    0    0  501 -0.00000000000E+00  0.00000000000E+00  0.40726388889E+02  0.40726388889E+02  0.00000000000E+00 0.  1.
          1   -1    0    0  501    0  0.00000000000E+00 -0.00000000000E+00 -0.86767857223E+03  0.86767857223E+03  0.00000000000E+00 0. -1.
         23    2    1    2    0    0 -0.38289914770E+01 -0.13984408727E+02 -0.20769172764E+02  0.90259915560E+02  0.86632955372E+02 0.  0.
          5    1    1    2  502    0 -0.48026740531E+02  0.39830868250E+02 -0.61872407199E+03  0.62187991858E+03  0.47000000000E+01 0. -1.
         -5    1    1    2    0  502  0.51855732008E+02 -0.25846459523E+02 -0.18745893858E+03  0.19626512698E+03  0.47000000000E+01 0.  1.
        -11    1    3    3    0    0 -0.63077955266E+01 -0.50669964153E+02 -0.11488267691E+02  0.52337499427E+02  0.00000000000E+00 0.  1.
         11    1    3    3    0    0  0.24788040496E+01  0.36685555426E+02 -0.92809050731E+01  0.37922416134E+02  0.00000000000E+00 0. -1.
<mgrwt>
<rscale>  0 0.12419383E+03</rscale>
<asrwt>0</asrwt>
<pdfrwt beam="2">  1        1 0.13348901E+00 0.13939250E+03</pdfrwt>
<pdfrwt beam="1">  1       -1 0.62655983E-02 0.13939250E+03</pdfrwt>
<totfact> 0.25001748E+03</totfact>
</mgrwt>
</event>
<event>
 8    1  0.1224355E-005  0.1325375E+03  0.7546771E-02  0.1236685E+00
         -2   -1    0    0    0  501 -0.00000000000E+00  0.00000000000E+00  0.42921931458E+02  0.42921931458E+02  0.00000000000E+00 0. -1.
          2   -1    0    0  501    0  0.00000000000E+00 -0.00000000000E+00 -0.38593285208E+03  0.38593285208E+03  0.00000000000E+00 0.  1.
         23    2    1    2    0    0  0.14555155082E+02  0.41565231360E+02 -0.63973846684E+02  0.11994076848E+03  0.91398106575E+02 0.  0.
         23    2    1    2    0    0 -0.14555155082E+02 -0.41565231360E+02 -0.27903707394E+03  0.30891401506E+03  0.12500663611E+03 0.  0.
          5    1    4    4  502    0 -0.56036883714E+02 -0.36953271451E+02 -0.24724353240E+03  0.25623647461E+03  0.47000000000E+01 0.  1.
         -5    1    4    4    0  502  0.41481728632E+02 -0.46119599091E+01 -0.31793541538E+02  0.52677540452E+02  0.47000000000E+01 0.  1.
        -11    1    3    3    0    0 -0.38498051221E+02  0.12103449513E+02 -0.30909376446E+02  0.50832892798E+02  0.00000000000E+00 0.  1.
         11    1    3    3    0    0  0.53053206303E+02  0.29461781847E+02 -0.33064470238E+02  0.69107875678E+02  0.00000000000E+00 0. -1.
<mgrwt>
<rscale>  0 0.12397167E+03</rscale>
<asrwt>0</asrwt>
<pdfrwt beam="2">  1        2 0.59374284E-01 0.13253747E+03</pdfrwt>
<pdfrwt beam="1">  1       -2 0.66033742E-02 0.13253747E+03</pdfrwt>
<totfact> 0.10036054E+04</totfact>
</mgrwt>
</event>
<event>
 8    1  0.1411292E-005  0.1696690E+03  0.7546771E-02  0.1184826E+00
          1   -1    0    0  501    0  0.00000000000E+00  0.00000000000E+00  0.98201769324E+02  0.98201769324E+02  0.00000000000E+00 0. -1.
         -1   -1    0    0    0  501 -0.00000000000E+00 -0.00000000000E+00 -0.26108289615E+03  0.26108289615E+03  0.00000000000E+00 0.  1.
         23    2    1    2    0    0 -0.59981436283E+02  0.97799517851E+02 -0.10498376391E+03  0.18000925219E+03  0.90659923894E+02 0.  0.
         23    2    1    2    0    0  0.59981436283E+02 -0.97799517851E+02 -0.57897362918E+02  0.17927541328E+03  0.12500020313E+03 0.  0.
          5    1    4    4  502    0 -0.13903776359E+02 -0.47795740393E+02 -0.73189259480E+02  0.88636930791E+02  0.47000000000E+01 0. -1.
         -5    1    4    4    0  502  0.73885212643E+02 -0.50003777458E+02  0.15291896562E+02  0.90638482488E+02  0.47000000000E+01 0. -1.
        -11    1    3    3    0    0 -0.46613279656E+02  0.36418639591E+02 -0.17682078066E+01  0.59179740696E+02  0.00000000000E+00 0. -1.
         11    1    3    3    0    0 -0.13368156628E+02  0.61380878260E+02 -0.10321555610E+03  0.12082951150E+03  0.00000000000E+00 0.  1.
<mgrwt>
<rscale>  0 0.16347722E+03</rscale>
<asrwt>0</asrwt>
<pdfrwt beam="1">  1        1 0.15107965E-01 0.16966900E+03</pdfrwt>
<pdfrwt beam="2">  1       -1 0.40166599E-01 0.16966900E+03</pdfrwt>
<totfact> 0.22175386E+03</totfact>
</mgrwt>
</event>
<event>
 8    1  0.1224355E-005  0.1754736E+03  0.7546771E-02  0.1177559E+00
          1   -1    0    0  501    0  0.00000000000E+00  0.00000000000E+00  0.18082508473E+03  0.18082508473E+03  0.00000000000E+00 0. -1.
         -1   -1    0    0    0  501 -0.00000000000E+00 -0.00000000000E+00 -0.15955435878E+03  0.15955435878E+03  0.00000000000E+00 0.  1.
         23    2    1    2    0    0 -0.10563821211E+03  0.63307936304E+02  0.48117609226E+02  0.16286397213E+03  0.95089654776E+02 0.  0.
         23    2    1    2    0    0  0.10563821211E+03 -0.63307936304E+02 -0.26846883281E+02  0.17751547138E+03  0.12499464301E+03 0.  0.
          5    1    4    4  502    0  0.39959665030E+02 -0.68823216446E+02 -0.63529828573E+02  0.10193889871E+03  0.47000000000E+01 0. -1.
         -5    1    4    4    0  502  0.65678547078E+02  0.55152801422E+01  0.36682945291E+02  0.75576572670E+02  0.47000000000E+01 0. -1.
        -11    1    3    3    0    0 -0.35699404727E+02  0.74784799621E+02  0.13406183435E+02  0.83946051167E+02  0.00000000000E+00 0.  1.
         11    1    3    3    0    0 -0.69938807381E+02 -0.11476863317E+02  0.34711425790E+02  0.78917920968E+02  0.00000000000E+00 0. -1.
<mgrwt>
<rscale>  0 0.17027731E+03</rscale>
<asrwt>0</asrwt>
<pdfrwt beam="1">  1        1 0.27819244E-01 0.17547361E+03</pdfrwt>
<pdfrwt beam="2">  1       -1 0.24546824E-01 0.17547361E+03</pdfrwt>
<totfact> 0.23519648E+03</totfact>
</mgrwt>
</event>
<event>
 7    1  0.1224355E-005  0.1497610E+03  0.7546771E-02  0.1215672E+00
         -2   -1    0    0    0  501 -0.00000000000E+00  0.00000000000E+00  0.18443007682E+02  0.18443007682E+02  0.00000000000E+00 0.  1.
          2   -1    0    0  501    0  0.00000000000E+00 -0.00000000000E+00 -0.93173528626E+03  0.93173528626E+03  0.00000000000E+00 0. -1.
         23    2    1    2    0    0 -0.43495198808E+02 -0.42098292793E+02 -0.30900773077E+03  0.32761249520E+03  0.90443743612E+02 0.  0.
          5    1    1    2  502    0  0.78281334049E+02  0.53412531152E+02 -0.54150251363E+03  0.54975260619E+03  0.47000000000E+01 0. -1.
         -5    1    1    2    0  502 -0.34786135241E+02 -0.11314238359E+02 -0.62782034177E+02  0.72813192555E+02  0.47000000000E+01 0.  1.
        -11    1    3    3    0    0 -0.23991431749E+02  0.26798280631E+02 -0.12796676107E+03  0.13292565057E+03  0.00000000000E+00 0. -1.
         11    1    3    3    0    0 -0.19503767059E+02 -0.68896573424E+02 -0.18104096970E+03  0.19468684463E+03  0.00000000000E+00 0.  1.
<mgrwt>
<rscale>  0 0.13827292E+03</rscale>
<asrwt>0</asrwt>
<pdfrwt beam="2">  1        2 0.14334386E+00 0.14976101E+03</pdfrwt>
<pdfrwt beam="1">  1       -2 0.28373864E-02 0.14976101E+03</pdfrwt>
<totfact> 0.12869948E+04</totfact>
</mgrwt>
</event>
<event>
 8    1  0.1224355E-005  0.1286398E+03  0.7546771E-02  0.1243189E+00
         -1   -1    0    0    0  501 -0.00000000000E+00  0.00000000000E+00  0.64361071573E+02  0.64361071573E+02  0.00000000000E+00 0.  1.
          1   -1    0    0  501    0  0.00000000000E+00 -0.00000000000E+00 -0.20460791581E+03  0.20460791581E+03  0.00000000000E+00 0. -1.
         23    2    1    2    0    0  0.18277382548E+02  0.24381786391E+02 -0.37038592765E+02  0.10404436548E+03  0.92330051520E+02 0.  0.
         23    2    1    2    0    0 -0.18277382548E+02 -0.24381786391E+02 -0.10320825147E+03  0.16492462191E+03  0.12497861224E+03 0.  0.
          5    1    4    4  502    0 -0.27776213041E+02 -0.57330754828E+02 -0.89369009964E+01  0.64500322941E+02  0.47000000000E+01 0.  1.
         -5    1    4    4    0  502  0.94988304925E+01  0.32948968437E+02 -0.94271350477E+02  0.10042429896E+03  0.47000000000E+01 0.  1.
        -11    1    3    3    0    0  0.37875841839E+02  0.18839794124E+02 -0.59960621674E+02  0.73381151457E+02  0.00000000000E+00 0. -1.
         11    1    3    3    0    0 -0.19598459290E+02  0.55419922669E+01  0.22922028910E+02  0.30663214022E+02  0.00000000000E+00 0.  1.
<mgrwt>
<rscale>  0 0.11994434E+03</rscale>
<asrwt>0</asrwt>
<pdfrwt beam="2">  1        1 0.31478141E-01 0.12863976E+03</pdfrwt>
<pdfrwt beam="1">  1       -1 0.99017034E-02 0.12863976E+03</pdfrwt>
<totfact> 0.83112786E+03</totfact>
</mgrwt>
</event>
<event>
 7    1  0.1224355E-005  0.3419396E+03  0.7546771E-02  0.1110686E+00
         -2   -1    0    0    0  501 -0.00000000000E+00  0.00000000000E+00  0.43944767892E+02  0.43944767892E+02  0.00000000000E+00 0.  1.
          2   -1    0    0  501    0  0.00000000000E+00 -0.00000000000E+00 -0.11470196866E+04  0.11470196866E+04  0.00000000000E+00 0. -1.
         23    2    1    2    0    0 -0.23071852729E+02 -0.46560930526E+02 -0.20655048561E+03  0.23144440256E+03  0.90571395775E+02 0.  0.
          5    1    1    2  502    0 -0.90960343438E+02  0.55258849302E+02 -0.80754745552E+03  0.81454423294E+03  0.47000000000E+01 0. -1.
         -5    1    1    2    0  502  0.11403219617E+03 -0.86979187767E+01 -0.88976977599E+02  0.14497581901E+03  0.47000000000E+01 0.  1.
        -11    1    3    3    0    0  0.30079409577E+02  0.27643681219E+01 -0.81132125918E+02  0.86572712026E+02  0.00000000000E+00 0. -1.
         11    1    3    3    0    0 -0.53151262306E+02 -0.49325298647E+02 -0.12541835969E+03  0.14487169054E+03  0.00000000000E+00 0.  1.
<mgrwt>
<rscale>  0 0.25418932E+03</rscale>
<asrwt>0</asrwt>
<pdfrwt beam="2">  1        2 0.17646458E+00 0.34193957E+03</pdfrwt>
<pdfrwt beam="1">  1       -2 0.67607330E-02 0.34193957E+03</pdfrwt>
<totfact> 0.26386589E+03</totfact>
</mgrwt>
</event>
<event>
 8    1  0.1224355E-005  0.1293224E+03  0.7546771E-02  0.1241337E+00
         -1   -1    0    0    0  501 -0.00000000000E+00  0.00000000000E+00  0.10431206009E+02  0.10431206009E+02  0.00000000000E+00 0.  1.
          1   -1    0    0  501    0  0.00000000000E+00 -0.00000000000E+00 -0.18416683257E+04  0.18416683257E+04  0.00000000000E+00 0. -1.
         23    2    1    2    0    0 -0.15689175644E+02 -0.29223863262E+02 -0.31356841524E+03  0.32893093686E+03  0.93649483539E+02 0.  0.
         23    2    1    2    0    0  0.15689175644E+02  0.29223863262E+02 -0.15176687044E+04  0.15231685948E+04  0.12499634981E+03 0.  0.
          5    1    4    4  502    0  0.37397169371E+02  0.68181923850E+02 -0.71126241281E+03  0.71551634007E+03  0.47000000000E+01 0. -1.
         -5    1    4    4    0  502 -0.21707993728E+02 -0.38958060588E+02 -0.80640629163E+03  0.80765225478E+03  0.47000000000E+01 0. -1.
        -11    1    3    3    0    0  0.21600933596E+02 -0.39082288639E+02 -0.25447647623E+03  0.25836466974E+03  0.00000000000E+00 0. -1.
         11    1    3    3    0    0 -0.37290109239E+02  0.98584253770E+01 -0.59091939017E+02  0.70566267117E+02  0.00000000000E+00 0.  1.
<mgrwt>
<rscale>  0 0.12107295E+03</rscale>
<asrwt>0</asrwt>
<pdfrwt beam="2">  1        1 0.28333382E+00 0.12932236E+03</pdfrwt>
<pdfrwt beam="1">  1       -1 0.16047996E-02 0.12932236E+03</pdfrwt>
<totfact> 0.40017319E+03</totfact>
</mgrwt>
</event>
<event>
 8    1  0.1224355E-005  0.1480068E+03  0.7546771E-02  0.1214168E+00
          2   -1    0    0  501    0  0.00000000000E+00  0.00000000000E+00  0.36968661522E+02  0.36968661522E+02  0.00000000000E+00 0. -1.
         -2   -1    0    0    0  501 -0.00000000000E+00 -0.00000000000E+00 -0.66850808310E+03  0.66850808310E+03  0.00000000000E+00 0.  1.
         23    2    1    2    0    0 -0.75111682046E+02  0.25299097335E+02 -0.47898156090E+03  0.49292110225E+03  0.85241235653E+02 0.  0.
         23    2    1    2    0    0  0.75111682046E+02 -0.25299097335E+02 -0.15255786068E+03  0.21255564237E+03  0.12499676453E+03 0.  0.
          5    1    4    4  502    0  0.86989652436E+02  0.80884562790E-01 -0.16087650318E+03  0.18294957078E+03  0.47000000000E+01 0. -1.
         -5    1    4    4    0  502 -0.11877970390E+02 -0.25379981898E+02  0.83186425057E+01  0.29606071588E+02  0.47000000000E+01 0. -1.
        -11    1    3    3    0    0  0.85029077423E+00  0.23055668303E+02 -0.31572538854E+02  0.39103862277E+02  0.00000000000E+00 0. -1.
         11    1    3    3    0    0 -0.75961972820E+02  0.22434290320E+01 -0.44740902205E+03  0.45381723998E+03  0.00000000000E+00 0.  1.
<mgrwt>
<rscale>  0 0.13937827E+03</rscale>
<asrwt>0</asrwt>
<pdfrwt beam="1">  1        2 0.56874867E-02 0.14800676E+03</pdfrwt>
<pdfrwt beam="2">  1       -2 0.10284739E+00 0.14800676E+03</pdfrwt>
<totfact> 0.10375673E+03</totfact>
</mgrwt>
</event>
<event>
 8    1  0.1224355E-005  0.1382496E+03  0.7546771E-02  0.1227243E+00
         -2   -1    0    0    0  501 -0.00000000000E+00  0.00000000000E+00  0.85259625995E+02  0.85259625995E+02  0.00000000000E+00 0.  1.
          2   -1    0    0  501    0  0.00000000000E+00 -0.00000000000E+00 -0.20860420905E+03  0.20860420905E+03  0.00000000000E+00 0. -1.
         23    2    1    2    0    0 -0.58803812616E+02 -0.57181366108E+01  0.33373841996E-01  0.10856657243E+03  0.91083006485E+02 0.  0.
         23    2    1    2    0    0  0.58803812616E+02  0.57181366108E+01 -0.12337795690E+03  0.18529726262E+03  0.12498947884E+03 0.  0.
          5    1    4    4  502    0  0.84519953284E+02 -0.30136463722E+02 -0.10234256220E+03  0.13619074486E+03  0.47000000000E+01 0. -1.
         -5    1    4    4    0  502 -0.25716140668E+02  0.35854600333E+02 -0.21035394696E+02  0.49106517754E+02  0.47000000000E+01 0. -1.
        -11    1    3    3    0    0 -0.44292191392E+02  0.35362001848E+02  0.20708769438E+02  0.60341714631E+02  0.00000000000E+00 0.  1.
         11    1    3    3    0    0 -0.14511621223E+02 -0.41080138459E+02 -0.20675395596E+02  0.48224857795E+02  0.00000000000E+00 0. -1.
<mgrwt>
<rscale>  0 0.13014335E+03</rscale>
<asrwt>0</asrwt>
<pdfrwt beam="2">  1        2 0.32092955E-01 0.13824961E+03</pdfrwt>
<pdfrwt beam="1">  1       -2 0.13116866E-01 0.13824961E+03</pdfrwt>
<totfact> 0.66232010E+03</totfact>
</mgrwt>
</event>
<event>
 7    1  0.1224355E-005  0.1338792E+03  0.7546771E-02  0.1236984E+00
         -2   -1    0    0    0  501 -0.00000000000E+00  0.00000000000E+00  0.65964455538E+02  0.65964455538E+02  0.00000000000E+00 0.  1.
          2   -1    0    0  501    0  0.00000000000E+00 -0.00000000000E+00 -0.21978500121E+03  0.21978500121E+03  0.00000000000E+00 0. -1.
         23    2    1    2    0    0 -0.20030273477E+02  0.29685673718E+02 -0.27369790555E+02  0.10159343543E+03  0.91047622746E+02 0.  0.
          5    1    1    2  502    0 -0.28315669247E+02  0.14559251987E+02 -0.11246542783E+03  0.11697996153E+03  0.47000000000E+01 0. -1.
         -5    1    1    2    0  502  0.48345942724E+02 -0.44244925705E+02 -0.13985327283E+02  0.67176059781E+02  0.47000000000E+01 0.  1.
        -11    1    3    3    0    0  0.33837711689E+02  0.26514997789E+02 -0.53817606218E+01  0.43324348668E+02  0.00000000000E+00 0.  1.
         11    1    3    3    0    0 -0.53867985166E+02  0.31706759285E+01 -0.21988029933E+02  0.58269086762E+02  0.00000000000E+00 0. -1.
<mgrwt>
<rscale>  0 0.12378297E+03</rscale>
<asrwt>0</asrwt>
<pdfrwt beam="2">  1        2 0.33813077E-01 0.13387922E+03</pdfrwt>
<pdfrwt beam="1">  1       -2 0.10148378E-01 0.13387922E+03</pdfrwt>
<totfact> 0.93978706E+03</totfact>
</mgrwt>
</event>
<event>
 8    1  0.1224355E-005  0.1252199E+03  0.7546771E-02  0.1249948E+00
          2   -1    0    0  501    0  0.00000000000E+00  0.00000000000E+00  0.16453853496E+03  0.16453853496E+03  0.00000000000E+00 0. -1.
         -2   -1    0    0    0  501 -0.00000000000E+00 -0.00000000000E+00 -0.71719188609E+02  0.71719188609E+02  0.00000000000E+00 0.  1.
         23    2    1    2    0    0  0.63442686619E+01  0.35749372458E+01  0.38069860271E+02  0.99591961309E+02  0.91739929012E+02 0.  0.
         23    2    1    2    0    0 -0.63442686619E+01 -0.35749372458E+01  0.54749486077E+02  0.13666576226E+03  0.12500797745E+03 0.  0.
          5    1    4    4  502    0  0.16113442235E+01 -0.57256706532E+02  0.58573889129E+02  0.82060449431E+02  0.47000000000E+01 0.  1.
         -5    1    4    4    0  502 -0.79556128854E+01  0.53681769286E+02 -0.38244030520E+01  0.54605312825E+02  0.47000000000E+01 0.  1.
        -11    1    3    3    0    0  0.13377694489E+01  0.41618032285E+02 -0.49654278656E+01  0.41934540802E+02  0.00000000000E+00 0.  1.
         11    1    3    3    0    0  0.50064992130E+01 -0.38043095040E+02  0.43035288136E+02  0.57657420507E+02  0.00000000000E+00 0. -1.
<mgrwt>
<rscale>  0 0.11594062E+03</rscale>
<asrwt>0</asrwt>
<pdfrwt beam="1">  1        2 0.25313621E-01 0.12521990E+03</pdfrwt>
<pdfrwt beam="2">  1       -2 0.11033721E-01 0.12521990E+03</pdfrwt>
<totfact> 0.11214229E+04</totfact>
</mgrwt>
</event>
<event>
 8    1  0.1224355E-005  0.1507214E+03  0.7546771E-02  0.1205470E+00
         -1   -1    0    0    0  501 -0.00000000000E+00  0.00000000000E+00  0.54186793912E+03  0.54186793912E+03  0.00000000000E+00 0.  1.
          1   -1    0    0  501    0  0.00000000000E+00 -0.00000000000E+00 -0.37449568761E+02  0.37449568761E+02  0.00000000000E+00 0. -1.
         23    2    1    2    0    0  0.82269788813E+02  0.18036832768E+02  0.26559177027E+03  0.29690806027E+03  0.10257564201E+03 0.  0.
         23    2    1    2    0    0 -0.82269788813E+02 -0.18036832768E+02  0.23882660010E+03  0.28240944761E+03  0.12499322261E+03 0.  0.
          5    1    4    4  502    0 -0.10931835532E+03  0.11079337735E+02  0.18682171083E+03  0.21678952044E+03  0.47000000000E+01 0. -1.
         -5    1    4    4    0  502  0.27048566505E+02 -0.29116170503E+02  0.52004889267E+02  0.65619927175E+02  0.47000000000E+01 0. -1.
        -11    1    3    3    0    0  0.68283457069E+02 -0.22278261155E+02  0.23120583706E+03  0.24210553591E+03  0.00000000000E+00 0.  1.
         11    1    3    3    0    0  0.13986331745E+02  0.40315093923E+02  0.34385933209E+02  0.54802524361E+02  0.00000000000E+00 0. -1.
<mgrwt>
<rscale>  0 0.14600504E+03</rscale>
<asrwt>0</asrwt>
<pdfrwt beam="2">  1        1 0.57614725E-02 0.15072144E+03</pdfrwt>
<pdfrwt beam="1">  1       -1 0.83364293E-01 0.15072144E+03</pdfrwt>
<totfact> 0.19960077E+03</totfact>
</mgrwt>
</event>
<event>
 8    1  0.1224355E-005  0.1275453E+03  0.7546771E-02  0.1245598E+00
          1   -1    0    0  501    0  0.00000000000E+00  0.00000000000E+00  0.81088540436E+03  0.81088540436E+03  0.00000000000E+00 0. -1.
         -1   -1    0    0    0  501 -0.00000000000E+00 -0.00000000000E+00 -0.16672141940E+02  0.16672141940E+02  0.00000000000E+00 0.  1.
         23    2    1    2    0    0  0.23992048264E+02  0.82199678283E+01  0.22524163430E+03  0.24446533778E+03  0.91576860078E+02 0.  0.
         23    2    1    2    0    0 -0.23992048264E+02 -0.82199678283E+01  0.56897162812E+03  0.58309220852E+03  0.12499849512E+03 0.  0.
          5    1    4    4  502    0 -0.71436309509E+02  0.15370113918E+01  0.23727718534E+03  0.24784685071E+03  0.47000000000E+01 0. -1.
         -5    1    4    4    0  502  0.47444261244E+02 -0.97569792201E+01  0.33169444278E+03  0.33524535782E+03  0.47000000000E+01 0. -1.
        -11    1    3    3    0    0  0.55464073346E+02  0.41169504859E+01  0.92074293618E+02  0.10756806338E+03  0.00000000000E+00 0.  1.
         11    1    3    3    0    0 -0.31472025082E+02  0.41030173424E+01  0.13316734068E+03  0.13689727440E+03  0.00000000000E+00 0. -1.
<mgrwt>
<rscale>  0 0.11849674E+03</rscale>
<asrwt>0</asrwt>
<pdfrwt beam="1">  1        1 0.12475157E+00 0.12754533E+03</pdfrwt>
<pdfrwt beam="2">  1       -1 0.25649455E-02 0.12754533E+03</pdfrwt>
<totfact> 0.10260085E+04</totfact>
</mgrwt>
</event>
<event>
 8    1  0.1224355E-005  0.1569983E+03  0.7546771E-02  0.1200127E+00
          1   -1    0    0  501    0  0.00000000000E+00  0.00000000000E+00  0.38235825688E+02  0.38235825688E+02  0.00000000000E+00 0. -1.
         -1   -1    0    0    0  501 -0.00000000000E+00 -0.00000000000E+00 -0.69582355115E+03  0.69582355115E+03  0.00000000000E+00 0.  1.
         23    2    1    2    0    0 -0.55572526312E+02 -0.77046348886E+02 -0.47648165494E+03  0.49437654243E+03  0.91372603433E+02 0.  0.
         23    2    1    2    0    0  0.55572526312E+02  0.77046348886E+02 -0.18110607052E+03  0.23968283440E+03  0.12499602702E+03 0.  0.
          5    1    4    4  502    0  0.68576111680E+01  0.10168102025E+03 -0.12333048808E+03  0.16005797700E+03  0.47000000000E+01 0.  1.
         -5    1    4    4    0  502  0.48714915144E+02 -0.24634671362E+02 -0.57775582438E+02  0.79624857404E+02  0.47000000000E+01 0.  1.
        -11    1    3    3    0    0 -0.70599494476E+02 -0.87507921863E+02 -0.38508099745E+03  0.40115994268E+03  0.00000000000E+00 0. -1.
         11    1    3    3    0    0  0.15026968164E+02  0.10461572978E+02 -0.91400657484E+02  0.93216599755E+02  0.00000000000E+00 0.  1.
<mgrwt>
<rscale>  0 0.15028191E+03</rscale>
<asrwt>0</asrwt>
<pdfrwt beam="1">  1        1 0.58824348E-02 0.15699826E+03</pdfrwt>
<pdfrwt beam="2">  1       -1 0.10704978E+00 0.15699826E+03</pdfrwt>
<totfact> 0.11308268E+03</totfact>
</mgrwt>
</event>
<event>
 8    1  0.1224355E-005  0.1275596E+03  0.7546771E-02  0.1246296E+00
         -1   -1    0    0    0  501 -0.00000000000E+00  0.00000000000E+00  0.30167640417E+03  0.30167640417E+03  0.00000000000E+00 0.  1.
          1   -1    0    0  501    0  0.00000000000E+00 -0.00000000000E+00 -0.42308028891E+02  0.42308028891E+02  0.00000000000E+00 0. -1.
         23    2    1    2    0    0 -0.11021221685E+02 -0.22883324797E+02  0.14522191130E+03  0.17280945469E+03  0.90158694691E+02 0.  0.
         23    2    1    2    0    0  0.11021221685E+02  0.22883324797E+02  0.11414646398E+03  0.17117497837E+03  0.12500537628E+03 0.  0.
          5    1    4    4  502    0  0.67726652870E+02  0.11772721809E+02  0.70745256083E+02  0.98754634048E+02  0.47000000000E+01 0. -1.
         -5    1    4    4    0  502 -0.56705431185E+02  0.11110602988E+02  0.43401207896E+02  0.72420344320E+02  0.47000000000E+01 0. -1.
        -11    1    3    3    0    0 -0.29488465133E+02  0.10920335352E+02  0.11229762373E+02  0.33390580454E+02  0.00000000000E+00 0. -1.
         11    1    3    3    0    0  0.18467243448E+02 -0.33803660149E+02  0.13399214893E+03  0.13941887424E+03  0.00000000000E+00 0.  1.
<mgrwt>
<rscale>  0 0.11808175E+03</rscale>
<asrwt>0</asrwt>
<pdfrwt beam="2">  1        1 0.65089277E-02 0.12755963E+03</pdfrwt>
<pdfrwt beam="1">  1       -1 0.46411753E-01 0.12755963E+03</pdfrwt>
<totfact> 0.51671673E+03</totfact>
</mgrwt>
</event>
<event>
 7    1  0.1224355E-005  0.1153546E+03  0.7546771E-02  0.1331340E+00
          4   -1    0    0  501    0  0.00000000000E+00  0.00000000000E+00  0.22439469042E+03  0.22439469042E+03  0.00000000000E+00 0. -1.
         -4   -1    0    0    0  501 -0.00000000000E+00 -0.00000000000E+00 -0.22188948350E+02  0.22188948350E+02  0.00000000000E+00 0.  1.
         23    2    1    2    0    0  0.20466789658E+02 -0.87062860991E+01  0.16954055607E+03  0.20506264493E+03  0.11319010247E+03 0.  0.
          5    1    3    3  502    0 -0.22305854055E+02  0.36049261585E+02  0.11415495165E+03  0.12186280553E+03  0.47000000000E+01 0. -1.
         -5    1    3    3    0  502  0.42772643713E+02 -0.44755547684E+02  0.55385604424E+02  0.83199839400E+02  0.47000000000E+01 0.  1.
        -11    1    1    2    0    0 -0.12137137450E+02 -0.76607113714E+00  0.21374901936E+02  0.24592344403E+02  0.00000000000E+00 0.  1.
         11    1    1    2    0    0 -0.83296522073E+01  0.94723572362E+01  0.11290284061E+02  0.16928649435E+02  0.00000000000E+00 0. -1.
<mgrwt>
<rscale>  0 0.79199081E+02</rscale>
<asrwt>0</asrwt>
<pdfrwt beam="1">  1        4 0.34522259E-01 0.11535462E+03</pdfrwt>
<pdfrwt beam="2">  1       -4 0.34136845E-02 0.11535462E+03</pdfrwt>
<totfact> 0.55975393E+03</totfact>
</mgrwt>
</event>
<event>
 8    1  0.1224355E-005  0.3579405E+03  0.7546771E-02  0.1060373E+00
          2   -1    0    0  501    0  0.00000000000E+00  0.00000000000E+00  0.39554072194E+03  0.39554072194E+03  0.00000000000E+00 0. -1.
         -2   -1    0    0    0  501 -0.00000000000E+00 -0.00000000000E+00 -0.33304745418E+03  0.33304745418E+03  0.00000000000E+00 0.  1.
         23    2    1    2    0    0  0.33005014157E+03  0.59703456277E+02 -0.53260848595E+02  0.35239616634E+03  0.94067749106E+02 0.  0.
         23    2    1    2    0    0 -0.33005014157E+03 -0.59703456277E+02  0.11575411635E+03  0.37619200978E+03  0.12499525642E+03 0.  0.
          5    1    4    4  502    0  0.21333647656E+01 -0.15289298026E+02 -0.90930306552E+01  0.18522610125E+02  0.47000000000E+01 0.  1.
         -5    1    4    4    0  502 -0.33218350633E+03 -0.44414158252E+02  0.12484714700E+03  0.35766939965E+03  0.47000000000E+01 0.  1.
        -11    1    3    3    0    0  0.14181387134E+02  0.27341817945E+02 -0.59130382013E+01  0.31363207271E+02  0.00000000000E+00 0.  1.
         11    1    3    3    0    0  0.31586875443E+03  0.32361638332E+02 -0.47347810394E+02  0.32103295907E+03  0.00000000000E+00 0. -1.
<mgrwt>
<rscale>  0 0.35551791E+03</rscale>
<asrwt>0</asrwt>
<pdfrwt beam="1">  1        2 0.60852419E-01 0.35794052E+03</pdfrwt>
<pdfrwt beam="2">  1       -2 0.51238070E-01 0.35794052E+03</pdfrwt>
<totfact> 0.29634116E+02</totfact>
</mgrwt>
</event>
<event>
 8    1  0.1224355E-005  0.1351520E+03  0.7546771E-02  0.1231784E+00
          3   -1    0    0  501    0  0.00000000000E+00  0.00000000000E+00  0.68097718978E+03  0.68097718978E+03  0.00000000000E+00 0. -1.
         -3   -1    0    0    0  501 -0.00000000000E+00 -0.00000000000E+00 -0.31356768319E+02  0.31356768319E+02  0.00000000000E+00 0.  1.
         23    2    1    2    0    0  0.31983784481E+02  0.40209639334E+02  0.97360220115E+02  0.14377666358E+03  0.92482100776E+02 0.  0.
         23    2    1    2    0    0 -0.31983784481E+02 -0.40209639334E+02  0.55226020135E+03  0.56855729452E+03  0.12500515828E+03 0.  0.
          5    1    4    4  502    0 -0.49656028186E+02 -0.72227158369E+02  0.27025765886E+03  0.28415449269E+03  0.47000000000E+01 0. -1.
         -5    1    4    4    0  502  0.17672243705E+02  0.32017519036E+02  0.28200254249E+03  0.28440280184E+03  0.47000000000E+01 0. -1.
        -11    1    3    3    0    0 -0.10538752253E+02 -0.21851537671E+02  0.52035508932E+01  0.24811931395E+02  0.00000000000E+00 0.  1.
         11    1    3    3    0    0  0.42522536734E+02  0.62061177005E+02  0.92156669222E+02  0.11896473218E+03  0.00000000000E+00 0. -1.
<mgrwt>
<rscale>  0 0.12712584E+03</rscale>
<asrwt>0</asrwt>
<pdfrwt beam="1">  1        3 0.10476571E+00 0.13515202E+03</pdfrwt>
<pdfrwt beam="2">  1       -3 0.48241187E-02 0.13515202E+03</pdfrwt>
<totfact> 0.45642400E+02</totfact>
</mgrwt>
</event>
<event>
 8    1  0.1224355E-005  0.1844780E+03  0.7546771E-02  0.1169149E+00
         -2   -1    0    0    0  501 -0.00000000000E+00  0.00000000000E+00  0.92990277937E+02  0.92990277937E+02  0.00000000000E+00 0. -1.
          2   -1    0    0  501    0  0.00000000000E+00 -0.00000000000E+00 -0.36489792493E+03  0.36489792493E+03  0.00000000000E+00 0.  1.
         23    2    1    2    0    0  0.10210501138E+01 -0.13567591024E+03 -0.50730617852E+02  0.16987536183E+03  0.88741466099E+02 0.  0.
         23    2    1    2    0    0 -0.10210501138E+01  0.13567591024E+03 -0.22117702915E+03  0.28801284104E+03  0.12499249266E+03 0.  0.
          5    1    4    4  502    0  0.40763300970E+02  0.13090271429E+03 -0.13742874830E+03  0.19418011786E+03  0.47000000000E+01 0. -1.
         -5    1    4    4    0  502 -0.41784351084E+02  0.47731959522E+01 -0.83748280842E+02  0.93832723178E+02  0.47000000000E+01 0. -1.
        -11    1    3    3    0    0 -0.12853775191E+02 -0.25675888154E+02 -0.51542413011E+02  0.59000772098E+02  0.00000000000E+00 0.  1.
         11    1    3    3    0    0  0.13874825305E+02 -0.11000002209E+03  0.81179515954E+00  0.11087458973E+03  0.00000000000E+00 0. -1.
<mgrwt>
<rscale>  0 0.17861581E+03</rscale>
<asrwt>0</asrwt>
<pdfrwt beam="2">  1        2 0.56138142E-01 0.18447796E+03</pdfrwt>
<pdfrwt beam="1">  1       -2 0.14306197E-01 0.18447796E+03</pdfrwt>
<totfact> 0.32108319E+03</totfact>
</mgrwt>
</event>
<event>
 8    1  0.1224355E-005  0.1443837E+03  0.7546771E-02  0.1216522E+00
         -2   -1    0    0    0  501 -0.00000000000E+00  0.00000000000E+00  0.29922859425E+02  0.29922859425E+02  0.00000000000E+00 0.  1.
          2   -1    0    0  501    0  0.00000000000E+00 -0.00000000000E+00 -0.78073855495E+03  0.78073855495E+03  0.00000000000E+00 0. -1.
         23    2    1    2    0    0 -0.20667555830E+02  0.69267525517E+02 -0.14442273343E+03  0.18731634291E+03  0.94891245303E+02 0.  0.
         23    2    1    2    0    0  0.20667555830E+02 -0.69267525517E+02 -0.60639296209E+03  0.62334507146E+03  0.12498606196E+03 0.  0.
          5    1    4    4  502    0  0.46970087168E+02 -0.82414153689E+02 -0.56148659163E+03  0.56946252239E+03  0.47000000000E+01 0.  1.
         -5    1    4    4    0  502 -0.26302531338E+02  0.13146628171E+02 -0.44906370453E+02  0.53882549071E+02  0.47000000000E+01 0.  1.
        -11    1    3    3    0    0  0.34024569336E+02  0.51026246677E+02 -0.81106374272E+02  0.10168378984E+03  0.00000000000E+00 0.  1.
         11    1    3    3    0    0 -0.54692125165E+02  0.18241278841E+02 -0.63316359160E+02  0.85632553075E+02  0.00000000000E+00 0. -1.
<mgrwt>
<rscale>  0 0.13765351E+03</rscale>
<asrwt>0</asrwt>
<pdfrwt beam="2">  1        2 0.12011361E+00 0.14438370E+03</pdfrwt>
<pdfrwt beam="1">  1       -2 0.46035175E-02 0.14438370E+03</pdfrwt>
<totfact> 0.78586883E+03</totfact>
</mgrwt>
</event>
<event>
 8    1  0.1224355E-005  0.2020799E+03  0.7546771E-02  0.1152107E+00
         -2   -1    0    0    0  501 -0.00000000000E+00  0.00000000000E+00  0.32122275713E+02  0.32122275713E+02  0.00000000000E+00 0.  1.
          2   -1    0    0  501    0  0.00000000000E+00 -0.00000000000E+00 -0.11639384738E+04  0.11639384738E+04  0.00000000000E+00 0. -1.
         23    2    1    2    0    0 -0.36395822720E+02  0.15455156707E+03 -0.58779279738E+03  0.61571795452E+03  0.91637241739E+02 0.  0.
         23    2    1    2    0    0  0.36395822720E+02 -0.15455156707E+03 -0.54402340073E+03  0.58034279502E+03  0.12500182553E+03 0.  0.
          5    1    4    4  502    0  0.58957294367E+02 -0.15431035025E+03 -0.37556961552E+03  0.41031972028E+03  0.47000000000E+01 0.  1.
         -5    1    4    4    0  502 -0.22561471647E+02 -0.24121682511E+00 -0.16845378522E+03  0.17002307473E+03  0.47000000000E+01 0.  1.
        -11    1    3    3    0    0 -0.64282027712E+02  0.12667688954E+03 -0.42068248993E+03  0.44401911081E+03  0.00000000000E+00 0.  1.
         11    1    3    3    0    0  0.27886204992E+02  0.27874677532E+02 -0.16711030744E+03  0.17169884370E+03  0.00000000000E+00 0. -1.
<mgrwt>
<rscale>  0 0.19721870E+03</rscale>
<asrwt>0</asrwt>
<pdfrwt beam="2">  1        2 0.17906744E+00 0.20207993E+03</pdfrwt>
<pdfrwt beam="1">  1       -2 0.49418890E-02 0.20207993E+03</pdfrwt>
<totfact> 0.41482623E+03</totfact>
</mgrwt>
</event>
<event>
 8    1  0.1224355E-005  0.1708121E+03  0.7546771E-02  0.1183525E+00
         -2   -1    0    0    0  501 -0.00000000000E+00  0.00000000000E+00  0.39551570535E+02  0.39551570535E+02  0.00000000000E+00 0.  1.
          2   -1    0    0  501    0  0.00000000000E+00 -0.00000000000E+00 -0.64298167984E+03  0.64298167984E+03  0.00000000000E+00 0. -1.
         23    2    1    2    0    0  0.11016306646E+03 -0.37647550393E+02 -0.25885798144E+03  0.29794679704E+03  0.90617879311E+02 0.  0.
         23    2    1    2    0    0 -0.11016306646E+03  0.37647550393E+02 -0.34457212786E+03  0.38458645333E+03  0.12499419795E+03 0.  0.
          5    1    4    4  502    0 -0.11975284726E+03 -0.99447163701E+01 -0.26877601948E+03  0.29445250968E+03  0.47000000000E+01 0.  1.
         -5    1    4    4    0  502  0.95897807962E+01  0.47592266763E+02 -0.75796108387E+02  0.90133943651E+02  0.47000000000E+01 0.  1.
        -11    1    3    3    0    0  0.68921899714E+02 -0.22165391780E+02 -0.59299232296E+02  0.93583822341E+02  0.00000000000E+00 0.  1.
         11    1    3    3    0    0  0.41241166749E+02 -0.15482158613E+02 -0.19955874914E+03  0.20436297470E+03  0.00000000000E+00 0. -1.
<mgrwt>
<rscale>  0 0.16466773E+03</rscale>
<asrwt>0</asrwt>
<pdfrwt beam="2">  1        2 0.98920261E-01 0.17081214E+03</pdfrwt>
<pdfrwt beam="1">  1       -2 0.60848568E-02 0.17081214E+03</pdfrwt>
<totfact> 0.65635312E+03</totfact>
</mgrwt>
</event>
<event>
 8    1  0.1224355E-005  0.1255020E+03  0.7546771E-02  0.1249259E+00
         -1   -1    0    0    0  501 -0.00000000000E+00  0.00000000000E+00  0.15505852178E+02  0.15505852178E+02  0.00000000000E+00 0. -1.
          1   -1    0    0  501    0  0.00000000000E+00 -0.00000000000E+00 -0.84485284231E+03  0.84485284231E+03  0.00000000000E+00 0.  1.
         23    2    1    2    0    0 -0.33727444196E+01 -0.10728558888E+02 -0.22916289306E+03  0.24719337233E+03  0.91991599562E+02 0.  0.
         23    2    1    2    0    0  0.33727444196E+01  0.10728558888E+02 -0.60018409707E+03  0.61316532215E+03  0.12499713809E+03 0.  0.
          5    1    4    4  502    0  0.49108419493E+02 -0.16117032578E+02 -0.13000278952E+03  0.13997932307E+03  0.47000000000E+01 0.  1.
         -5    1    4    4    0  502 -0.45735675073E+02  0.26845591466E+02 -0.47018130756E+03  0.47318599908E+03  0.47000000000E+01 0.  1.
        -11    1    3    3    0    0 -0.36216892662E+02  0.45295533922E+00 -0.19558510466E+03  0.19891053679E+03  0.00000000000E+00 0.  1.
         11    1    3    3    0    0  0.32844148242E+02 -0.11181514227E+02 -0.33577788402E+02  0.48282835544E+02  0.00000000000E+00 0. -1.
<mgrwt>
<rscale>  0 0.11634038E+03</rscale>
<asrwt>0</asrwt>
<pdfrwt beam="2">  1        1 0.12997736E+00 0.12550204E+03</pdfrwt>
<pdfrwt beam="1">  1       -1 0.23855157E-02 0.12550204E+03</pdfrwt>
<totfact> 0.10692174E+04</totfact>
</mgrwt>
</event>
<event>
 8    1  0.1224355E-005  0.3343408E+03  0.7546771E-02  0.1070496E+00
          1   -1    0    0  501    0  0.00000000000E+00  0.00000000000E+00  0.91023266026E+03  0.91023266026E+03  0.00000000000E+00 0. -1.
         -1   -1    0    0    0  501 -0.00000000000E+00 -0.00000000000E+00 -0.11933732116E+03  0.11933732116E+03  0.00000000000E+00 0.  1.
         23    2    1    2    0    0  0.30305156649E+03 -0.65670334950E+02  0.34973021641E+03  0.47602643253E+03  0.90205849867E+02 0.  0.
         23    2    1    2    0    0 -0.30305156649E+03  0.65670334950E+02  0.44116512270E+03  0.55354354889E+03  0.12502379849E+03 0.  0.
          5    1    4    4  502    0 -0.68499294442E+02  0.23707317685E+02  0.30598482885E+02  0.78819714576E+02  0.47000000000E+01 0. -1.
         -5    1    4    4    0  502 -0.23455227205E+03  0.41963017265E+02  0.41056663981E+03  0.47472383432E+03  0.47000000000E+01 0. -1.
        -11    1    3    3    0    0  0.35862209548E+02 -0.26394311845E+02  0.94391279730E+02  0.10436700370E+03  0.00000000000E+00 0. -1.
         11    1    3    3    0    0  0.26718935695E+03 -0.39276023105E+02  0.25533893668E+03  0.37165942883E+03  0.00000000000E+00 0.  1.
<mgrwt>
<rscale>  0 0.33145332E+03</rscale>
<asrwt>0</asrwt>
<pdfrwt beam="1">  1        1 0.14003579E+00 0.33434084E+03</pdfrwt>
<pdfrwt beam="2">  1       -1 0.18359588E-01 0.33434084E+03</pdfrwt>
<totfact> 0.43480263E+02</totfact>
</mgrwt>
</event>
<event>
 8    1  0.1224355E-005  0.2787146E+03  0.7546771E-02  0.1097992E+00
          2   -1    0    0  501    0  0.00000000000E+00  0.00000000000E+00  0.19507384642E+03  0.19507384642E+03  0.00000000000E+00 0.  1.
         -2   -1    0    0    0  501 -0.00000000000E+00 -0.00000000000E+00 -0.38763944237E+03  0.38763944237E+03  0.00000000000E+00 0. -1.
         23    2    1    2    0    0 -0.23053933539E+03  0.94389957797E+02 -0.59553873498E+02  0.27388660660E+03  0.97001856327E+02 0.  0.
         23    2    1    2    0    0  0.23053933539E+03 -0.94389957797E+02 -0.13301172244E+03  0.30882668219E+03  0.12499580806E+03 0.  0.
          5    1    4    4  502    0  0.11551907160E+03  0.18810923109E+02 -0.60580018009E+02  0.13187317890E+03  0.47000000000E+01 0. -1.
         -5    1    4    4    0  502  0.11502026379E+03 -0.11320088091E+03 -0.72431704433E+02  0.17695350329E+03  0.47000000000E+01 0. -1.
        -11    1    3    3    0    0 -0.92897871832E+02 -0.75104506851E+01 -0.20164890619E+01  0.93222785243E+02  0.00000000000E+00 0.  1.
         11    1    3    3    0    0 -0.13764146356E+03  0.10190040848E+03 -0.57537384436E+02  0.18066382136E+03  0.00000000000E+00 0. -1.
<mgrwt>
<rscale>  0 0.27582466E+03</rscale>
<asrwt>0</asrwt>
<pdfrwt beam="1">  1        2 0.30011361E-01 0.27871455E+03</pdfrwt>
<pdfrwt beam="2">  1       -2 0.59636837E-01 0.27871455E+03</pdfrwt>
<totfact> 0.47117002E+02</totfact>
</mgrwt>
</event>
<event>
 8    1  0.1224355E-005  0.1291771E+03  0.7546771E-02  0.1242044E+00
         -2   -1    0    0    0  501 -0.00000000000E+00  0.00000000000E+00  0.15217650182E+03  0.15217650182E+03  0.00000000000E+00 0.  1.
          2   -1    0    0  501    0  0.00000000000E+00 -0.00000000000E+00 -0.10156029048E+03  0.10156029048E+03  0.00000000000E+00 0. -1.
         23    2    1    2    0    0 -0.11425478459E+02  0.30525779344E+02  0.73284259195E+02  0.12258588945E+03  0.92705732743E+02 0.  0.
         23    2    1    2    0    0  0.11425478459E+02 -0.30525779344E+02 -0.22668047858E+02  0.13115090286E+03  0.12499741663E+03 0.  0.
          5    1    4    4  502    0  0.60131832716E+02 -0.47095972275E+02 -0.21453337823E+02  0.79474546957E+02  0.47000000000E+01 0. -1.
         -5    1    4    4    0  502 -0.48706354256E+02  0.16570192931E+02 -0.12147100355E+01  0.51676355901E+02  0.47000000000E+01 0. -1.
        -11    1    3    3    0    0  0.33125314165E+02 -0.12792570968E+02  0.20158459733E+02  0.40832582692E+02  0.00000000000E+00 0.  1.
         11    1    3    3    0    0 -0.44550792624E+02  0.43318350312E+02  0.53125799462E+02  0.81753306757E+02  0.00000000000E+00 0. -1.
<mgrwt>
<rscale>  0 0.12064041E+03</rscale>
<asrwt>0</asrwt>
<pdfrwt beam="2">  1        2 0.15624660E-01 0.12917708E+03</pdfrwt>
<pdfrwt beam="1">  1       -2 0.23411769E-01 0.12917708E+03</pdfrwt>
<totfact> 0.56146307E+03</totfact>
</mgrwt>
</event>
<event>
 8    1  0.1224355E-005  0.1480179E+03  0.7546771E-02  0.1211397E+00
          1   -1    0    0  501    0  0.00000000000E+00  0.00000000000E+00  0.16993952513E+03  0.16993952513E+03  0.00000000000E+00 0. -1.
         -1   -1    0    0    0  501 -0.00000000000E+00 -0.00000000000E+00 -0.10846649475E+03  0.10846649475E+03  0.00000000000E+00 0.  1.
         23    2    1    2    0    0  0.77331278914E+02  0.17416582414E+02  0.31489334892E+02  0.12738176325E+03  0.94610101758E+02 0.  0.
         23    2    1    2    0    0 -0.77331278914E+02 -0.17416582414E+02  0.29983695486E+02  0.15102425663E+03  0.12500336017E+03 0.  0.
          5    1    4    4  502    0 -0.43504561278E+02 -0.70149405706E+02  0.32356907930E+01  0.82741438637E+02  0.47000000000E+01 0.  1.
         -5    1    4    4    0  502 -0.33826717636E+02  0.52732823291E+02  0.26748004693E+02  0.68282817995E+02  0.47000000000E+01 0.  1.
        -11    1    3    3    0    0 -0.58717377581E+01  0.31830998851E+02 -0.91961073930E+01  0.33649044315E+02  0.00000000000E+00 0.  1.
         11    1    3    3    0    0  0.83203016672E+02 -0.14414416437E+02  0.40685442285E+02  0.93732718933E+02  0.00000000000E+00 0. -1.
<mgrwt>
<rscale>  0 0.14144558E+03</rscale>
<asrwt>0</asrwt>
<pdfrwt beam="1">  1        1 0.26144542E-01 0.14801792E+03</pdfrwt>
<pdfrwt beam="2">  1       -1 0.16687153E-01 0.14801792E+03</pdfrwt>
<totfact> 0.47047814E+03</totfact>
</mgrwt>
</event>
<event>
 8    1  0.1224355E-005  0.1336850E+03  0.7546771E-02  0.1233746E+00
          2   -1    0    0  501    0  0.00000000000E+00  0.00000000000E+00  0.66252200269E+03  0.66252200269E+03  0.00000000000E+00 0. -1.
         -2   -1    0    0    0  501 -0.00000000000E+00 -0.00000000000E+00 -0.22038113498E+02  0.22038113498E+02  0.00000000000E+00 0.  1.
         23    2    1    2    0    0 -0.38998487134E+02 -0.26961745812E+02  0.22943493369E+03  0.25231838333E+03  0.93682228994E+02 0.  0.
         23    2    1    2    0    0  0.38998487134E+02  0.26961745812E+02  0.41104895550E+03  0.43224173286E+03  0.12499541622E+03 0.  0.
          5    1    4    4  502    0  0.95252539186E+01 -0.45351051613E+02  0.84856506895E+02  0.96799613155E+02  0.47000000000E+01 0.  1.
         -5    1    4    4    0  502  0.29473233216E+02  0.72312797426E+02  0.32619244860E+03  0.33544211971E+03  0.47000000000E+01 0.  1.
        -11    1    3    3    0    0  0.69015539878E+01 -0.26195525386E+02  0.11210062841E+02  0.29317273178E+02  0.00000000000E+00 0. -1.
         11    1    3    3    0    0 -0.45900041122E+02 -0.76622042640E+00  0.21822487085E+03  0.22300111015E+03  0.00000000000E+00 0.  1.
<mgrwt>
<rscale>  0 0.12585058E+03</rscale>
<asrwt>0</asrwt>
<pdfrwt beam="1">  1        2 0.10192645E+00 0.13368497E+03</pdfrwt>
<pdfrwt beam="2">  1       -2 0.33904795E-02 0.13368497E+03</pdfrwt>
<totfact> 0.15003048E+04</totfact>
</mgrwt>
</event>
<event>
 6    1  0.1224355E-005  0.3184955E+03  0.7546771E-02  0.1128711E+00
         -2   -1    0    0    0  501 -0.00000000000E+00  0.00000000000E+00  0.36221179133E+02  0.36221179133E+02  0.00000000000E+00 0.  1.
          2   -1    0    0  501    0  0.00000000000E+00 -0.00000000000E+00 -0.17207997202E+04  0.17207997202E+04  0.00000000000E+00 0. -1.
          5    1    1    2  502    0  0.10076492461E+03  0.10069245299E+02 -0.14392170034E+04  0.14427829471E+04  0.47000000000E+01 0. -1.
         -5    1    1    2    0  502 -0.67961299258E+02 -0.78805399915E+02 -0.18449832488E+03  0.21187437584E+03  0.47000000000E+01 0.  1.
        -11    1    1    2    0    0 -0.22258071832E+02  0.66745655721E+02 -0.58188869622E+02  0.91303608183E+02  0.00000000000E+00 0.  1.
         11    1    1    2    0    0 -0.10545553517E+02  0.19904988959E+01 -0.26743431997E+01  0.11059968191E+02  0.00000000000E+00 0. -1.
<mgrwt>
<rscale>  0 0.22708210E+03</rscale>
<asrwt>0</asrwt>
<pdfrwt beam="2">  1        2 0.26473836E+00 0.31849551E+03</pdfrwt>
<pdfrwt beam="1">  1       -2 0.55724904E-02 0.31849551E+03</pdfrwt>
<totfact> 0.17232908E+03</totfact>
</mgrwt>
</event>
<event>
 8    1  0.1224355E-005  0.1251718E+03  0.7546771E-02  0.1250967E+00
         -2   -1    0    0    0  501 -0.00000000000E+00  0.00000000000E+00  0.13567241224E+02  0.13567241224E+02  0.00000000000E+00 0.  1.
          2   -1    0    0  501    0  0.00000000000E+00 -0.00000000000E+00 -0.99578917749E+03  0.99578917749E+03  0.00000000000E+00 0. -1.
         23    2    1    2    0    0 -0.38250949272E+01  0.53300173162E+01 -0.23542044885E+03  0.25213753847E+03  0.90041713276E+02 0.  0.
         23    2    1    2    0    0  0.38250949272E+01 -0.53300173162E+01 -0.74680148741E+03  0.75721888024E+03  0.12499972227E+03 0.  0.
          5    1    4    4  502    0  0.63351140233E+01 -0.74577092248E+01 -0.75037900816E+03  0.75045752510E+03  0.47000000000E+01 0. -1.
         -5    1    4    4    0  502 -0.25100190961E+01  0.21276919086E+01  0.35775207467E+01  0.67613551463E+01  0.47000000000E+01 0. -1.
        -11    1    3    3    0    0 -0.42751560210E+02 -0.68248423294E+01 -0.74839519776E+02  0.86459401417E+02  0.00000000000E+00 0.  1.
         11    1    3    3    0    0  0.38926465283E+02  0.12154859646E+02 -0.16058092908E+03  0.16567813705E+03  0.00000000000E+00 0. -1.
<mgrwt>
<rscale>  0 0.11535280E+03</rscale>
<asrwt>0</asrwt>
<pdfrwt beam="2">  1        2 0.15319830E+00 0.12517177E+03</pdfrwt>
<pdfrwt beam="1">  1       -2 0.20872684E-02 0.12517177E+03</pdfrwt>
<totfact> 0.18201205E+04</totfact>
</mgrwt>
</event>
<event>
 8    1  0.1224355E-005  0.1345356E+03  0.7546771E-02  0.1232287E+00
         -2   -1    0    0    0  501 -0.00000000000E+00  0.00000000000E+00  0.32745030491E+02  0.32745030491E+02  0.00000000000E+00 0.  1.
          2   -1    0    0  501    0  0.00000000000E+00 -0.00000000000E+00 -0.71256274042E+03  0.71256274042E+03  0.00000000000E+00 0. -1.
         23    2    1    2    0    0  0.27456638069E+02  0.41476511659E+02 -0.86513310307E+02  0.13694116643E+03  0.93777194509E+02 0.  0.
         23    2    1    2    0    0 -0.27456638069E+02 -0.41476511659E+02 -0.59330439963E+03  0.60836660448E+03  0.12500258734E+03 0.  0.
          5    1    4    4  502    0  0.34754691354E+02 -0.47587125618E+02 -0.41865170453E+03  0.42280463905E+03  0.47000000000E+01 0. -1.
         -5    1    4    4    0  502 -0.62211329422E+02  0.61106139588E+01 -0.17465269510E+03  0.18556196543E+03  0.47000000000E+01 0. -1.
        -11    1    3    3    0    0 -0.15857789186E+02 -0.16651322979E+02  0.13496257666E+01  0.23033834343E+02  0.00000000000E+00 0. -1.
         11    1    3    3    0    0  0.43314427255E+02  0.58127834638E+02 -0.87862936074E+02  0.11390733209E+03  0.00000000000E+00 0.  1.
<mgrwt>
<rscale>  0 0.12679737E+03</rscale>
<asrwt>0</asrwt>
<pdfrwt beam="2">  1        2 0.10962503E+00 0.13453555E+03</pdfrwt>
<pdfrwt beam="1">  1       -2 0.50376971E-02 0.13453555E+03</pdfrwt>
<totfact> 0.76409515E+03</totfact>
</mgrwt>
</event>
<event>
 7    1  0.1224355E-005  0.1764689E+03  0.7546771E-02  0.1200473E+00
         -1   -1    0    0    0  501 -0.00000000000E+00  0.00000000000E+00  0.15179894535E+03  0.15179894535E+03  0.00000000000E+00 0.  1.
          1   -1    0    0  501    0  0.00000000000E+00 -0.00000000000E+00 -0.18747828215E+04  0.18747828215E+04  0.00000000000E+00 0. -1.
         23    2    1    2    0    0 -0.15656637682E+01 -0.70179707455E+01  0.13324145849E+03  0.16198697130E+03  0.91841109492E+02 0.  0.
          5    1    1    2  502    0  0.17115577525E+02 -0.11341605484E+02 -0.18239176680E+04  0.18240392882E+04  0.47000000000E+01 0. -1.
         -5    1    1    2    0  502 -0.15549913756E+02  0.18359576229E+02 -0.32307666633E+02  0.40555507399E+02  0.47000000000E+01 0.  1.
        -11    1    3    3    0    0 -0.63516392239E-01  0.19365152213E+02 -0.59895389202E+01  0.20270365834E+02  0.00000000000E+00 0. -1.
         11    1    3    3    0    0 -0.15021473760E+01 -0.26383122958E+02  0.13923099741E+03  0.14171660547E+03  0.00000000000E+00 0.  1.
<mgrwt>
<rscale>  0 0.15000029E+03</rscale>
<asrwt>0</asrwt>
<pdfrwt beam="2">  1        1 0.28842811E+00 0.17646886E+03</pdfrwt>
<pdfrwt beam="1">  1       -1 0.23353685E-01 0.17646886E+03</pdfrwt>
<totfact> 0.66464673E+01</totfact>
</mgrwt>
</event>
<event>
 8    1  0.1224355E-005  0.1496230E+03  0.7546771E-02  0.1210279E+00
          1   -1    0    0  501    0  0.00000000000E+00  0.00000000000E+00  0.27099402682E+03  0.27099402682E+03  0.00000000000E+00 0. -1.
         -1   -1    0    0    0  501 -0.00000000000E+00 -0.00000000000E+00 -0.69001866273E+02  0.69001866273E+02  0.00000000000E+00 0.  1.
         23    2    1    2    0    0 -0.66479825418E+02 -0.48468339531E+02  0.73392366826E+02  0.14270184900E+03  0.90601495994E+02 0.  0.
         23    2    1    2    0    0  0.66479825418E+02  0.48468339531E+02  0.12859979372E+03  0.19729404409E+03  0.12497314017E+03 0.  0.
          5    1    4    4  502    0  0.96269765432E+02  0.20007467650E+02  0.54858391672E+02  0.11269294403E+03  0.47000000000E+01 0.  1.
         -5    1    4    4    0  502 -0.29789940015E+02  0.28460871881E+02  0.73741402051E+02  0.84601100056E+02  0.47000000000E+01 0.  1.
        -11    1    3    3    0    0 -0.41995085808E+02 -0.72321177349E+02  0.33300730040E+02  0.90015990503E+02  0.00000000000E+00 0.  1.
         11    1    3    3    0    0 -0.24484739610E+02  0.23852837818E+02  0.40091636786E+02  0.52685858500E+02  0.00000000000E+00 0. -1.
<mgrwt>
<rscale>  0 0.14229124E+03</rscale>
<asrwt>0</asrwt>
<pdfrwt beam="1">  1        1 0.41691388E-01 0.14962297E+03</pdfrwt>
<pdfrwt beam="2">  1       -1 0.10615672E-01 0.14962297E+03</pdfrwt>
<totfact> 0.53281763E+03</totfact>
</mgrwt>
</event>
<event>
 8    1  0.1224355E-005  0.1547055E+03  0.7546771E-02  0.1202919E+00
         -2   -1    0    0    0  501 -0.00000000000E+00  0.00000000000E+00  0.37196226510E+02  0.37196226510E+02  0.00000000000E+00 0.  1.
          2   -1    0    0  501    0  0.00000000000E+00 -0.00000000000E+00 -0.20365327150E+04  0.20365327150E+04  0.00000000000E+00 0. -1.
         23    2    1    2    0    0 -0.57537109135E+01 -0.90967118554E+02 -0.89320589404E+02  0.15745795045E+03  0.92231863376E+02 0.  0.
         23    2    1    2    0    0  0.57537109135E+01  0.90967118554E+02 -0.19100158991E+04  0.19162709911E+04  0.12500261821E+03 0.  0.
          5    1    4    4  502    0 -0.56169278574E+01  0.11540926146E+03 -0.11585678141E+04  0.11643248333E+04  0.47000000000E+01 0. -1.
         -5    1    4    4    0  502  0.11370638771E+02 -0.24442142907E+02 -0.75144808499E+03  0.75194615779E+03  0.47000000000E+01 0. -1.
        -11    1    3    3    0    0  0.21605022702E+02 -0.73162284960E+02 -0.17064709791E+02  0.78170974580E+02  0.00000000000E+00 0.  1.
         11    1    3    3    0    0 -0.27358733615E+02 -0.17804833594E+02 -0.72255879613E+02  0.79286975873E+02  0.00000000000E+00 0. -1.
<mgrwt>
<rscale>  0 0.14802695E+03</rscale>
<asrwt>0</asrwt>
<pdfrwt beam="2">  1        2 0.31331279E+00 0.15470545E+03</pdfrwt>
<pdfrwt beam="1">  1       -2 0.57224953E-02 0.15470545E+03</pdfrwt>
<totfact> 0.11496108E+03</totfact>
</mgrwt>
</event>
<event>
 8    1  0.1224355E-005  0.1485917E+03  0.7546771E-02  0.1211884E+00
          1   -1    0    0  501    0  0.00000000000E+00  0.00000000000E+00  0.39110804272E+02  0.39110804272E+02  0.00000000000E+00 0. -1.
         -1   -1    0    0    0  501 -0.00000000000E+00 -0.00000000000E+00 -0.47605528805E+03  0.47605528805E+03  0.00000000000E+00 0.  1.
         23    2    1    2    0    0 -0.74498895148E+02  0.30078240962E+02 -0.23775174290E+03  0.26665606251E+03  0.90137553019E+02 0.  0.
         23    2    1    2    0    0  0.74498895148E+02 -0.30078240962E+02 -0.19919274088E+03  0.24851002981E+03  0.12499880376E+03 0.  0.
          5    1    4    4  502    0  0.23895215068E+02 -0.24354937366E+02 -0.19408002382E+03  0.19711237892E+03  0.47000000000E+01 0. -1.
         -5    1    4    4    0  502  0.50603680080E+02 -0.57233035956E+01 -0.51127170587E+01  0.51397650894E+02  0.47000000000E+01 0. -1.
        -11    1    3    3    0    0  0.12811793971E+02  0.26969376652E+02 -0.35801007929E+02  0.46617609447E+02  0.00000000000E+00 0. -1.
         11    1    3    3    0    0 -0.87310689119E+02  0.31088643096E+01 -0.20195073497E+03  0.22003845307E+03  0.00000000000E+00 0.  1.
<mgrwt>
<rscale>  0 0.14107951E+03</rscale>
<asrwt>0</asrwt>
<pdfrwt beam="1">  1        1 0.60170464E-02 0.14859168E+03</pdfrwt>
<pdfrwt beam="2">  1       -1 0.73239280E-01 0.14859168E+03</pdfrwt>
<totfact> 0.24479439E+03</totfact>
</mgrwt>
</event>
<event>
 8    1  0.1224355E-005  0.1733828E+03  0.7546771E-02  0.1180486E+00
         -1   -1    0    0    0  501 -0.00000000000E+00  0.00000000000E+00  0.56802572616E+02  0.56802572616E+02  0.00000000000E+00 0.  1.
          1   -1    0    0  501    0  0.00000000000E+00 -0.00000000000E+00 -0.63084456043E+03  0.63084456043E+03  0.00000000000E+00 0. -1.
         23    2    1    2    0    0 -0.32742477958E+02  0.11560436831E+03 -0.95508494357E+02  0.17867178953E+03  0.91461992352E+02 0.  0.
         23    2    1    2    0    0  0.32742477958E+02 -0.11560436831E+03 -0.47853349345E+03  0.50897534351E+03  0.12500062443E+03 0.  0.
          5    1    4    4  502    0 -0.17619964232E+02 -0.12109333623E+03 -0.34334878071E+03  0.36453331046E+03  0.47000000000E+01 0.  1.
         -5    1    4    4    0  502  0.50362442190E+02  0.54889679149E+01 -0.13518471274E+03  0.14444203305E+03  0.47000000000E+01 0.  1.
        -11    1    3    3    0    0 -0.80638155743E+01  0.56779466879E+02 -0.99404067926E+02  0.11476106352E+03  0.00000000000E+00 0. -1.
         11    1    3    3    0    0 -0.24678662384E+02  0.58824901435E+02  0.38955735686E+01  0.63910726012E+02  0.00000000000E+00 0.  1.
<mgrwt>
<rscale>  0 0.16749448E+03</rscale>
<asrwt>0</asrwt>
<pdfrwt beam="2">  1        1 0.97053006E-01 0.17338280E+03</pdfrwt>
<pdfrwt beam="1">  1       -1 0.87388576E-02 0.17338280E+03</pdfrwt>
<totfact> 0.24323279E+03</totfact>
</mgrwt>
</event>
<event>
 8    1  0.1224355E-005  0.1417355E+03  0.7546771E-02  0.1225910E+00
         -1   -1    0    0    0  501 -0.00000000000E+00  0.00000000000E+00  0.19371759831E+02  0.19371759831E+02  0.00000000000E+00 0.  1.
          1   -1    0    0  501    0  0.00000000000E+00 -0.00000000000E+00 -0.77677089722E+03  0.77677089722E+03  0.00000000000E+00 0. -1.
         23    2    1    2    0    0 -0.19859268986E+02  0.63789687236E+02 -0.31482356309E+03  0.33142544553E+03  0.79154502762E+02 0.  0.
         23    2    1    2    0    0  0.19859268986E+02 -0.63789687236E+02 -0.44257557430E+03  0.46471721152E+03  0.12500173180E+03 0.  0.
          5    1    4    4  502    0  0.53335917002E+02 -0.69501791490E+02 -0.40262304600E+03  0.41207114220E+03  0.47000000000E+01 0.  1.
         -5    1    4    4    0  502 -0.33476648016E+02  0.57121042547E+01 -0.39952528306E+02  0.52646069325E+02  0.47000000000E+01 0.  1.
        -11    1    3    3    0    0 -0.24336484316E+01  0.78121770464E+02 -0.27219249416E+03  0.28319196235E+03  0.00000000000E+00 0. -1.
         11    1    3    3    0    0 -0.17425620554E+02 -0.14332083229E+02 -0.42631068932E+02  0.48233483180E+02  0.00000000000E+00 0.  1.
<mgrwt>
<rscale>  0 0.13104746E+03</rscale>
<asrwt>0</asrwt>
<pdfrwt beam="2">  1        1 0.11950320E+00 0.14173549E+03</pdfrwt>
<pdfrwt beam="1">  1       -1 0.29802710E-02 0.14173549E+03</pdfrwt>
<totfact> 0.88573747E+03</totfact>
</mgrwt>
</event>
<event>
 8    1  0.1224355E-005  0.1328791E+03  0.7546771E-02  0.1232878E+00
          1   -1    0    0  501    0  0.00000000000E+00  0.00000000000E+00  0.74999278332E+03  0.74999278332E+03  0.00000000000E+00 0. -1.
         -1   -1    0    0    0  501 -0.00000000000E+00 -0.00000000000E+00 -0.19589737851E+02  0.19589737851E+02  0.00000000000E+00 0.  1.
         23    2    1    2    0    0  0.66197815717E+01 -0.50808961353E+02  0.29996934961E+03  0.31910498262E+03  0.96026075468E+02 0.  0.
         23    2    1    2    0    0 -0.66197815717E+01  0.50808961353E+02  0.43043369586E+03  0.45047753855E+03  0.12260291244E+03 0.  0.
          5    1    4    4  502    0 -0.25796561584E+02  0.82063531644E+02  0.36773301138E+03  0.37768974499E+03  0.47000000000E+01 0. -1.
         -5    1    4    4    0  502  0.19176780012E+02 -0.31254570292E+02  0.62700684487E+02  0.72787793557E+02  0.47000000000E+01 0.  1.
        -11    1    3    3    0    0  0.18768772408E+02  0.19816023046E+02  0.15506479115E+03  0.15744850282E+03  0.00000000000E+00 0. -1.
         11    1    3    3    0    0 -0.12148990837E+02 -0.70624984399E+02  0.14490455846E+03  0.16165647980E+03  0.00000000000E+00 0.  1.
<mgrwt>
<rscale>  0 0.12641268E+03</rscale>
<asrwt>0</asrwt>
<pdfrwt beam="1">  1        1 0.11538348E+00 0.13287907E+03</pdfrwt>
<pdfrwt beam="2">  1       -1 0.30138064E-02 0.13287907E+03</pdfrwt>
<totfact> 0.91424956E+03</totfact>
</mgrwt>
</event>
<event>
 8    1  0.1224355E-005  0.1201379E+03  0.7546771E-02  0.1254496E+00
          2   -1    0    0  501    0  0.00000000000E+00  0.00000000000E+00  0.15675309748E+04  0.15675309748E+04  0.00000000000E+00 0. -1.
         -2   -1    0    0    0  501 -0.00000000000E+00 -0.00000000000E+00 -0.13645225471E+02  0.13645225471E+02  0.00000000000E+00 0.  1.
         23    2    1    2    0    0  0.23997767769E+02 -0.26802013737E+02  0.19502753153E+03  0.21701756490E+03  0.88128568715E+02 0.  0.
         23    2    1    2    0    0 -0.23997767769E+02  0.26802013737E+02  0.13588582178E+04  0.13641586353E+04  0.11462497795E+03 0.  0.
          5    1    4    4  502    0  0.31455784756E+01  0.61292350041E+02  0.10868963413E+04  0.10886378616E+04  0.47000000000E+01 0. -1.
         -5    1    4    4    0  502 -0.27143346245E+02 -0.34490336304E+02  0.27196187641E+03  0.27552077374E+03  0.47000000000E+01 0.  1.
        -11    1    3    3    0    0  0.57451662476E+02 -0.21352198634E+02  0.12480983548E+03  0.13904713208E+03  0.00000000000E+00 0.  1.
         11    1    3    3    0    0 -0.33453894707E+02 -0.54498151030E+01  0.70217696049E+02  0.77970432820E+02  0.00000000000E+00 0. -1.
<mgrwt>
<rscale>  0 0.11334607E+03</rscale>
<asrwt>0</asrwt>
<pdfrwt beam="1">  1        2 0.24115847E+00 0.12013795E+03</pdfrwt>
<pdfrwt beam="2">  1       -2 0.20992667E-02 0.12013795E+03</pdfrwt>
<totfact> 0.87968632E+03</totfact>
</mgrwt>
</event>
<event>
 8    1  0.1224355E-005  0.1292004E+03  0.7546771E-02  0.1241472E+00
          2   -1    0    0  501    0  0.00000000000E+00  0.00000000000E+00  0.18471765013E+04  0.18471765013E+04  0.00000000000E+00 0. -1.
         -2   -1    0    0    0  501 -0.00000000000E+00 -0.00000000000E+00 -0.15292361978E+02  0.15292361978E+02  0.00000000000E+00 0.  1.
         23    2    1    2    0    0  0.18579926181E+01 -0.34376195852E+02  0.18051640579E+03  0.20605461994E+03  0.93204928298E+02 0.  0.
         23    2    1    2    0    0 -0.18579926181E+01  0.34376195852E+02  0.16513677335E+04  0.16564142433E+04  0.12452943115E+03 0.  0.
          5    1    4    4  502    0 -0.28452204247E+02  0.26451203517E+02  0.15667484503E+04  0.15672370563E+04  0.47000000000E+01 0. -1.
         -5    1    4    4    0  502  0.26594211629E+02  0.79249923353E+01  0.84619283211E+02  0.89177187032E+02  0.47000000000E+01 0.  1.
        -11    1    3    3    0    0 -0.17873837112E+02 -0.24376281560E+02  0.18141432965E+03  0.18391529615E+03  0.00000000000E+00 0. -1.
         11    1    3    3    0    0  0.19731829730E+02 -0.99999142919E+01 -0.89792385919E+00  0.22139323784E+02  0.00000000000E+00 0.  1.
<mgrwt>
<rscale>  0 0.12099028E+03</rscale>
<asrwt>0</asrwt>
<pdfrwt beam="1">  1        2 0.28418082E+00 0.12920044E+03</pdfrwt>
<pdfrwt beam="2">  1       -2 0.23526725E-02 0.12920044E+03</pdfrwt>
<totfact> 0.53771798E+03</totfact>
</mgrwt>
</event>
<event>
 8    1  0.1224355E-005  0.1565929E+03  0.7546771E-02  0.1200828E+00
         -2   -1    0    0    0  501 -0.00000000000E+00  0.00000000000E+00  0.16300278640E+02  0.16300278640E+02  0.00000000000E+00 0. -1.
          2   -1    0    0  501    0  0.00000000000E+00 -0.00000000000E+00 -0.12782769875E+04  0.12782769875E+04  0.00000000000E+00 0.  1.
         23    2    1    2    0    0 -0.59796566437E+02  0.72942816845E+02 -0.51444692964E+03  0.53082199407E+03  0.90664558068E+02 0.  0.
         23    2    1    2    0    0  0.59796566437E+02 -0.72942816845E+02 -0.74752977919E+03  0.76375527204E+03  0.12500024360E+03 0.  0.
          5    1    4    4  502    0  0.82819714087E+02 -0.88013123484E+02 -0.68018706886E+03  0.69085595720E+03  0.47000000000E+01 0.  1.
         -5    1    4    4    0  502 -0.23023147649E+02  0.15070306640E+02 -0.67342710332E+02  0.72899314844E+02  0.47000000000E+01 0.  1.
        -11    1    3    3    0    0 -0.38319670241E+02  0.89553896995E+02 -0.45721820527E+03  0.46747918116E+03  0.00000000000E+00 0. -1.
         11    1    3    3    0    0 -0.21476896196E+02 -0.16611080150E+02 -0.57228724376E+02  0.63342812912E+02  0.00000000000E+00 0.  1.
<mgrwt>
<rscale>  0 0.14971161E+03</rscale>
<asrwt>0</asrwt>
<pdfrwt beam="2">  1        2 0.19665799E+00 0.15659293E+03</pdfrwt>
<pdfrwt beam="1">  1       -2 0.25077353E-02 0.15659293E+03</pdfrwt>
<totfact> 0.97561106E+03</totfact>
</mgrwt>
</event>
<event>
 8    1  0.1224355E-005  0.1338081E+03  0.7546771E-02  0.1234589E+00
         -1   -1    0    0    0  501 -0.00000000000E+00  0.00000000000E+00  0.26305347183E+03  0.26305347183E+03  0.00000000000E+00 0.  1.
          1   -1    0    0  501    0  0.00000000000E+00 -0.00000000000E+00 -0.54592541914E+02  0.54592541914E+02  0.00000000000E+00 0. -1.
         23    2    1    2    0    0  0.47180411620E+02 -0.73810402766E+01  0.66313665758E+02  0.12242705605E+03  0.91161454520E+02 0.  0.
         23    2    1    2    0    0 -0.47180411620E+02  0.73810402766E+01  0.14214726416E+03  0.19521895770E+03  0.12499650291E+03 0.  0.
          5    1    4    4  502    0 -0.69890849954E+01 -0.28757687096E+02  0.13754420134E+03  0.14077055515E+03  0.47000000000E+01 0. -1.
         -5    1    4    4    0  502 -0.40191326625E+02  0.36138727373E+02  0.46030628179E+01  0.54448402541E+02  0.47000000000E+01 0. -1.
        -11    1    3    3    0    0  0.27786991481E+02  0.39703864949E+02  0.16504841978E+02  0.51194956746E+02  0.00000000000E+00 0. -1.
         11    1    3    3    0    0  0.19393420139E+02 -0.47084905225E+02  0.49808823780E+02  0.71232099303E+02  0.00000000000E+00 0.  1.
<mgrwt>
<rscale>  0 0.12530783E+03</rscale>
<asrwt>0</asrwt>
<pdfrwt beam="2">  1        1 0.83988527E-02 0.13380806E+03</pdfrwt>
<pdfrwt beam="1">  1       -1 0.40469764E-01 0.13380806E+03</pdfrwt>
<totfact> 0.46935592E+03</totfact>
</mgrwt>
</event>
<event>
 8    1  0.1224355E-005  0.1401589E+03  0.7546771E-02  0.1227516E+00
         -3   -1    0    0    0  501 -0.00000000000E+00  0.00000000000E+00  0.16675512365E+03  0.16675512365E+03  0.00000000000E+00 0.  1.
          3   -1    0    0  501    0  0.00000000000E+00 -0.00000000000E+00 -0.10736236331E+03  0.10736236331E+03  0.00000000000E+00 0. -1.
         23    2    1    2    0    0 -0.85542233404E+01  0.62838884833E+02  0.82025341834E+02  0.13214300227E+03  0.81925064313E+02 0.  0.
         23    2    1    2    0    0  0.85542233404E+01 -0.62838884833E+02 -0.22632581487E+02  0.14197448468E+03  0.12499048113E+03 0.  0.
          5    1    4    4  502    0 -0.20602965639E+02 -0.78295447182E+02 -0.53001712855E+02  0.96881013662E+02  0.47000000000E+01 0. -1.
         -5    1    4    4    0  502  0.29157188979E+02  0.15456562350E+02  0.30369131368E+02  0.45093471023E+02  0.47000000000E+01 0. -1.
        -11    1    3    3    0    0  0.13983333833E+02  0.55001843269E+02  0.11787561489E+02  0.57962772483E+02  0.00000000000E+00 0. -1.
         11    1    3    3    0    0 -0.22537557173E+02  0.78370415636E+01  0.70237780345E+02  0.74180229790E+02  0.00000000000E+00 0.  1.
<mgrwt>
<rscale>  0 0.12995973E+03</rscale>
<asrwt>0</asrwt>
<pdfrwt beam="2">  1        3 0.16517287E-01 0.14015891E+03</pdfrwt>
<pdfrwt beam="1">  1       -3 0.25654634E-01 0.14015891E+03</pdfrwt>
<totfact> 0.10429415E+03</totfact>
</mgrwt>
</event>
<event>
 8    1  0.1224355E-005  0.1343539E+03  0.7546771E-02  0.1233704E+00
         -4   -1    0    0    0  501 -0.00000000000E+00  0.00000000000E+00  0.90233670563E+02  0.90233670563E+02  0.00000000000E+00 0.  1.
          4   -1    0    0  501    0  0.00000000000E+00 -0.00000000000E+00 -0.15811188235E+03  0.15811188235E+03  0.00000000000E+00 0. -1.
         23    2    1    2    0    0  0.11894414426E+02 -0.47785308941E+02 -0.18265912700E+02  0.10512418988E+03  0.91063378400E+02 0.  0.
         23    2    1    2    0    0 -0.11894414426E+02  0.47785308941E+02 -0.49612299090E+02  0.14322136304E+03  0.12500426299E+03 0.  0.
          5    1    4    4  502    0 -0.60960810606E+01  0.81032519448E+02 -0.66576980570E+02  0.10515710035E+03  0.47000000000E+01 0. -1.
         -5    1    4    4    0  502 -0.57983333655E+01 -0.33247210507E+02  0.16964681479E+02  0.38064262688E+02  0.47000000000E+01 0. -1.
        -11    1    3    3    0    0 -0.19238469159E+02 -0.19489221907E+02 -0.46846639363E+02  0.54263764021E+02  0.00000000000E+00 0. -1.
         11    1    3    3    0    0  0.31132883586E+02 -0.28296087033E+02  0.28580726663E+02  0.50860425857E+02  0.00000000000E+00 0.  1.
<mgrwt>
<rscale>  0 0.12587782E+03</rscale>
<asrwt>0</asrwt>
<pdfrwt beam="2">  1        4 0.24324905E-01 0.13435393E+03</pdfrwt>
<pdfrwt beam="1">  1       -4 0.13882103E-01 0.13435393E+03</pdfrwt>
<totfact> 0.11200474E+03</totfact>
</mgrwt>
</event>
<event>
 8    1  0.1224355E-005  0.1893277E+03  0.7546771E-02  0.1164544E+00
         -2   -1    0    0    0  501 -0.00000000000E+00  0.00000000000E+00  0.23579698013E+03  0.23579698013E+03  0.00000000000E+00 0. -1.
          2   -1    0    0  501    0  0.00000000000E+00 -0.00000000000E+00 -0.14470595399E+03  0.14470595399E+03  0.00000000000E+00 0.  1.
         23    2    1    2    0    0 -0.11486111956E+03 -0.83830730998E+02  0.93486384739E+02  0.19116007092E+03  0.87073534088E+02 0.  0.
         23    2    1    2    0    0  0.11486111956E+03  0.83830730998E+02 -0.23953585949E+01  0.18934286320E+03  0.12499725539E+03 0.  0.
          5    1    4    4  502    0  0.80036870293E+02  0.10897206011E+03  0.25831463836E+02  0.13773222214E+03  0.47000000000E+01 0. -1.
         -5    1    4    4    0  502  0.34824249264E+02 -0.25141329109E+02 -0.28226822431E+02  0.51610641061E+02  0.47000000000E+01 0. -1.
        -11    1    3    3    0    0 -0.84981794441E+02 -0.95776541637E+02  0.94219590459E+02  0.15897289876E+03  0.00000000000E+00 0.  1.
         11    1    3    3    0    0 -0.29879325116E+02  0.11945810638E+02 -0.73320572055E+00  0.32187172163E+02  0.00000000000E+00 0. -1.
<mgrwt>
<rscale>  0 0.18340918E+03</rscale>
<asrwt>0</asrwt>
<pdfrwt beam="2">  1        2 0.22262455E-01 0.18932771E+03</pdfrwt>
<pdfrwt beam="1">  1       -2 0.36276458E-01 0.18932771E+03</pdfrwt>
<totfact> 0.17387089E+03</totfact>
</mgrwt>
</event>
<event>
 8    1  0.1224355E-005  0.1369712E+03  0.7546771E-02  0.1234899E+00
         -4   -1    0    0    0  501 -0.00000000000E+00  0.00000000000E+00  0.40545479434E+02  0.40545479434E+02  0.00000000000E+00 0.  1.
          4   -1    0    0  501    0  0.00000000000E+00 -0.00000000000E+00 -0.45191413816E+03  0.45191413816E+03  0.00000000000E+00 0. -1.
         23    2    1    2    0    0  0.55603412900E+02 -0.66285701154E+01 -0.53611936601E+02  0.10937871428E+03  0.77160779699E+02 0.  0.
         23    2    1    2    0    0 -0.55603412900E+02  0.66285701154E+01 -0.35775672212E+03  0.38308090331E+03  0.12500171515E+03 0.  0.
          5    1    4    4  502    0 -0.89194668659E+02  0.29953233934E+02 -0.27425215851E+03  0.28998141593E+03  0.47000000000E+01 0.  1.
         -5    1    4    4    0  502  0.33591255758E+02 -0.23324663818E+02 -0.83504563614E+02  0.93099487378E+02  0.47000000000E+01 0.  1.
        -11    1    3    3    0    0  0.68535425322E+02  0.14454841762E+02 -0.34253531598E+02  0.77970195597E+02  0.00000000000E+00 0.  1.
         11    1    3    3    0    0 -0.12932012422E+02 -0.21083411877E+02 -0.19358405003E+02  0.31408518684E+02  0.00000000000E+00 0. -1.
<mgrwt>
<rscale>  0 0.12510919E+03</rscale>
<asrwt>0</asrwt>
<pdfrwt beam="2">  1        4 0.69525254E-01 0.13697119E+03</pdfrwt>
<pdfrwt beam="1">  1       -4 0.62377659E-02 0.13697119E+03</pdfrwt>
<totfact> 0.53600978E+02</totfact>
</mgrwt>
</event>
<event>
 8    1  0.1224355E-005  0.1815045E+03  0.7546771E-02  0.1172023E+00
         -2   -1    0    0    0  501 -0.00000000000E+00  0.00000000000E+00  0.11608004376E+03  0.11608004376E+03  0.00000000000E+00 0.  1.
          2   -1    0    0  501    0  0.00000000000E+00 -0.00000000000E+00 -0.25922692260E+03  0.25922692260E+03  0.00000000000E+00 0. -1.
         23    2    1    2    0    0 -0.94644543491E+01  0.13126152402E+03 -0.32334334227E+02  0.16264921166E+03  0.89944945929E+02 0.  0.
         23    2    1    2    0    0  0.94644543491E+01 -0.13126152402E+03 -0.11081254461E+03  0.21265775470E+03  0.12499894801E+03 0.  0.
          5    1    4    4  502    0  0.46603329778E+02 -0.26323440035E+01 -0.21187690189E+02  0.51476283830E+02  0.47000000000E+01 0. -1.
         -5    1    4    4    0  502 -0.37138875429E+02 -0.12862918002E+03 -0.89624854422E+02  0.16118147087E+03  0.47000000000E+01 0. -1.
        -11    1    3    3    0    0  0.15278925116E+02  0.56601757640E+01 -0.30547614583E+02  0.34621379220E+02  0.00000000000E+00 0. -1.
         11    1    3    3    0    0 -0.24743379465E+02  0.12560134826E+03 -0.17867196440E+01  0.12802783244E+03  0.00000000000E+00 0.  1.
<mgrwt>
<rscale>  0 0.17570723E+03</rscale>
<asrwt>0</asrwt>
<pdfrwt beam="2">  1        2 0.39881065E-01 0.18150455E+03</pdfrwt>
<pdfrwt beam="1">  1       -2 0.17858468E-01 0.18150455E+03</pdfrwt>
<totfact> 0.32045129E+03</totfact>
</mgrwt>
</event>
<event>
 7    1  0.1224355E-005  0.1170138E+03  0.7546771E-02  0.1306269E+00
         -2   -1    0    0    0  501 -0.00000000000E+00  0.00000000000E+00  0.21748298238E+02  0.21748298238E+02  0.00000000000E+00 0. -1.
          2   -1    0    0  501    0  0.00000000000E+00 -0.00000000000E+00 -0.28358480292E+03  0.28358480292E+03  0.00000000000E+00 0.  1.
         23    2    1    2    0    0  0.35429908818E+02  0.91459179753E+01 -0.21446305236E+03  0.24430849409E+03  0.11114545966E+03 0.  0.
          5    1    3    3  502    0  0.75165337978E+01  0.74056739468E+01  0.11660551723E+02  0.16413432104E+02  0.47000000000E+01 0. -1.
         -5    1    3    3    0  502  0.27913375020E+02  0.17402440286E+01 -0.22612360408E+03  0.22789506198E+03  0.47000000000E+01 0.  1.
        -11    1    1    2    0    0 -0.15744503373E+02 -0.88529740078E+01 -0.28564350548E+02  0.33796252122E+02  0.00000000000E+00 0.  1.
         11    1    1    2    0    0 -0.19685405445E+02 -0.29294396759E+00 -0.18809101782E+02  0.27228354955E+02  0.00000000000E+00 0. -1.
<mgrwt>
<rscale>  0 0.88603687E+02</rscale>
<asrwt>0</asrwt>
<pdfrwt beam="2">  1        2 0.43628428E-01 0.11701384E+03</pdfrwt>
<pdfrwt beam="1">  1       -2 0.33458923E-02 0.11701384E+03</pdfrwt>
<totfact> 0.37969214E+04</totfact>
</mgrwt>
</event>
<event>
 8    1  0.1224355E-005  0.3140775E+03  0.7546771E-02  0.1079791E+00
         -2   -1    0    0    0  501 -0.00000000000E+00  0.00000000000E+00  0.15604248381E+03  0.15604248381E+03  0.00000000000E+00 0.  1.
          2   -1    0    0  501    0  0.00000000000E+00 -0.00000000000E+00 -0.10583913358E+04  0.10583913358E+04  0.00000000000E+00 0. -1.
         23    2    1    2    0    0 -0.28736178637E+03  0.21046847153E+02 -0.50792327577E+02  0.30680329965E+03  0.92350625827E+02 0.  0.
         23    2    1    2    0    0  0.28736178637E+03 -0.21046847153E+02 -0.85155652443E+03  0.90763051998E+03  0.12499952188E+03 0.  0.
          5    1    4    4  502    0  0.25606855681E+03  0.14030742943E+02 -0.78623495838E+03  0.82701600185E+03  0.47000000000E+01 0. -1.
         -5    1    4    4    0  502  0.31293229559E+02 -0.35077590096E+02 -0.65321566047E+02  0.80614518134E+02  0.47000000000E+01 0. -1.
        -11    1    3    3    0    0 -0.79365801640E+01  0.21740100833E+02 -0.38160258230E+01  0.23455987338E+02  0.00000000000E+00 0.  1.
         11    1    3    3    0    0 -0.27942520621E+03 -0.69325368002E+00 -0.46976301754E+02  0.28334731231E+03  0.00000000000E+00 0. -1.
<mgrwt>
<rscale>  0 0.31116011E+03</rscale>
<asrwt>0</asrwt>
<pdfrwt beam="2">  1        2 0.16282944E+00 0.31407745E+03</pdfrwt>
<pdfrwt beam="1">  1       -2 0.24006536E-01 0.31407745E+03</pdfrwt>
<totfact> 0.37027358E+02</totfact>
</mgrwt>
</event>
<event>
 8    1  0.1224355E-005  0.1428724E+03  0.7546771E-02  0.1219928E+00
         -2   -1    0    0    0  501 -0.00000000000E+00  0.00000000000E+00  0.22339831033E+02  0.22339831033E+02  0.00000000000E+00 0.  1.
          2   -1    0    0  501    0  0.00000000000E+00 -0.00000000000E+00 -0.75186964136E+03  0.75186964136E+03  0.00000000000E+00 0. -1.
         23    2    1    2    0    0  0.35703029485E+02 -0.59261635955E+02 -0.28071239707E+03  0.30320035182E+03  0.91347444746E+02 0.  0.
         23    2    1    2    0    0 -0.35703029485E+02  0.59261635955E+02 -0.44881741325E+03  0.47100912057E+03  0.12500349361E+03 0.  0.
          5    1    4    4  502    0 -0.23017802598E+02  0.57817374178E+02 -0.77778532286E+02  0.99720900908E+02  0.47000000000E+01 0.  1.
         -5    1    4    4    0  502 -0.12685226888E+02  0.14442617768E+01 -0.37103888097E+03  0.37128821967E+03  0.47000000000E+01 0.  1.
        -11    1    3    3    0    0 -0.14327780237E+02 -0.85275105534E+01 -0.35785003245E+01  0.17053134238E+02  0.00000000000E+00 0.  1.
         11    1    3    3    0    0  0.50030809723E+02 -0.50734125402E+02 -0.27713389675E+03  0.28614721758E+03  0.00000000000E+00 0. -1.
<mgrwt>
<rscale>  0 0.13520678E+03</rscale>
<asrwt>0</asrwt>
<pdfrwt beam="2">  1        2 0.11567223E+00 0.14287239E+03</pdfrwt>
<pdfrwt beam="1">  1       -2 0.34368976E-02 0.14287239E+03</pdfrwt>
<totfact> 0.12705990E+04</totfact>
</mgrwt>
</event>
<event>
 7    1  0.1224355E-005  0.1904655E+03  0.7546771E-02  0.1169774E+00
          1   -1    0    0  501    0  0.00000000000E+00  0.00000000000E+00  0.27183505800E+04  0.27183505800E+04  0.00000000000E+00 0. -1.
         -1   -1    0    0    0  501 -0.00000000000E+00 -0.00000000000E+00 -0.22552454670E+02  0.22552454670E+02  0.00000000000E+00 0.  1.
         23    2    1    2    0    0 -0.10153727431E+03  0.48964201418E+02  0.26110008508E+03  0.29876633532E+03  0.91546477792E+02 0.  0.
          5    1    1    2  502    0  0.35278804499E+02 -0.96557724408E+02  0.10504072146E+04  0.10554361159E+04  0.47000000000E+01 0. -1.
         -5    1    1    2    0  502  0.66258469815E+02  0.47593522990E+02  0.13842908257E+04  0.13867005835E+04  0.47000000000E+01 0.  1.
        -11    1    3    3    0    0 -0.26031211858E+01  0.46150096933E+02  0.80841611873E+02  0.93123433662E+02  0.00000000000E+00 0.  1.
         11    1    3    3    0    0 -0.98934153129E+02  0.28141044852E+01  0.18025847320E+03  0.20564290165E+03  0.00000000000E+00 0. -1.
<mgrwt>
<rscale>  0 0.17797822E+03</rscale>
<asrwt>0</asrwt>
<pdfrwt beam="1">  1        1 0.41820752E+00 0.19046551E+03</pdfrwt>
<pdfrwt beam="2">  1       -1 0.34696106E-02 0.19046551E+03</pdfrwt>
<totfact> 0.35036399E+02</totfact>
</mgrwt>
</event>
<event>
 7    1  0.1224355E-005  0.1619733E+03  0.7546771E-02  0.1199070E+00
          2   -1    0    0  501    0  0.00000000000E+00  0.00000000000E+00  0.99947365842E+02  0.99947365842E+02  0.00000000000E+00 0. -1.
         -2   -1    0    0    0  501 -0.00000000000E+00 -0.00000000000E+00 -0.24356765509E+03  0.24356765509E+03  0.00000000000E+00 0.  1.
         23    2    1    2    0    0 -0.82303621511E+02  0.69445153511E+01 -0.13323434446E+03  0.18120903716E+03  0.90902212278E+02 0.  0.
          5    1    1    2  502    0  0.45499064560E+02  0.63319861963E+02  0.13637602299E+02  0.79294665592E+02  0.47000000000E+01 0. -1.
         -5    1    1    2    0  502  0.36804556951E+02 -0.70264377314E+02 -0.24023547088E+02  0.83011318182E+02  0.47000000000E+01 0.  1.
        -11    1    3    3    0    0 -0.13863749437E+02 -0.25534453063E+02 -0.88689575995E+02  0.93327663272E+02  0.00000000000E+00 0.  1.
         11    1    3    3    0    0 -0.68439872074E+02  0.32478968414E+02 -0.44544768469E+02  0.87881373890E+02  0.00000000000E+00 0. -1.
<mgrwt>
<rscale>  0 0.15114786E+03</rscale>
<asrwt>0</asrwt>
<pdfrwt beam="1">  1        2 0.15376518E-01 0.16197335E+03</pdfrwt>
<pdfrwt beam="2">  1       -2 0.37471947E-01 0.16197335E+03</pdfrwt>
<totfact> 0.24881763E+03</totfact>
</mgrwt>
</event>
<event>
 8    1  0.1224355E-005  0.1262263E+03  0.7546771E-02  0.1242061E+00
         -2   -1    0    0    0  501 -0.00000000000E+00  0.00000000000E+00  0.16282083301E+03  0.16282083301E+03  0.00000000000E+00 0. -1.
          2   -1    0    0  501    0  0.00000000000E+00 -0.00000000000E+00 -0.82754737212E+02  0.82754737212E+02  0.00000000000E+00 0.  1.
         23    2    1    2    0    0 -0.79287488942E+01 -0.15662366558E+02  0.45534663856E+02  0.11471118245E+03  0.10381269181E+03 0.  0.
         23    2    1    2    0    0  0.79287488942E+01  0.15662366558E+02  0.34531431943E+02  0.13086438777E+03  0.12499957364E+03 0.  0.
          5    1    4    4  502    0 -0.22498627511E+01 -0.40348550982E+02  0.56534409153E+02  0.69651251726E+02  0.47000000000E+01 0. -1.
         -5    1    4    4    0  502  0.10178611645E+02  0.56010917540E+02 -0.22002977210E+02  0.61213136048E+02  0.47000000000E+01 0. -1.
        -11    1    3    3    0    0  0.18028929818E+02 -0.51435971732E+02  0.49890030982E+01  0.54731998413E+02  0.00000000000E+00 0.  1.
         11    1    3    3    0    0 -0.25957678712E+02  0.35773605174E+02  0.40545660758E+02  0.59979184035E+02  0.00000000000E+00 0. -1.
<mgrwt>
<rscale>  0 0.12063004E+03</rscale>
<asrwt>0</asrwt>
<pdfrwt beam="2">  1        2 0.12731498E-01 0.12622626E+03</pdfrwt>
<pdfrwt beam="1">  1       -2 0.25049359E-01 0.12622626E+03</pdfrwt>
<totfact> 0.63431206E+03</totfact>
</mgrwt>
</event>
<event>
 7    1  0.1224355E-005  0.3291220E+03  0.7546771E-02  0.1071526E+00
          1   -1    0    0  501    0  0.00000000000E+00  0.00000000000E+00  0.34220051139E+03  0.34220051139E+03  0.00000000000E+00 0. -1.
         -1   -1    0    0    0  501 -0.00000000000E+00 -0.00000000000E+00 -0.79135838129E+02  0.79135838129E+02  0.00000000000E+00 0.  1.
         23    2    1    2    0    0  0.68736857451E+01  0.89523016543E+02  0.90429466757E+02  0.15647397476E+03  0.90801972848E+02 0.  0.
          5    1    1    2  502    0  0.12598287128E+02 -0.14064903864E+03  0.14820610730E+03  0.20476330030E+03  0.47000000000E+01 0. -1.
         -5    1    1    2    0  502 -0.19471972873E+02  0.51126022093E+02  0.24429099200E+02  0.60099074455E+02  0.47000000000E+01 0.  1.
        -11    1    3    3    0    0  0.30472486373E+02  0.97288984315E+02  0.64915356390E+02  0.12086241099E+03  0.00000000000E+00 0.  1.
         11    1    3    3    0    0 -0.23598800628E+02 -0.77659677721E+01  0.25514110367E+02  0.35611563773E+02  0.00000000000E+00 0. -1.
<mgrwt>
<rscale>  0 0.32912201E+03</rscale>
<asrwt>0</asrwt>
<pdfrwt beam="1">  1        1 0.52646232E-01 0.32912201E+03</pdfrwt>
<pdfrwt beam="2">  1       -1 0.12174745E-01 0.32912201E+03</pdfrwt>
<totfact> 0.33213386E+03</totfact>
</mgrwt>
</event>
<event>
 8    1  0.1224355E-005  0.1290963E+03  0.7546771E-02  0.1242855E+00
         -2   -1    0    0    0  501 -0.00000000000E+00  0.00000000000E+00  0.31115104861E+02  0.31115104861E+02  0.00000000000E+00 0.  1.
          2   -1    0    0  501    0  0.00000000000E+00 -0.00000000000E+00 -0.68172911229E+03  0.68172911229E+03  0.00000000000E+00 0. -1.
         23    2    1    2    0    0  0.93806458725E+01 -0.30806869825E+02 -0.73813486908E+02  0.12177340846E+03  0.91341515273E+02 0.  0.
         23    2    1    2    0    0 -0.93806458725E+01  0.30806869825E+02 -0.57680052052E+03  0.59107080869E+03  0.12501520176E+03 0.  0.
          5    1    4    4  502    0 -0.40259154953E+02  0.71746828493E+01 -0.59850527316E+02  0.72639185372E+02  0.47000000000E+01 0.  1.
         -5    1    4    4    0  502  0.30878509081E+02  0.23632186976E+02 -0.51694999321E+03  0.51843162332E+03  0.47000000000E+01 0.  1.
        -11    1    3    3    0    0 -0.31080758262E+02 -0.29802739663E+02 -0.68558576747E+02  0.80959837396E+02  0.00000000000E+00 0. -1.
         11    1    3    3    0    0  0.40461404135E+02 -0.10041301621E+01 -0.52549101601E+01  0.40813571061E+02  0.00000000000E+00 0.  1.
<mgrwt>
<rscale>  0 0.12014693E+03</rscale>
<asrwt>0</asrwt>
<pdfrwt beam="2">  1        2 0.10488140E+00 0.12909632E+03</pdfrwt>
<pdfrwt beam="1">  1       -2 0.47869391E-02 0.12909632E+03</pdfrwt>
<totfact> 0.86711718E+03</totfact>
</mgrwt>
</event>
<event>
 8    1  0.1224355E-005  0.1283478E+03  0.7546771E-02  0.1245373E+00
          1   -1    0    0  501    0  0.00000000000E+00  0.00000000000E+00  0.68466725414E+03  0.68466725414E+03  0.00000000000E+00 0. -1.
         -1   -1    0    0    0  501 -0.00000000000E+00 -0.00000000000E+00 -0.18502784982E+02  0.18502784982E+02  0.00000000000E+00 0.  1.
         23    2    1    2    0    0 -0.25330366212E+02  0.13852070503E+02  0.33978199370E+03  0.35245835980E+03  0.89115570112E+02 0.  0.
         23    2    1    2    0    0  0.25330366212E+02 -0.13852070503E+02  0.32638247545E+03  0.35071167932E+03  0.12505860395E+03 0.  0.
          5    1    4    4  502    0  0.29580638279E+02  0.52650959357E+02  0.13384332112E+03  0.14691243069E+03  0.47000000000E+01 0.  1.
         -5    1    4    4    0  502 -0.42502720664E+01 -0.66503029860E+02  0.19253915433E+03  0.20379924863E+03  0.47000000000E+01 0.  1.
        -11    1    3    3    0    0  0.27152420705E+02 -0.17362829924E+02  0.10267735594E+03  0.10761673307E+03  0.00000000000E+00 0.  1.
         11    1    3    3    0    0 -0.52482786918E+02  0.31214900427E+02  0.23710463776E+03  0.24484162673E+03  0.00000000000E+00 0. -1.
<mgrwt>
<rscale>  0 0.11863090E+03</rscale>
<asrwt>0</asrwt>
<pdfrwt beam="1">  1        1 0.10533340E+00 0.12834782E+03</pdfrwt>
<pdfrwt beam="2">  1       -1 0.28465828E-02 0.12834782E+03</pdfrwt>
<totfact> 0.11299854E+04</totfact>
</mgrwt>
</event>
<event>
 8    1  0.1224355E-005  0.3989988E+03  0.7546771E-02  0.1044688E+00
         -1   -1    0    0    0  501 -0.00000000000E+00  0.00000000000E+00  0.17838449297E+03  0.17838449297E+03  0.00000000000E+00 0.  1.
          1   -1    0    0  501    0  0.00000000000E+00 -0.00000000000E+00 -0.11890750597E+04  0.11890750597E+04  0.00000000000E+00 0. -1.
         23    2    1    2    0    0  0.11137504426E+03  0.36412874245E+03 -0.15272115266E+03  0.42125050691E+03  0.95572472719E+02 0.  0.
         23    2    1    2    0    0 -0.11137504426E+03 -0.36412874245E+03 -0.85796941406E+03  0.94620904575E+03  0.11918851139E+03 0.  0.
          5    1    4    4  502    0 -0.13115523535E+03 -0.24432926829E+03 -0.60804040163E+03  0.66830659665E+03  0.47000000000E+01 0. -1.
         -5    1    4    4    0  502  0.19780191092E+02 -0.11979947416E+03 -0.24992901242E+03  0.27790244910E+03  0.47000000000E+01 0.  1.
        -11    1    3    3    0    0  0.12520033651E+03  0.28923080812E+03 -0.10930811444E+03  0.33358334567E+03  0.00000000000E+00 0.  1.
         11    1    3    3    0    0 -0.13825292245E+02  0.74897934325E+02 -0.43413038216E+02  0.87667161235E+02  0.00000000000E+00 0. -1.
<mgrwt>
<rscale>  0 0.39738729E+03</rscale>
<asrwt>0</asrwt>
<pdfrwt beam="2">  1        1 0.18293462E+00 0.39899880E+03</pdfrwt>
<pdfrwt beam="1">  1       -1 0.27443768E-01 0.39899880E+03</pdfrwt>
<totfact> 0.13701928E+02</totfact>
</mgrwt>
</event>
<event>
 8    1  0.1224355E-005  0.1587544E+03  0.7546771E-02  0.1198171E+00
          2   -1    0    0  501    0  0.00000000000E+00  0.00000000000E+00  0.54880237579E+03  0.54880237579E+03  0.00000000000E+00 0.  1.
         -2   -1    0    0    0  501 -0.00000000000E+00 -0.00000000000E+00 -0.42050848401E+02  0.42050848401E+02  0.00000000000E+00 0. -1.
         23    2    1    2    0    0 -0.43719834255E+02 -0.87549044744E+02  0.15069323392E+03  0.20100651355E+03  0.90104986518E+02 0.  0.
         23    2    1    2    0    0  0.43719834255E+02  0.87549044744E+02  0.35605829347E+03  0.38984671064E+03  0.12500676106E+03 0.  0.
          5    1    4    4  502    0  0.22406159617E+02 -0.20643232688E+02  0.17579922287E+03  0.17848147189E+03  0.47000000000E+01 0. -1.
         -5    1    4    4    0  502  0.21313674638E+02  0.10819227743E+03  0.18025907059E+03  0.21136523876E+03  0.47000000000E+01 0. -1.
        -11    1    3    3    0    0 -0.44114618872E+02 -0.28898477852E+02  0.17656398947E+02  0.55614476929E+02  0.00000000000E+00 0. -1.
         11    1    3    3    0    0  0.39478461652E+00 -0.58650566892E+02  0.13303683497E+03  0.14539203662E+03  0.00000000000E+00 0.  1.
<mgrwt>
<rscale>  0 0.15188892E+03</rscale>
<asrwt>0</asrwt>
<pdfrwt beam="1">  1        2 0.84431129E-01 0.15875437E+03</pdfrwt>
<pdfrwt beam="2">  1       -2 0.64693617E-02 0.15875437E+03</pdfrwt>
<totfact> 0.71377779E+03</totfact>
</mgrwt>
</event>
<event>
 8    1  0.1224355E-005  0.1278080E+03  0.7546771E-02  0.1250825E+00
          4   -1    0    0  501    0  0.00000000000E+00  0.00000000000E+00  0.20385592704E+03  0.20385592704E+03  0.00000000000E+00 0.  1.
         -4   -1    0    0    0  501 -0.00000000000E+00 -0.00000000000E+00 -0.72432848588E+02  0.72432848588E+02  0.00000000000E+00 0. -1.
         23    2    1    2    0    0  0.17137615779E+02  0.20017618888E+02 -0.10042131140E+02  0.85639130856E+02  0.80862929673E+02 0.  0.
         23    2    1    2    0    0 -0.17137615779E+02 -0.20017618888E+02  0.14146520959E+03  0.19064964477E+03  0.12506189902E+03 0.  0.
          5    1    4    4  502    0  0.15090825625E+02 -0.41652325762E+02  0.70104117715E+00  0.44555927979E+02  0.47000000000E+01 0.  1.
         -5    1    4    4    0  502 -0.32228441404E+02  0.21634706873E+02  0.14076416842E+03  0.14609371679E+03  0.47000000000E+01 0.  1.
        -11    1    3    3    0    0 -0.73020829516E+01  0.29100045077E+02  0.26985611094E+02  0.40352896364E+02  0.00000000000E+00 0.  1.
         11    1    3    3    0    0  0.24439698730E+02 -0.90824261884E+01 -0.37027742233E+02  0.45286234491E+02  0.00000000000E+00 0. -1.
<mgrwt>
<rscale>  0 0.11543431E+03</rscale>
<asrwt>0</asrwt>
<pdfrwt beam="1">  1        4 0.31362450E-01 0.12780799E+03</pdfrwt>
<pdfrwt beam="2">  1       -4 0.11143515E-01 0.12780799E+03</pdfrwt>
<totfact> 0.10046354E+03</totfact>
</mgrwt>
</event>
<event>
 8    1  0.1224355E-005  0.3745047E+03  0.7546771E-02  0.1053940E+00
         -1   -1    0    0    0  501 -0.00000000000E+00  0.00000000000E+00  0.49177707673E+03  0.49177707673E+03  0.00000000000E+00 0. -1.
          1   -1    0    0  501    0  0.00000000000E+00 -0.00000000000E+00 -0.27855532746E+03  0.27855532746E+03  0.00000000000E+00 0.  1.
         23    2    1    2    0    0  0.32902263658E+03  0.12798376226E+03  0.82884698440E+02  0.37379546134E+03  0.90650068398E+02 0.  0.
         23    2    1    2    0    0 -0.32902263658E+03 -0.12798376226E+03  0.13033705083E+03  0.39653694285E+03  0.12497224270E+03 0.  0.
          5    1    4    4  502    0 -0.18412052559E+03 -0.10610390682E+03  0.20907800355E+02  0.21358284833E+03  0.47000000000E+01 0.  1.
         -5    1    4    4    0  502 -0.14490211099E+03 -0.21879855441E+02  0.10942925047E+03  0.18295409452E+03  0.47000000000E+01 0.  1.
        -11    1    3    3    0    0  0.95446754325E+02  0.74735614270E+02  0.30103260998E+01  0.12126234789E+03  0.00000000000E+00 0. -1.
         11    1    3    3    0    0  0.23357588225E+03  0.53248147988E+02  0.79874372340E+02  0.25253311345E+03  0.00000000000E+00 0.  1.
<mgrwt>
<rscale>  0 0.37197562E+03</rscale>
<asrwt>0</asrwt>
<pdfrwt beam="2">  1        1 0.42854666E-01 0.37450474E+03</pdfrwt>
<pdfrwt beam="1">  1       -1 0.75658012E-01 0.37450474E+03</pdfrwt>
<totfact> 0.17593993E+02</totfact>
</mgrwt>
</event>
<event>
 8    1  0.1224355E-005  0.1556204E+03  0.7546771E-02  0.1202750E+00
          1   -1    0    0  501    0  0.00000000000E+00  0.00000000000E+00  0.21282325126E+03  0.21282325126E+03  0.00000000000E+00 0. -1.
         -1   -1    0    0    0  501 -0.00000000000E+00 -0.00000000000E+00 -0.10020810710E+03  0.10020810710E+03  0.00000000000E+00 0.  1.
         23    2    1    2    0    0 -0.34279156546E+02  0.86122730816E+02  0.13608344971E+02  0.12858610567E+03  0.88073913168E+02 0.  0.
         23    2    1    2    0    0  0.34279156546E+02 -0.86122730816E+02  0.99006799192E+02  0.18444525270E+03  0.12500207846E+03 0.  0.
          5    1    4    4  502    0  0.28779884841E+02 -0.49953185930E+02  0.12606344381E+03  0.13869997989E+03  0.47000000000E+01 0. -1.
         -5    1    4    4    0  502  0.54992717052E+01 -0.36169544886E+02 -0.27056644615E+02  0.45745272809E+02  0.47000000000E+01 0. -1.
        -11    1    3    3    0    0 -0.14548809960E+02  0.33719808860E+02 -0.37706313724E+02  0.52635154369E+02  0.00000000000E+00 0.  1.
         11    1    3    3    0    0 -0.19730346586E+02  0.52402921955E+02  0.51314658695E+02  0.75950951297E+02  0.00000000000E+00 0. -1.
<mgrwt>
<rscale>  0 0.14816203E+03</rscale>
<asrwt>0</asrwt>
<pdfrwt beam="1">  1        1 0.32742038E-01 0.15562039E+03</pdfrwt>
<pdfrwt beam="2">  1       -1 0.15416632E-01 0.15562039E+03</pdfrwt>
<totfact> 0.40360003E+03</totfact>
</mgrwt>
</event>
<event>
 8    1  0.1224355E-005  0.1810841E+03  0.7546771E-02  0.1172048E+00
         -1   -1    0    0    0  501 -0.00000000000E+00  0.00000000000E+00  0.16474557341E+02  0.16474557341E+02  0.00000000000E+00 0.  1.
          1   -1    0    0  501    0  0.00000000000E+00 -0.00000000000E+00 -0.17776740419E+04  0.17776740419E+04  0.00000000000E+00 0. -1.
         23    2    1    2    0    0  0.12563927534E+03  0.37173058647E+02 -0.76805121429E+03  0.78462646516E+03  0.92568667841E+02 0.  0.
         23    2    1    2    0    0 -0.12563927534E+03 -0.37173058647E+02 -0.99314827029E+03  0.10095221341E+04  0.12499755462E+03 0.  0.
          5    1    4    4  502    0 -0.10777424397E+03  0.27877162820E+02 -0.54199156273E+03  0.55332573404E+03  0.47000000000E+01 0. -1.
         -5    1    4    4    0  502 -0.17865031365E+02 -0.65050221467E+02 -0.45115670756E+03  0.45619640007E+03  0.47000000000E+01 0. -1.
        -11    1    3    3    0    0  0.95773885872E+02 -0.13926321698E+02 -0.56078958115E+03  0.56907954978E+03  0.00000000000E+00 0. -1.
         11    1    3    3    0    0  0.29865389465E+02  0.51099380345E+02 -0.20726163314E+03  0.21554691538E+03  0.00000000000E+00 0.  1.
<mgrwt>
<rscale>  0 0.17568227E+03</rscale>
<asrwt>0</asrwt>
<pdfrwt beam="2">  1        1 0.27348826E+00 0.18108410E+03</pdfrwt>
<pdfrwt beam="1">  1       -1 0.25345478E-02 0.18108410E+03</pdfrwt>
<totfact> 0.22771495E+03</totfact>
</mgrwt>
</event>
<event>
 8    1  0.1224355E-005  0.1466260E+03  0.7546771E-02  0.1214871E+00
         -2   -1    0    0    0  501 -0.00000000000E+00  0.00000000000E+00  0.44857549430E+02  0.44857549430E+02  0.00000000000E+00 0.  1.
          2   -1    0    0  501    0  0.00000000000E+00 -0.00000000000E+00 -0.39041235164E+03  0.39041235164E+03  0.00000000000E+00 0. -1.
         23    2    1    2    0    0 -0.15413504962E+02 -0.70815031719E+02 -0.16008629208E+03  0.19884285360E+03  0.93051140044E+02 0.  0.
         23    2    1    2    0    0  0.15413504962E+02  0.70815031719E+02 -0.18546851013E+03  0.23642704747E+03  0.12746307572E+03 0.  0.
          5    1    4    4  502    0  0.67157792785E+02  0.66157986780E+02 -0.11587379259E+03  0.14945191252E+03  0.47000000000E+01 0. -1.
         -5    1    4    4    0  502 -0.51744287823E+02  0.46570449395E+01 -0.69594717536E+02  0.86975134946E+02  0.47000000000E+01 0.  1.
        -11    1    3    3    0    0 -0.34036558164E+00  0.13244930395E+02  0.40194980415E+01  0.13845591154E+02  0.00000000000E+00 0. -1.
         11    1    3    3    0    0 -0.15073139380E+02 -0.84059962114E+02 -0.16410579012E+03  0.18499726245E+03  0.00000000000E+00 0.  1.
<mgrwt>
<rscale>  0 0.13886010E+03</rscale>
<asrwt>0</asrwt>
<pdfrwt beam="2">  1        2 0.60063441E-01 0.14662599E+03</pdfrwt>
<pdfrwt beam="1">  1       -2 0.69011612E-02 0.14662599E+03</pdfrwt>
<totfact> 0.93325344E+03</totfact>
</mgrwt>
</event>
<event>
 8    1  0.1224355E-005  0.1644825E+03  0.7546771E-02  0.1191143E+00
         -1   -1    0    0    0  501 -0.00000000000E+00  0.00000000000E+00  0.27402908708E+02  0.27402908708E+02  0.00000000000E+00 0.  1.
          1   -1    0    0  501    0  0.00000000000E+00 -0.00000000000E+00 -0.11097273935E+04  0.11097273935E+04  0.00000000000E+00 0. -1.
         23    2    1    2    0    0 -0.80360630702E+01  0.10659223189E+03 -0.22945043580E+03  0.26854027888E+03  0.89665470963E+02 0.  0.
         23    2    1    2    0    0  0.80360630702E+01 -0.10659223189E+03 -0.85287404898E+03  0.86859002332E+03  0.12501201132E+03 0.  0.
          5    1    4    4  502    0  0.14285238738E+02 -0.13251200914E+03 -0.62215951580E+03  0.63629242782E+03  0.47000000000E+01 0. -1.
         -5    1    4    4    0  502 -0.62491756677E+01  0.25919777250E+02 -0.23071453318E+03  0.23229759549E+03  0.47000000000E+01 0. -1.
        -11    1    3    3    0    0 -0.11583070674E+02  0.16569883178E+01  0.41608635506E+01  0.12418772968E+02  0.00000000000E+00 0.  1.
         11    1    3    3    0    0  0.35470076043E+01  0.10493524357E+03 -0.23361129935E+03  0.25612150591E+03  0.00000000000E+00 0. -1.
<mgrwt>
<rscale>  0 0.15785210E+03</rscale>
<asrwt>0</asrwt>
<pdfrwt beam="2">  1        1 0.17072728E+00 0.16448248E+03</pdfrwt>
<pdfrwt beam="1">  1       -1 0.42158324E-02 0.16448248E+03</pdfrwt>
<totfact> 0.29909670E+03</totfact>
</mgrwt>
</event>
<event>
 8    1  0.1224355E-005  0.1837233E+03  0.7546771E-02  0.1169110E+00
         -2   -1    0    0    0  501 -0.00000000000E+00  0.00000000000E+00  0.16434362810E+03  0.16434362810E+03  0.00000000000E+00 0.  1.
          2   -1    0    0  501    0  0.00000000000E+00 -0.00000000000E+00 -0.18456595268E+03  0.18456595268E+03  0.00000000000E+00 0. -1.
         23    2    1    2    0    0 -0.85251502959E+02  0.10421860179E+03 -0.17020209227E+02  0.16515839806E+03  0.94118399960E+02 0.  0.
         23    2    1    2    0    0  0.85251502959E+02 -0.10421860179E+03 -0.32021153574E+01  0.18375118272E+03  0.12499963157E+03 0.  0.
          5    1    4    4  502    0  0.10597755184E+03 -0.11768714737E+03 -0.46295598973E+00  0.15844182049E+03  0.47000000000E+01 0.  1.
         -5    1    4    4    0  502 -0.20726048886E+02  0.13468545583E+02 -0.27391593677E+01  0.25309362232E+02  0.47000000000E+01 0.  1.
        -11    1    3    3    0    0  0.13356536267E+02  0.43678857107E+02 -0.18906831970E+02  0.49433874159E+02  0.00000000000E+00 0. -1.
         11    1    3    3    0    0 -0.98608039225E+02  0.60539744681E+02  0.18866227432E+01  0.11572452390E+03  0.00000000000E+00 0.  1.
<mgrwt>
<rscale>  0 0.17865645E+03</rscale>
<asrwt>0</asrwt>
<pdfrwt beam="2">  1        2 0.28394762E-01 0.18372328E+03</pdfrwt>
<pdfrwt beam="1">  1       -2 0.25283635E-01 0.18372328E+03</pdfrwt>
<totfact> 0.25499309E+03</totfact>
</mgrwt>
</event>
<event>
 8    1  0.1224355E-005  0.1264119E+03  0.7546771E-02  0.1240379E+00
          1   -1    0    0  501    0  0.00000000000E+00  0.00000000000E+00  0.86517845335E+03  0.86517845335E+03  0.00000000000E+00 0. -1.
         -1   -1    0    0    0  501 -0.00000000000E+00 -0.00000000000E+00 -0.45358963922E+02  0.45358963922E+02  0.00000000000E+00 0.  1.
         23    2    1    2    0    0 -0.86164241418E+01 -0.58199059998E+02  0.32626657401E+02  0.11325921710E+03  0.91114094053E+02 0.  0.
         23    2    1    2    0    0  0.86164241418E+01  0.58199059998E+02  0.78719283202E+03  0.79727820017E+03  0.11188655114E+03 0.  0.
          5    1    4    4  502    0 -0.47332147718E+02  0.50380312911E+02  0.39969251992E+03  0.40565343412E+03  0.47000000000E+01 0. -1.
         -5    1    4    4    0  502  0.55948571859E+02  0.78187470869E+01  0.38750031210E+03  0.39162476604E+03  0.47000000000E+01 0.  1.
        -11    1    3    3    0    0  0.11102898399E+02 -0.41898734285E+02 -0.25120737731E+02  0.50098201082E+02  0.00000000000E+00 0.  1.
         11    1    3    3    0    0 -0.19719322541E+02 -0.16300325713E+02  0.57747395132E+02  0.63161016017E+02  0.00000000000E+00 0. -1.
<mgrwt>
<rscale>  0 0.12166243E+03</rscale>
<asrwt>0</asrwt>
<pdfrwt beam="1">  1        1 0.13310437E+00 0.12641192E+03</pdfrwt>
<pdfrwt beam="2">  1       -1 0.69783028E-02 0.12641192E+03</pdfrwt>
<totfact> 0.21331010E+03</totfact>
</mgrwt>
</event>
<event>
 8    1  0.1224355E-005  0.1770283E+03  0.7546771E-02  0.1176369E+00
         -2   -1    0    0    0  501 -0.00000000000E+00  0.00000000000E+00  0.49333240056E+02  0.49333240056E+02  0.00000000000E+00 0.  1.
          2   -1    0    0  501    0  0.00000000000E+00 -0.00000000000E+00 -0.56465007720E+03  0.56465007720E+03  0.00000000000E+00 0. -1.
         23    2    1    2    0    0  0.12294954720E+03  0.24447152487E+02 -0.21620664320E+03  0.26641185939E+03  0.92280614650E+02 0.  0.
         23    2    1    2    0    0 -0.12294954720E+03 -0.24447152487E+02 -0.29911019395E+03  0.34757145787E+03  0.12499902312E+03 0.  0.
          5    1    4    4  502    0 -0.31043638727E+02 -0.18197311295E+02 -0.22861982120E+03  0.23148209928E+03  0.47000000000E+01 0. -1.
         -5    1    4    4    0  502 -0.91905908469E+02 -0.62498411921E+01 -0.70490372752E+02  0.11608935859E+03  0.47000000000E+01 0. -1.
        -11    1    3    3    0    0  0.35393612225E+02 -0.30839465923E+02 -0.38396140895E+02  0.60646880219E+02  0.00000000000E+00 0.  1.
         11    1    3    3    0    0  0.87555934971E+02  0.55286618409E+02 -0.17781050230E+03  0.20576497917E+03  0.00000000000E+00 0. -1.
<mgrwt>
<rscale>  0 0.17142576E+03</rscale>
<asrwt>0</asrwt>
<pdfrwt beam="2">  1        2 0.86869236E-01 0.17702828E+03</pdfrwt>
<pdfrwt beam="1">  1       -2 0.75897298E-02 0.17702828E+03</pdfrwt>
<totfact> 0.54357992E+03</totfact>
</mgrwt>
</event>
<event>
 8    1  0.1224355E-005  0.1364240E+03  0.7546771E-02  0.1241092E+00
          2   -1    0    0  501    0  0.00000000000E+00  0.00000000000E+00  0.13418918395E+04  0.13418918395E+04  0.00000000000E+00 0. -1.
         -2   -1    0    0    0  501 -0.00000000000E+00 -0.00000000000E+00 -0.37384560187E+02  0.37384560187E+02  0.00000000000E+00 0.  1.
         23    2    1    2    0    0 -0.21418206278E+02  0.60227214133E+02  0.19771361678E+02  0.87317464049E+02  0.56101478616E+02 0.  0.
         23    2    1    2    0    0  0.21418206278E+02 -0.60227214133E+02  0.12847359176E+04  0.12919589356E+04  0.12052160151E+03 0.  0.
          5    1    4    4  502    0  0.32581283599E+02 -0.38819627997E+02  0.18293946875E+03  0.18988797430E+03  0.47000000000E+01 0. -1.
         -5    1    4    4    0  502 -0.11163077321E+02 -0.21407586136E+02  0.11017964489E+04  0.11020709613E+04  0.47000000000E+01 0.  1.
        -11    1    3    3    0    0 -0.11704833158E+02  0.15402440309E+01  0.24955002763E+02  0.27606659230E+02  0.00000000000E+00 0. -1.
         11    1    3    3    0    0 -0.97133731197E+01  0.58686970103E+02 -0.51836410855E+01  0.59710804819E+02  0.00000000000E+00 0.  1.
<mgrwt>
<rscale>  0 0.12122332E+03</rscale>
<asrwt>0</asrwt>
<pdfrwt beam="1">  1        2 0.20644486E+00 0.13642402E+03</pdfrwt>
<pdfrwt beam="2">  1       -2 0.57514718E-02 0.13642402E+03</pdfrwt>
<totfact> 0.26134108E+03</totfact>
</mgrwt>
</event>
<event>
 8    1  0.1224355E-005  0.1435600E+03  0.7546771E-02  0.1219256E+00
         -2   -1    0    0    0  501 -0.00000000000E+00  0.00000000000E+00  0.73796845785E+02  0.73796845785E+02  0.00000000000E+00 0.  1.
          2   -1    0    0  501    0  0.00000000000E+00 -0.00000000000E+00 -0.24219511219E+03  0.24219511219E+03  0.00000000000E+00 0. -1.
         23    2    1    2    0    0 -0.39148424312E+02 -0.58743984864E+02 -0.34399814366E+02  0.11961206432E+03  0.90223299759E+02 0.  0.
         23    2    1    2    0    0  0.39148424312E+02  0.58743984864E+02 -0.13399845204E+03  0.19637989365E+03  0.12500409032E+03 0.  0.
          5    1    4    4  502    0  0.70670804501E+02  0.22768138891E+02 -0.12785701023E+03  0.14792652170E+03  0.47000000000E+01 0. -1.
         -5    1    4    4    0  502 -0.31522380189E+02  0.35975845973E+02 -0.61414418135E+01  0.48453371955E+02  0.47000000000E+01 0. -1.
        -11    1    3    3    0    0 -0.59728734108E+02 -0.30919236296E+02  0.46687518060E+01  0.67418974293E+02  0.00000000000E+00 0.  1.
         11    1    3    3    0    0  0.20580309796E+02 -0.27824748568E+02 -0.39068566172E+02  0.52193090030E+02  0.00000000000E+00 0. -1.
<mgrwt>
<rscale>  0 0.13568510E+03</rscale>
<asrwt>0</asrwt>
<pdfrwt beam="2">  1        2 0.37260786E-01 0.14356001E+03</pdfrwt>
<pdfrwt beam="1">  1       -2 0.11353361E-01 0.14356001E+03</pdfrwt>
<totfact> 0.71274072E+03</totfact>
</mgrwt>
</event>
<event>
 8    1  0.1224355E-005  0.1338122E+03  0.7546771E-02  0.1231061E+00
         -1   -1    0    0    0  501 -0.00000000000E+00  0.00000000000E+00  0.25294171250E+02  0.25294171250E+02  0.00000000000E+00 0.  1.
          1   -1    0    0  501    0  0.00000000000E+00 -0.00000000000E+00 -0.59128763895E+03  0.59128763895E+03  0.00000000000E+00 0. -1.
         23    2    1    2    0    0 -0.51618036313E+02  0.32527866785E+02 -0.26645030190E+03  0.28850894009E+03  0.92299303038E+02 0.  0.
         23    2    1    2    0    0  0.51618036313E+02 -0.32527866785E+02 -0.29954316580E+03  0.32807287011E+03  0.11909330851E+03 0.  0.
          5    1    4    4  502    0 -0.98566324569E+01 -0.97803233443E+01 -0.23667116151E+03  0.23712472798E+03  0.47000000000E+01 0. -1.
         -5    1    4    4    0  502  0.61474668770E+02 -0.22747543440E+02 -0.62872004290E+02  0.90948142127E+02  0.47000000000E+01 0.  1.
        -11    1    3    3    0    0  0.22760326344E+02 -0.27593932226E+01 -0.10271328154E+03  0.10524098494E+03  0.00000000000E+00 0.  1.
         11    1    3    3    0    0 -0.74378362657E+02  0.35287260007E+02 -0.16373702036E+03  0.18326795515E+03  0.00000000000E+00 0. -1.
<mgrwt>
<rscale>  0 0.12760030E+03</rscale>
<asrwt>0</asrwt>
<pdfrwt beam="2">  1        1 0.90967315E-01 0.13381218E+03</pdfrwt>
<pdfrwt beam="1">  1       -1 0.38914116E-02 0.13381218E+03</pdfrwt>
<totfact> 0.87963566E+03</totfact>
</mgrwt>
</event>
<event>
 8    1  0.1224355E-005  0.1309324E+03  0.7546771E-02  0.1240122E+00
         -2   -1    0    0    0  501 -0.00000000000E+00  0.00000000000E+00  0.94939036441E+02  0.94939036441E+02  0.00000000000E+00 0.  1.
          2   -1    0    0  501    0  0.00000000000E+00 -0.00000000000E+00 -0.25448221332E+03  0.25448221332E+03  0.00000000000E+00 0. -1.
         23    2    1    2    0    0 -0.19638283802E+02 -0.33660531975E+02  0.43895241841E+02  0.10749052403E+03  0.90048469708E+02 0.  0.
         23    2    1    2    0    0  0.19638283802E+02  0.33660531975E+02 -0.20343841872E+03  0.24193072573E+03  0.12499836894E+03 0.  0.
          5    1    4    4  502    0  0.43569204253E+02  0.63256077500E+02 -0.18289718052E+03  0.19842649909E+03  0.47000000000E+01 0. -1.
         -5    1    4    4    0  502 -0.23930920450E+02 -0.29595545525E+02 -0.20541238201E+02  0.43504226638E+02  0.47000000000E+01 0. -1.
        -11    1    3    3    0    0  0.32686360325E+02 -0.21981534289E+02  0.35881121859E+02  0.53282651087E+02  0.00000000000E+00 0.  1.
         11    1    3    3    0    0 -0.52324644128E+02 -0.11678997686E+02  0.80141199823E+01  0.54207872944E+02  0.00000000000E+00 0. -1.
<mgrwt>
<rscale>  0 0.12182152E+03</rscale>
<asrwt>0</asrwt>
<pdfrwt beam="2">  1        2 0.39151109E-01 0.13093237E+03</pdfrwt>
<pdfrwt beam="1">  1       -2 0.14606006E-01 0.13093237E+03</pdfrwt>
<totfact> 0.44830222E+03</totfact>
</mgrwt>
</event>
<event>
 8    1  0.1224355E-005  0.1423728E+03  0.7546771E-02  0.1221087E+00
          2   -1    0    0  501    0  0.00000000000E+00  0.00000000000E+00  0.71420863841E+03  0.71420863841E+03  0.00000000000E+00 0. -1.
         -2   -1    0    0    0  501 -0.00000000000E+00 -0.00000000000E+00 -0.24109613411E+02  0.24109613411E+02  0.00000000000E+00 0.  1.
         23    2    1    2    0    0 -0.44784430198E+02  0.51363015503E+02  0.22301749963E+03  0.25002002079E+03  0.90163191542E+02 0.  0.
         23    2    1    2    0    0  0.44784430198E+02 -0.51363015503E+02  0.46708152538E+03  0.48829823103E+03  0.12500482602E+03 0.  0.
          5    1    4    4  502    0  0.18191492401E+02 -0.40429831114E+02  0.45430206045E+03  0.45648434121E+03  0.47000000000E+01 0. -1.
         -5    1    4    4    0  502  0.26592937797E+02 -0.10933184389E+02  0.12779464921E+02  0.31813889816E+02  0.47000000000E+01 0. -1.
        -11    1    3    3    0    0 -0.62099514451E+02  0.64840977184E+02  0.16258317271E+03  0.18572557731E+03  0.00000000000E+00 0.  1.
         11    1    3    3    0    0  0.17315084252E+02 -0.13477961682E+02  0.60434326913E+02  0.64294443486E+02  0.00000000000E+00 0. -1.
<mgrwt>
<rscale>  0 0.13438715E+03</rscale>
<asrwt>0</asrwt>
<pdfrwt beam="1">  1        2 0.10987824E+00 0.14237279E+03</pdfrwt>
<pdfrwt beam="2">  1       -2 0.37091718E-02 0.14237279E+03</pdfrwt>
<totfact> 0.12073064E+04</totfact>
</mgrwt>
</event>
<event>
 8    1  0.1224355E-005  0.1294619E+03  0.7546771E-02  0.1242645E+00
         -1   -1    0    0    0  501 -0.00000000000E+00  0.00000000000E+00  0.25960061675E+02  0.25960061675E+02  0.00000000000E+00 0.  1.
          1   -1    0    0  501    0  0.00000000000E+00 -0.00000000000E+00 -0.49145890001E+03  0.49145890001E+03  0.00000000000E+00 0. -1.
         23    2    1    2    0    0 -0.33032436813E+02 -0.69957670442E+01 -0.19785443695E+03  0.22010784942E+03  0.90338278254E+02 0.  0.
         23    2    1    2    0    0  0.33032436813E+02  0.69957670442E+01 -0.26764440138E+03  0.29731111226E+03  0.12498115555E+03 0.  0.
          5    1    4    4  502    0  0.24714488902E+02 -0.10464768887E+02  0.16359242148E+01  0.27296219474E+02  0.47000000000E+01 0. -1.
         -5    1    4    4    0  502  0.83179479115E+01  0.17460535932E+02 -0.26928032560E+03  0.27001489279E+03  0.47000000000E+01 0. -1.
        -11    1    3    3    0    0 -0.50187715962E+02  0.18377649057E+02 -0.66945413462E+02  0.85663488149E+02  0.00000000000E+00 0.  1.
         11    1    3    3    0    0  0.17155279149E+02 -0.25373416101E+02 -0.13090902349E+03  0.13444436127E+03  0.00000000000E+00 0. -1.
<mgrwt>
<rscale>  0 0.12027437E+03</rscale>
<asrwt>0</asrwt>
<pdfrwt beam="2">  1        1 0.75609062E-01 0.12946185E+03</pdfrwt>
<pdfrwt beam="1">  1       -1 0.39938556E-02 0.12946185E+03</pdfrwt>
<totfact> 0.10792541E+04</totfact>
</mgrwt>
</event>
<event>
 8    1  0.1224355E-005  0.1467385E+03  0.7546771E-02  0.1214088E+00
         -1   -1    0    0    0  501 -0.00000000000E+00  0.00000000000E+00  0.59626889632E+02  0.59626889632E+02  0.00000000000E+00 0.  1.
          1   -1    0    0  501    0  0.00000000000E+00 -0.00000000000E+00 -0.38880305991E+03  0.38880305991E+03  0.00000000000E+00 0. -1.
         23    2    1    2    0    0 -0.47378612521E+01  0.76717928012E+02 -0.43560123642E+02  0.12732447187E+03  0.91683962382E+02 0.  0.
         23    2    1    2    0    0  0.47378612521E+01 -0.76717928012E+02 -0.28561604663E+03  0.32110547767E+03  0.12499645549E+03 0.  0.
          5    1    4    4  502    0  0.16155793889E+02  0.14959447355E+02 -0.17900710179E+01  0.22585152105E+02  0.47000000000E+01 0. -1.
         -5    1    4    4    0  502 -0.11417932637E+02 -0.91677375367E+02 -0.28382597561E+03  0.29852032556E+03  0.47000000000E+01 0. -1.
        -11    1    3    3    0    0  0.27267453078E+02  0.71238962802E+02 -0.43335094620E+01  0.76402114648E+02  0.00000000000E+00 0.  1.
         11    1    3    3    0    0 -0.32005314331E+02  0.54789652100E+01 -0.39226614180E+02  0.50922357223E+02  0.00000000000E+00 0. -1.
<mgrwt>
<rscale>  0 0.13943713E+03</rscale>
<asrwt>0</asrwt>
<pdfrwt beam="2">  1        1 0.59815856E-01 0.14673855E+03</pdfrwt>
<pdfrwt beam="1">  1       -1 0.91733675E-02 0.14673855E+03</pdfrwt>
<totfact> 0.42422372E+03</totfact>
</mgrwt>
</event>
<event>
 8    1  0.1224355E-005  0.1438469E+03  0.7546771E-02  0.1218604E+00
         -1   -1    0    0    0  501 -0.00000000000E+00  0.00000000000E+00  0.21070770716E+02  0.21070770716E+02  0.00000000000E+00 0.  1.
          1   -1    0    0  501    0  0.00000000000E+00 -0.00000000000E+00 -0.79815494297E+03  0.79815494297E+03  0.00000000000E+00 0. -1.
         23    2    1    2    0    0  0.47863746456E+02 -0.52689303388E+02 -0.35565718596E+03  0.37392510823E+03  0.90889227777E+02 0.  0.
         23    2    1    2    0    0 -0.47863746456E+02  0.52689303388E+02 -0.42142698630E+03  0.44530060546E+03  0.12499929409E+03 0.  0.
          5    1    4    4  502    0  0.37412992834E+02 -0.91361413781E+00 -0.17544473401E+03  0.17945336836E+03  0.47000000000E+01 0. -1.
         -5    1    4    4    0  502 -0.85276739290E+02  0.53602917526E+02 -0.24598225228E+03  0.26584723709E+03  0.47000000000E+01 0. -1.
        -11    1    3    3    0    0  0.21039633929E+02 -0.76595169319E+02 -0.23819559408E+03  0.25109087438E+03  0.00000000000E+00 0.  1.
         11    1    3    3    0    0  0.26824112527E+02  0.23905865931E+02 -0.11746159187E+03  0.12283423384E+03  0.00000000000E+00 0. -1.
<mgrwt>
<rscale>  0 0.13615098E+03</rscale>
<asrwt>0</asrwt>
<pdfrwt beam="2">  1        1 0.12279309E+00 0.14384688E+03</pdfrwt>
<pdfrwt beam="1">  1       -1 0.32416566E-02 0.14384688E+03</pdfrwt>
<totfact> 0.75281349E+03</totfact>
</mgrwt>
</event>
<event>
 8    1  0.1224355E-005  0.2184120E+03  0.7546771E-02  0.1138519E+00
         -2   -1    0    0    0  501 -0.00000000000E+00  0.00000000000E+00  0.86736523258E+02  0.86736523258E+02  0.00000000000E+00 0.  1.
          2   -1    0    0  501    0  0.00000000000E+00 -0.00000000000E+00 -0.58069127860E+03  0.58069127860E+03  0.00000000000E+00 0. -1.
         23    2    1    2    0    0  0.16289878827E+03 -0.74459532601E+02 -0.11898269272E+03  0.23348326394E+03  0.90979756861E+02 0.  0.
         23    2    1    2    0    0 -0.16289878827E+03  0.74459532601E+02 -0.37497206262E+03  0.43394453792E+03  0.12499430799E+03 0.  0.
          5    1    4    4  502    0 -0.15806313020E+02 -0.10290498991E+00  0.69634676254E+01  0.17900558709E+02  0.47000000000E+01 0.  1.
         -5    1    4    4    0  502 -0.14709247525E+03  0.74562437591E+02 -0.38193553025E+03  0.41604397921E+03  0.47000000000E+01 0.  1.
        -11    1    3    3    0    0  0.10583569223E+03 -0.92810785317E+02 -0.87985800081E+02  0.16600161637E+03  0.00000000000E+00 0.  1.
         11    1    3    3    0    0  0.57063096036E+02  0.18351252716E+02 -0.30996892641E+02  0.67481647570E+02  0.00000000000E+00 0. -1.
<mgrwt>
<rscale>  0 0.21389371E+03</rscale>
<asrwt>0</asrwt>
<pdfrwt beam="2">  1        2 0.89337117E-01 0.21841203E+03</pdfrwt>
<pdfrwt beam="1">  1       -2 0.13344081E-01 0.21841203E+03</pdfrwt>
<totfact> 0.21651044E+03</totfact>
</mgrwt>
</event>
<event>
 8    1  0.1224355E-005  0.1492086E+03  0.7546771E-02  0.1210696E+00
         -1   -1    0    0    0  501 -0.00000000000E+00  0.00000000000E+00  0.98309862010E+02  0.98309862010E+02  0.00000000000E+00 0.  1.
          1   -1    0    0  501    0  0.00000000000E+00 -0.00000000000E+00 -0.19785673236E+03  0.19785673236E+03  0.00000000000E+00 0. -1.
         23    2    1    2    0    0 -0.63585520794E+02  0.50936709776E+02 -0.11340796605E+02  0.12283596936E+03  0.91227160666E+02 0.  0.
         23    2    1    2    0    0  0.63585520794E+02 -0.50936709776E+02 -0.88206073744E+02  0.17333062501E+03  0.12500210904E+03 0.  0.
          5    1    4    4  502    0  0.81426926010E+02 -0.72650494747E+02 -0.38084836384E+02  0.11567620079E+03  0.47000000000E+01 0. -1.
         -5    1    4    4    0  502 -0.17841405216E+02  0.21713784971E+02 -0.50121237360E+02  0.57654424222E+02  0.47000000000E+01 0. -1.
        -11    1    3    3    0    0 -0.56019703539E+02  0.10159745430E+02  0.29934984101E+02  0.64323641726E+02  0.00000000000E+00 0.  1.
         11    1    3    3    0    0 -0.75658172543E+01  0.40776964346E+02 -0.41275780706E+02  0.58512327632E+02  0.00000000000E+00 0. -1.
<mgrwt>
<rscale>  0 0.14197503E+03</rscale>
<asrwt>0</asrwt>
<pdfrwt beam="2">  1        1 0.30439497E-01 0.14920856E+03</pdfrwt>
<pdfrwt beam="1">  1       -1 0.15124594E-01 0.14920856E+03</pdfrwt>
<totfact> 0.45445016E+03</totfact>
</mgrwt>
</event>
<event>
 8    1  0.1224355E-005  0.1373624E+03  0.7546771E-02  0.1228090E+00
         -1   -1    0    0    0  501 -0.00000000000E+00  0.00000000000E+00  0.28506964446E+02  0.28506964446E+02  0.00000000000E+00 0.  1.
          1   -1    0    0  501    0  0.00000000000E+00 -0.00000000000E+00 -0.53149711213E+03  0.53149711213E+03  0.00000000000E+00 0. -1.
         23    2    1    2    0    0  0.55972322947E+02 -0.10556177177E+02 -0.21607686100E+03  0.24190400244E+03  0.92649893269E+02 0.  0.
         23    2    1    2    0    0 -0.55972322947E+02  0.10556177177E+02 -0.28691328669E+03  0.31810007414E+03  0.12499635706E+03 0.  0.
          5    1    4    4  502    0  0.15038893432E+02  0.50815385902E+02 -0.85219417633E+02  0.10046298274E+03  0.47000000000E+01 0.  1.
         -5    1    4    4    0  502 -0.71011216379E+02 -0.40259208724E+02 -0.20169386905E+03  0.21763709140E+03  0.47000000000E+01 0.  1.
        -11    1    3    3    0    0  0.74649244582E+02  0.74304267102E+01 -0.11313720562E+03  0.13574884255E+03  0.00000000000E+00 0.  1.
         11    1    3    3    0    0 -0.18676921635E+02 -0.17986603887E+02 -0.10293965538E+03  0.10615515989E+03  0.00000000000E+00 0. -1.
<mgrwt>
<rscale>  0 0.12957354E+03</rscale>
<asrwt>0</asrwt>
<pdfrwt beam="2">  1        1 0.81768780E-01 0.13736238E+03</pdfrwt>
<pdfrwt beam="1">  1       -1 0.43856872E-02 0.13736238E+03</pdfrwt>
<totfact> 0.85238226E+03</totfact>
</mgrwt>
</event>
<event>
 8    1  0.1224355E-005  0.1287188E+03  0.7546771E-02  0.1244037E+00
         -2   -1    0    0    0  501 -0.00000000000E+00  0.00000000000E+00  0.20894509905E+02  0.20894509905E+02  0.00000000000E+00 0.  1.
          2   -1    0    0  501    0  0.00000000000E+00 -0.00000000000E+00 -0.68088312401E+03  0.68088312401E+03  0.00000000000E+00 0. -1.
         23    2    1    2    0    0  0.27559781859E+02 -0.13639286703E+02 -0.16768084649E+03  0.19292061721E+03  0.90310168581E+02 0.  0.
         23    2    1    2    0    0 -0.27559781859E+02  0.13639286703E+02 -0.49230776762E+03  0.50885701670E+03  0.12499181442E+03 0.  0.
          5    1    4    4  502    0 -0.27000200502E+00  0.67375510230E+02 -0.28660047100E+03  0.29445110334E+03  0.47000000000E+01 0. -1.
         -5    1    4    4    0  502 -0.27289779854E+02 -0.53736223528E+02 -0.20570729662E+03  0.21440591337E+03  0.47000000000E+01 0. -1.
        -11    1    3    3    0    0  0.34973609403E+02 -0.46012529391E+02 -0.13241317194E+03  0.14447682970E+03  0.00000000000E+00 0. -1.
         11    1    3    3    0    0 -0.74138275431E+01  0.32373242688E+02 -0.35267674544E+02  0.48443787515E+02  0.00000000000E+00 0.  1.
<mgrwt>
<rscale>  0 0.11943196E+03</rscale>
<asrwt>0</asrwt>
<pdfrwt beam="2">  1        2 0.10475124E+00 0.12871878E+03</pdfrwt>
<pdfrwt beam="1">  1       -2 0.32145403E-02 0.12871878E+03</pdfrwt>
<totfact> 0.15671934E+04</totfact>
</mgrwt>
</event>
<event>
 8    1  0.1224355E-005  0.1608099E+03  0.7546771E-02  0.1195414E+00
         -1   -1    0    0    0  501 -0.00000000000E+00  0.00000000000E+00  0.14925032700E+03  0.14925032700E+03  0.00000000000E+00 0.  1.
          1   -1    0    0  501    0  0.00000000000E+00 -0.00000000000E+00 -0.14831484479E+03  0.14831484479E+03  0.00000000000E+00 0. -1.
         23    2    1    2    0    0  0.98785399041E+02  0.21827974724E+02  0.11448810298E+02  0.13641192602E+03  0.90786137486E+02 0.  0.
         23    2    1    2    0    0 -0.98785399041E+02 -0.21827974724E+02 -0.10513328092E+02  0.16115324576E+03  0.12499929203E+03 0.  0.
          5    1    4    4  502    0 -0.68649335457E+02 -0.17165964155E+02  0.54333667590E+02  0.89340019128E+02  0.47000000000E+01 0.  1.
         -5    1    4    4    0  502 -0.30136063584E+02 -0.46620105692E+01 -0.64846995682E+02  0.71813226636E+02  0.47000000000E+01 0.  1.
        -11    1    3    3    0    0 -0.13567849181E+02 -0.62239474453E+01 -0.10886491065E+02  0.18475382023E+02  0.00000000000E+00 0. -1.
         11    1    3    3    0    0  0.11235324822E+03  0.28051922169E+02  0.22335301363E+02  0.11793654400E+03  0.00000000000E+00 0.  1.
<mgrwt>
<rscale>  0 0.15419277E+03</rscale>
<asrwt>0</asrwt>
<pdfrwt beam="2">  1        1 0.22817669E-01 0.16080995E+03</pdfrwt>
<pdfrwt beam="1">  1       -1 0.22961589E-01 0.16080995E+03</pdfrwt>
<totfact> 0.33584023E+03</totfact>
</mgrwt>
</event>
<event>
 8    1  0.1224355E-005  0.1289044E+03  0.7546771E-02  0.1240845E+00
          1   -1    0    0  501    0  0.00000000000E+00  0.00000000000E+00  0.23511876012E+03  0.23511876012E+03  0.00000000000E+00 0. -1.
         -1   -1    0    0    0  501 -0.00000000000E+00 -0.00000000000E+00 -0.56526237914E+02  0.56526237914E+02  0.00000000000E+00 0.  1.
         23    2    1    2    0    0  0.26293343820E+02  0.17664003207E+02  0.70802319049E+02  0.12361205309E+03  0.96247671907E+02 0.  0.
         23    2    1    2    0    0 -0.26293343820E+02 -0.17664003207E+02  0.10779020316E+03  0.16803294495E+03  0.12495193377E+03 0.  0.
          5    1    4    4  502    0 -0.26914294430E+02 -0.58363644572E+02  0.10946370059E+03  0.12702395837E+03  0.47000000000E+01 0.  1.
         -5    1    4    4    0  502  0.62095061042E+00  0.40699641365E+02 -0.16734974287E+01  0.41008986583E+02  0.47000000000E+01 0.  1.
        -11    1    3    3    0    0  0.22244756897E+02 -0.27341085196E+01 -0.20255860665E+02  0.30209343754E+02  0.00000000000E+00 0.  1.
         11    1    3    3    0    0  0.40485869231E+01  0.20398111726E+02  0.91058179714E+02  0.93402709334E+02  0.00000000000E+00 0. -1.
<mgrwt>
<rscale>  0 0.12137551E+03</rscale>
<asrwt>0</asrwt>
<pdfrwt beam="1">  1        1 0.36172117E-01 0.12890439E+03</pdfrwt>
<pdfrwt beam="2">  1       -1 0.86963444E-02 0.12890439E+03</pdfrwt>
<totfact> 0.85233633E+03</totfact>
</mgrwt>
</event>
<event>
 8    1  0.1224355E-005  0.1466173E+03  0.7546771E-02  0.1209710E+00
         -1   -1    0    0    0  501 -0.00000000000E+00  0.00000000000E+00  0.13128650814E+03  0.13128650814E+03  0.00000000000E+00 0.  1.
          1   -1    0    0  501    0  0.00000000000E+00 -0.00000000000E+00 -0.22085225934E+03  0.22085225934E+03  0.00000000000E+00 0. -1.
         23    2    1    2    0    0 -0.76135008767E+02  0.87209656417E+01  0.58228764916E+02  0.14395650606E+03  0.10705275228E+03 0.  0.
         23    2    1    2    0    0  0.76135008767E+02 -0.87209656417E+01 -0.14779451612E+03  0.20818226142E+03  0.12499616065E+03 0.  0.
          5    1    4    4  502    0  0.72699893047E+02  0.21482529634E+02 -0.22570337645E+02  0.79235621218E+02  0.47000000000E+01 0. -1.
         -5    1    4    4    0  502  0.34351157206E+01 -0.30203495276E+02 -0.12522417847E+03  0.12894664021E+03  0.47000000000E+01 0. -1.
        -11    1    3    3    0    0 -0.47277015382E+02 -0.19122089031E+02  0.82568183289E+02  0.97047799377E+02  0.00000000000E+00 0.  1.
         11    1    3    3    0    0 -0.28857993385E+02  0.27843054672E+02 -0.24339418373E+02  0.46908706680E+02  0.00000000000E+00 0. -1.
<mgrwt>
<rscale>  0 0.14272426E+03</rscale>
<asrwt>0</asrwt>
<pdfrwt beam="2">  1        1 0.33977270E-01 0.14661731E+03</pdfrwt>
<pdfrwt beam="1">  1       -1 0.20197924E-01 0.14661731E+03</pdfrwt>
<totfact> 0.25000843E+03</totfact>
</mgrwt>
</event>
<event>
 8    1  0.1224355E-005  0.1414682E+03  0.7546771E-02  0.1222311E+00
         -1   -1    0    0    0  501 -0.00000000000E+00  0.00000000000E+00  0.19958340840E+03  0.19958340840E+03  0.00000000000E+00 0.  1.
          1   -1    0    0  501    0  0.00000000000E+00 -0.00000000000E+00 -0.81061079270E+02  0.81061079270E+02  0.00000000000E+00 0. -1.
         23    2    1    2    0    0  0.65632242305E+02  0.89719736620E+01  0.62312396744E+02  0.12841834229E+03  0.90666136493E+02 0.  0.
         23    2    1    2    0    0 -0.65632242305E+02 -0.89719736620E+01  0.56209932384E+02  0.15222614538E+03  0.12500062119E+03 0.  0.
          5    1    4    4  502    0 -0.13140889626E+02  0.56041325822E+02  0.21564596081E+02  0.61647668117E+02  0.47000000000E+01 0.  1.
         -5    1    4    4    0  502 -0.52491352679E+02 -0.65013299484E+02  0.34645336302E+02  0.90578477264E+02  0.47000000000E+01 0.  1.
        -11    1    3    3    0    0  0.14484039072E+02  0.45710215347E+02  0.17155973171E+02  0.50926796388E+02  0.00000000000E+00 0.  1.
         11    1    3    3    0    0  0.51148203233E+02 -0.36738241685E+02  0.45156423573E+02  0.77491545900E+02  0.00000000000E+00 0. -1.
<mgrwt>
<rscale>  0 0.13352934E+03</rscale>
<asrwt>0</asrwt>
<pdfrwt beam="2">  1        1 0.12470935E-01 0.14146817E+03</pdfrwt>
<pdfrwt beam="1">  1       -1 0.30705139E-01 0.14146817E+03</pdfrwt>
<totfact> 0.44853984E+03</totfact>
</mgrwt>
</event>
<event>
 8    1  0.1224355E-005  0.1324391E+03  0.7546771E-02  0.1238418E+00
         -2   -1    0    0    0  501 -0.00000000000E+00  0.00000000000E+00  0.49733548126E+02  0.49733548126E+02  0.00000000000E+00 0.  1.
          2   -1    0    0  501    0  0.00000000000E+00 -0.00000000000E+00 -0.26733397457E+03  0.26733397457E+03  0.00000000000E+00 0. -1.
         23    2    1    2    0    0  0.43649501197E+02  0.33078173605E+01 -0.94817452737E+02  0.13646917533E+03  0.87847970161E+02 0.  0.
         23    2    1    2    0    0 -0.43649501197E+02 -0.33078173605E+01 -0.12278297370E+03  0.18059834736E+03  0.12499553523E+03 0.  0.
          5    1    4    4  502    0  0.11408175640E+02  0.51457474388E+02 -0.35743120519E+02  0.63856705257E+02  0.47000000000E+01 0. -1.
         -5    1    4    4    0  502 -0.55057676836E+02 -0.54765291749E+02 -0.87039853183E+02  0.11674164210E+03  0.47000000000E+01 0. -1.
        -11    1    3    3    0    0  0.12542161548E+02 -0.31961839237E+02 -0.44823732721E+01  0.34625953472E+02  0.00000000000E+00 0.  1.
         11    1    3    3    0    0  0.31107339648E+02  0.35269656597E+02 -0.90335079465E+02  0.10184322186E+03  0.00000000000E+00 0. -1.
<mgrwt>
<rscale>  0 0.12288108E+03</rscale>
<asrwt>0</asrwt>
<pdfrwt beam="2">  1        2 0.41128304E-01 0.13243906E+03</pdfrwt>
<pdfrwt beam="1">  1       -2 0.76513151E-02 0.13243906E+03</pdfrwt>
<totfact> 0.11821586E+04</totfact>
</mgrwt>
</event>
<event>
 8    1  0.1224355E-005  0.1289543E+03  0.7546771E-02  0.1241865E+00
          2   -1    0    0  501    0  0.00000000000E+00  0.00000000000E+00  0.40247299179E+03  0.40247299179E+03  0.00000000000E+00 0. -1.
         -2   -1    0    0    0  501 -0.00000000000E+00 -0.00000000000E+00 -0.37992669820E+02  0.37992669820E+02  0.00000000000E+00 0.  1.
         23    2    1    2    0    0 -0.55387899534E+01 -0.31212152009E+02  0.77470346430E+02  0.12581676712E+03  0.93932569881E+02 0.  0.
         23    2    1    2    0    0  0.55387899534E+01  0.31212152009E+02  0.28700997553E+03  0.31464889449E+03  0.12499729645E+03 0.  0.
          5    1    4    4  502    0 -0.47037092111E+02  0.36607107470E+02  0.22608681609E+03  0.23385873249E+03  0.47000000000E+01 0. -1.
         -5    1    4    4    0  502  0.52575882064E+02 -0.53949554611E+01  0.60923159442E+02  0.80790161998E+02  0.47000000000E+01 0. -1.
        -11    1    3    3    0    0  0.30624884162E+02 -0.42614605745E+02  0.18373690591E+02  0.55601085050E+02  0.00000000000E+00 0.  1.
         11    1    3    3    0    0 -0.36163674116E+02  0.11402453736E+02  0.59096655839E+02  0.70215682067E+02  0.00000000000E+00 0. -1.
<mgrwt>
<rscale>  0 0.12074969E+03</rscale>
<asrwt>0</asrwt>
<pdfrwt beam="1">  1        2 0.61918919E-01 0.12895426E+03</pdfrwt>
<pdfrwt beam="2">  1       -2 0.58450264E-02 0.12895426E+03</pdfrwt>
<totfact> 0.11525127E+04</totfact>
</mgrwt>
</event>
<event>
 8    1  0.1224355E-005  0.1566962E+03  0.7546771E-02  0.1200107E+00
          3   -1    0    0  501    0  0.00000000000E+00  0.00000000000E+00  0.61174639769E+02  0.61174639769E+02  0.00000000000E+00 0. -1.
         -3   -1    0    0    0  501 -0.00000000000E+00 -0.00000000000E+00 -0.34681591785E+03  0.34681591785E+03  0.00000000000E+00 0.  1.
         23    2    1    2    0    0 -0.28029389307E+02  0.90232837538E+02 -0.15482324535E+03  0.20386546887E+03  0.93076745013E+02 0.  0.
         23    2    1    2    0    0  0.28029389307E+02 -0.90232837538E+02 -0.13081803274E+03  0.20412508875E+03  0.12500433006E+03 0.  0.
          5    1    4    4  502    0  0.23118976710E+02  0.15733936333E+02  0.78947076562E+01  0.29435696792E+02  0.47000000000E+01 0. -1.
         -5    1    4    4    0  502  0.49104125964E+01 -0.10596677387E+03 -0.13871274039E+03  0.17468939196E+03  0.47000000000E+01 0. -1.
        -11    1    3    3    0    0  0.16657658667E+02  0.37550289766E+02 -0.83509636058E+01  0.41919451891E+02  0.00000000000E+00 0. -1.
         11    1    3    3    0    0 -0.44687047973E+02  0.52682547772E+02 -0.14647228174E+03  0.16194601698E+03  0.00000000000E+00 0.  1.
<mgrwt>
<rscale>  0 0.15029855E+03</rscale>
<asrwt>0</asrwt>
<pdfrwt beam="1">  1        3 0.94114830E-02 0.15669618E+03</pdfrwt>
<pdfrwt beam="2">  1       -3 0.53356296E-01 0.15669618E+03</pdfrwt>
<totfact> 0.67549747E+02</totfact>
</mgrwt>
</event>
<event>
 8    1  0.1224355E-005  0.1778185E+03  0.7546771E-02  0.1175637E+00
          2   -1    0    0  501    0  0.00000000000E+00  0.00000000000E+00  0.35191665447E+03  0.35191665447E+03  0.00000000000E+00 0.  1.
         -2   -1    0    0    0  501 -0.00000000000E+00 -0.00000000000E+00 -0.91439524175E+02  0.91439524175E+02  0.00000000000E+00 0. -1.
         23    2    1    2    0    0 -0.75950097956E+02  0.10113372211E+03  0.42095162369E+02  0.16173570006E+03  0.91596871398E+02 0.  0.
         23    2    1    2    0    0  0.75950097956E+02 -0.10113372211E+03  0.21838196792E+03  0.28162047858E+03  0.12499185140E+03 0.  0.
          5    1    4    4  502    0 -0.17923072730E+01 -0.57520026497E+02  0.17115682439E+03  0.18063364678E+03  0.47000000000E+01 0.  1.
         -5    1    4    4    0  502  0.77742405229E+02 -0.43613695616E+02  0.47225143527E+02  0.10098683180E+03  0.47000000000E+01 0.  1.
        -11    1    3    3    0    0 -0.20219225792E+02  0.38572134657E+02  0.61858905641E+02  0.75651509375E+02  0.00000000000E+00 0.  1.
         11    1    3    3    0    0 -0.55730872164E+02  0.62561587456E+02 -0.19763743272E+02  0.86084190681E+02  0.00000000000E+00 0. -1.
<mgrwt>
<rscale>  0 0.17213778E+03</rscale>
<asrwt>0</asrwt>
<pdfrwt beam="1">  1        2 0.54141023E-01 0.17781847E+03</pdfrwt>
<pdfrwt beam="2">  1       -2 0.14067619E-01 0.17781847E+03</pdfrwt>
<totfact> 0.34261258E+03</totfact>
</mgrwt>
</event>
<event>
 8    1  0.1224355E-005  0.1953829E+03  0.7546771E-02  0.1158051E+00
          2   -1    0    0  501    0  0.00000000000E+00  0.00000000000E+00  0.11128497833E+04  0.11128497833E+04  0.00000000000E+00 0. -1.
         -2   -1    0    0    0  501 -0.00000000000E+00 -0.00000000000E+00 -0.47370219636E+02  0.47370219636E+02  0.00000000000E+00 0.  1.
         23    2    1    2    0    0  0.11606961529E+03  0.95369217661E+02  0.17473517870E+03  0.24829894025E+03  0.92479931775E+02 0.  0.
         23    2    1    2    0    0 -0.11606961529E+03 -0.95369217661E+02  0.89074438497E+03  0.91192106269E+03  0.12492806715E+03 0.  0.
          5    1    4    4  502    0 -0.12338201376E+03 -0.26958125980E+02  0.56724338276E+03  0.58115144942E+03  0.47000000000E+01 0.  1.
         -5    1    4    4    0  502  0.73123984713E+01 -0.68411091681E+02  0.32350100221E+03  0.33076961327E+03  0.47000000000E+01 0.  1.
        -11    1    3    3    0    0  0.43697358096E+02  0.25176462112E+02  0.47380939217E+01  0.50653360037E+02  0.00000000000E+00 0.  1.
         11    1    3    3    0    0  0.72372257197E+02  0.70192755549E+02  0.16999708478E+03  0.19764558021E+03  0.00000000000E+00 0. -1.
<mgrwt>
<rscale>  0 0.19045605E+03</rscale>
<asrwt>0</asrwt>
<pdfrwt beam="1">  1        2 0.17120764E+00 0.19538287E+03</pdfrwt>
<pdfrwt beam="2">  1       -2 0.72877270E-02 0.19538287E+03</pdfrwt>
<totfact> 0.24474932E+03</totfact>
</mgrwt>
</event>
<event>
 8    1  0.1224355E-005  0.1592956E+03  0.7546771E-02  0.1196765E+00
         -2   -1    0    0    0  501 -0.00000000000E+00  0.00000000000E+00  0.76914001720E+02  0.76914001720E+02  0.00000000000E+00 0.  1.
          2   -1    0    0  501    0  0.00000000000E+00 -0.00000000000E+00 -0.32528485170E+03  0.32528485170E+03  0.00000000000E+00 0. -1.
         23    2    1    2    0    0  0.74181685933E+02  0.65127562589E+02 -0.43261042261E+02  0.14249687400E+03  0.93216518842E+02 0.  0.
         23    2    1    2    0    0 -0.74181685933E+02 -0.65127562589E+02 -0.20510980772E+03  0.25970197942E+03  0.12502224985E+03 0.  0.
          5    1    4    4  502    0 -0.81872115729E+02  0.67140506945E+01 -0.13968121188E+03  0.16211432004E+03  0.47000000000E+01 0.  1.
         -5    1    4    4    0  502  0.76904297959E+01 -0.71841613284E+02 -0.65428595839E+02  0.97587659379E+02  0.47000000000E+01 0.  1.
        -11    1    3    3    0    0  0.28639809813E+02  0.47407502873E+02 -0.68017521590E+02  0.87715980745E+02  0.00000000000E+00 0. -1.
         11    1    3    3    0    0  0.45541876120E+02  0.17720059716E+02  0.24756479328E+02  0.54780893253E+02  0.00000000000E+00 0.  1.
<mgrwt>
<rscale>  0 0.15305756E+03</rscale>
<asrwt>0</asrwt>
<pdfrwt beam="2">  1        2 0.50043824E-01 0.15929559E+03</pdfrwt>
<pdfrwt beam="1">  1       -2 0.11832923E-01 0.15929559E+03</pdfrwt>
<totfact> 0.49040456E+03</totfact>
</mgrwt>
</event>
<event>
 8    1  0.1224355E-005  0.1547094E+03  0.7546771E-02  0.1202591E+00
         -1   -1    0    0    0  501 -0.00000000000E+00  0.00000000000E+00  0.14347589128E+03  0.14347589128E+03  0.00000000000E+00 0.  1.
          1   -1    0    0  501    0  0.00000000000E+00 -0.00000000000E+00 -0.14733700940E+03  0.14733700940E+03  0.00000000000E+00 0. -1.
         23    2    1    2    0    0  0.88845385232E+02 -0.20402455159E+02 -0.29810684772E+02  0.13394235542E+03  0.93499278050E+02 0.  0.
         23    2    1    2    0    0 -0.88845385232E+02  0.20402455159E+02  0.25949566649E+02  0.15687054526E+03  0.12500090123E+03 0.  0.
          5    1    4    4  502    0  0.16086441021E+02 -0.24734368453E+02  0.30180344082E+02  0.42467702274E+02  0.47000000000E+01 0. -1.
         -5    1    4    4    0  502 -0.10493182625E+03  0.45136823612E+02 -0.42307774334E+01  0.11440284299E+03  0.47000000000E+01 0. -1.
        -11    1    3    3    0    0  0.60984927074E+02  0.19762423635E+02 -0.49753714757E+02  0.81148917739E+02  0.00000000000E+00 0. -1.
         11    1    3    3    0    0  0.27860458158E+02 -0.40164878795E+02  0.19943029985E+02  0.52793437683E+02  0.00000000000E+00 0.  1.
<mgrwt>
<rscale>  0 0.14828902E+03</rscale>
<asrwt>0</asrwt>
<pdfrwt beam="2">  1        1 0.22667232E-01 0.15470937E+03</pdfrwt>
<pdfrwt beam="1">  1       -1 0.22073214E-01 0.15470937E+03</pdfrwt>
<totfact> 0.36046870E+03</totfact>
</mgrwt>
</event>
<event>
 8    1  0.1224355E-005  0.1271508E+03  0.7546771E-02  0.1242306E+00
          2   -1    0    0  501    0  0.00000000000E+00  0.00000000000E+00  0.29254453835E+02  0.29254453835E+02  0.00000000000E+00 0. -1.
         -2   -1    0    0    0  501 -0.00000000000E+00 -0.00000000000E+00 -0.53168049071E+03  0.53168049071E+03  0.00000000000E+00 0.  1.
         23    2    1    2    0    0  0.17110636040E+02 -0.19443491440E+02 -0.33728366251E+03  0.35251388573E+03  0.99171303360E+02 0.  0.
         23    2    1    2    0    0 -0.17110636040E+02  0.19443491440E+02 -0.16514237437E+03  0.20842105882E+03  0.12448498192E+03 0.  0.
          5    1    4    4  502    0 -0.38955379423E+02 -0.22566640091E+01 -0.17207900170E+03  0.17651030266E+03  0.47000000000E+01 0.  1.
         -5    1    4    4    0  502  0.21844743383E+02  0.21700155450E+02  0.69366273332E+01  0.31910756161E+02  0.47000000000E+01 0.  1.
        -11    1    3    3    0    0 -0.23870987838E+02 -0.39431788952E+02 -0.24815026541E+03  0.25239501632E+03  0.00000000000E+00 0.  1.
         11    1    3    3    0    0  0.40981623877E+02  0.19988297511E+02 -0.89133397102E+02  0.10011886941E+03  0.00000000000E+00 0. -1.
<mgrwt>
<rscale>  0 0.12048081E+03</rscale>
<asrwt>0</asrwt>
<pdfrwt beam="1">  1        2 0.45006855E-02 0.12715083E+03</pdfrwt>
<pdfrwt beam="2">  1       -2 0.81796993E-01 0.12715083E+03</pdfrwt>
<totfact> 0.23403829E+03</totfact>
</mgrwt>
</event>
<event>
 8    1  0.1224355E-005  0.1355128E+03  0.7546771E-02  0.1235636E+00
         -1   -1    0    0    0  501 -0.00000000000E+00  0.00000000000E+00  0.28372294922E+02  0.28372294922E+02  0.00000000000E+00 0.  1.
          1   -1    0    0  501    0  0.00000000000E+00 -0.00000000000E+00 -0.53881868462E+03  0.53881868462E+03  0.00000000000E+00 0. -1.
         23    2    1    2    0    0  0.52284975038E+02 -0.24072225477E+01 -0.12237785218E+03  0.15614244233E+03  0.81637064240E+02 0.  0.
         23    2    1    2    0    0 -0.52284975038E+02  0.24072225477E+01 -0.38806853752E+03  0.41104853721E+03  0.12499678714E+03 0.  0.
          5    1    4    4  502    0 -0.83720584606E+02 -0.17825296601E+02 -0.33608720210E+03  0.34684805737E+03  0.47000000000E+01 0. -1.
         -5    1    4    4    0  502  0.31435609567E+02  0.20232519149E+02 -0.51981335421E+02  0.64200479844E+02  0.47000000000E+01 0. -1.
        -11    1    3    3    0    0 -0.82840691132E+01  0.21940262624E+02 -0.86219899040E+01  0.24986789209E+02  0.00000000000E+00 0.  1.
         11    1    3    3    0    0  0.60569044151E+02 -0.24347485172E+02 -0.11375586228E+03  0.13115565312E+03  0.00000000000E+00 0. -1.
<mgrwt>
<rscale>  0 0.12463785E+03</rscale>
<asrwt>0</asrwt>
<pdfrwt beam="2">  1        1 0.82895181E-01 0.13551277E+03</pdfrwt>
<pdfrwt beam="1">  1       -1 0.43649685E-02 0.13551277E+03</pdfrwt>
<totfact> 0.84222300E+03</totfact>
</mgrwt>
</event>
<event>
 8    1  0.1224355E-005  0.1156746E+03  0.7546771E-02  0.1260508E+00
          1   -1    0    0  501    0  0.00000000000E+00  0.00000000000E+00  0.24716144929E+02  0.24716144929E+02  0.00000000000E+00 0. -1.
         -1   -1    0    0    0  501 -0.00000000000E+00 -0.00000000000E+00 -0.49697235479E+03  0.49697235479E+03  0.00000000000E+00 0.  1.
         23    2    1    2    0    0 -0.11638335824E+02  0.23225955001E+02 -0.29669969317E+03  0.31144888251E+03  0.91075807111E+02 0.  0.
         23    2    1    2    0    0  0.11638335824E+02 -0.23225955001E+02 -0.17555651670E+03  0.21023961722E+03  0.11271960897E+03 0.  0.
          5    1    4    4  502    0  0.26565013093E+02  0.36948470744E+01  0.44229457758E+01  0.27586305749E+02  0.47000000000E+01 0. -1.
         -5    1    4    4    0  502 -0.14926677269E+02 -0.26920802076E+02 -0.17997946247E+03  0.18265331147E+03  0.47000000000E+01 0.  1.
        -11    1    3    3    0    0 -0.13151757028E+02  0.54433141439E+02 -0.24256247564E+03  0.24894274480E+03  0.00000000000E+00 0. -1.
         11    1    3    3    0    0  0.15134212041E+01 -0.31207186438E+02 -0.54137217527E+02  0.62506137704E+02  0.00000000000E+00 0.  1.
<mgrwt>
<rscale>  0 0.11003368E+03</rscale>
<asrwt>0</asrwt>
<pdfrwt beam="1">  1        1 0.38024841E-02 0.11567457E+03</pdfrwt>
<pdfrwt beam="2">  1       -1 0.76457281E-01 0.11567457E+03</pdfrwt>
<totfact> 0.41436378E+03</totfact>
</mgrwt>
</event>
<event>
 7    1  0.1224355E-005  0.1397736E+03  0.7546771E-02  0.1231954E+00
          2   -1    0    0  501    0  0.00000000000E+00  0.00000000000E+00  0.10324182273E+03  0.10324182273E+03  0.00000000000E+00 0. -1.
         -2   -1    0    0    0  501 -0.00000000000E+00 -0.00000000000E+00 -0.13465421250E+03  0.13465421250E+03  0.00000000000E+00 0.  1.
         23    2    1    2    0    0 -0.88615119068E+01  0.26413837760E+02 -0.21937640103E+02  0.97801712877E+02  0.91146573001E+02 0.  0.
          5    1    1    2  502    0  0.42508920441E+02 -0.35669965081E+02  0.47446753653E+02  0.73161732881E+02  0.47000000000E+01 0. -1.
         -5    1    1    2    0  502 -0.33647408534E+02  0.92561273208E+01 -0.56921503318E+02  0.66932589477E+02  0.47000000000E+01 0.  1.
        -11    1    3    3    0    0 -0.48938092548E+02  0.33334972430E+01 -0.12018592559E+02  0.50502432349E+02  0.00000000000E+00 0.  1.
         11    1    3    3    0    0  0.40076580641E+02  0.23080340517E+02 -0.99190475443E+01  0.47299280528E+02  0.00000000000E+00 0. -1.
<mgrwt>
<rscale>  0 0.12701438E+03</rscale>
<asrwt>0</asrwt>
<pdfrwt beam="1">  1        2 0.15883357E-01 0.13977356E+03</pdfrwt>
<pdfrwt beam="2">  1       -2 0.20716033E-01 0.13977356E+03</pdfrwt>
<totfact> 0.68315961E+03</totfact>
</mgrwt>
</event>
<event>
 8    1  0.1224355E-005  0.1374513E+03  0.7546771E-02  0.1225551E+00
          1   -1    0    0  501    0  0.00000000000E+00  0.00000000000E+00  0.72447439396E+03  0.72447439396E+03  0.00000000000E+00 0. -1.
         -1   -1    0    0    0  501 -0.00000000000E+00 -0.00000000000E+00 -0.29855507747E+02  0.29855507747E+02  0.00000000000E+00 0.  1.
         23    2    1    2    0    0  0.57160387876E+02  0.11577201465E+01  0.12982812829E+03  0.17305417507E+03  0.99114854368E+02 0.  0.
         23    2    1    2    0    0 -0.57160387876E+02 -0.11577201465E+01  0.56479075793E+03  0.58127572664E+03  0.12499687949E+03 0.  0.
          5    1    4    4  502    0 -0.76226289778E+02  0.41171670241E+02  0.42916470618E+03  0.43784699235E+03  0.47000000000E+01 0. -1.
         -5    1    4    4    0  502  0.19065901901E+02 -0.42329390388E+02  0.13562605175E+03  0.14342873428E+03  0.47000000000E+01 0. -1.
        -11    1    3    3    0    0  0.32658444276E+02  0.18329817071E+02 -0.23572614251E+01  0.37524829884E+02  0.00000000000E+00 0.  1.
         11    1    3    3    0    0  0.24501943600E+02 -0.17172096925E+02  0.13218538971E+03  0.13552934519E+03  0.00000000000E+00 0. -1.
<mgrwt>
<rscale>  0 0.13129227E+03</rscale>
<asrwt>0</asrwt>
<pdfrwt beam="1">  1        1 0.11145759E+00 0.13745134E+03</pdfrwt>
<pdfrwt beam="2">  1       -1 0.45931556E-02 0.13745134E+03</pdfrwt>
<totfact> 0.51957461E+03</totfact>
</mgrwt>
</event>
<event>
 8    1  0.1224355E-005  0.1367150E+03  0.7546771E-02  0.1230044E+00
         -2   -1    0    0    0  501 -0.00000000000E+00  0.00000000000E+00  0.67486097687E+02  0.67486097687E+02  0.00000000000E+00 0.  1.
          2   -1    0    0  501    0  0.00000000000E+00 -0.00000000000E+00 -0.24632550635E+03  0.24632550635E+03  0.00000000000E+00 0. -1.
         23    2    1    2    0    0  0.41683288855E+02 -0.36450174242E+02 -0.26669319171E+02  0.10924686060E+03  0.90318947036E+02 0.  0.
         23    2    1    2    0    0 -0.41683288855E+02  0.36450174242E+02 -0.15217008949E+03  0.20456474344E+03  0.12499954540E+03 0.  0.
          5    1    4    4  502    0 -0.34098159535E+02 -0.18183181804E+01  0.11427998953E+02  0.36313632767E+02  0.47000000000E+01 0.  1.
         -5    1    4    4    0  502 -0.75851293208E+01  0.38268492423E+02 -0.16359808844E+03  0.16825111067E+03  0.47000000000E+01 0.  1.
        -11    1    3    3    0    0 -0.68666668726E+01  0.12785508306E+02 -0.36617232489E+02  0.39388349188E+02  0.00000000000E+00 0. -1.
         11    1    3    3    0    0  0.48549955728E+02 -0.49235682549E+02  0.99479133179E+01  0.69858511411E+02  0.00000000000E+00 0.  1.
<mgrwt>
<rscale>  0 0.12827110E+03</rscale>
<asrwt>0</asrwt>
<pdfrwt beam="2">  1        2 0.37896232E-01 0.13671503E+03</pdfrwt>
<pdfrwt beam="1">  1       -2 0.10382476E-01 0.13671503E+03</pdfrwt>
<totfact> 0.80375711E+03</totfact>
</mgrwt>
</event>
<event>
 8    1  0.1224355E-005  0.1809866E+03  0.7546771E-02  0.1172204E+00
          1   -1    0    0  501    0  0.00000000000E+00  0.00000000000E+00  0.22018620089E+03  0.22018620089E+03  0.00000000000E+00 0. -1.
         -1   -1    0    0    0  501 -0.00000000000E+00 -0.00000000000E+00 -0.14227448957E+03  0.14227448957E+03  0.00000000000E+00 0.  1.
         23    2    1    2    0    0 -0.68112695620E+01 -0.13071369094E+03 -0.11628146534E+02  0.16053608057E+03  0.92217986204E+02 0.  0.
         23    2    1    2    0    0  0.68112695620E+01  0.13071369094E+03  0.89539857850E+02  0.20192460989E+03  0.12499479807E+03 0.  0.
          5    1    4    4  502    0  0.48145148836E+02  0.88816523689E+02  0.82717722383E+01  0.10147335834E+03  0.47000000000E+01 0.  1.
         -5    1    4    4    0  502 -0.41333879274E+02  0.41897167250E+02  0.81268085612E+02  0.10045125155E+03  0.47000000000E+01 0.  1.
        -11    1    3    3    0    0 -0.22022377105E+02 -0.41577137624E+02 -0.44071876421E+02  0.64466842312E+02  0.00000000000E+00 0.  1.
         11    1    3    3    0    0  0.15211107543E+02 -0.89136553316E+02  0.32443729887E+02  0.96069238254E+02  0.00000000000E+00 0. -1.
<mgrwt>
<rscale>  0 0.17552641E+03</rscale>
<asrwt>0</asrwt>
<pdfrwt beam="1">  1        1 0.33874800E-01 0.18098663E+03</pdfrwt>
<pdfrwt beam="2">  1       -1 0.21888383E-01 0.18098663E+03</pdfrwt>
<totfact> 0.22202222E+03</totfact>
</mgrwt>
</event>
<event>
 8    1  0.1224355E-005  0.1605679E+03  0.7546771E-02  0.1195383E+00
         -1   -1    0    0    0  501 -0.00000000000E+00  0.00000000000E+00  0.14437813025E+03  0.14437813025E+03  0.00000000000E+00 0. -1.
          1   -1    0    0  501    0  0.00000000000E+00 -0.00000000000E+00 -0.20189746393E+03  0.20189746393E+03  0.00000000000E+00 0.  1.
         23    2    1    2    0    0  0.77729252915E+02 -0.64165424427E+02  0.58034678356E+02  0.14845050204E+03  0.92252312781E+02 0.  0.
         23    2    1    2    0    0 -0.77729252915E+02  0.64165424427E+02 -0.11555401203E+03  0.19782509214E+03  0.12499199548E+03 0.  0.
          5    1    4    4  502    0 -0.10239686299E+03  0.14256435695E+02 -0.63226661453E+02  0.12127680828E+03  0.47000000000E+01 0. -1.
         -5    1    4    4    0  502  0.24667610075E+02  0.49908988732E+02 -0.52327350575E+02  0.76548283856E+02  0.47000000000E+01 0. -1.
        -11    1    3    3    0    0  0.68306966572E+02 -0.21964414043E+02 -0.50949638046E+01  0.71932161254E+02  0.00000000000E+00 0.  1.
         11    1    3    3    0    0  0.94222863435E+01 -0.42201010384E+02  0.63129642161E+02  0.76518340786E+02  0.00000000000E+00 0. -1.
<mgrwt>
<rscale>  0 0.15421820E+03</rscale>
<asrwt>0</asrwt>
<pdfrwt beam="2">  1        1 0.31061148E-01 0.16056786E+03</pdfrwt>
<pdfrwt beam="1">  1       -1 0.22212020E-01 0.16056786E+03</pdfrwt>
<totfact> 0.24054937E+03</totfact>
</mgrwt>
</event>
<event>
 8    1  0.1224355E-005  0.1269264E+03  0.7546771E-02  0.1246148E+00
          2   -1    0    0  501    0  0.00000000000E+00  0.00000000000E+00  0.14683863963E+04  0.14683863963E+04  0.00000000000E+00 0. -1.
         -2   -1    0    0    0  501 -0.00000000000E+00 -0.00000000000E+00 -0.12383194594E+02  0.12383194594E+02  0.00000000000E+00 0.  1.
         23    2    1    2    0    0  0.27611889166E+01  0.21907241949E+02  0.24139355142E+03  0.25954605979E+03  0.92767230583E+02 0.  0.
         23    2    1    2    0    0 -0.27611889166E+01 -0.21907241949E+02  0.12146096503E+04  0.12212235311E+04  0.12499103546E+03 0.  0.
          5    1    4    4  502    0 -0.29041022250E+02  0.44624865459E+02  0.42018527821E+03  0.42357114823E+03  0.47000000000E+01 0. -1.
         -5    1    4    4    0  502  0.26279833333E+02 -0.66532107408E+02  0.79442437205E+03  0.79765238285E+03  0.47000000000E+01 0. -1.
        -11    1    3    3    0    0  0.58247398625E+01 -0.32570576151E+02  0.45912040458E+02  0.56592274069E+02  0.00000000000E+00 0.  1.
         11    1    3    3    0    0 -0.30635509458E+01  0.54477818101E+02  0.19548151096E+03  0.20295378572E+03  0.00000000000E+00 0. -1.
<mgrwt>
<rscale>  0 0.11816918E+03</rscale>
<asrwt>0</asrwt>
<pdfrwt beam="1">  1        2 0.22590546E+00 0.12692640E+03</pdfrwt>
<pdfrwt beam="2">  1       -2 0.19051080E-02 0.12692640E+03</pdfrwt>
<totfact> 0.11421885E+04</totfact>
</mgrwt>
</event>
<event>
 8    1  0.1224355E-005  0.1682422E+03  0.7546771E-02  0.1186794E+00
          1   -1    0    0  501    0  0.00000000000E+00  0.00000000000E+00  0.63898860479E+02  0.63898860479E+02  0.00000000000E+00 0. -1.
         -1   -1    0    0    0  501 -0.00000000000E+00 -0.00000000000E+00 -0.38495131158E+03  0.38495131158E+03  0.00000000000E+00 0.  1.
         23    2    1    2    0    0 -0.68210854142E+02 -0.89578371770E+02 -0.17243843719E+03  0.22436952454E+03  0.89048658658E+02 0.  0.
         23    2    1    2    0    0  0.68210854142E+02  0.89578371770E+02 -0.14861401392E+03  0.22448064753E+03  0.12501372193E+03 0.  0.
          5    1    4    4  502    0 -0.34662034814E+02  0.60052829233E+01 -0.34987840782E+02  0.49837326203E+02  0.47000000000E+01 0.  1.
         -5    1    4    4    0  502  0.10287288896E+03  0.83573088847E+02 -0.11362617314E+03  0.17464332132E+03  0.47000000000E+01 0.  1.
        -11    1    3    3    0    0  0.21532490577E+02 -0.18697273422E+02 -0.43605058799E+02  0.52102181689E+02  0.00000000000E+00 0.  1.
         11    1    3    3    0    0 -0.89743344719E+02 -0.70881098348E+02 -0.12883337839E+03  0.17226734285E+03  0.00000000000E+00 0. -1.
<mgrwt>
<rscale>  0 0.16169708E+03</rscale>
<asrwt>0</asrwt>
<pdfrwt beam="1">  1        1 0.98305939E-02 0.16824219E+03</pdfrwt>
<pdfrwt beam="2">  1       -1 0.59223279E-01 0.16824219E+03</pdfrwt>
<totfact> 0.19208578E+03</totfact>
</mgrwt>
</event>
<event>
 8    1  0.1224355E-005  0.1716986E+03  0.7546771E-02  0.1182502E+00
         -1   -1    0    0    0  501 -0.00000000000E+00  0.00000000000E+00  0.13687468556E+02  0.13687468556E+02  0.00000000000E+00 0.  1.
          1   -1    0    0  501    0  0.00000000000E+00 -0.00000000000E+00 -0.19777701560E+04  0.19777701560E+04  0.00000000000E+00 0. -1.
         23    2    1    2    0    0  0.11506747831E+03 -0.24927152139E+02 -0.68752038063E+03  0.70340027505E+03  0.90696117174E+02 0.  0.
         23    2    1    2    0    0 -0.11506747831E+03  0.24927152139E+02 -0.12765623068E+04  0.12880573495E+04  0.12497409721E+03 0.  0.
          5    1    4    4  502    0 -0.37762251763E+00 -0.35164587286E+02 -0.15354576258E+03  0.15759150359E+03  0.47000000000E+01 0. -1.
         -5    1    4    4    0  502 -0.11468985580E+03  0.60091739425E+02 -0.11230165442E+04  0.11304658459E+04  0.47000000000E+01 0. -1.
        -11    1    3    3    0    0  0.61401429529E+02  0.29506529871E+02 -0.40652554101E+03  0.41219386985E+03  0.00000000000E+00 0.  1.
         11    1    3    3    0    0  0.53666048784E+02 -0.54433682010E+02 -0.28099483963E+03  0.29120640519E+03  0.00000000000E+00 0. -1.
<mgrwt>
<rscale>  0 0.16561277E+03</rscale>
<asrwt>0</asrwt>
<pdfrwt beam="2">  1        1 0.30427222E+00 0.17169861E+03</pdfrwt>
<pdfrwt beam="1">  1       -1 0.21057652E-02 0.17169861E+03</pdfrwt>
<totfact> 0.22199157E+03</totfact>
</mgrwt>
</event>
<event>
 8    1  0.1224355E-005  0.1626831E+03  0.7546771E-02  0.1192050E+00
          1   -1    0    0  501    0  0.00000000000E+00  0.00000000000E+00  0.11497884925E+03  0.11497884925E+03  0.00000000000E+00 0. -1.
         -1   -1    0    0    0  501 -0.00000000000E+00 -0.00000000000E+00 -0.20129131412E+03  0.20129131412E+03  0.00000000000E+00 0.  1.
         23    2    1    2    0    0  0.52391774500E+02  0.89970271173E+02 -0.46268676111E+02  0.14873123540E+03  0.95606706169E+02 0.  0.
         23    2    1    2    0    0 -0.52391774500E+02 -0.89970271173E+02 -0.40043788759E+02  0.16753892797E+03  0.12500495845E+03 0.  0.
          5    1    4    4  502    0 -0.22341087627E+02 -0.41836317091E+02 -0.83342204384E+02  0.96007367716E+02  0.47000000000E+01 0.  1.
         -5    1    4    4    0  502 -0.30050686873E+02 -0.48133954083E+02  0.43298415625E+02  0.71531560257E+02  0.47000000000E+01 0.  1.
        -11    1    3    3    0    0  0.28236139021E+02 -0.12596653310E+02  0.53767109102E+01  0.31382546768E+02  0.00000000000E+00 0. -1.
         11    1    3    3    0    0  0.24155635479E+02  0.10256692448E+03 -0.51645387021E+02  0.11734868863E+03  0.00000000000E+00 0.  1.
<mgrwt>
<rscale>  0 0.15706585E+03</rscale>
<asrwt>0</asrwt>
<pdfrwt beam="1">  1        1 0.17689054E-01 0.16268309E+03</pdfrwt>
<pdfrwt beam="2">  1       -1 0.30967894E-01 0.16268309E+03</pdfrwt>
<totfact> 0.28283568E+03</totfact>
</mgrwt>
</event>
<event>
 8    1  0.1224355E-005  0.1439467E+03  0.7546771E-02  0.1218464E+00
         -2   -1    0    0    0  501 -0.00000000000E+00  0.00000000000E+00  0.60428408098E+02  0.60428408098E+02  0.00000000000E+00 0.  1.
          2   -1    0    0  501    0  0.00000000000E+00 -0.00000000000E+00 -0.30102357448E+03  0.30102357448E+03  0.00000000000E+00 0. -1.
         23    2    1    2    0    0 -0.38628157382E+01 -0.71238846908E+02 -0.59043512019E+02  0.12975895586E+03  0.90891999979E+02 0.  0.
         23    2    1    2    0    0  0.38628157382E+01  0.71238846908E+02 -0.18155165436E+03  0.23169302672E+03  0.12502304097E+03 0.  0.
          5    1    4    4  502    0 -0.37952854943E+02  0.62577651559E+02 -0.39524693118E+02  0.83310701828E+02  0.47000000000E+01 0. -1.
         -5    1    4    4    0  502  0.41815670681E+02  0.86611953492E+01 -0.14202696124E+03  0.14838232489E+03  0.47000000000E+01 0. -1.
        -11    1    3    3    0    0  0.34574105875E+02 -0.92845899183E+01  0.22371777704E+00  0.35799754980E+02  0.00000000000E+00 0.  1.
         11    1    3    3    0    0 -0.38436921613E+02 -0.61954256990E+02 -0.59267229796E+02  0.93959200880E+02  0.00000000000E+00 0. -1.
<mgrwt>
<rscale>  0 0.13625158E+03</rscale>
<asrwt>0</asrwt>
<pdfrwt beam="2">  1        2 0.46311320E-01 0.14394671E+03</pdfrwt>
<pdfrwt beam="1">  1       -2 0.92966781E-02 0.14394671E+03</pdfrwt>
<totfact> 0.77522837E+03</totfact>
</mgrwt>
</event>
<event>
 8    1  0.1224355E-005  0.1514615E+03  0.7546771E-02  0.1208655E+00
         -2   -1    0    0    0  501 -0.00000000000E+00  0.00000000000E+00  0.40185956027E+02  0.40185956027E+02  0.00000000000E+00 0.  1.
          2   -1    0    0  501    0  0.00000000000E+00 -0.00000000000E+00 -0.46870242955E+03  0.46870242955E+03  0.00000000000E+00 0. -1.
         23    2    1    2    0    0 -0.73965323334E+02  0.42926761541E+02 -0.17123572540E+03  0.21033527501E+03  0.87210540354E+02 0.  0.
         23    2    1    2    0    0  0.73965323334E+02 -0.42926761541E+02 -0.25728074812E+03  0.29855311057E+03  0.12500800199E+03 0.  0.
          5    1    4    4  502    0  0.73989976338E+02 -0.18468004608E+02 -0.26225229076E+03  0.27315551945E+03  0.47000000000E+01 0.  1.
         -5    1    4    4    0  502 -0.24653003654E-01 -0.24458756932E+02  0.49715426419E+01  0.25397591120E+02  0.47000000000E+01 0.  1.
        -11    1    3    3    0    0 -0.31306793984E+02 -0.22072170241E+02 -0.28308158197E+02  0.47630325100E+02  0.00000000000E+00 0.  1.
         11    1    3    3    0    0 -0.42658529350E+02  0.64998931781E+02 -0.14292756721E+03  0.16270494991E+03  0.00000000000E+00 0. -1.
<mgrwt>
<rscale>  0 0.14353077E+03</rscale>
<asrwt>0</asrwt>
<pdfrwt beam="2">  1        2 0.72108063E-01 0.15146147E+03</pdfrwt>
<pdfrwt beam="1">  1       -2 0.61824551E-02 0.15146147E+03</pdfrwt>
<totfact> 0.90824559E+03</totfact>
</mgrwt>
</event>
<event>
 8    1  0.1224355E-005  0.2249765E+03  0.7546771E-02  0.1133421E+00
          2   -1    0    0  501    0  0.00000000000E+00  0.00000000000E+00  0.26960342390E+03  0.26960342390E+03  0.00000000000E+00 0. -1.
         -2   -1    0    0    0  501 -0.00000000000E+00 -0.00000000000E+00 -0.22986169420E+03  0.22986169420E+03  0.00000000000E+00 0.  1.
         23    2    1    2    0    0 -0.80547337132E+02 -0.16881741219E+03 -0.10388908111E+03  0.23254892471E+03  0.91098128588E+02 0.  0.
         23    2    1    2    0    0  0.80547337132E+02  0.16881741219E+03  0.14363081080E+03  0.26691619339E+03  0.12500900889E+03 0.  0.
          5    1    4    4  502    0  0.37954229977E+02  0.98913361534E+02  0.53870970819E+01  0.10618609833E+03  0.47000000000E+01 0.  1.
         -5    1    4    4    0  502  0.42593107155E+02  0.69904050655E+02  0.13824371372E+03  0.16073009506E+03  0.47000000000E+01 0.  1.
        -11    1    3    3    0    0 -0.46907314644E+02 -0.66757155820E+02  0.20955318251E+01  0.81616207177E+02  0.00000000000E+00 0. -1.
         11    1    3    3    0    0 -0.33640022488E+02 -0.10206025637E+03 -0.10598461293E+03  0.15093271753E+03  0.00000000000E+00 0.  1.
<mgrwt>
<rscale>  0 0.22062079E+03</rscale>
<asrwt>0</asrwt>
<pdfrwt beam="1">  1        2 0.41477450E-01 0.22497654E+03</pdfrwt>
<pdfrwt beam="2">  1       -2 0.35363338E-01 0.22497654E+03</pdfrwt>
<totfact> 0.92456529E+02</totfact>
</mgrwt>
</event>
<event>
 8    1  0.1224355E-005  0.1327651E+03  0.7546771E-02  0.1234486E+00
         -2   -1    0    0    0  501 -0.00000000000E+00  0.00000000000E+00  0.38832911906E+02  0.38832911906E+02  0.00000000000E+00 0.  1.
          2   -1    0    0  501    0  0.00000000000E+00 -0.00000000000E+00 -0.36605497049E+03  0.36605497049E+03  0.00000000000E+00 0. -1.
         23    2    1    2    0    0 -0.43895687505E+02  0.86140555673E+01 -0.13887406820E+03  0.17445018838E+03  0.95633822846E+02 0.  0.
         23    2    1    2    0    0  0.43895687505E+02 -0.86140555673E+01 -0.18834799038E+03  0.23043769401E+03  0.12500212801E+03 0.  0.
          5    1    4    4  502    0 -0.22876992051E+02 -0.33490414669E+02 -0.13572152255E+03  0.14172997680E+03  0.47000000000E+01 0.  1.
         -5    1    4    4    0  502  0.66772679556E+02  0.24876359102E+02 -0.52626467831E+02  0.88707717216E+02  0.47000000000E+01 0.  1.
        -11    1    3    3    0    0 -0.33611552340E+00  0.39038744975E+02 -0.10350204852E+03  0.11062011856E+03  0.00000000000E+00 0. -1.
         11    1    3    3    0    0 -0.43559571981E+02 -0.30424689408E+02 -0.35372019685E+02  0.63830069821E+02  0.00000000000E+00 0.  1.
<mgrwt>
<rscale>  0 0.12537385E+03</rscale>
<asrwt>0</asrwt>
<pdfrwt beam="2">  1        2 0.56316150E-01 0.13276508E+03</pdfrwt>
<pdfrwt beam="1">  1       -2 0.59742941E-02 0.13276508E+03</pdfrwt>
<totfact> 0.12362850E+04</totfact>
</mgrwt>
</event>
<event>
 8    1  0.1889684E-005  0.1953076E+03  0.7546771E-02  0.1158199E+00
          1   -1    0    0  501    0  0.00000000000E+00  0.00000000000E+00  0.22053052852E+04  0.22053052852E+04  0.00000000000E+00 0. -1.
         -1   -1    0    0    0  501 -0.00000000000E+00 -0.00000000000E+00 -0.16059092919E+02  0.16059092919E+02  0.00000000000E+00 0.  1.
         23    2    1    2    0    0  0.14701102321E+03 -0.30128033559E+02  0.85778425338E+03  0.87565417582E+03  0.91959072087E+02 0.  0.
         23    2    1    2    0    0 -0.14701102321E+03  0.30128033559E+02  0.13314619389E+04  0.13457102023E+04  0.12500045788E+03 0.  0.
          5    1    4    4  502    0 -0.11508943309E+03  0.36672503495E+02  0.53158821575E+03  0.54515921642E+03  0.47000000000E+01 0.  1.
         -5    1    4    4    0  502 -0.31921590119E+02 -0.65444699364E+01  0.79987372315E+03  0.80055098588E+03  0.47000000000E+01 0.  1.
        -11    1    3    3    0    0  0.11229481172E+03 -0.62253893833E+02  0.60331811039E+03  0.61682932352E+03  0.00000000000E+00 0. -1.
         11    1    3    3    0    0  0.34716211484E+02  0.32125860275E+02  0.25446614299E+03  0.25882485230E+03  0.00000000000E+00 0.  1.
<mgrwt>
<rscale>  0 0.19029099E+03</rscale>
<asrwt>0</asrwt>
<pdfrwt beam="1">  1        1 0.33927750E+00 0.19530759E+03</pdfrwt>
<pdfrwt beam="2">  1       -1 0.24706314E-02 0.19530759E+03</pdfrwt>
<totfact> 0.12537030E+03</totfact>
</mgrwt>
</event>
<event>
 8    1  0.1224355E-005  0.1273987E+03  0.7546771E-02  0.1245283E+00
         -3   -1    0    0    0  501 -0.00000000000E+00  0.00000000000E+00  0.18924045021E+03  0.18924045021E+03  0.00000000000E+00 0.  1.
          3   -1    0    0  501    0  0.00000000000E+00 -0.00000000000E+00 -0.66073118115E+02  0.66073118115E+02  0.00000000000E+00 0. -1.
         23    2    1    2    0    0  0.62006528562E+00  0.24595434108E+02  0.59302089232E+02  0.11280318421E+03  0.92749666963E+02 0.  0.
         23    2    1    2    0    0 -0.62006528562E+00 -0.24595434108E+02  0.63865242866E+02  0.14251038411E+03  0.12500048189E+03 0.  0.
          5    1    4    4  502    0  0.22147249114E+02  0.43964996287E+02  0.46898703963E+02  0.68154236664E+02  0.47000000000E+01 0. -1.
         -5    1    4    4    0  502 -0.22767314400E+02 -0.68560430396E+02  0.16966538902E+02  0.74356147448E+02  0.47000000000E+01 0. -1.
        -11    1    3    3    0    0  0.67657489067E+01  0.36550448669E+02  0.79948041337E+02  0.88166887037E+02  0.00000000000E+00 0.  1.
         11    1    3    3    0    0 -0.61456836211E+01 -0.11955014561E+02 -0.20645952105E+02  0.24636297178E+02  0.00000000000E+00 0. -1.
<mgrwt>
<rscale>  0 0.11868435E+03</rscale>
<asrwt>0</asrwt>
<pdfrwt beam="2">  1        3 0.10165095E-01 0.12739875E+03</pdfrwt>
<pdfrwt beam="1">  1       -3 0.29113915E-01 0.12739875E+03</pdfrwt>
<totfact> 0.18489288E+03</totfact>
</mgrwt>
</event>
<event>
 8    1  0.1224355E-005  0.1400842E+03  0.7546771E-02  0.1224327E+00
         -4   -1    0    0    0  501 -0.00000000000E+00  0.00000000000E+00  0.21468631855E+03  0.21468631855E+03  0.00000000000E+00 0.  1.
          4   -1    0    0  501    0  0.00000000000E+00 -0.00000000000E+00 -0.75589856444E+02  0.75589856444E+02  0.00000000000E+00 0. -1.
         23    2    1    2    0    0 -0.98350302010E+01  0.62466292050E+02  0.86552404757E+02  0.14066178358E+03  0.91080476111E+02 0.  0.
         23    2    1    2    0    0  0.98350302010E+01 -0.62466292050E+02  0.52544057351E+02  0.14961439142E+03  0.12499929078E+03 0.  0.
          5    1    4    4  502    0  0.57787716769E+02 -0.29068790267E+02 -0.79866842904E+01  0.65347470517E+02  0.47000000000E+01 0.  1.
         -5    1    4    4    0  502 -0.47952686568E+02 -0.33397501782E+02  0.60530741641E+02  0.84266920901E+02  0.47000000000E+01 0.  1.
        -11    1    3    3    0    0 -0.16537629237E+02  0.50434048710E+02  0.10499254008E+03  0.11764573908E+03  0.00000000000E+00 0.  1.
         11    1    3    3    0    0  0.67025990357E+01  0.12032243339E+02 -0.18440135326E+02  0.23016044500E+02  0.00000000000E+00 0. -1.
<mgrwt>
<rscale>  0 0.13213121E+03</rscale>
<asrwt>0</asrwt>
<pdfrwt beam="2">  1        4 0.11629209E-01 0.14008422E+03</pdfrwt>
<pdfrwt beam="1">  1       -4 0.33028664E-01 0.14008422E+03</pdfrwt>
<totfact> 0.86278656E+02</totfact>
</mgrwt>
</event>
<event>
 8    1  0.1224355E-005  0.1623280E+03  0.7546771E-02  0.1193588E+00
         -2   -1    0    0    0  501 -0.00000000000E+00  0.00000000000E+00  0.12924641597E+03  0.12924641597E+03  0.00000000000E+00 0. -1.
          2   -1    0    0  501    0  0.00000000000E+00 -0.00000000000E+00 -0.19157334900E+03  0.19157334900E+03  0.00000000000E+00 0.  1.
         23    2    1    2    0    0 -0.17134859241E+02 -0.10213524684E+03  0.19684997323E+02  0.13895077769E+03  0.90524071121E+02 0.  0.
         23    2    1    2    0    0  0.17134859241E+02  0.10213524684E+03 -0.82011930354E+02  0.18186898727E+03  0.12500063905E+03 0.  0.
          5    1    4    4  502    0 -0.43798479766E+02  0.19338531907E+02 -0.59519412697E+02  0.76530622198E+02  0.47000000000E+01 0. -1.
         -5    1    4    4    0  502  0.60933339007E+02  0.82796714933E+02 -0.22492517657E+02  0.10533836508E+03  0.47000000000E+01 0. -1.
        -11    1    3    3    0    0  0.64427109950E+00  0.16896288235E+02  0.54216872863E+01  0.17756529346E+02  0.00000000000E+00 0. -1.
         11    1    3    3    0    0 -0.17779130341E+02 -0.11903153508E+03  0.14263310037E+02  0.12119424834E+03  0.00000000000E+00 0.  1.
<mgrwt>
<rscale>  0 0.15574340E+03</rscale>
<asrwt>0</asrwt>
<pdfrwt beam="2">  1        2 0.29472823E-01 0.16232798E+03</pdfrwt>
<pdfrwt beam="1">  1       -2 0.19884064E-01 0.16232798E+03</pdfrwt>
<totfact> 0.36874229E+03</totfact>
</mgrwt>
</event>
<event>
 7    1  0.1224355E-005  0.3990429E+03  0.7546771E-02  0.1096344E+00
          2   -1    0    0  501    0  0.00000000000E+00  0.00000000000E+00  0.10820739596E+04  0.10820739596E+04  0.00000000000E+00 0. -1.
         -2   -1    0    0    0  501 -0.00000000000E+00 -0.00000000000E+00 -0.15410912994E+03  0.15410912994E+03  0.00000000000E+00 0.  1.
         23    2    1    2    0    0  0.82508535383E+01 -0.25399188919E+02 -0.97269488212E+02  0.13602825963E+03  0.91264115066E+02 0.  0.
          5    1    1    2  502    0 -0.12598755455E+03  0.10956211640E+03  0.87763113287E+03  0.89338413722E+03  0.47000000000E+01 0. -1.
         -5    1    1    2    0  502  0.11773670102E+03 -0.84162927478E+02  0.14760318496E+03  0.20677069265E+03  0.47000000000E+01 0.  1.
        -11    1    3    3    0    0  0.40306507069E+02  0.87875023471E+01 -0.20454568735E+02  0.46045891149E+02  0.00000000000E+00 0. -1.
         11    1    3    3    0    0 -0.32055653531E+02 -0.34186691266E+02 -0.76814919477E+02  0.89982368480E+02  0.00000000000E+00 0.  1.
<mgrwt>
<rscale>  0 0.27880449E+03</rscale>
<asrwt>0</asrwt>
<pdfrwt beam="1">  1        2 0.16647291E+00 0.39904291E+03</pdfrwt>
<pdfrwt beam="2">  1       -2 0.23709098E-01 0.39904291E+03</pdfrwt>
<totfact> 0.36338601E+02</totfact>
</mgrwt>
</event>
<event>
 8    1  0.1224355E-005  0.1418860E+03  0.7546771E-02  0.1221499E+00
         -2   -1    0    0    0  501 -0.00000000000E+00  0.00000000000E+00  0.53143458476E+02  0.53143458476E+02  0.00000000000E+00 0.  1.
          2   -1    0    0  501    0  0.00000000000E+00 -0.00000000000E+00 -0.41890015203E+03  0.41890015203E+03  0.00000000000E+00 0. -1.
         23    2    1    2    0    0 -0.61037281391E+02  0.27936325717E+02 -0.45951077792E+02  0.12217612877E+03  0.91156551479E+02 0.  0.
         23    2    1    2    0    0  0.61037281391E+02 -0.27936325717E+02 -0.31980561576E+03  0.34986748173E+03  0.12500253952E+03 0.  0.
          5    1    4    4  502    0  0.32139908236E+02 -0.54513763243E+02 -0.60874956677E+02  0.87935058053E+02  0.47000000000E+01 0. -1.
         -5    1    4    4    0  502  0.28897373154E+02  0.26577437526E+02 -0.25893065908E+03  0.26193242368E+03  0.47000000000E+01 0. -1.
        -11    1    3    3    0    0 -0.78875878786E+02 -0.88208279614E+00 -0.36964140420E+02  0.87112169077E+02  0.00000000000E+00 0. -1.
         11    1    3    3    0    0  0.17838597395E+02  0.28818408513E+02 -0.89869373725E+01  0.35063959696E+02  0.00000000000E+00 0.  1.
<mgrwt>
<rscale>  0 0.13409776E+03</rscale>
<asrwt>0</asrwt>
<pdfrwt beam="2">  1        2 0.64446177E-01 0.14188595E+03</pdfrwt>
<pdfrwt beam="1">  1       -2 0.81759167E-02 0.14188595E+03</pdfrwt>
<totfact> 0.66516058E+03</totfact>
</mgrwt>
</event>
<event>
 8    1  0.1224355E-005  0.1531259E+03  0.7546771E-02  0.1203699E+00
         -3   -1    0    0    0  501 -0.00000000000E+00  0.00000000000E+00  0.37800283002E+02  0.37800283002E+02  0.00000000000E+00 0.  1.
          3   -1    0    0  501    0  0.00000000000E+00 -0.00000000000E+00 -0.92834705893E+03  0.92834705893E+03  0.00000000000E+00 0. -1.
         23    2    1    2    0    0  0.64526665332E+02 -0.62333025046E+02 -0.11212008302E+03  0.17280273154E+03  0.96128947058E+02 0.  0.
         23    2    1    2    0    0 -0.64526665332E+02  0.62333025046E+02 -0.77842669291E+03  0.79334461039E+03  0.12409052360E+03 0.  0.
          5    1    4    4  502    0 -0.46296289814E+02  0.98651979748E+02 -0.63050269834E+03  0.63986819125E+03  0.47000000000E+01 0. -1.
         -5    1    4    4    0  502 -0.18230375518E+02 -0.36318954703E+02 -0.14792399457E+03  0.15347641914E+03  0.47000000000E+01 0.  1.
        -11    1    3    3    0    0  0.75831106727E+02 -0.22665287895E+02 -0.37587053402E+02  0.87617684324E+02  0.00000000000E+00 0.  1.
         11    1    3    3    0    0 -0.11304441395E+02 -0.39667737151E+02 -0.74533029616E+02  0.85185047219E+02  0.00000000000E+00 0. -1.
<mgrwt>
<rscale>  0 0.14740444E+03</rscale>
<asrwt>0</asrwt>
<pdfrwt beam="2">  1        3 0.14282261E+00 0.15312594E+03</pdfrwt>
<pdfrwt beam="1">  1       -3 0.58154288E-02 0.15312594E+03</pdfrwt>
<totfact> 0.16533850E+02</totfact>
</mgrwt>
</event>
<event>
 8    1  0.1224355E-005  0.1954895E+03  0.7546771E-02  0.1158675E+00
          1   -1    0    0  501    0  0.00000000000E+00  0.00000000000E+00  0.49951660339E+02  0.49951660339E+02  0.00000000000E+00 0. -1.
         -1   -1    0    0    0  501 -0.00000000000E+00 -0.00000000000E+00 -0.69064942371E+03  0.69064942371E+03  0.00000000000E+00 0.  1.
         23    2    1    2    0    0  0.10466873818E+03  0.10786613975E+03 -0.34368635721E+03  0.38502844286E+03  0.86809796802E+02 0.  0.
         23    2    1    2    0    0 -0.10466873818E+03 -0.10786613975E+03 -0.29701140616E+03  0.35557264119E+03  0.12500191564E+03 0.  0.
          5    1    4    4  502    0 -0.79395431011E+02 -0.29659920701E+02 -0.24227122276E+03  0.25671147372E+03  0.47000000000E+01 0. -1.
         -5    1    4    4    0  502 -0.25273307173E+02 -0.78206219054E+02 -0.54740183394E+02  0.98861167463E+02  0.47000000000E+01 0. -1.
        -11    1    3    3    0    0  0.26269670046E+02  0.69089848657E+02 -0.23002853423E+03  0.24161256033E+03  0.00000000000E+00 0.  1.
         11    1    3    3    0    0  0.78399068138E+02  0.38776291098E+02 -0.11365782299E+03  0.14341588253E+03  0.00000000000E+00 0. -1.
<mgrwt>
<rscale>  0 0.18976288E+03</rscale>
<asrwt>0</asrwt>
<pdfrwt beam="1">  1        1 0.76848713E-02 0.19548946E+03</pdfrwt>
<pdfrwt beam="2">  1       -1 0.10625375E+00 0.19548946E+03</pdfrwt>
<totfact> 0.80329392E+02</totfact>
</mgrwt>
</event>
<event>
 8    1  0.1224355E-005  0.1300372E+03  0.7546771E-02  0.1240758E+00
         -1   -1    0    0    0  501 -0.00000000000E+00  0.00000000000E+00  0.30730210767E+03  0.30730210767E+03  0.00000000000E+00 0.  1.
          1   -1    0    0  501    0  0.00000000000E+00 -0.00000000000E+00 -0.48970145174E+02  0.48970145174E+02  0.00000000000E+00 0. -1.
         23    2    1    2    0    0 -0.27182458266E+02  0.23369827657E+02  0.17743734400E+03  0.20312653869E+03  0.92148493175E+02 0.  0.
         23    2    1    2    0    0  0.27182458266E+02 -0.23369827657E+02  0.80894618495E+02  0.15314571415E+03  0.12499854230E+03 0.  0.
          5    1    4    4  502    0  0.78281069997E+01 -0.63451405766E+02  0.86901018349E+02  0.10798720824E+03  0.47000000000E+01 0.  1.
         -5    1    4    4    0  502  0.19354351266E+02  0.40081578110E+02 -0.60063998540E+01  0.45158505909E+02  0.47000000000E+01 0.  1.
        -11    1    3    3    0    0 -0.31999866791E+01  0.47627304321E+02  0.42396537024E+02  0.63844078686E+02  0.00000000000E+00 0. -1.
         11    1    3    3    0    0 -0.23982471587E+02 -0.24257476665E+02  0.13504080697E+03  0.13928246001E+03  0.00000000000E+00 0.  1.
<mgrwt>
<rscale>  0 0.12142914E+03</rscale>
<asrwt>0</asrwt>
<pdfrwt beam="2">  1        1 0.75338687E-02 0.13003719E+03</pdfrwt>
<pdfrwt beam="1">  1       -1 0.47277246E-01 0.13003719E+03</pdfrwt>
<totfact> 0.41098029E+03</totfact>
</mgrwt>
</event>
<event>
 8    1  0.1224355E-005  0.1392892E+03  0.7546771E-02  0.1225470E+00
         -2   -1    0    0    0  501 -0.00000000000E+00  0.00000000000E+00  0.11836975562E+02  0.11836975562E+02  0.00000000000E+00 0.  1.
          2   -1    0    0  501    0  0.00000000000E+00 -0.00000000000E+00 -0.14287371166E+04  0.14287371166E+04  0.00000000000E+00 0. -1.
         23    2    1    2    0    0  0.54535595088E+02  0.28356176675E+02 -0.42942673351E+03  0.44332527128E+03  0.91388034277E+02 0.  0.
         23    2    1    2    0    0 -0.54535595088E+02 -0.28356176675E+02 -0.98747340757E+03  0.99724882094E+03  0.12499310502E+03 0.  0.
          5    1    4    4  502    0 -0.41141543230E+02  0.34837831295E+02 -0.20243515982E+03  0.20954327716E+03  0.47000000000E+01 0. -1.
         -5    1    4    4    0  502 -0.13394051858E+02 -0.63194007970E+02 -0.78503824775E+03  0.78770554378E+03  0.47000000000E+01 0. -1.
        -11    1    3    3    0    0  0.55948132063E+02 -0.18112445526E+02 -0.17309432908E+03  0.18281110722E+03  0.00000000000E+00 0.  1.
         11    1    3    3    0    0 -0.14125369753E+01  0.46468622201E+02 -0.25633240444E+03  0.26051416406E+03  0.00000000000E+00 0. -1.
<mgrwt>
<rscale>  0 0.13134712E+03</rscale>
<asrwt>0</asrwt>
<pdfrwt beam="2">  1        2 0.21980581E+00 0.13928920E+03</pdfrwt>
<pdfrwt beam="1">  1       -2 0.18210723E-02 0.13928920E+03</pdfrwt>
<totfact> 0.12849087E+04</totfact>
</mgrwt>
</event>
<event>
 8    1  0.1224355E-005  0.1629434E+03  0.7546771E-02  0.1193872E+00
         -2   -1    0    0    0  501 -0.00000000000E+00  0.00000000000E+00  0.14927044853E+03  0.14927044853E+03  0.00000000000E+00 0.  1.
          2   -1    0    0  501    0  0.00000000000E+00 -0.00000000000E+00 -0.16668572647E+03  0.16668572647E+03  0.00000000000E+00 0. -1.
         23    2    1    2    0    0 -0.92178413827E+02 -0.49304579388E+02  0.43528389216E+02  0.14198870787E+03  0.85663708589E+02 0.  0.
         23    2    1    2    0    0  0.92178413827E+02  0.49304579388E+02 -0.60943667161E+02  0.17396746714E+03  0.12499098980E+03 0.  0.
          5    1    4    4  502    0  0.70747259309E+02  0.88975452252E+02 -0.60001502240E+02  0.12862377725E+03  0.47000000000E+01 0. -1.
         -5    1    4    4    0  502  0.21431154518E+02 -0.39670872863E+02 -0.94216492142E+00  0.45343689886E+02  0.47000000000E+01 0. -1.
        -11    1    3    3    0    0 -0.20717427776E+02 -0.10668717949E+02 -0.26104624032E+02  0.34992638542E+02  0.00000000000E+00 0. -1.
         11    1    3    3    0    0 -0.71460986051E+02 -0.38635861440E+02  0.69633013248E+02  0.10699606932E+03  0.00000000000E+00 0.  1.
<mgrwt>
<rscale>  0 0.15550101E+03</rscale>
<asrwt>0</asrwt>
<pdfrwt beam="2">  1        2 0.25643958E-01 0.16294339E+03</pdfrwt>
<pdfrwt beam="1">  1       -2 0.22964685E-01 0.16294339E+03</pdfrwt>
<totfact> 0.33567371E+03</totfact>
</mgrwt>
</event>
<event>
 8    1  0.1224355E-005  0.1590503E+03  0.7546771E-02  0.1197490E+00
          1   -1    0    0  501    0  0.00000000000E+00  0.00000000000E+00  0.64801921483E+03  0.64801921483E+03  0.00000000000E+00 0. -1.
         -1   -1    0    0    0  501 -0.00000000000E+00 -0.00000000000E+00 -0.53486721002E+02  0.53486721002E+02  0.00000000000E+00 0.  1.
         23    2    1    2    0    0 -0.17412575952E+02  0.96798842882E+02  0.66085108645E+02  0.14964215716E+03  0.91391027077E+02 0.  0.
         23    2    1    2    0    0  0.17412575952E+02 -0.96798842882E+02  0.52844738518E+03  0.55186377867E+03  0.12499510998E+03 0.  0.
          5    1    4    4  502    0 -0.19889259979E+02 -0.10863696580E+03  0.45787463923E+03  0.47102956197E+03  0.47000000000E+01 0.  1.
         -5    1    4    4    0  502  0.37301835931E+02  0.11838122921E+02  0.70572745952E+02  0.80834216699E+02  0.47000000000E+01 0.  1.
        -11    1    3    3    0    0 -0.11556644020E+02  0.62263795534E+02 -0.11640549659E+02  0.64388187206E+02  0.00000000000E+00 0.  1.
         11    1    3    3    0    0 -0.58559319314E+01  0.34535047348E+02  0.77725658304E+02  0.85253969954E+02  0.00000000000E+00 0. -1.
<mgrwt>
<rscale>  0 0.15245330E+03</rscale>
<asrwt>0</asrwt>
<pdfrwt beam="1">  1        1 0.99695258E-01 0.15905028E+03</pdfrwt>
<pdfrwt beam="2">  1       -1 0.82287268E-02 0.15905028E+03</pdfrwt>
<totfact> 0.25612456E+03</totfact>
</mgrwt>
</event>
<event>
 8    1  0.1224355E-005  0.1370095E+03  0.7546771E-02  0.1227503E+00
         -2   -1    0    0    0  501 -0.00000000000E+00  0.00000000000E+00  0.27361165564E+02  0.27361165564E+02  0.00000000000E+00 0.  1.
          2   -1    0    0  501    0  0.00000000000E+00 -0.00000000000E+00 -0.66151221128E+03  0.66151221128E+03  0.00000000000E+00 0. -1.
         23    2    1    2    0    0 -0.13230129393E+02 -0.54510314146E+02 -0.15563935490E+03  0.19113345711E+03  0.95718226909E+02 0.  0.
         23    2    1    2    0    0  0.13230129393E+02  0.54510314146E+02 -0.47851169082E+03  0.49773991973E+03  0.12500071509E+03 0.  0.
          5    1    4    4  502    0 -0.28377863488E+02  0.47958556211E+02 -0.42872420528E+03  0.43235617313E+03  0.47000000000E+01 0.  1.
         -5    1    4    4    0  502  0.41607992881E+02  0.65517579348E+01 -0.49787485544E+02  0.65383746607E+02  0.47000000000E+01 0.  1.
        -11    1    3    3    0    0 -0.46866834176E+02 -0.82496747977E+01 -0.10273433075E+03  0.11322058114E+03  0.00000000000E+00 0. -1.
         11    1    3    3    0    0  0.33636704783E+02 -0.46260639348E+02 -0.52905024147E+02  0.77912875968E+02  0.00000000000E+00 0.  1.
<mgrwt>
<rscale>  0 0.12996848E+03</rscale>
<asrwt>0</asrwt>
<pdfrwt beam="2">  1        2 0.10177109E+00 0.13700945E+03</pdfrwt>
<pdfrwt beam="1">  1       -2 0.42094110E-02 0.13700945E+03</pdfrwt>
<totfact> 0.10924611E+04</totfact>
</mgrwt>
</event>
<event>
 8    1  0.1224355E-005  0.1306811E+03  0.7546771E-02  0.1240289E+00
         -1   -1    0    0    0  501 -0.00000000000E+00  0.00000000000E+00  0.69930378433E+02  0.69930378433E+02  0.00000000000E+00 0.  1.
          1   -1    0    0  501    0  0.00000000000E+00 -0.00000000000E+00 -0.21962352599E+03  0.21962352599E+03  0.00000000000E+00 0. -1.
         23    2    1    2    0    0 -0.36929249215E+02  0.97440647261E+01 -0.10956232189E+02  0.98961463489E+02  0.90634518740E+02 0.  0.
         23    2    1    2    0    0  0.36929249215E+02 -0.97440647261E+01 -0.13873691537E+03  0.19059244093E+03  0.12497532000E+03 0.  0.
          5    1    4    4  502    0  0.29320731965E+02 -0.49307956503E+02 -0.13736607718E+02  0.59175706916E+02  0.47000000000E+01 0.  1.
         -5    1    4    4    0  502  0.76085172500E+01  0.39563891777E+02 -0.12500030765E+03  0.13141673402E+03  0.47000000000E+01 0.  1.
        -11    1    3    3    0    0  0.19547333128E+02 -0.25152620659E+02 -0.13682778009E+01  0.31884553353E+02  0.00000000000E+00 0.  1.
         11    1    3    3    0    0 -0.56476582343E+02  0.34896685385E+02 -0.95879543879E+01  0.67076910136E+02  0.00000000000E+00 0. -1.
<mgrwt>
<rscale>  0 0.12171849E+03</rscale>
<asrwt>0</asrwt>
<pdfrwt beam="2">  1        1 0.33788235E-01 0.13068109E+03</pdfrwt>
<pdfrwt beam="1">  1       -1 0.10758520E-01 0.13068109E+03</pdfrwt>
<totfact> 0.67147066E+03</totfact>
</mgrwt>
</event>
<event>
 8    1  0.1224355E-005  0.2666444E+03  0.7546771E-02  0.1105409E+00
         -2   -1    0    0    0  501 -0.00000000000E+00  0.00000000000E+00  0.44320014745E+02  0.44320014745E+02  0.00000000000E+00 0.  1.
          2   -1    0    0  501    0  0.00000000000E+00 -0.00000000000E+00 -0.17863713420E+04  0.17863713420E+04  0.00000000000E+00 0. -1.
         23    2    1    2    0    0 -0.21651048270E+03  0.92727128690E+02 -0.49506542345E+03  0.55551564099E+03  0.89625578744E+02 0.  0.
         23    2    1    2    0    0  0.21651048270E+03 -0.92727128690E+02 -0.12469859038E+04  0.12751757158E+04  0.12499660905E+03 0.  0.
          5    1    4    4  502    0  0.48448699302E+02  0.16952856279E+02 -0.12233617854E+03  0.13275129521E+03  0.47000000000E+01 0.  1.
         -5    1    4    4    0  502  0.16806178340E+03 -0.10967998497E+03 -0.11246497253E+04  0.11424244206E+04  0.47000000000E+01 0.  1.
        -11    1    3    3    0    0 -0.57727020265E+02  0.56651033999E+01 -0.56229598705E+02  0.80785333048E+02  0.00000000000E+00 0.  1.
         11    1    3    3    0    0 -0.15878346243E+03  0.87062025290E+02 -0.43883582475E+03  0.47473030794E+03  0.00000000000E+00 0. -1.
<mgrwt>
<rscale>  0 0.26290742E+03</rscale>
<asrwt>0</asrwt>
<pdfrwt beam="2">  1        2 0.27482637E+00 0.26664445E+03</pdfrwt>
<pdfrwt beam="1">  1       -2 0.68184635E-02 0.26664445E+03</pdfrwt>
<totfact> 0.11690860E+03</totfact>
</mgrwt>
</event>
<event>
 7    1  0.1224355E-005  0.2416714E+03  0.7546771E-02  0.1154928E+00
         -2   -1    0    0    0  501 -0.00000000000E+00  0.00000000000E+00  0.32694783091E+03  0.32694783091E+03  0.00000000000E+00 0.  1.
          2   -1    0    0  501    0  0.00000000000E+00 -0.00000000000E+00 -0.20264935247E+04  0.20264935247E+04  0.00000000000E+00 0. -1.
         23    2    1    2    0    0  0.34890212139E+02  0.22348634059E+02  0.31184917592E+03  0.32757996051E+03  0.91334186667E+02 0.  0.
          5    1    1    2  502    0  0.23419201246E+02 -0.45254807367E+02 -0.18749514857E+04  0.18756496528E+04  0.47000000000E+01 0. -1.
         -5    1    1    2    0  502 -0.58309413385E+02  0.22906173308E+02 -0.13644338406E+03  0.15021174228E+03  0.47000000000E+01 0.  1.
        -11    1    3    3    0    0  0.61870317278E+02  0.25411917150E+02  0.26611918891E+03  0.27439592635E+03  0.00000000000E+00 0.  1.
         11    1    3    3    0    0 -0.26980105139E+02 -0.30632830901E+01  0.45729987015E+02  0.53184034155E+02  0.00000000000E+00 0. -1.
<mgrwt>
<rscale>  0 0.19397100E+03</rscale>
<asrwt>0</asrwt>
<pdfrwt beam="2">  1        2 0.31176824E+00 0.24167141E+03</pdfrwt>
<pdfrwt beam="1">  1       -2 0.50299666E-01 0.24167141E+03</pdfrwt>
<totfact> 0.28055676E+01</totfact>
</mgrwt>
</event>
<event>
 7    1  0.1224355E-005  0.1365496E+03  0.7546771E-02  0.1238399E+00
         -1   -1    0    0    0  501 -0.00000000000E+00  0.00000000000E+00  0.26367338939E+02  0.26367338939E+02  0.00000000000E+00 0.  1.
          1   -1    0    0  501    0  0.00000000000E+00 -0.00000000000E+00 -0.62289851550E+03  0.62289851550E+03  0.00000000000E+00 0. -1.
         23    2    1    2    0    0 -0.18590038492E+02  0.23429091888E+02 -0.99814680318E+02  0.13412211529E+03  0.84446785171E+02 0.  0.
          5    1    1    2  502    0  0.75711390249E+02 -0.97447516008E+01 -0.24702880356E+03  0.25859716662E+03  0.47000000000E+01 0. -1.
         -5    1    1    2    0  502 -0.57121351757E+02 -0.13684340287E+02 -0.24968769269E+03  0.25654657253E+03  0.47000000000E+01 0.  1.
        -11    1    3    3    0    0  0.11737630356E+02  0.39027670407E+02 -0.16265479791E+02  0.43880483778E+02  0.00000000000E+00 0.  1.
         11    1    3    3    0    0 -0.30327668848E+02 -0.15598578519E+02 -0.83549200527E+02  0.90241631514E+02  0.00000000000E+00 0. -1.
<mgrwt>
<rscale>  0 0.12289343E+03</rscale>
<asrwt>0</asrwt>
<pdfrwt beam="2">  1        1 0.95830542E-01 0.13654960E+03</pdfrwt>
<pdfrwt beam="1">  1       -1 0.40565137E-02 0.13654960E+03</pdfrwt>
<totfact> 0.77174256E+03</totfact>
</mgrwt>
</event>
<event>
 8    1  0.1224355E-005  0.1289846E+03  0.7546771E-02  0.1244535E+00
          2   -1    0    0  501    0  0.00000000000E+00  0.00000000000E+00  0.33811885645E+03  0.33811885645E+03  0.00000000000E+00 0. -1.
         -2   -1    0    0    0  501 -0.00000000000E+00 -0.00000000000E+00 -0.37070194338E+02  0.37070194338E+02  0.00000000000E+00 0.  1.
         23    2    1    2    0    0  0.31655669633E+02  0.32222831766E+01  0.14504500911E+03  0.17276827191E+03  0.88308304159E+02 0.  0.
         23    2    1    2    0    0 -0.31655669633E+02 -0.32222831766E+01  0.15600365301E+03  0.20242077888E+03  0.12499826975E+03 0.  0.
          5    1    4    4  502    0 -0.11454620187E+02 -0.34362717063E+02  0.16062112528E+03  0.16472170632E+03  0.47000000000E+01 0. -1.
         -5    1    4    4    0  502 -0.20201049446E+02  0.31140433886E+02 -0.46174722737E+01  0.37699072555E+02  0.47000000000E+01 0. -1.
        -11    1    3    3    0    0 -0.24795170792E+02  0.11333212578E+02  0.87912937899E+02  0.92043070636E+02  0.00000000000E+00 0. -1.
         11    1    3    3    0    0  0.56450840425E+02 -0.81109294012E+01  0.57132071206E+02  0.80725201274E+02  0.00000000000E+00 0.  1.
<mgrwt>
<rscale>  0 0.11913256E+03</rscale>
<asrwt>0</asrwt>
<pdfrwt beam="1">  1        2 0.52018284E-01 0.12898462E+03</pdfrwt>
<pdfrwt beam="2">  1       -2 0.57031071E-02 0.12898462E+03</pdfrwt>
<totfact> 0.14394193E+04</totfact>
</mgrwt>
</event>
<event>
 8    1  0.1224355E-005  0.1692211E+03  0.7546771E-02  0.1185129E+00
          2   -1    0    0  501    0  0.00000000000E+00  0.00000000000E+00  0.47019879062E+03  0.47019879062E+03  0.00000000000E+00 0. -1.
         -2   -1    0    0    0  501 -0.00000000000E+00 -0.00000000000E+00 -0.54927356534E+02  0.54927356534E+02  0.00000000000E+00 0.  1.
         23    2    1    2    0    0 -0.11130395293E+03  0.25009952381E+02  0.14364514618E+03  0.20510016889E+03  0.91750114985E+02 0.  0.
         23    2    1    2    0    0  0.11130395293E+03 -0.25009952381E+02  0.27162628791E+03  0.32002597827E+03  0.12498687462E+03 0.  0.
          5    1    4    4  502    0  0.88799196872E+01  0.44265766299E+02  0.77543419932E+02  0.89852006179E+02  0.47000000000E+01 0. -1.
         -5    1    4    4    0  502  0.10242403325E+03 -0.69275718680E+02  0.19408286798E+03  0.23017397209E+03  0.47000000000E+01 0. -1.
        -11    1    3    3    0    0 -0.14880706576E+02 -0.12135342875E+02 -0.86494496557E+01  0.21059794735E+02  0.00000000000E+00 0.  1.
         11    1    3    3    0    0 -0.96423246358E+02  0.37145295256E+02  0.15229459583E+03  0.18404037415E+03  0.00000000000E+00 0. -1.
<mgrwt>
<rscale>  0 0.16320150E+03</rscale>
<asrwt>0</asrwt>
<pdfrwt beam="1">  1        2 0.72338273E-01 0.16922112E+03</pdfrwt>
<pdfrwt beam="2">  1       -2 0.84503628E-02 0.16922112E+03</pdfrwt>
<totfact> 0.56288845E+03</totfact>
</mgrwt>
</event>
<event>
 8    1  0.1224355E-005  0.1337077E+03  0.7546771E-02  0.1235496E+00
          2   -1    0    0  501    0  0.00000000000E+00  0.00000000000E+00  0.13334568770E+03  0.13334568770E+03  0.00000000000E+00 0. -1.
         -2   -1    0    0    0  501 -0.00000000000E+00 -0.00000000000E+00 -0.12074502052E+03  0.12074502052E+03  0.00000000000E+00 0.  1.
         23    2    1    2    0    0 -0.16209351648E+02  0.44635585479E+02 -0.42068245561E+02  0.10963848416E+03  0.89419133030E+02 0.  0.
         23    2    1    2    0    0  0.16209351648E+02 -0.44635585479E+02  0.54668912740E+02  0.14445222406E+03  0.12499070543E+03 0.  0.
          5    1    4    4  502    0  0.58199966021E+02 -0.54014553010E+02  0.61618236394E+02  0.10061662406E+03  0.47000000000E+01 0.  1.
         -5    1    4    4    0  502 -0.41990614374E+02  0.93789675310E+01 -0.69493236541E+01  0.43835599992E+02  0.47000000000E+01 0.  1.
        -11    1    3    3    0    0  0.18274715358E+02  0.16751108911E+02 -0.57553237487E+02  0.62665301535E+02  0.00000000000E+00 0.  1.
         11    1    3    3    0    0 -0.34484067006E+02  0.27884476568E+02  0.15484991927E+02  0.46973182623E+02  0.00000000000E+00 0. -1.
<mgrwt>
<rscale>  0 0.12472755E+03</rscale>
<asrwt>0</asrwt>
<pdfrwt beam="1">  1        2 0.20514721E-01 0.13370772E+03</pdfrwt>
<pdfrwt beam="2">  1       -2 0.18576157E-01 0.13370772E+03</pdfrwt>
<totfact> 0.61077355E+03</totfact>
</mgrwt>
</event>
<event>
 8    1  0.1224355E-005  0.1572023E+03  0.7546771E-02  0.1200257E+00
          2   -1    0    0  501    0  0.00000000000E+00  0.00000000000E+00  0.34973387982E+03  0.34973387982E+03  0.00000000000E+00 0. -1.
         -2   -1    0    0    0  501 -0.00000000000E+00 -0.00000000000E+00 -0.59347240876E+02  0.59347240876E+02  0.00000000000E+00 0.  1.
         23    2    1    2    0    0  0.92543409819E+02 -0.22902857055E+02  0.13028750632E+03  0.18470576816E+03  0.89736073720E+02 0.  0.
         23    2    1    2    0    0 -0.92543409819E+02  0.22902857055E+02  0.16009913263E+03  0.22437535254E+03  0.12499497188E+03 0.  0.
          5    1    4    4  502    0  0.72118017905E+01 -0.33666557869E+02  0.71098688777E+02  0.79136342786E+02  0.47000000000E+01 0. -1.
         -5    1    4    4    0  502 -0.99755211609E+02  0.56569414924E+02  0.89000443848E+02  0.14523900975E+03  0.47000000000E+01 0. -1.
        -11    1    3    3    0    0  0.92347867932E+02  0.11965610488E+02  0.76059116328E+02  0.12023432839E+03  0.00000000000E+00 0.  1.
         11    1    3    3    0    0  0.19554188686E+00 -0.34868467543E+02  0.54228389995E+02  0.64471439777E+02  0.00000000000E+00 0. -1.
<mgrwt>
<rscale>  0 0.15017579E+03</rscale>
<asrwt>0</asrwt>
<pdfrwt beam="1">  1        2 0.53805211E-01 0.15720231E+03</pdfrwt>
<pdfrwt beam="2">  1       -2 0.91303449E-02 0.15720231E+03</pdfrwt>
<totfact> 0.68366383E+03</totfact>
</mgrwt>
</event>
<event>
 8    1  0.1224355E-005  0.1386444E+03  0.7546771E-02  0.1226483E+00
         -3   -1    0    0    0  501 -0.00000000000E+00  0.00000000000E+00  0.43571248467E+03  0.43571248467E+03  0.00000000000E+00 0.  1.
          3   -1    0    0  501    0  0.00000000000E+00 -0.00000000000E+00 -0.35305289067E+02  0.35305289067E+02  0.00000000000E+00 0. -1.
         23    2    1    2    0    0  0.50060861191E+02  0.33046706196E+02  0.18157861709E+03  0.21196524366E+03  0.91434652728E+02 0.  0.
         23    2    1    2    0    0 -0.50060861191E+02 -0.33046706196E+02  0.21882857851E+03  0.25905253008E+03  0.12499636776E+03 0.  0.
          5    1    4    4  502    0 -0.38285506519E+02  0.44939922958E+02  0.83993481290E+02  0.10277339921E+03  0.47000000000E+01 0.  1.
         -5    1    4    4    0  502 -0.11775354672E+02 -0.77986629154E+02  0.13483509722E+03  0.15627913088E+03  0.47000000000E+01 0.  1.
        -11    1    3    3    0    0 -0.51567650318E+01 -0.13710878413E+02 -0.18659698694E+01  0.14766931164E+02  0.00000000000E+00 0. -1.
         11    1    3    3    0    0  0.55217626223E+02  0.46757584609E+02  0.18344458696E+03  0.19719831249E+03  0.00000000000E+00 0.  1.
<mgrwt>
<rscale>  0 0.13065805E+03</rscale>
<asrwt>0</asrwt>
<pdfrwt beam="2">  1        3 0.54315832E-02 0.13864439E+03</pdfrwt>
<pdfrwt beam="1">  1       -3 0.67032686E-01 0.13864439E+03</pdfrwt>
<totfact> 0.10085118E+03</totfact>
</mgrwt>
</event>
<event>
 8    1  0.1224355E-005  0.1286111E+03  0.7546771E-02  0.1244133E+00
         -1   -1    0    0    0  501 -0.00000000000E+00  0.00000000000E+00  0.20802615372E+03  0.20802615372E+03  0.00000000000E+00 0.  1.
          1   -1    0    0  501    0  0.00000000000E+00 -0.00000000000E+00 -0.63073194397E+02  0.63073194397E+02  0.00000000000E+00 0. -1.
         23    2    1    2    0    0 -0.29744274591E+02 -0.56576169370E+01  0.90154447985E+02  0.13130055144E+03  0.90527784783E+02 0.  0.
         23    2    1    2    0    0  0.29744274591E+02  0.56576169370E+01  0.54798511343E+02  0.13979879668E+03  0.12499638478E+03 0.  0.
          5    1    4    4  502    0 -0.48043771281E+02 -0.66783915909E+01  0.29385146111E+02  0.56906780661E+02  0.47000000000E+01 0. -1.
         -5    1    4    4    0  502  0.77788045872E+02  0.12336008528E+02  0.25413365231E+02  0.82892016017E+02  0.47000000000E+01 0. -1.
        -11    1    3    3    0    0 -0.46483821757E+02 -0.14674604140E+01  0.10080946942E+03  0.11102003535E+03  0.00000000000E+00 0.  1.
         11    1    3    3    0    0  0.16739547166E+02 -0.41901565229E+01 -0.10655021437E+02  0.20280516089E+02  0.00000000000E+00 0. -1.
<mgrwt>
<rscale>  0 0.11937427E+03</rscale>
<asrwt>0</asrwt>
<pdfrwt beam="2">  1        1 0.97035685E-02 0.12861115E+03</pdfrwt>
<pdfrwt beam="1">  1       -1 0.32004023E-01 0.12861115E+03</pdfrwt>
<totfact> 0.57856911E+03</totfact>
</mgrwt>
</event>
<event>
 8    1  0.1224355E-005  0.1486832E+03  0.7546771E-02  0.1211446E+00
          2   -1    0    0  501    0  0.00000000000E+00  0.00000000000E+00  0.56355948285E+03  0.56355948285E+03  0.00000000000E+00 0. -1.
         -2   -1    0    0    0  501 -0.00000000000E+00 -0.00000000000E+00 -0.33281648599E+02  0.33281648599E+02  0.00000000000E+00 0.  1.
         23    2    1    2    0    0  0.67121098985E+02  0.44471972076E+02  0.19151430458E+03  0.22688517302E+03  0.91192952856E+02 0.  0.
         23    2    1    2    0    0 -0.67121098985E+02 -0.44471972076E+02  0.33876352967E+03  0.36995595843E+03  0.12499473552E+03 0.  0.
          5    1    4    4  502    0 -0.11027244854E+02 -0.78875483736E+02  0.22119205381E+03  0.23514029160E+03  0.47000000000E+01 0.  1.
         -5    1    4    4    0  502 -0.56093854130E+02  0.34403511660E+02  0.11757147586E+03  0.13481566683E+03  0.47000000000E+01 0.  1.
        -11    1    3    3    0    0  0.12242742895E+02  0.49332476142E+02  0.37075978430E+02  0.62914276062E+02  0.00000000000E+00 0.  1.
         11    1    3    3    0    0  0.54878356090E+02 -0.48605040658E+01  0.15443832615E+03  0.16397089696E+03  0.00000000000E+00 0. -1.
<mgrwt>
<rscale>  0 0.14140864E+03</rscale>
<asrwt>0</asrwt>
<pdfrwt beam="1">  1        2 0.86701452E-01 0.14868316E+03</pdfrwt>
<pdfrwt beam="2">  1       -2 0.51202541E-02 0.14868316E+03</pdfrwt>
<totfact> 0.98403164E+03</totfact>
</mgrwt>
</event>
<event>
 8    1  0.1224355E-005  0.1305732E+03  0.7546771E-02  0.1240308E+00
         -2   -1    0    0    0  501 -0.00000000000E+00  0.00000000000E+00  0.76628395373E+01  0.76628395373E+01  0.00000000000E+00 0.  1.
          2   -1    0    0  501    0  0.00000000000E+00 -0.00000000000E+00 -0.23162675566E+04  0.23162675566E+04  0.00000000000E+00 0. -1.
         23    2    1    2    0    0  0.30351419002E+02 -0.22448359790E+02 -0.44626090900E+03  0.45701480958E+03  0.91041747451E+02 0.  0.
         23    2    1    2    0    0 -0.30351419002E+02  0.22448359790E+02 -0.18623438080E+04  0.18669155865E+04  0.12499684163E+03 0.  0.
          5    1    4    4  502    0 -0.73174622764E+02  0.14991348746E+02 -0.15124753437E+04  0.15143259296E+04  0.47000000000E+01 0.  1.
         -5    1    4    4    0  502  0.42823203762E+02  0.74570110434E+01 -0.34986846437E+03  0.35258965690E+03  0.47000000000E+01 0.  1.
        -11    1    3    3    0    0  0.56416505073E+02  0.94775176469E+01 -0.27115191919E+03  0.27712092788E+03  0.00000000000E+00 0. -1.
         11    1    3    3    0    0 -0.26065086071E+02 -0.31925877436E+02 -0.17510898981E+03  0.17989388170E+03  0.00000000000E+00 0.  1.
<mgrwt>
<rscale>  0 0.12170648E+03</rscale>
<asrwt>0</asrwt>
<pdfrwt beam="2">  1        2 0.35634888E+00 0.13057315E+03</pdfrwt>
<pdfrwt beam="1">  1       -2 0.11788983E-02 0.13057315E+03</pdfrwt>
<totfact> 0.83746408E+03</totfact>
</mgrwt>
</event>
<event>
 7    1  0.1224355E-005  0.1442612E+03  0.7546771E-02  0.1225756E+00
          3   -1    0    0  501    0  0.00000000000E+00  0.00000000000E+00  0.22196418716E+03  0.22196418716E+03  0.00000000000E+00 0. -1.
         -3   -1    0    0    0  501 -0.00000000000E+00 -0.00000000000E+00 -0.12206355248E+03  0.12206355248E+03  0.00000000000E+00 0.  1.
         23    2    1    2    0    0  0.26543571255E+02 -0.26426367332E+02 -0.70195592271E+02  0.12099408295E+03  0.91154993658E+02 0.  0.
          5    1    1    2  502    0 -0.63705770154E+02  0.39039752872E+02  0.16744639731E+03  0.18342004642E+03  0.47000000000E+01 0. -1.
         -5    1    1    2    0  502  0.37162198899E+02 -0.12613385540E+02  0.26498296380E+01  0.39613610273E+02  0.47000000000E+01 0.  1.
        -11    1    3    3    0    0  0.35039367697E+02 -0.10789645817E+02 -0.88299419838E+02  0.95608374577E+02  0.00000000000E+00 0.  1.
         11    1    3    3    0    0 -0.84957964414E+01 -0.15636721515E+02  0.18103827568E+02  0.25385708371E+02  0.00000000000E+00 0. -1.
<mgrwt>
<rscale>  0 0.13115248E+03</rscale>
<asrwt>0</asrwt>
<pdfrwt beam="1">  1        3 0.34148337E-01 0.14426117E+03</pdfrwt>
<pdfrwt beam="2">  1       -3 0.18779008E-01 0.14426117E+03</pdfrwt>
<totfact> 0.49396628E+02</totfact>
</mgrwt>
</event>
<event>
 8    1  0.1224355E-005  0.1387539E+03  0.7546771E-02  0.1228758E+00
         -2   -1    0    0    0  501 -0.00000000000E+00  0.00000000000E+00  0.11996349570E+02  0.11996349570E+02  0.00000000000E+00 0.  1.
          2   -1    0    0  501    0  0.00000000000E+00 -0.00000000000E+00 -0.12582945807E+04  0.12582945807E+04  0.00000000000E+00 0. -1.
         23    2    1    2    0    0  0.55365138566E+02 -0.23584398111E+02 -0.43991175118E+03  0.45205393150E+03  0.84905157439E+02 0.  0.
         23    2    1    2    0    0 -0.55365138566E+02  0.23584398111E+02 -0.80638647990E+03  0.81823699872E+03  0.12502443241E+03 0.  0.
          5    1    4    4  502    0 -0.84207601496E+02  0.50612140420E+02 -0.53848443002E+03  0.54739389865E+03  0.47000000000E+01 0. -1.
         -5    1    4    4    0  502  0.28842462929E+02 -0.27027742310E+02 -0.26790204988E+03  0.27084310007E+03  0.47000000000E+01 0. -1.
        -11    1    3    3    0    0  0.75259434404E+02 -0.32827645593E+02 -0.35114413024E+03  0.36061591339E+03  0.00000000000E+00 0.  1.
         11    1    3    3    0    0 -0.19894295838E+02  0.92432474819E+01 -0.88767620935E+02  0.91438018118E+02  0.00000000000E+00 0. -1.
<mgrwt>
<rscale>  0 0.12912620E+03</rscale>
<asrwt>0</asrwt>
<pdfrwt beam="2">  1        2 0.19358362E+00 0.13875385E+03</pdfrwt>
<pdfrwt beam="1">  1       -2 0.18455938E-02 0.13875385E+03</pdfrwt>
<totfact> 0.15543916E+04</totfact>
</mgrwt>
</event>
<event>
 8    1  0.1224355E-005  0.1342081E+03  0.7546771E-02  0.1233682E+00
         -3   -1    0    0    0  501 -0.00000000000E+00  0.00000000000E+00  0.11750517295E+03  0.11750517295E+03  0.00000000000E+00 0.  1.
          3   -1    0    0  501    0  0.00000000000E+00 -0.00000000000E+00 -0.16672931402E+03  0.16672931402E+03  0.00000000000E+00 0. -1.
         23    2    1    2    0    0 -0.41904422309E+02  0.25129898849E+02  0.51942062945E+02  0.11616782401E+03  0.91703287877E+02 0.  0.
         23    2    1    2    0    0  0.41904422309E+02 -0.25129898849E+02 -0.10116620402E+03  0.16806666295E+03  0.12499723971E+03 0.  0.
          5    1    4    4  502    0  0.68467980398E+02 -0.57772729499E+02 -0.54122184527E+02  0.10477047996E+03  0.47000000000E+01 0. -1.
         -5    1    4    4    0  502 -0.26563558089E+02  0.32642830650E+02 -0.47044019490E+02  0.63296182989E+02  0.47000000000E+01 0. -1.
        -11    1    3    3    0    0 -0.21074631057E+02  0.28458562966E+02 -0.20362397349E+02  0.40849199577E+02  0.00000000000E+00 0. -1.
         11    1    3    3    0    0 -0.20829791252E+02 -0.33286641170E+01  0.72304460294E+02  0.75318624435E+02  0.00000000000E+00 0.  1.
<mgrwt>
<rscale>  0 0.12589160E+03</rscale>
<asrwt>0</asrwt>
<pdfrwt beam="2">  1        3 0.25650664E-01 0.13420806E+03</pdfrwt>
<pdfrwt beam="1">  1       -3 0.18077719E-01 0.13420806E+03</pdfrwt>
<totfact> 0.88620903E+02</totfact>
</mgrwt>
</event>
<event>
 8    1  0.1224355E-005  0.2329884E+03  0.7546771E-02  0.1127876E+00
         -2   -1    0    0    0  501 -0.00000000000E+00  0.00000000000E+00  0.50884981858E+02  0.50884981858E+02  0.00000000000E+00 0. -1.
          2   -1    0    0  501    0  0.00000000000E+00 -0.00000000000E+00 -0.10615935739E+04  0.10615935739E+04  0.00000000000E+00 0.  1.
         23    2    1    2    0    0  0.12442090536E+03 -0.15224819632E+03 -0.33617433397E+03  0.39883996532E+03  0.86023602253E+02 0.  0.
         23    2    1    2    0    0 -0.12442090536E+03  0.15224819632E+03 -0.67453425811E+03  0.71363859047E+03  0.12499398975E+03 0.  0.
          5    1    4    4  502    0 -0.10181308244E+03  0.44314987290E+02 -0.22772178088E+03  0.25339499075E+03  0.47000000000E+01 0. -1.
         -5    1    4    4    0  502 -0.22607822924E+02  0.10793320903E+03 -0.44681247724E+03  0.46024359972E+03  0.47000000000E+01 0. -1.
        -11    1    3    3    0    0  0.10352399543E+03 -0.62577460296E+02 -0.21444833697E+03  0.24621382048E+03  0.00000000000E+00 0.  1.
         11    1    3    3    0    0  0.20896909937E+02 -0.89670736023E+02 -0.12172599700E+03  0.15262614484E+03  0.00000000000E+00 0. -1.
<mgrwt>
<rscale>  0 0.22825290E+03</rscale>
<asrwt>0</asrwt>
<pdfrwt beam="2">  1        2 0.16332209E+00 0.23298835E+03</pdfrwt>
<pdfrwt beam="1">  1       -2 0.78284587E-02 0.23298835E+03</pdfrwt>
<totfact> 0.23508720E+03</totfact>
</mgrwt>
</event>
<event>
 8    1  0.1224355E-005  0.2286996E+03  0.7546771E-02  0.1129976E+00
         -1   -1    0    0    0  501 -0.00000000000E+00  0.00000000000E+00  0.88954711464E+02  0.88954711464E+02  0.00000000000E+00 0.  1.
          1   -1    0    0  501    0  0.00000000000E+00 -0.00000000000E+00 -0.75296048221E+03  0.75296048221E+03  0.00000000000E+00 0. -1.
         23    2    1    2    0    0  0.15919031831E+03 -0.11400496027E+03 -0.10868629237E+03  0.24134610118E+03  0.89980786823E+02 0.  0.
         23    2    1    2    0    0 -0.15919031831E+03  0.11400496027E+03 -0.55531947838E+03  0.60056909249E+03  0.11817285381E+03 0.  0.
          5    1    4    4  502    0 -0.90437748758E+02  0.23185646215E+02 -0.38084592438E+03  0.39215082393E+03  0.47000000000E+01 0. -1.
         -5    1    4    4    0  502 -0.68752569553E+02  0.90819314057E+02 -0.17447355400E+03  0.20841826857E+03  0.47000000000E+01 0.  1.
        -11    1    3    3    0    0  0.16103142333E+03 -0.81053661154E+02 -0.10367613476E+03  0.20796527644E+03  0.00000000000E+00 0.  1.
         11    1    3    3    0    0 -0.18411050175E+01 -0.32951299117E+02 -0.50101576012E+01  0.33380824741E+02  0.00000000000E+00 0. -1.
<mgrwt>
<rscale>  0 0.22532274E+03</rscale>
<asrwt>0</asrwt>
<pdfrwt beam="2">  1        1 0.11584008E+00 0.22869961E+03</pdfrwt>
<pdfrwt beam="1">  1       -1 0.13685340E-01 0.22869961E+03</pdfrwt>
<totfact> 0.94332923E+02</totfact>
</mgrwt>
</event>
<event>
 8    1  0.1224355E-005  0.1464971E+03  0.7546771E-02  0.1214651E+00
         -2   -1    0    0    0  501 -0.00000000000E+00  0.00000000000E+00  0.32243563389E+02  0.32243563389E+02  0.00000000000E+00 0.  1.
          2   -1    0    0  501    0  0.00000000000E+00 -0.00000000000E+00 -0.55821139765E+03  0.55821139765E+03  0.00000000000E+00 0. -1.
         23    2    1    2    0    0 -0.46830682081E+02 -0.60355124042E+02 -0.19226843485E+03  0.22601473045E+03  0.90992601651E+02 0.  0.
         23    2    1    2    0    0  0.46830682081E+02  0.60355124042E+02 -0.33369939941E+03  0.36444023059E+03  0.12500215489E+03 0.  0.
          5    1    4    4  502    0  0.10253839972E+02 -0.29225572839E+02 -0.22657807572E+02  0.38661888028E+02  0.47000000000E+01 0. -1.
         -5    1    4    4    0  502  0.36576842109E+02  0.89580696881E+02 -0.31104159184E+03  0.32577834257E+03  0.47000000000E+01 0. -1.
        -11    1    3    3    0    0 -0.36688613732E+02 -0.33615123042E+02 -0.23840582116E+02  0.55176120110E+02  0.00000000000E+00 0.  1.
         11    1    3    3    0    0 -0.10142068349E+02 -0.26740001000E+02 -0.16842785274E+03  0.17083861034E+03  0.00000000000E+00 0. -1.
<mgrwt>
<rscale>  0 0.13902208E+03</rscale>
<asrwt>0</asrwt>
<pdfrwt beam="2">  1        2 0.85878677E-01 0.14649707E+03</pdfrwt>
<pdfrwt beam="1">  1       -2 0.49605482E-02 0.14649707E+03</pdfrwt>
<totfact> 0.10422173E+04</totfact>
</mgrwt>
</event>
<event>
 8    1  0.1224355E-005  0.1317041E+03  0.7546771E-02  0.1245022E+00
          1   -1    0    0  501    0  0.00000000000E+00  0.00000000000E+00  0.41280523020E+03  0.41280523020E+03  0.00000000000E+00 0. -1.
         -1   -1    0    0    0  501 -0.00000000000E+00 -0.00000000000E+00 -0.30201636567E+02  0.30201636567E+02  0.00000000000E+00 0.  1.
         23    2    1    2    0    0 -0.41275321201E+02 -0.39846368889E+01  0.11159897866E+03  0.14169393367E+03  0.76832996366E+02 0.  0.
         23    2    1    2    0    0  0.41275321201E+02  0.39846368889E+01  0.27100461498E+03  0.30131293310E+03  0.12500581123E+03 0.  0.
          5    1    4    4  502    0  0.40962266764E+02  0.57033297309E+02  0.20352281148E+03  0.21534699694E+03  0.47000000000E+01 0.  1.
         -5    1    4    4    0  502  0.31305443699E+00 -0.53048660420E+02  0.67481803505E+02  0.85965936159E+02  0.47000000000E+01 0.  1.
        -11    1    3    3    0    0 -0.28195895528E+02 -0.55388639294E+01  0.12173090822E+03  0.12507638288E+03  0.00000000000E+00 0. -1.
         11    1    3    3    0    0 -0.13079425673E+02  0.15542270405E+01 -0.10131929563E+02  0.16617550791E+02  0.00000000000E+00 0.  1.
<mgrwt>
<rscale>  0 0.11884042E+03</rscale>
<asrwt>0</asrwt>
<pdfrwt beam="1">  1        1 0.63508493E-01 0.13170415E+03</pdfrwt>
<pdfrwt beam="2">  1       -1 0.46464059E-02 0.13170415E+03</pdfrwt>
<totfact> 0.10813369E+04</totfact>
</mgrwt>
</event>
<event>
 8    1  0.1224355E-005  0.2536123E+03  0.7546771E-02  0.1113201E+00
          2   -1    0    0  501    0  0.00000000000E+00  0.00000000000E+00  0.13780757088E+04  0.13780757088E+04  0.00000000000E+00 0. -1.
         -2   -1    0    0    0  501 -0.00000000000E+00 -0.00000000000E+00 -0.73881665210E+02  0.73881665210E+02  0.00000000000E+00 0.  1.
         23    2    1    2    0    0  0.19059022724E+03 -0.11119937033E+03  0.18152030282E+03  0.30099450187E+03  0.94647425406E+02 0.  0.
         23    2    1    2    0    0 -0.19059022724E+03  0.11119937033E+03  0.11226737407E+04  0.11509628721E+04  0.12501707942E+03 0.  0.
          5    1    4    4  502    0 -0.13349723089E+03  0.12028311655E+03  0.98967292051E+03  0.10058648609E+04  0.47000000000E+01 0.  1.
         -5    1    4    4    0  502 -0.57092996359E+02 -0.90837462135E+01  0.13300082022E+03  0.14509801122E+03  0.47000000000E+01 0.  1.
        -11    1    3    3    0    0  0.10010250106E+03 -0.48348482802E+02  0.32788581454E+02  0.11590158576E+03  0.00000000000E+00 0. -1.
         11    1    3    3    0    0  0.90487726185E+02 -0.62850887533E+02  0.14873172137E+03  0.18509291611E+03  0.00000000000E+00 0.  1.
<mgrwt>
<rscale>  0 0.25016460E+03</rscale>
<asrwt>0</asrwt>
<pdfrwt beam="1">  1        2 0.21201163E+00 0.25361231E+03</pdfrwt>
<pdfrwt beam="2">  1       -2 0.11366411E-01 0.25361231E+03</pdfrwt>
<totfact> 0.86106350E+02</totfact>
</mgrwt>
</event>
<event>
 8    1  0.1224355E-005  0.1293393E+03  0.7546771E-02  0.1234437E+00
          1   -1    0    0  501    0  0.00000000000E+00  0.00000000000E+00  0.76103355757E+03  0.76103355757E+03  0.00000000000E+00 0. -1.
         -1   -1    0    0    0  501 -0.00000000000E+00 -0.00000000000E+00 -0.26417901629E+02  0.26417901629E+02  0.00000000000E+00 0.  1.
         23    2    1    2    0    0  0.25903693544E+02 -0.20784769240E+02  0.14939937986E+03  0.18811287048E+03  0.10937673137E+03 0.  0.
         23    2    1    2    0    0 -0.25903693544E+02  0.20784769240E+02  0.58521627608E+03  0.59933858872E+03  0.12500258465E+03 0.  0.
          5    1    4    4  502    0 -0.54717767272E+02  0.24206831742E+02  0.13012544734E+03  0.14329943057E+03  0.47000000000E+01 0.  1.
         -5    1    4    4    0  502  0.28814073729E+02 -0.34220625023E+01  0.45509082874E+03  0.45603915814E+03  0.47000000000E+01 0.  1.
        -11    1    3    3    0    0 -0.24851191392E+02 -0.24537715196E+02  0.53424386200E+01  0.35330197155E+02  0.00000000000E+00 0.  1.
         11    1    3    3    0    0  0.50754884935E+02  0.37529459561E+01  0.14405694124E+03  0.15278267333E+03  0.00000000000E+00 0. -1.
<mgrwt>
<rscale>  0 0.12540558E+03</rscale>
<asrwt>0</asrwt>
<pdfrwt beam="1">  1        1 0.11708207E+00 0.12933930E+03</pdfrwt>
<pdfrwt beam="2">  1       -1 0.40642931E-02 0.12933930E+03</pdfrwt>
<totfact> 0.57719865E+03</totfact>
</mgrwt>
</event>
<event>
 8    1  0.1224355E-005  0.1343901E+03  0.7546771E-02  0.1233464E+00
          2   -1    0    0  501    0  0.00000000000E+00  0.00000000000E+00  0.38535759132E+03  0.38535759132E+03  0.00000000000E+00 0. -1.
         -2   -1    0    0    0  501 -0.00000000000E+00 -0.00000000000E+00 -0.36948665617E+02  0.36948665617E+02  0.00000000000E+00 0.  1.
         23    2    1    2    0    0 -0.44075692476E+02 -0.21266570131E+02  0.16263601302E+03  0.19301982351E+03  0.91712844610E+02 0.  0.
         23    2    1    2    0    0  0.44075692476E+02  0.21266570131E+02  0.18577291268E+03  0.22928643342E+03  0.12516293298E+03 0.  0.
          5    1    4    4  502    0 -0.31311609229E+02 -0.11200982823E+02  0.11815687939E+03  0.12283736010E+03  0.47000000000E+01 0. -1.
         -5    1    4    4    0  502  0.75387301706E+02  0.32467552954E+02  0.67616033296E+02  0.10644907333E+03  0.47000000000E+01 0. -1.
        -11    1    3    3    0    0 -0.46605360547E+02  0.63002044942E+01  0.15812698203E+03  0.16497240573E+03  0.00000000000E+00 0. -1.
         11    1    3    3    0    0  0.25296680707E+01 -0.27566774625E+02  0.45090309933E+01  0.28047417783E+02  0.00000000000E+00 0.  1.
<mgrwt>
<rscale>  0 0.12603305E+03</rscale>
<asrwt>0</asrwt>
<pdfrwt beam="1">  1        2 0.59285780E-01 0.13439008E+03</pdfrwt>
<pdfrwt beam="2">  1       -2 0.56844104E-02 0.13439008E+03</pdfrwt>
<totfact> 0.12631565E+04</totfact>
</mgrwt>
</event>
<event>
 8    1  0.1224355E-005  0.1138497E+03  0.7546771E-02  0.1262743E+00
         -3   -1    0    0    0  501 -0.00000000000E+00  0.00000000000E+00  0.16074145652E+03  0.16074145652E+03  0.00000000000E+00 0.  1.
          3   -1    0    0  501    0  0.00000000000E+00 -0.00000000000E+00 -0.83315194811E+02  0.83315194811E+02  0.00000000000E+00 0. -1.
         23    2    1    2    0    0 -0.21446728308E+02  0.15622024841E+02  0.88214592473E+02  0.12969696618E+03  0.91298843891E+02 0.  0.
         23    2    1    2    0    0  0.21446728308E+02 -0.15622024841E+02 -0.10788330766E+02  0.11435968515E+03  0.11071467695E+03 0.  0.
          5    1    4    4  502    0  0.40471240237E+02 -0.16731112238E+02 -0.52339501626E+02  0.68405883033E+02  0.47000000000E+01 0. -1.
         -5    1    4    4    0  502 -0.19024511929E+02  0.11090873966E+01  0.41551170860E+02  0.45953802115E+02  0.47000000000E+01 0.  1.
        -11    1    3    3    0    0  0.23693385946E+02  0.34184314426E+02  0.20895988642E+02  0.46546602794E+02  0.00000000000E+00 0. -1.
         11    1    3    3    0    0 -0.45140114254E+02 -0.18562289585E+02  0.67318603831E+02  0.83150363386E+02  0.00000000000E+00 0.  1.
<mgrwt>
<rscale>  0 0.10883456E+03</rscale>
<asrwt>0</asrwt>
<pdfrwt beam="2">  1        3 0.12817722E-01 0.11384968E+03</pdfrwt>
<pdfrwt beam="1">  1       -3 0.24729455E-01 0.11384968E+03</pdfrwt>
<totfact> 0.16572323E+03</totfact>
</mgrwt>
</event>
<event>
 8    1  0.1224355E-005  0.1356167E+03  0.7546771E-02  0.1232227E+00
         -1   -1    0    0    0  501 -0.00000000000E+00  0.00000000000E+00  0.30785240736E+02  0.30785240736E+02  0.00000000000E+00 0.  1.
          1   -1    0    0  501    0  0.00000000000E+00 -0.00000000000E+00 -0.68011799361E+03  0.68011799361E+03  0.00000000000E+00 0. -1.
         23    2    1    2    0    0  0.27815375393E+02 -0.44638605289E+02 -0.96566746893E+02  0.14174407976E+03  0.89442424787E+02 0.  0.
         23    2    1    2    0    0 -0.27815375393E+02  0.44638605289E+02 -0.55276600598E+03  0.56915915458E+03  0.12500234273E+03 0.  0.
          5    1    4    4  502    0 -0.79723561170E+01 -0.41513739646E+02 -0.25455284497E+03  0.25808175047E+03  0.47000000000E+01 0. -1.
         -5    1    4    4    0  502 -0.19843019276E+02  0.86152344935E+02 -0.29821316100E+03  0.31107740411E+03  0.47000000000E+01 0. -1.
        -11    1    3    3    0    0 -0.92220343994E+01 -0.52029383586E+02 -0.20239382096E+02  0.56583878114E+02  0.00000000000E+00 0.  1.
         11    1    3    3    0    0  0.37037409792E+02  0.73907782967E+01 -0.76327364797E+02  0.85160201649E+02  0.00000000000E+00 0. -1.
<mgrwt>
<rscale>  0 0.12683610E+03</rscale>
<asrwt>0</asrwt>
<pdfrwt beam="2">  1        1 0.10463353E+00 0.13561669E+03</pdfrwt>
<pdfrwt beam="1">  1       -1 0.47361914E-02 0.13561669E+03</pdfrwt>
<totfact> 0.54322698E+03</totfact>
</mgrwt>
</event>
<event>
 8    1  0.1224355E-005  0.1371515E+03  0.7546771E-02  0.1229030E+00
         -2   -1    0    0    0  501 -0.00000000000E+00  0.00000000000E+00  0.89703234517E+02  0.89703234517E+02  0.00000000000E+00 0. -1.
          2   -1    0    0  501    0  0.00000000000E+00 -0.00000000000E+00 -0.16639592682E+03  0.16639592682E+03  0.00000000000E+00 0.  1.
         23    2    1    2    0    0  0.51069250640E+02 -0.23942524872E+02 -0.35921240989E+02  0.11301581875E+03  0.91109422534E+02 0.  0.
         23    2    1    2    0    0 -0.51069250640E+02  0.23942524872E+02 -0.40771451315E+02  0.14308334259E+03  0.12501687417E+03 0.  0.
          5    1    4    4  502    0  0.10832618632E+02  0.48185291311E+02  0.19423228547E+02  0.53277760204E+02  0.47000000000E+01 0. -1.
         -5    1    4    4    0  502 -0.61901869273E+02 -0.24242766439E+02 -0.60194679862E+02  0.89805582387E+02  0.47000000000E+01 0. -1.
        -11    1    3    3    0    0  0.24498659221E+02 -0.54262311845E+02 -0.41135572838E+02  0.72365172170E+02  0.00000000000E+00 0.  1.
         11    1    3    3    0    0  0.26570591419E+02  0.30319786973E+02  0.52143318493E+01  0.40650646576E+02  0.00000000000E+00 0. -1.
<mgrwt>
<rscale>  0 0.12894477E+03</rscale>
<asrwt>0</asrwt>
<pdfrwt beam="2">  1        2 0.25599373E-01 0.13715149E+03</pdfrwt>
<pdfrwt beam="1">  1       -2 0.13800498E-01 0.13715149E+03</pdfrwt>
<totfact> 0.77990555E+03</totfact>
</mgrwt>
</event>
<event>
 8    1  0.1224355E-005  0.1982895E+03  0.7546771E-02  0.1155695E+00
          2   -1    0    0  501    0  0.00000000000E+00  0.00000000000E+00  0.28211987716E+03  0.28211987716E+03  0.00000000000E+00 0. -1.
         -2   -1    0    0    0  501 -0.00000000000E+00 -0.00000000000E+00 -0.12571644610E+03  0.12571644610E+03  0.00000000000E+00 0.  1.
         23    2    1    2    0    0 -0.87369356947E+02 -0.12672270367E+03  0.76744643441E+02  0.19414433814E+03  0.90056846369E+02 0.  0.
         23    2    1    2    0    0  0.87369356947E+02  0.12672270367E+03  0.79658787617E+02  0.21369198512E+03  0.12500677542E+03 0.  0.
          5    1    4    4  502    0 -0.22871345552E+02 -0.69357666549E+01  0.44627113502E+01  0.24763059162E+02  0.47000000000E+01 0.  1.
         -5    1    4    4    0  502  0.11024070250E+03  0.13365847033E+03  0.75196076267E+02  0.18892892596E+03  0.47000000000E+01 0.  1.
        -11    1    3    3    0    0 -0.40501861078E+02 -0.53022014367E+02 -0.14023606578E+02  0.68179148571E+02  0.00000000000E+00 0.  1.
         11    1    3    3    0    0 -0.46867495868E+02 -0.73700689303E+02  0.90768250020E+02  0.12596518957E+03  0.00000000000E+00 0. -1.
<mgrwt>
<rscale>  0 0.19309994E+03</rscale>
<asrwt>0</asrwt>
<pdfrwt beam="1">  1        2 0.43403058E-01 0.19828954E+03</pdfrwt>
<pdfrwt beam="2">  1       -2 0.19340992E-01 0.19828954E+03</pdfrwt>
<totfact> 0.25667731E+03</totfact>
</mgrwt>
</event>
<event>
 8    1  0.1224355E-005  0.1255709E+03  0.7546771E-02  0.1249294E+00
         -1   -1    0    0    0  501 -0.00000000000E+00  0.00000000000E+00  0.46302102134E+02  0.46302102134E+02  0.00000000000E+00 0.  1.
          1   -1    0    0  501    0  0.00000000000E+00 -0.00000000000E+00 -0.26288876928E+03  0.26288876928E+03  0.00000000000E+00 0. -1.
         23    2    1    2    0    0 -0.11896286375E+02 -0.22044725876E+01 -0.68730496401E+02  0.11520763365E+03  0.91665349973E+02 0.  0.
         23    2    1    2    0    0  0.11896286375E+02  0.22044725876E+01 -0.14785617075E+03  0.19398323777E+03  0.12498667121E+03 0.  0.
          5    1    4    4  502    0 -0.18359482788E+02 -0.36589075149E+02 -0.13742985287E+03  0.14347433739E+03  0.47000000000E+01 0. -1.
         -5    1    4    4    0  502  0.30255769163E+02  0.38793547737E+02 -0.10426317877E+02  0.50508900385E+02  0.47000000000E+01 0. -1.
        -11    1    3    3    0    0 -0.12839198163E+02  0.26048230390E+02  0.10659428592E+02  0.30935072876E+02  0.00000000000E+00 0.  1.
         11    1    3    3    0    0  0.94291178812E+00 -0.28252702978E+02 -0.79389924993E+02  0.84272560770E+02  0.00000000000E+00 0. -1.
<mgrwt>
<rscale>  0 0.11632033E+03</rscale>
<asrwt>0</asrwt>
<pdfrwt beam="2">  1        1 0.40444426E-01 0.12557089E+03</pdfrwt>
<pdfrwt beam="1">  1       -1 0.71234004E-02 0.12557089E+03</pdfrwt>
<totfact> 0.10006663E+04</totfact>
</mgrwt>
</event>
<event>
 8    1  0.1224355E-005  0.1250252E+03  0.7546771E-02  0.1260372E+00
          2   -1    0    0  501    0  0.00000000000E+00  0.00000000000E+00  0.27819796076E+03  0.27819796076E+03  0.00000000000E+00 0. -1.
         -2   -1    0    0    0  501 -0.00000000000E+00 -0.00000000000E+00 -0.39024475676E+02  0.39024475676E+02  0.00000000000E+00 0.  1.
         23    2    1    2    0    0 -0.17324988652E+01 -0.10440833032E+01  0.49453119994E+02  0.90010833127E+02  0.75181429495E+02 0.  0.
         23    2    1    2    0    0  0.17324988652E+01  0.10440833032E+01  0.18972036509E+03  0.22721160331E+03  0.12500881603E+03 0.  0.
          5    1    4    4  502    0  0.18243068676E+02  0.90762202576E+01 -0.12329106830E+02  0.24275176706E+02  0.47000000000E+01 0.  1.
         -5    1    4    4    0  502 -0.16510569811E+02 -0.80321369544E+01  0.20204947192E+03  0.20293642660E+03  0.47000000000E+01 0.  1.
        -11    1    3    3    0    0  0.35817043592E+02 -0.63982336537E+01  0.17302543526E+02  0.40288658678E+02  0.00000000000E+00 0.  1.
         11    1    3    3    0    0 -0.37549542458E+02  0.53541503505E+01  0.32150576468E+02  0.49722174449E+02  0.00000000000E+00 0. -1.
<mgrwt>
<rscale>  0 0.11010703E+03</rscale>
<asrwt>0</asrwt>
<pdfrwt beam="1">  1        2 0.42799685E-01 0.12502518E+03</pdfrwt>
<pdfrwt beam="2">  1       -2 0.60037657E-02 0.12502518E+03</pdfrwt>
<totfact> 0.16325053E+04</totfact>
</mgrwt>
</event>
<event>
 8    1  0.1224355E-005  0.1690664E+03  0.7546771E-02  0.1185294E+00
         -1   -1    0    0    0  501 -0.00000000000E+00  0.00000000000E+00  0.30656164237E+03  0.30656164237E+03  0.00000000000E+00 0.  1.
          1   -1    0    0  501    0  0.00000000000E+00 -0.00000000000E+00 -0.81183668699E+02  0.81183668699E+02  0.00000000000E+00 0. -1.
         23    2    1    2    0    0  0.95482370204E+02 -0.61981969233E+02  0.11126486889E+03  0.18377165327E+03  0.91834100249E+02 0.  0.
         23    2    1    2    0    0 -0.95482370204E+02  0.61981969233E+02  0.11411310478E+03  0.20397365779E+03  0.12499921944E+03 0.  0.
          5    1    4    4  502    0 -0.49519674421E+02 -0.34855771293E+02  0.30621405691E+02  0.68021198415E+02  0.47000000000E+01 0. -1.
         -5    1    4    4    0  502 -0.45962695782E+02  0.96837740527E+02  0.83491699088E+02  0.13595245938E+03  0.47000000000E+01 0. -1.
        -11    1    3    3    0    0  0.38550357074E+02 -0.52745219828E+02  0.84384988183E+01  0.65874095876E+02  0.00000000000E+00 0. -1.
         11    1    3    3    0    0  0.56932013129E+02 -0.92367494055E+01  0.10282637007E+03  0.11789755740E+03  0.00000000000E+00 0.  1.
<mgrwt>
<rscale>  0 0.16305150E+03</rscale>
<asrwt>0</asrwt>
<pdfrwt beam="2">  1        1 0.12489795E-01 0.16906641E+03</pdfrwt>
<pdfrwt beam="1">  1       -1 0.47163329E-01 0.16906641E+03</pdfrwt>
<totfact> 0.21345339E+03</totfact>
</mgrwt>
</event>
<event>
 8    1  0.1224355E-005  0.1455978E+03  0.7546771E-02  0.1216491E+00
         -1   -1    0    0    0  501 -0.00000000000E+00  0.00000000000E+00  0.77605698568E+02  0.77605698568E+02  0.00000000000E+00 0.  1.
          1   -1    0    0  501    0  0.00000000000E+00 -0.00000000000E+00 -0.22169770534E+03  0.22169770534E+03  0.00000000000E+00 0. -1.
         23    2    1    2    0    0 -0.59770344505E+02 -0.44752365598E+02 -0.56543679760E+02  0.12941098394E+03  0.89301437468E+02 0.  0.
         23    2    1    2    0    0  0.59770344505E+02  0.44752365598E+02 -0.87548327017E+02  0.16989241998E+03  0.12499382582E+03 0.  0.
          5    1    4    4  502    0  0.61998782614E+02  0.72153109705E+02 -0.10108647378E+03  0.13889019212E+03  0.47000000000E+01 0.  1.
         -5    1    4    4    0  502 -0.22284381088E+01 -0.27400744107E+02  0.13538146768E+02  0.31002227854E+02  0.47000000000E+01 0.  1.
        -11    1    3    3    0    0 -0.81226450737E+01 -0.51153338958E+02  0.10265001371E+01  0.51804393174E+02  0.00000000000E+00 0.  1.
         11    1    3    3    0    0 -0.51647699431E+02  0.64009733599E+01 -0.57570179897E+02  0.77606590763E+02  0.00000000000E+00 0. -1.
<mgrwt>
<rscale>  0 0.13767612E+03</rscale>
<asrwt>0</asrwt>
<pdfrwt beam="2">  1        1 0.34107339E-01 0.14559782E+03</pdfrwt>
<pdfrwt beam="1">  1       -1 0.11939338E-01 0.14559782E+03</pdfrwt>
<totfact> 0.56939674E+03</totfact>
</mgrwt>
</event>
<event>
 7    1  0.1224355E-005  0.1918279E+03  0.7546771E-02  0.1173370E+00
          2   -1    0    0  501    0  0.00000000000E+00  0.00000000000E+00  0.60097960848E+03  0.60097960848E+03  0.00000000000E+00 0. -1.
         -2   -1    0    0    0  501 -0.00000000000E+00 -0.00000000000E+00 -0.46351651362E+02  0.46351651362E+02  0.00000000000E+00 0.  1.
         23    2    1    2    0    0  0.22349265662E+02 -0.88483625237E+02  0.14729368181E+03  0.19708780235E+03  0.93911296042E+02 0.  0.
          5    1    1    2  502    0 -0.66568471991E+02  0.32881476096E+02  0.35280548647E+03  0.36056393915E+03  0.47000000000E+01 0. -1.
         -5    1    1    2    0  502  0.44219206329E+02  0.55602149141E+02  0.54528788843E+02  0.89679518343E+02  0.47000000000E+01 0.  1.
        -11    1    3    3    0    0  0.36469132831E+02 -0.58303409031E+02  0.29778606101E+02  0.74940313152E+02  0.00000000000E+00 0.  1.
         11    1    3    3    0    0 -0.14119867169E+02 -0.30180216206E+02  0.11751507571E+03  0.12214748920E+03  0.00000000000E+00 0. -1.
<mgrwt>
<rscale>  0 0.17436573E+03</rscale>
<asrwt>0</asrwt>
<pdfrwt beam="1">  1        2 0.92458396E-01 0.19182794E+03</pdfrwt>
<pdfrwt beam="2">  1       -2 0.71310237E-02 0.19182794E+03</pdfrwt>
<totfact> 0.55946606E+03</totfact>
</mgrwt>
</event>
<event>
 8    1  0.1224355E-005  0.1395850E+03  0.7546771E-02  0.1224678E+00
          1   -1    0    0  501    0  0.00000000000E+00  0.00000000000E+00  0.54651162639E+03  0.54651162639E+03  0.00000000000E+00 0. -1.
         -1   -1    0    0    0  501 -0.00000000000E+00 -0.00000000000E+00 -0.29619961079E+02  0.29619961079E+02  0.00000000000E+00 0.  1.
         23    2    1    2    0    0  0.89850648304E+01  0.61469743915E+02  0.18198062985E+03  0.21329640870E+03  0.92299228158E+02 0.  0.
         23    2    1    2    0    0 -0.89850648304E+01 -0.61469743915E+02  0.33491103546E+03  0.36283517877E+03  0.12499881787E+03 0.  0.
          5    1    4    4  502    0 -0.60484237039E+02 -0.48365648870E+02  0.25665026619E+03  0.26812129355E+03  0.47000000000E+01 0.  1.
         -5    1    4    4    0  502  0.51499172209E+02 -0.13104095044E+02  0.78260769274E+02  0.94713885215E+02  0.47000000000E+01 0.  1.
        -11    1    3    3    0    0 -0.12932219065E+02 -0.11997039243E+02  0.21066703443E+01  0.17765396153E+02  0.00000000000E+00 0.  1.
         11    1    3    3    0    0  0.21917283895E+02  0.73466783158E+02  0.17987395951E+03  0.19553101255E+03  0.00000000000E+00 0. -1.
<mgrwt>
<rscale>  0 0.13189007E+03</rscale>
<asrwt>0</asrwt>
<pdfrwt beam="1">  1        1 0.84078704E-01 0.13958498E+03</pdfrwt>
<pdfrwt beam="2">  1       -1 0.45569175E-02 0.13958498E+03</pdfrwt>
<totfact> 0.77714715E+03</totfact>
</mgrwt>
</event>
<event>
 8    1  0.1224355E-005  0.1529278E+03  0.7546771E-02  0.1204372E+00
         -1   -1    0    0    0  501 -0.00000000000E+00  0.00000000000E+00  0.43478662967E+02  0.43478662967E+02  0.00000000000E+00 0.  1.
          1   -1    0    0  501    0  0.00000000000E+00 -0.00000000000E+00 -0.52881701512E+03  0.52881701512E+03  0.00000000000E+00 0. -1.
         23    2    1    2    0    0  0.37457761071E+02  0.79750837452E+02 -0.32810493361E+03  0.35295746354E+03  0.95722743763E+02 0.  0.
         23    2    1    2    0    0 -0.37457761071E+02 -0.79750837452E+02 -0.15723341855E+03  0.21933821455E+03  0.12499449793E+03 0.  0.
          5    1    4    4  502    0 -0.23122669189E+02  0.20062386599E+02  0.17421493450E+01  0.31020674892E+02  0.47000000000E+01 0. -1.
         -5    1    4    4    0  502 -0.14335091882E+02 -0.99813224051E+02 -0.15897556789E+03  0.18831753965E+03  0.47000000000E+01 0. -1.
        -11    1    3    3    0    0 -0.27337351173E+02  0.53588105849E+02 -0.15734197221E+03  0.16845032525E+03  0.00000000000E+00 0. -1.
         11    1    3    3    0    0  0.64795112244E+02  0.26162731603E+02 -0.17076296140E+03  0.18450713829E+03  0.00000000000E+00 0.  1.
<mgrwt>
<rscale>  0 0.14687046E+03</rscale>
<asrwt>0</asrwt>
<pdfrwt beam="2">  1        1 0.81356467E-01 0.15292778E+03</pdfrwt>
<pdfrwt beam="1">  1       -1 0.66890248E-02 0.15292778E+03</pdfrwt>
<totfact> 0.46092131E+03</totfact>
</mgrwt>
</event>
<event>
 8    1  0.1224355E-005  0.1593714E+03  0.7546771E-02  0.1197449E+00
         -2   -1    0    0    0  501 -0.00000000000E+00  0.00000000000E+00  0.53183257327E+02  0.53183257327E+02  0.00000000000E+00 0.  1.
          2   -1    0    0  501    0  0.00000000000E+00 -0.00000000000E+00 -0.48243641032E+03  0.48243641032E+03  0.00000000000E+00 0. -1.
         23    2    1    2    0    0  0.96703440860E+02  0.20571321256E+02 -0.90769494959E+02  0.16149346203E+03  0.89812595622E+02 0.  0.
         23    2    1    2    0    0 -0.96703440860E+02 -0.20571321256E+02 -0.33848365803E+03  0.37412620561E+03  0.12499798493E+03 0.  0.
          5    1    4    4  502    0 -0.83401138181E+02  0.26314074013E+02 -0.29797507374E+03  0.31057916046E+03  0.47000000000E+01 0. -1.
         -5    1    4    4    0  502 -0.13302302679E+02 -0.46885395269E+02 -0.40508584289E+02  0.63547045149E+02  0.47000000000E+01 0. -1.
        -11    1    3    3    0    0 -0.15792764420E+02  0.13509979951E+02 -0.12270036927E+02  0.24134721305E+02  0.00000000000E+00 0. -1.
         11    1    3    3    0    0  0.11249620528E+03  0.70613413053E+01 -0.78499458032E+02  0.13735874073E+03  0.00000000000E+00 0.  1.
<mgrwt>
<rscale>  0 0.15248784E+03</rscale>
<asrwt>0</asrwt>
<pdfrwt beam="2">  1        2 0.74220983E-01 0.15937136E+03</pdfrwt>
<pdfrwt beam="1">  1       -2 0.81820399E-02 0.15937136E+03</pdfrwt>
<totfact> 0.57367187E+03</totfact>
</mgrwt>
</event>
<event>
 7    1  0.1224355E-005  0.1121990E+03  0.7546771E-02  0.1307726E+00
          2   -1    0    0  501    0  0.00000000000E+00  0.00000000000E+00  0.42595243053E+03  0.42595243053E+03  0.00000000000E+00 0. -1.
         -2   -1    0    0    0  501 -0.00000000000E+00 -0.00000000000E+00 -0.17563792381E+02  0.17563792381E+02  0.00000000000E+00 0.  1.
         23    2    1    2    0    0  0.21595541960E+01 -0.50712584836E+01  0.36862139754E+03  0.38531849971E+03  0.11206350949E+03 0.  0.
          5    1    3    3  502    0  0.47305694017E+02 -0.21568934802E+02  0.27567061610E+03  0.28056982414E+03  0.47000000000E+01 0. -1.
         -5    1    3    3    0  502 -0.45146139821E+02  0.16497676318E+02  0.92950781437E+02  0.10474867557E+03  0.47000000000E+01 0.  1.
        -11    1    1    2    0    0 -0.20570175990E+02  0.33391072188E+01  0.99050135216E+01  0.23073601152E+02  0.00000000000E+00 0.  1.
         11    1    1    2    0    0  0.18410621794E+02  0.17321512648E+01  0.29862227089E+02  0.35124122047E+02  0.00000000000E+00 0. -1.
<mgrwt>
<rscale>  0 0.88017215E+02</rscale>
<asrwt>0</asrwt>
<pdfrwt beam="1">  1        2 0.65531135E-01 0.11219898E+03</pdfrwt>
<pdfrwt beam="2">  1       -2 0.27021222E-02 0.11219898E+03</pdfrwt>
<totfact> 0.33608992E+04</totfact>
</mgrwt>
</event>
<event>
 8    1  0.1224355E-005  0.1264712E+03  0.7546771E-02  0.1239400E+00
          1   -1    0    0  501    0  0.00000000000E+00  0.00000000000E+00  0.10309199376E+03  0.10309199376E+03  0.00000000000E+00 0. -1.
         -1   -1    0    0    0  501 -0.00000000000E+00 -0.00000000000E+00 -0.13615792157E+03  0.13615792157E+03  0.00000000000E+00 0.  1.
         23    2    1    2    0    0  0.41206535013E+02  0.14409609329E+02 -0.15530373769E+02  0.11156879099E+03  0.10149279406E+03 0.  0.
         23    2    1    2    0    0 -0.41206535013E+02 -0.14409609329E+02 -0.17535554036E+02  0.12768112434E+03  0.11869860356E+03 0.  0.
          5    1    4    4  502    0 -0.62167308411E+02  0.32722917659E+02  0.62431783557E+01  0.70686850625E+02  0.47000000000E+01 0. -1.
         -5    1    4    4    0  502  0.20960773398E+02 -0.47132526989E+02 -0.23778732391E+02  0.56994273712E+02  0.47000000000E+01 0.  1.
        -11    1    3    3    0    0  0.34043309035E+02 -0.40450932544E+02  0.36914041725E+01  0.52998597137E+02  0.00000000000E+00 0.  1.
         11    1    3    3    0    0  0.71632259784E+01  0.54860541874E+02 -0.19221777941E+02  0.58570193856E+02  0.00000000000E+00 0. -1.
<mgrwt>
<rscale>  0 0.12226926E+03</rscale>
<asrwt>0</asrwt>
<pdfrwt beam="1">  1        1 0.15860307E-01 0.12647124E+03</pdfrwt>
<pdfrwt beam="2">  1       -1 0.20947373E-01 0.12647124E+03</pdfrwt>
<totfact> 0.61142582E+03</totfact>
</mgrwt>
</event>
<event>
 8    1  0.1224355E-005  0.2019161E+03  0.7546771E-02  0.1152639E+00
         -2   -1    0    0    0  501 -0.00000000000E+00  0.00000000000E+00  0.21053373034E+02  0.21053373034E+02  0.00000000000E+00 0.  1.
          2   -1    0    0  501    0  0.00000000000E+00 -0.00000000000E+00 -0.21059943516E+04  0.21059943516E+04  0.00000000000E+00 0. -1.
         23    2    1    2    0    0  0.15604285426E+02  0.15780319495E+03 -0.55690299292E+03  0.58572680474E+03  0.88258734497E+02 0.  0.
         23    2    1    2    0    0 -0.15604285426E+02 -0.15780319495E+03 -0.15280379856E+04  0.15413209199E+04  0.12499900179E+03 0.  0.
          5    1    4    4  502    0  0.50796706504E+01 -0.82823120571E+02 -0.31490966037E+03  0.32569257982E+03  0.47000000000E+01 0. -1.
         -5    1    4    4    0  502 -0.20683956077E+02 -0.74980074375E+02 -0.12131283253E+04  0.12156283401E+04  0.47000000000E+01 0. -1.
        -11    1    3    3    0    0  0.39951778591E+02  0.10246809063E+03 -0.25303129019E+03  0.27589977895E+03  0.00000000000E+00 0.  1.
         11    1    3    3    0    0 -0.24347493165E+02  0.55335104320E+02 -0.30387170273E+03  0.30982702579E+03  0.00000000000E+00 0. -1.
<mgrwt>
<rscale>  0 0.19660079E+03</rscale>
<asrwt>0</asrwt>
<pdfrwt beam="2">  1        2 0.32399913E+00 0.20191605E+03</pdfrwt>
<pdfrwt beam="1">  1       -2 0.32389805E-02 0.20191605E+03</pdfrwt>
<totfact> 0.24742351E+03</totfact>
</mgrwt>
</event>
<event>
 8    1  0.1224355E-005  0.1404912E+03  0.7546771E-02  0.1222702E+00
          2   -1    0    0  501    0  0.00000000000E+00  0.00000000000E+00  0.30026211223E+02  0.30026211223E+02  0.00000000000E+00 0. -1.
         -2   -1    0    0    0  501 -0.00000000000E+00 -0.00000000000E+00 -0.53836639552E+03  0.53836639552E+03  0.00000000000E+00 0.  1.
         23    2    1    2    0    0  0.20187660199E+02  0.60865344467E+02 -0.23451993697E+03  0.26063406811E+03  0.93906255606E+02 0.  0.
         23    2    1    2    0    0 -0.20187660199E+02 -0.60865344467E+02 -0.27382024732E+03  0.30775853863E+03  0.12500263387E+03 0.  0.
          5    1    4    4  502    0  0.14941575110E+01 -0.97493898159E+02 -0.18653622538E+03  0.21053537960E+03  0.47000000000E+01 0. -1.
         -5    1    4    4    0  502 -0.21681817710E+02  0.36628553691E+02 -0.87284021945E+02  0.97223159029E+02  0.47000000000E+01 0. -1.
        -11    1    3    3    0    0 -0.26773889712E+02 -0.42197910972E+01 -0.10346477934E+03  0.10695610488E+03  0.00000000000E+00 0.  1.
         11    1    3    3    0    0  0.46961549910E+02  0.65085135564E+02 -0.13105515763E+03  0.15367796323E+03  0.00000000000E+00 0. -1.
<mgrwt>
<rscale>  0 0.13325666E+03</rscale>
<asrwt>0</asrwt>
<pdfrwt beam="1">  1        2 0.46194174E-02 0.14049125E+03</pdfrwt>
<pdfrwt beam="2">  1       -2 0.82825595E-01 0.14049125E+03</pdfrwt>
<totfact> 0.22148029E+03</totfact>
</mgrwt>
</event>
<event>
 8    1  0.1224355E-005  0.1286296E+03  0.7546771E-02  0.1246965E+00
         -2   -1    0    0    0  501 -0.00000000000E+00  0.00000000000E+00  0.10404964744E+03  0.10404964744E+03  0.00000000000E+00 0. -1.
          2   -1    0    0  501    0  0.00000000000E+00 -0.00000000000E+00 -0.11557651581E+03  0.11557651581E+03  0.00000000000E+00 0.  1.
         23    2    1    2    0    0  0.24714206966E+02 -0.17613044463E+02 -0.12500841332E+02  0.90992888176E+02  0.84867091994E+02 0.  0.
         23    2    1    2    0    0 -0.24714206966E+02  0.17613044463E+02  0.97397296127E+00  0.12863327507E+03  0.12499823787E+03 0.  0.
          5    1    4    4  502    0 -0.12731221300E+02  0.71486173694E+02 -0.49314034312E+01  0.72929868813E+02  0.47000000000E+01 0.  1.
         -5    1    4    4    0  502 -0.11982985666E+02 -0.53873129231E+02  0.59053763924E+01  0.55703406260E+02  0.47000000000E+01 0.  1.
        -11    1    3    3    0    0 -0.16561011608E+02  0.10945215634E+02  0.22346310000E+02  0.29890172655E+02  0.00000000000E+00 0. -1.
         11    1    3    3    0    0  0.41275218574E+02 -0.28558260097E+02 -0.34847151332E+02  0.61102715521E+02  0.00000000000E+00 0.  1.
<mgrwt>
<rscale>  0 0.11768554E+03</rscale>
<asrwt>0</asrwt>
<pdfrwt beam="2">  1        2 0.17781002E-01 0.12862959E+03</pdfrwt>
<pdfrwt beam="1">  1       -2 0.16007638E-01 0.12862959E+03</pdfrwt>
<totfact> 0.91698967E+03</totfact>
</mgrwt>
</event>
<event>
 7    1  0.1224355E-005  0.1910915E+03  0.7546771E-02  0.1167379E+00
          2   -1    0    0  501    0  0.00000000000E+00  0.00000000000E+00  0.25425474312E+03  0.25425474312E+03  0.00000000000E+00 0. -1.
         -2   -1    0    0    0  501 -0.00000000000E+00 -0.00000000000E+00 -0.18261121411E+03  0.18261121411E+03  0.00000000000E+00 0.  1.
         23    2    1    2    0    0 -0.92998010938E+02  0.82853967982E+02 -0.98460134059E+02  0.18103163376E+03  0.86974964062E+02 0.  0.
          5    1    1    2  502    0  0.11822186850E+03 -0.16039733526E+02  0.10189200742E+03  0.15696418196E+03  0.47000000000E+01 0. -1.
         -5    1    1    2    0  502 -0.25223857565E+02 -0.66814234456E+02  0.68211655651E+02  0.98870141514E+02  0.47000000000E+01 0.  1.
        -11    1    3    3    0    0 -0.72220714478E+02  0.96187704698E+02 -0.57766702293E+02  0.13343499552E+03  0.00000000000E+00 0.  1.
         11    1    3    3    0    0 -0.20777296461E+02 -0.13333736716E+02 -0.40693431766E+02  0.47596638242E+02  0.00000000000E+00 0. -1.
<mgrwt>
<rscale>  0 0.18043918E+03</rscale>
<asrwt>0</asrwt>
<pdfrwt beam="1">  1        2 0.39116114E-01 0.19109146E+03</pdfrwt>
<pdfrwt beam="2">  1       -2 0.28094033E-01 0.19109146E+03</pdfrwt>
<totfact> 0.14954898E+03</totfact>
</mgrwt>
</event>
<event>
 8    1  0.1224355E-005  0.1235161E+03  0.7546771E-02  0.1251432E+00
         -2   -1    0    0    0  501 -0.00000000000E+00  0.00000000000E+00  0.40806411873E+02  0.40806411873E+02  0.00000000000E+00 0.  1.
          2   -1    0    0  501    0  0.00000000000E+00 -0.00000000000E+00 -0.31146795373E+03  0.31146795373E+03  0.00000000000E+00 0. -1.
         23    2    1    2    0    0 -0.63065964993E+01  0.18658079895E+02 -0.69324406594E+02  0.11606923461E+03  0.90985145873E+02 0.  0.
         23    2    1    2    0    0  0.63065964993E+01 -0.18658079895E+02 -0.20133713526E+03  0.23620513099E+03  0.12193574031E+03 0.  0.
          5    1    4    4  502    0  0.11759595559E+02 -0.43396308167E+02 -0.20522858135E+03  0.21014849096E+03  0.47000000000E+01 0. -1.
         -5    1    4    4    0  502 -0.54529990596E+01  0.24738228272E+02  0.38914460897E+01  0.26056640026E+02  0.47000000000E+01 0.  1.
        -11    1    3    3    0    0 -0.41220947610E+02  0.34793684098E+02 -0.33440970904E+02  0.63467042707E+02  0.00000000000E+00 0.  1.
         11    1    3    3    0    0  0.34914351110E+02 -0.16135604204E+02 -0.35883435690E+02  0.52602191907E+02  0.00000000000E+00 0. -1.
<mgrwt>
<rscale>  0 0.11508565E+03</rscale>
<asrwt>0</asrwt>
<pdfrwt beam="2">  1        2 0.47918147E-01 0.12351608E+03</pdfrwt>
<pdfrwt beam="1">  1       -2 0.62779094E-02 0.12351608E+03</pdfrwt>
<totfact> 0.13526641E+04</totfact>
</mgrwt>
</event>
<event>
 8    1  0.1224355E-005  0.1302301E+03  0.7546771E-02  0.1239158E+00
          4   -1    0    0  501    0  0.00000000000E+00  0.00000000000E+00  0.61008155796E+03  0.61008155796E+03  0.00000000000E+00 0. -1.
         -4   -1    0    0    0  501 -0.00000000000E+00 -0.00000000000E+00 -0.27937453310E+02  0.27937453310E+02  0.00000000000E+00 0.  1.
         23    2    1    2    0    0  0.25695905228E+02  0.25985022711E+02  0.11712743994E+03  0.15511075706E+03  0.94894724918E+02 0.  0.
         23    2    1    2    0    0 -0.25695905228E+02 -0.25985022711E+02  0.46501666471E+03  0.48290825422E+03  0.12499753029E+03 0.  0.
          5    1    4    4  502    0  0.41227213257E+02 -0.38869347808E+02  0.14645233145E+03  0.15710151081E+03  0.47000000000E+01 0.  1.
         -5    1    4    4    0  502 -0.66923118485E+02  0.12884325097E+02  0.31856433326E+03  0.32580674340E+03  0.47000000000E+01 0.  1.
        -11    1    3    3    0    0  0.84743588658E+01 -0.15395048788E+02 -0.10065485955E+02  0.20251821965E+02  0.00000000000E+00 0.  1.
         11    1    3    3    0    0  0.17221546362E+02  0.41380071499E+02  0.12719292590E+03  0.13485893509E+03  0.00000000000E+00 0. -1.
<mgrwt>
<rscale>  0 0.12241970E+03</rscale>
<asrwt>0</asrwt>
<pdfrwt beam="1">  1        4 0.93858691E-01 0.13023012E+03</pdfrwt>
<pdfrwt beam="2">  1       -4 0.42980702E-02 0.13023012E+03</pdfrwt>
<totfact> 0.49753152E+02</totfact>
</mgrwt>
</event>
<event>
 8    1  0.1224355E-005  0.1359381E+03  0.7546771E-02  0.1228864E+00
          1   -1    0    0  501    0  0.00000000000E+00  0.00000000000E+00  0.15059815933E+03  0.15059815933E+03  0.00000000000E+00 0. -1.
         -1   -1    0    0    0  501 -0.00000000000E+00 -0.00000000000E+00 -0.10301260031E+03  0.10301260031E+03  0.00000000000E+00 0.  1.
         23    2    1    2    0    0  0.50923680821E+02 -0.16081969933E+02  0.27298989726E+01  0.11046329954E+03  0.96658352825E+02 0.  0.
         23    2    1    2    0    0 -0.50923680821E+02  0.16081969933E+02  0.44855660049E+02  0.14314746010E+03  0.12500925594E+03 0.  0.
          5    1    4    4  502    0 -0.46673932263E+02  0.68359792539E+02  0.22256552952E+02  0.85842654538E+02  0.47000000000E+01 0. -1.
         -5    1    4    4    0  502 -0.42497485578E+01 -0.52277822605E+02  0.22599107097E+02  0.57304805564E+02  0.47000000000E+01 0. -1.
        -11    1    3    3    0    0  0.75702697047E+02 -0.29276384083E+02  0.91048266660E+01  0.81675595338E+02  0.00000000000E+00 0. -1.
         11    1    3    3    0    0 -0.24779016227E+02  0.13194414149E+02 -0.63749276934E+01  0.28787704198E+02  0.00000000000E+00 0.  1.
<mgrwt>
<rscale>  0 0.12905571E+03</rscale>
<asrwt>0</asrwt>
<pdfrwt beam="1">  1        1 0.23168948E-01 0.13593809E+03</pdfrwt>
<pdfrwt beam="2">  1       -1 0.15848092E-01 0.13593809E+03</pdfrwt>
<totfact> 0.59108433E+03</totfact>
</mgrwt>
</event>
<event>
 8    1  0.1224355E-005  0.2182885E+03  0.7546771E-02  0.1138528E+00
         -1   -1    0    0    0  501 -0.00000000000E+00  0.00000000000E+00  0.99119131883E+02  0.99119131883E+02  0.00000000000E+00 0.  1.
          1   -1    0    0  501    0  0.00000000000E+00 -0.00000000000E+00 -0.52791483587E+03  0.52791483587E+03  0.00000000000E+00 0. -1.
         23    2    1    2    0    0 -0.86894745012E+02  0.15644657202E+03 -0.82004944312E+02  0.21726124864E+03  0.91931565105E+02 0.  0.
         23    2    1    2    0    0  0.86894745012E+02 -0.15644657202E+03 -0.34679075968E+03  0.40977271911E+03  0.12499449477E+03 0.  0.
          5    1    4    4  502    0 -0.49368451667E+01 -0.77937130866E+02 -0.60181284616E+02  0.98703828831E+02  0.47000000000E+01 0.  1.
         -5    1    4    4    0  502  0.91831590179E+02 -0.78509441157E+02 -0.28660947506E+03  0.31106889028E+03  0.47000000000E+01 0.  1.
        -11    1    3    3    0    0 -0.51235364314E+02  0.15505179577E+03 -0.54321041454E+02  0.17209560562E+03  0.00000000000E+00 0. -1.
         11    1    3    3    0    0 -0.35659380698E+02  0.13947762510E+01 -0.27683902859E+02  0.45165643027E+02  0.00000000000E+00 0.  1.
<mgrwt>
<rscale>  0 0.21388236E+03</rscale>
<asrwt>0</asrwt>
<pdfrwt beam="2">  1        1 0.81217667E-01 0.21828846E+03</pdfrwt>
<pdfrwt beam="1">  1       -1 0.15249097E-01 0.21828846E+03</pdfrwt>
<totfact> 0.13113963E+03</totfact>
</mgrwt>
</event>
<event>
 8    1  0.1224355E-005  0.1331364E+03  0.7546771E-02  0.1230955E+00
         -4   -1    0    0    0  501 -0.00000000000E+00  0.00000000000E+00  0.88717047682E+02  0.88717047682E+02  0.00000000000E+00 0.  1.
          4   -1    0    0  501    0  0.00000000000E+00 -0.00000000000E+00 -0.18671590494E+03  0.18671590494E+03  0.00000000000E+00 0. -1.
         23    2    1    2    0    0  0.35947765115E+02 -0.28435552038E+02 -0.43601425375E+01  0.11266465722E+03  0.10282748518E+03 0.  0.
         23    2    1    2    0    0 -0.35947765115E+02  0.28435552038E+02 -0.93638714716E+02  0.16276829539E+03  0.12499794660E+03 0.  0.
          5    1    4    4  502    0 -0.62522706692E+02  0.39509251685E+02 -0.10742168351E+03  0.13050508767E+03  0.47000000000E+01 0.  1.
         -5    1    4    4    0  502  0.26574941576E+02 -0.11073699647E+02  0.13782968793E+02  0.32263207720E+02  0.47000000000E+01 0.  1.
        -11    1    3    3    0    0  0.37768554092E+02  0.21339441806E+02  0.29479227060E+02  0.52448644242E+02  0.00000000000E+00 0.  1.
         11    1    3    3    0    0 -0.18207889764E+01 -0.49774993844E+02 -0.33839369597E+02  0.60216012981E+02  0.00000000000E+00 0. -1.
<mgrwt>
<rscale>  0 0.12766982E+03</rscale>
<asrwt>0</asrwt>
<pdfrwt beam="2">  1        4 0.28725523E-01 0.13313643E+03</pdfrwt>
<pdfrwt beam="1">  1       -4 0.13648777E-01 0.13313643E+03</pdfrwt>
<totfact> 0.84517678E+02</totfact>
</mgrwt>
</event>
<event>
 8    1  0.1224355E-005  0.1314323E+03  0.7546771E-02  0.1239878E+00
          2   -1    0    0  501    0  0.00000000000E+00  0.00000000000E+00  0.24874350349E+03  0.24874350349E+03  0.00000000000E+00 0. -1.
         -2   -1    0    0    0  501 -0.00000000000E+00 -0.00000000000E+00 -0.52715366900E+02  0.52715366900E+02  0.00000000000E+00 0.  1.
         23    2    1    2    0    0 -0.16274048541E+02  0.37207939206E+02  0.87955984191E+02  0.13130004175E+03  0.88623757614E+02 0.  0.
         23    2    1    2    0    0  0.16274048541E+02 -0.37207939206E+02  0.10807215240E+03  0.17015882864E+03  0.12500064577E+03 0.  0.
          5    1    4    4  502    0  0.28304836161E+02  0.36553780181E+02  0.11348894888E+02  0.47835447221E+02  0.47000000000E+01 0. -1.
         -5    1    4    4    0  502 -0.12030787620E+02 -0.73761719387E+02  0.96723257515E+02  0.12232338142E+03  0.47000000000E+01 0. -1.
        -11    1    3    3    0    0  0.19893526431E+02  0.66649016594E+01 -0.94421149160E+01  0.23007104165E+02  0.00000000000E+00 0.  1.
         11    1    3    3    0    0 -0.36167574972E+02  0.30543037547E+02  0.97398099107E+02  0.10829293759E+03  0.00000000000E+00 0. -1.
<mgrwt>
<rscale>  0 0.12197241E+03</rscale>
<asrwt>0</asrwt>
<pdfrwt beam="1">  1        2 0.38268231E-01 0.13143225E+03</pdfrwt>
<pdfrwt beam="2">  1       -2 0.81100566E-02 0.13143225E+03</pdfrwt>
<totfact> 0.11659464E+04</totfact>
</mgrwt>
</event>
<event>
 8    1  0.1224355E-005  0.1469042E+03  0.7546771E-02  0.1213504E+00
         -2   -1    0    0    0  501 -0.00000000000E+00  0.00000000000E+00  0.21375103751E+02  0.21375103751E+02  0.00000000000E+00 0.  1.
          2   -1    0    0  501    0  0.00000000000E+00 -0.00000000000E+00 -0.83888315156E+03  0.83888315156E+03  0.00000000000E+00 0. -1.
         23    2    1    2    0    0 -0.59487536741E+02  0.49167527829E+02 -0.35290302344E+03  0.37298147177E+03  0.92835453936E+02 0.  0.
         23    2    1    2    0    0  0.59487536741E+02 -0.49167527829E+02 -0.46460502437E+03  0.48727678354E+03  0.12499848916E+03 0.  0.
          5    1    4    4  502    0 -0.15617381257E+02  0.19864543477E+02 -0.24601450516E+02  0.35578421162E+02  0.47000000000E+01 0.  1.
         -5    1    4    4    0  502  0.75104917998E+02 -0.69032071306E+02 -0.44000357385E+03  0.45169836238E+03  0.47000000000E+01 0.  1.
        -11    1    3    3    0    0  0.15736494117E+02 -0.16654372471E+01 -0.11107488243E+02  0.19333577615E+02  0.00000000000E+00 0.  1.
         11    1    3    3    0    0 -0.75224030858E+02  0.50832965076E+02 -0.34179553520E+03  0.35364789416E+03  0.00000000000E+00 0. -1.
<mgrwt>
<rscale>  0 0.13987023E+03</rscale>
<asrwt>0</asrwt>
<pdfrwt beam="2">  1        2 0.12905896E+00 0.14690417E+03</pdfrwt>
<pdfrwt beam="1">  1       -2 0.32884770E-02 0.14690417E+03</pdfrwt>
<totfact> 0.11856500E+04</totfact>
</mgrwt>
</event>
<event>
 8    1  0.1224355E-005  0.1287919E+03  0.7546771E-02  0.1243844E+00
         -1   -1    0    0    0  501 -0.00000000000E+00  0.00000000000E+00  0.16750396012E+03  0.16750396012E+03  0.00000000000E+00 0.  1.
          1   -1    0    0  501    0  0.00000000000E+00 -0.00000000000E+00 -0.79472011744E+02  0.79472011744E+02  0.00000000000E+00 0. -1.
         23    2    1    2    0    0 -0.19858337279E+02  0.23875327973E+02  0.66334635868E+02  0.11636920257E+03  0.90427443547E+02 0.  0.
         23    2    1    2    0    0  0.19858337279E+02 -0.23875327973E+02  0.21697312510E+02  0.13060676929E+03  0.12499187962E+03 0.  0.
          5    1    4    4  502    0 -0.21549719294E+02  0.11736496006E+02 -0.40571262693E+02  0.47647173019E+02  0.47000000000E+01 0. -1.
         -5    1    4    4    0  502  0.41408056573E+02 -0.35611823980E+02  0.62268575203E+02  0.82959596275E+02  0.47000000000E+01 0. -1.
        -11    1    3    3    0    0 -0.18249269415E+02  0.57744043277E+02  0.33679672949E+02  0.69294521703E+02  0.00000000000E+00 0. -1.
         11    1    3    3    0    0 -0.16090678640E+01 -0.33868715304E+02  0.32654962919E+02  0.47074680870E+02  0.00000000000E+00 0.  1.
<mgrwt>
<rscale>  0 0.11954837E+03</rscale>
<asrwt>0</asrwt>
<pdfrwt beam="2">  1        1 0.12226463E-01 0.12879191E+03</pdfrwt>
<pdfrwt beam="1">  1       -1 0.25769840E-01 0.12879191E+03</pdfrwt>
<totfact> 0.61257785E+03</totfact>
</mgrwt>
</event>
<event>
 8    1  0.1224355E-005  0.1707525E+03  0.7546771E-02  0.1183469E+00
         -2   -1    0    0    0  501 -0.00000000000E+00  0.00000000000E+00  0.11543084105E+03  0.11543084105E+03  0.00000000000E+00 0. -1.
          2   -1    0    0  501    0  0.00000000000E+00 -0.00000000000E+00 -0.22269301802E+03  0.22269301802E+03  0.00000000000E+00 0.  1.
         23    2    1    2    0    0  0.42306041720E+02  0.10836392988E+03 -0.30855912073E+02  0.15105610227E+03  0.91286999399E+02 0.  0.
         23    2    1    2    0    0 -0.42306041720E+02 -0.10836392988E+03 -0.76406264902E+02  0.18706775680E+03  0.12499554333E+03 0.  0.
          5    1    4    4  502    0 -0.65902155264E+02 -0.14330181220E+02 -0.56221317514E+02  0.87928236109E+02  0.47000000000E+01 0. -1.
         -5    1    4    4    0  502  0.23596113544E+02 -0.94033748660E+02 -0.20184947387E+02  0.99139520690E+02  0.47000000000E+01 0. -1.
        -11    1    3    3    0    0  0.55183365492E+02  0.44033751839E+02  0.13479323374E+02  0.71873968074E+02  0.00000000000E+00 0.  1.
         11    1    3    3    0    0 -0.12877323772E+02  0.64330178041E+02 -0.44335235447E+02  0.79182134200E+02  0.00000000000E+00 0. -1.
<mgrwt>
<rscale>  0 0.16471994E+03</rscale>
<asrwt>0</asrwt>
<pdfrwt beam="2">  1        2 0.34260464E-01 0.17075254E+03</pdfrwt>
<pdfrwt beam="1">  1       -2 0.17758591E-01 0.17075254E+03</pdfrwt>
<totfact> 0.37988424E+03</totfact>
</mgrwt>
</event>
<event>
 8    1  0.1224355E-005  0.1479848E+03  0.7546771E-02  0.1212445E+00
         -3   -1    0    0    0  501 -0.00000000000E+00  0.00000000000E+00  0.86574435111E+02  0.86574435111E+02  0.00000000000E+00 0.  1.
          3   -1    0    0  501    0  0.00000000000E+00 -0.00000000000E+00 -0.34140509766E+03  0.34140509766E+03  0.00000000000E+00 0. -1.
         23    2    1    2    0    0 -0.49397170617E+02 -0.61937121577E+02  0.13509532771E+02  0.12153875513E+03  0.91174963819E+02 0.  0.
         23    2    1    2    0    0  0.49397170617E+02  0.61937121577E+02 -0.26834019532E+03  0.30644077765E+03  0.12499280894E+03 0.  0.
          5    1    4    4  502    0  0.74649326405E+02  0.60618206680E+02 -0.26314139742E+03  0.28020095280E+03  0.47000000000E+01 0.  1.
         -5    1    4    4    0  502 -0.25252155788E+02  0.13189148968E+01 -0.51987979020E+01  0.26239824848E+02  0.47000000000E+01 0.  1.
        -11    1    3    3    0    0 -0.50743732750E+02  0.51113239722E+01  0.18593966536E+02  0.54284322209E+02  0.00000000000E+00 0. -1.
         11    1    3    3    0    0  0.13465621327E+01 -0.67048445549E+02 -0.50844337652E+01  0.67254432916E+02  0.00000000000E+00 0.  1.
<mgrwt>
<rscale>  0 0.14065868E+03</rscale>
<asrwt>0</asrwt>
<pdfrwt beam="2">  1        3 0.52523860E-01 0.14798476E+03</pdfrwt>
<pdfrwt beam="1">  1       -3 0.13319144E-01 0.14798476E+03</pdfrwt>
<totfact> 0.38734027E+02</totfact>
</mgrwt>
</event>
<event>
 8    1  0.1224355E-005  0.1313488E+03  0.7546771E-02  0.1238750E+00
         -1   -1    0    0    0  501 -0.00000000000E+00  0.00000000000E+00  0.33993667125E+02  0.33993667125E+02  0.00000000000E+00 0.  1.
          1   -1    0    0  501    0  0.00000000000E+00 -0.00000000000E+00 -0.71598475236E+03  0.71598475236E+03  0.00000000000E+00 0. -1.
         23    2    1    2    0    0 -0.35318889277E+01 -0.40181006889E+02 -0.65129123198E+02  0.11928738253E+03  0.91436805441E+02 0.  0.
         23    2    1    2    0    0  0.35318889277E+01  0.40181006889E+02 -0.61686196204E+03  0.63069103695E+03  0.12500206529E+03 0.  0.
          5    1    4    4  502    0 -0.18720004371E+02  0.40454689694E+02 -0.68526172741E+02  0.81883739732E+02  0.47000000000E+01 0. -1.
         -5    1    4    4    0  502  0.22251893299E+02 -0.27368280496E+00 -0.54833578929E+03  0.54880729722E+03  0.47000000000E+01 0. -1.
        -11    1    3    3    0    0 -0.20285227445E+02  0.15518986144E+02  0.71389843691E+01  0.26519699871E+02  0.00000000000E+00 0.  1.
         11    1    3    3    0    0  0.16753338517E+02 -0.55699993033E+02 -0.72268107568E+02  0.92767682663E+02  0.00000000000E+00 0. -1.
<mgrwt>
<rscale>  0 0.12267402E+03</rscale>
<asrwt>0</asrwt>
<pdfrwt beam="2">  1        1 0.11015150E+00 0.13134879E+03</pdfrwt>
<pdfrwt beam="1">  1       -1 0.52297951E-02 0.13134879E+03</pdfrwt>
<totfact> 0.43535040E+03</totfact>
</mgrwt>
</event>
<event>
 8    1  0.1224355E-005  0.1398023E+03  0.7546771E-02  0.1224918E+00
         -3   -1    0    0    0  501 -0.00000000000E+00  0.00000000000E+00  0.28033161352E+03  0.28033161352E+03  0.00000000000E+00 0.  1.
          3   -1    0    0  501    0  0.00000000000E+00 -0.00000000000E+00 -0.72005408242E+02  0.72005408242E+02  0.00000000000E+00 0. -1.
         23    2    1    2    0    0 -0.39297915524E+02  0.48732234040E+02  0.17790326927E+03  0.20926276787E+03  0.90676215188E+02 0.  0.
         23    2    1    2    0    0  0.39297915524E+02 -0.48732234040E+02  0.30422936015E+02  0.14307425390E+03  0.12500212116E+03 0.  0.
          5    1    4    4  502    0 -0.19675756928E+02 -0.62125821037E+02 -0.15312179244E+02  0.67106675401E+02  0.47000000000E+01 0.  1.
         -5    1    4    4    0  502  0.58973672451E+02  0.13393586998E+02  0.45735115259E+02  0.75967578498E+02  0.47000000000E+01 0.  1.
        -11    1    3    3    0    0 -0.64812352350E+02  0.13943930353E+02  0.11943525587E+03  0.13660107817E+03  0.00000000000E+00 0. -1.
         11    1    3    3    0    0  0.25514436826E+02  0.34788303686E+02  0.58468013391E+02  0.72661689699E+02  0.00000000000E+00 0.  1.
<mgrwt>
<rscale>  0 0.13172526E+03</rscale>
<asrwt>0</asrwt>
<pdfrwt beam="2">  1        3 0.11077755E-01 0.13980231E+03</pdfrwt>
<pdfrwt beam="1">  1       -3 0.43127940E-01 0.13980231E+03</pdfrwt>
<totfact> 0.77362946E+02</totfact>
</mgrwt>
</event>
<event>
 8    1  0.1224355E-005  0.1261267E+03  0.7546771E-02  0.1248539E+00
          2   -1    0    0  501    0  0.00000000000E+00  0.00000000000E+00  0.13350919114E+03  0.13350919114E+03  0.00000000000E+00 0. -1.
         -2   -1    0    0    0  501 -0.00000000000E+00 -0.00000000000E+00 -0.10086172614E+03  0.10086172614E+03  0.00000000000E+00 0.  1.
         23    2    1    2    0    0 -0.36117605687E+01  0.16543445488E+02 -0.24624989274E+02  0.95849893207E+02  0.91071848164E+02 0.  0.
         23    2    1    2    0    0  0.36117605687E+01 -0.16543445488E+02  0.57272454274E+02  0.13852102408E+03  0.12498483784E+03 0.  0.
          5    1    4    4  502    0 -0.45254283082E+02 -0.48281908761E+02  0.40410074565E+02  0.77679836362E+02  0.47000000000E+01 0.  1.
         -5    1    4    4    0  502  0.48866043651E+02  0.31738463273E+02  0.16862379709E+02  0.60841187714E+02  0.47000000000E+01 0.  1.
        -11    1    3    3    0    0  0.40742995919E+02 -0.85286597160E+01 -0.12732877933E+02  0.43529942953E+02  0.00000000000E+00 0.  1.
         11    1    3    3    0    0 -0.44354756488E+02  0.25072105204E+02 -0.11892111341E+02  0.52319950254E+02  0.00000000000E+00 0. -1.
<mgrwt>
<rscale>  0 0.11676059E+03</rscale>
<asrwt>0</asrwt>
<pdfrwt beam="1">  1        2 0.20539876E-01 0.12612668E+03</pdfrwt>
<pdfrwt beam="2">  1       -2 0.15517189E-01 0.12612668E+03</pdfrwt>
<totfact> 0.81802502E+03</totfact>
</mgrwt>
</event>
<event>
 8    1  0.1224355E-005  0.1318091E+03  0.7546771E-02  0.1237923E+00
          2   -1    0    0  501    0  0.00000000000E+00  0.00000000000E+00  0.20756763735E+04  0.20756763735E+04  0.00000000000E+00 0. -1.
         -2   -1    0    0    0  501 -0.00000000000E+00 -0.00000000000E+00 -0.77569228093E+01  0.77569228093E+01  0.00000000000E+00 0.  1.
         23    2    1    2    0    0 -0.22392670346E+01 -0.41748936535E+02  0.50196716574E+03  0.51194349610E+03  0.91471961304E+02 0.  0.
         23    2    1    2    0    0  0.22392670346E+01  0.41748936535E+02  0.15659522849E+04  0.15714898002E+04  0.12500258151E+03 0.  0.
          5    1    4    4  502    0  0.51636829588E+02 -0.62930207823E+01  0.38597894303E+03  0.38949685332E+03  0.47000000000E+01 0.  1.
         -5    1    4    4    0  502 -0.49397562554E+02  0.48041957317E+02  0.11799733419E+04  0.11819929469E+04  0.47000000000E+01 0.  1.
        -11    1    3    3    0    0  0.42438139186E+02 -0.35579995211E+02  0.28754131398E+03  0.29282578261E+03  0.00000000000E+00 0.  1.
         11    1    3    3    0    0 -0.44677406221E+02 -0.61689413236E+01  0.21442585176E+03  0.21911771349E+03  0.00000000000E+00 0. -1.
<mgrwt>
<rscale>  0 0.12319138E+03</rscale>
<asrwt>0</asrwt>
<pdfrwt beam="1">  1        2 0.31933438E+00 0.13180908E+03</pdfrwt>
<pdfrwt beam="2">  1       -2 0.11933744E-02 0.13180908E+03</pdfrwt>
<totfact> 0.10961961E+04</totfact>
</mgrwt>
</event>
<event>
 8    1  0.1224355E-005  0.1333974E+03  0.7546771E-02  0.1235868E+00
         -2   -1    0    0    0  501 -0.00000000000E+00  0.00000000000E+00  0.55216397688E+03  0.55216397688E+03  0.00000000000E+00 0.  1.
          2   -1    0    0  501    0  0.00000000000E+00 -0.00000000000E+00 -0.42528751969E+02  0.42528751969E+02  0.00000000000E+00 0. -1.
         23    2    1    2    0    0  0.40654030438E+02  0.22731702698E+02  0.42461826003E+03  0.43650689095E+03  0.89822706469E+02 0.  0.
         23    2    1    2    0    0 -0.40654030438E+02 -0.22731702698E+02  0.85016964885E+02  0.15818583790E+03  0.12500157798E+03 0.  0.
          5    1    4    4  502    0 -0.35990161323E+02  0.69507058043E+01 -0.24622431090E+02  0.44406735255E+02  0.47000000000E+01 0.  1.
         -5    1    4    4    0  502 -0.46638691147E+01 -0.29682408503E+02  0.10963939597E+03  0.11377910265E+03  0.47000000000E+01 0.  1.
        -11    1    3    3    0    0  0.39024814497E+02 -0.25958965062E+02  0.28019312293E+03  0.28408623717E+03  0.00000000000E+00 0.  1.
         11    1    3    3    0    0  0.16292159408E+01  0.48690667760E+02  0.14442513710E+03  0.15242065378E+03  0.00000000000E+00 0. -1.
<mgrwt>
<rscale>  0 0.12449026E+03</rscale>
<asrwt>0</asrwt>
<pdfrwt beam="2">  1        2 0.65428853E-02 0.13339743E+03</pdfrwt>
<pdfrwt beam="1">  1       -2 0.84948299E-01 0.13339743E+03</pdfrwt>
<totfact> 0.13298217E+03</totfact>
</mgrwt>
</event>
<event>
 8    1  0.1224355E-005  0.1502215E+03  0.7546771E-02  0.1209067E+00
          4   -1    0    0  501    0  0.00000000000E+00  0.00000000000E+00  0.89261951831E+02  0.89261951831E+02  0.00000000000E+00 0. -1.
         -4   -1    0    0    0  501 -0.00000000000E+00 -0.00000000000E+00 -0.21792958569E+03  0.21792958569E+03  0.00000000000E+00 0.  1.
         23    2    1    2    0    0 -0.70770287144E+02  0.44047680619E+02 -0.86152383177E+02  0.15106960040E+03  0.91930187252E+02 0.  0.
         23    2    1    2    0    0  0.70770287144E+02 -0.44047680619E+02 -0.42515250684E+02  0.15612193712E+03  0.12497152075E+03 0.  0.
          5    1    4    4  502    0  0.10523672509E+03 -0.44314246120E+02 -0.24233489262E+02  0.11682411018E+03  0.47000000000E+01 0. -1.
         -5    1    4    4    0  502 -0.34466437946E+02  0.26656550153E+00 -0.18281761422E+02  0.39297826944E+02  0.47000000000E+01 0. -1.
        -11    1    3    3    0    0  0.89600099003E+01  0.18841782455E+02  0.10423942827E+02  0.23322802738E+02  0.00000000000E+00 0. -1.
         11    1    3    3    0    0 -0.79730297044E+02  0.25205898164E+02 -0.96576326004E+02  0.12774679766E+03  0.00000000000E+00 0.  1.
<mgrwt>
<rscale>  0 0.14321501E+03</rscale>
<asrwt>0</asrwt>
<pdfrwt beam="1">  1        4 0.13732608E-01 0.15022155E+03</pdfrwt>
<pdfrwt beam="2">  1       -4 0.33527628E-01 0.15022155E+03</pdfrwt>
<totfact> 0.63848598E+02</totfact>
</mgrwt>
</event>
<event>
 7    1  0.1224355E-005  0.2907638E+03  0.7546771E-02  0.1132913E+00
         -1   -1    0    0    0  501 -0.00000000000E+00  0.00000000000E+00  0.68212808519E+02  0.68212808519E+02  0.00000000000E+00 0.  1.
          1   -1    0    0  501    0  0.00000000000E+00 -0.00000000000E+00 -0.58365220122E+03  0.58365220122E+03  0.00000000000E+00 0. -1.
         23    2    1    2    0    0  0.21357355214E+02  0.23444802530E+02 -0.70652470605E+02  0.12047154098E+03  0.92281228839E+02 0.  0.
          5    1    1    2  502    0 -0.12729519629E+03  0.43427242782E+02 -0.34767558568E+03  0.37281415650E+03  0.47000000000E+01 0. -1.
         -5    1    1    2    0  502  0.10593784107E+03 -0.66872045312E+02 -0.97111336420E+02  0.15857931226E+03  0.47000000000E+01 0.  1.
        -11    1    3    3    0    0  0.56581317905E+02  0.36702590660E+01 -0.35295105135E+02  0.66788178475E+02  0.00000000000E+00 0.  1.
         11    1    3    3    0    0 -0.35223962691E+02  0.19774543464E+02 -0.35357365470E+02  0.53683362505E+02  0.00000000000E+00 0. -1.
<mgrwt>
<rscale>  0 0.22130649E+03</rscale>
<asrwt>0</asrwt>
<pdfrwt beam="2">  1        1 0.89792642E-01 0.29076384E+03</pdfrwt>
<pdfrwt beam="1">  1       -1 0.10494279E-01 0.29076384E+03</pdfrwt>
<totfact> 0.20655432E+03</totfact>
</mgrwt>
</event>
<event>
 8    1  0.1224355E-005  0.1290641E+03  0.7546771E-02  0.1230501E+00
         -2   -1    0    0    0  501 -0.00000000000E+00  0.00000000000E+00  0.17754898412E+02  0.17754898412E+02  0.00000000000E+00 0.  1.
          2   -1    0    0  501    0  0.00000000000E+00 -0.00000000000E+00 -0.92777207676E+03  0.92777207676E+03  0.00000000000E+00 0. -1.
         23    2    1    2    0    0 -0.45595714807E+02 -0.34419128353E+02 -0.37672077239E+03  0.39683525499E+03  0.11088748191E+03 0.  0.
         23    2    1    2    0    0  0.45595714807E+02  0.34419128353E+02 -0.53329640596E+03  0.54869172018E+03  0.11573202489E+03 0.  0.
          5    1    4    4  502    0  0.75202368168E+02  0.31031276322E+02 -0.48462929994E+03  0.49143258403E+03  0.47000000000E+01 0. -1.
         -5    1    4    4    0  502 -0.29606653362E+02  0.33878520308E+01 -0.48667106015E+02  0.57259136149E+02  0.47000000000E+01 0.  1.
        -11    1    3    3    0    0  0.29763048324E+02 -0.38903609492E+02 -0.16100852691E+03  0.16829460959E+03  0.00000000000E+00 0.  1.
         11    1    3    3    0    0 -0.75358763130E+02  0.44844811392E+01 -0.21571224548E+03  0.22854064540E+03  0.00000000000E+00 0. -1.
<mgrwt>
<rscale>  0 0.12796884E+03</rscale>
<asrwt>0</asrwt>
<pdfrwt beam="2">  1        2 0.14273424E+00 0.12906412E+03</pdfrwt>
<pdfrwt beam="1">  1       -2 0.27315215E-02 0.12906412E+03</pdfrwt>
<totfact> 0.13556974E+04</totfact>
</mgrwt>
</event>
<event>
 8    1  0.1224355E-005  0.1614782E+03  0.7546771E-02  0.1194203E+00
         -2   -1    0    0    0  501 -0.00000000000E+00  0.00000000000E+00  0.33957213573E+02  0.33957213573E+02  0.00000000000E+00 0.  1.
          2   -1    0    0  501    0  0.00000000000E+00 -0.00000000000E+00 -0.66435118530E+03  0.66435118530E+03  0.00000000000E+00 0. -1.
         23    2    1    2    0    0  0.50106795473E+02  0.89110935116E+02 -0.31969282235E+03  0.34815068086E+03  0.92487546246E+02 0.  0.
         23    2    1    2    0    0 -0.50106795473E+02 -0.89110935116E+02 -0.31070114938E+03  0.35015771802E+03  0.12499509411E+03 0.  0.
          5    1    4    4  502    0  0.78104037581E+01 -0.83397015985E+02 -0.25872595403E+03  0.27198763569E+03  0.47000000000E+01 0.  1.
         -5    1    4    4    0  502 -0.57917199231E+02 -0.57139191312E+01 -0.51975195351E+02  0.78170082323E+02  0.47000000000E+01 0.  1.
        -11    1    3    3    0    0  0.70744057397E+02  0.61284136341E+02 -0.16568663364E+03  0.19029589484E+03  0.00000000000E+00 0.  1.
         11    1    3    3    0    0 -0.20637261924E+02  0.27826798775E+02 -0.15400618871E+03  0.15785478602E+03  0.00000000000E+00 0. -1.
<mgrwt>
<rscale>  0 0.15521909E+03</rscale>
<asrwt>0</asrwt>
<pdfrwt beam="2">  1        2 0.10220787E+00 0.16147824E+03</pdfrwt>
<pdfrwt beam="1">  1       -2 0.52241871E-02 0.16147824E+03</pdfrwt>
<totfact> 0.79397538E+03</totfact>
</mgrwt>
</event>
<event>
 8    1  0.1224355E-005  0.1315508E+03  0.7546771E-02  0.1238802E+00
         -2   -1    0    0    0  501 -0.00000000000E+00  0.00000000000E+00  0.31774960837E+02  0.31774960837E+02  0.00000000000E+00 0.  1.
          2   -1    0    0  501    0  0.00000000000E+00 -0.00000000000E+00 -0.44754110374E+03  0.44754110374E+03  0.00000000000E+00 0. -1.
         23    2    1    2    0    0 -0.35932312751E+02 -0.19728391059E+02 -0.12134830418E+03  0.15684515155E+03  0.90524306809E+02 0.  0.
         23    2    1    2    0    0  0.35932312751E+02  0.19728391059E+02 -0.29441783872E+03  0.32247091303E+03  0.12500114191E+03 0.  0.
          5    1    4    4  502    0  0.30244892406E+02  0.69601979628E+02 -0.13115808245E+03  0.15160383134E+03  0.47000000000E+01 0.  1.
         -5    1    4    4    0  502  0.56874203452E+01 -0.49873588569E+02 -0.16325975628E+03  0.17086708169E+03  0.47000000000E+01 0.  1.
        -11    1    3    3    0    0  0.10962525817E+02 -0.41969967924E+02 -0.33490900348E+02  0.54802331939E+02  0.00000000000E+00 0.  1.
         11    1    3    3    0    0 -0.46894838568E+02  0.22241576865E+02 -0.87857403832E+02  0.10204281961E+03  0.00000000000E+00 0. -1.
<mgrwt>
<rscale>  0 0.12264146E+03</rscale>
<asrwt>0</asrwt>
<pdfrwt beam="2">  1        2 0.68852466E-01 0.13155085E+03</pdfrwt>
<pdfrwt beam="1">  1       -2 0.48884563E-02 0.13155085E+03</pdfrwt>
<totfact> 0.13479602E+04</totfact>
</mgrwt>
</event>
<event>
 8    1  0.1224355E-005  0.1456427E+03  0.7546771E-02  0.1215625E+00
         -3   -1    0    0    0  501 -0.00000000000E+00  0.00000000000E+00  0.21978069965E+03  0.21978069965E+03  0.00000000000E+00 0.  1.
          3   -1    0    0  501    0  0.00000000000E+00 -0.00000000000E+00 -0.80807729880E+02  0.80807729880E+02  0.00000000000E+00 0. -1.
         23    2    1    2    0    0  0.71465819536E+02 -0.21919955596E+02  0.42250102390E+02  0.12575391753E+03  0.91875615955E+02 0.  0.
         23    2    1    2    0    0 -0.71465819536E+02  0.21919955596E+02  0.96722867381E+02  0.17483451200E+03  0.12499578271E+03 0.  0.
          5    1    4    4  502    0 -0.78415328777E+02 -0.92872038967E+01  0.69327758705E+01  0.79406355695E+02  0.47000000000E+01 0.  1.
         -5    1    4    4    0  502  0.69495092413E+01  0.31207159493E+02  0.89790091511E+02  0.95428156305E+02  0.47000000000E+01 0.  1.
        -11    1    3    3    0    0  0.46448231989E+02  0.23802432470E+02  0.50922099849E+02  0.72918134229E+02  0.00000000000E+00 0. -1.
         11    1    3    3    0    0  0.25017587546E+02 -0.45722388066E+02 -0.86719974593E+01  0.52835783301E+02  0.00000000000E+00 0.  1.
<mgrwt>
<rscale>  0 0.13830719E+03</rscale>
<asrwt>0</asrwt>
<pdfrwt beam="2">  1        3 0.12431959E-01 0.14564269E+03</pdfrwt>
<pdfrwt beam="1">  1       -3 0.33812415E-01 0.14564269E+03</pdfrwt>
<totfact> 0.10226961E+03</totfact>
</mgrwt>
</event>
<event>
 8    1  0.1224355E-005  0.2565797E+03  0.7546771E-02  0.1112998E+00
         -2   -1    0    0    0  501 -0.00000000000E+00  0.00000000000E+00  0.11181091466E+03  0.11181091466E+03  0.00000000000E+00 0.  1.
          2   -1    0    0  501    0  0.00000000000E+00 -0.00000000000E+00 -0.24950325785E+04  0.24950325785E+04  0.00000000000E+00 0. -1.
         23    2    1    2    0    0 -0.10939703289E+03 -0.19555489175E+03 -0.24654084520E+02  0.23436079362E+03  0.64091584557E+02 0.  0.
         23    2    1    2    0    0  0.10939703289E+03  0.19555489175E+03 -0.23585675793E+04  0.23724826995E+04  0.12499482761E+03 0.  0.
          5    1    4    4  502    0  0.12218017501E+03  0.19545379193E+03 -0.19334409015E+04  0.19471378969E+04  0.47000000000E+01 0. -1.
         -5    1    4    4    0  502 -0.12783142123E+02  0.10109981629E+00 -0.42512667786E+03  0.42534480269E+03  0.47000000000E+01 0. -1.
        -11    1    3    3    0    0 -0.10017949257E+03 -0.17403642845E+03 -0.42087393881E+02  0.20517299501E+03  0.00000000000E+00 0. -1.
         11    1    3    3    0    0 -0.92175403267E+01 -0.21518463297E+02  0.17433309361E+02  0.29187798609E+02  0.00000000000E+00 0.  1.
<mgrwt>
<rscale>  0 0.25048621E+03</rscale>
<asrwt>0</asrwt>
<pdfrwt beam="2">  1        2 0.38385113E+00 0.25657968E+03</pdfrwt>
<pdfrwt beam="1">  1       -2 0.17201681E-01 0.25657968E+03</pdfrwt>
<totfact> 0.11095226E+02</totfact>
</mgrwt>
</event>
<event>
 7    1  0.1224355E-005  0.2742215E+03  0.7546771E-02  0.1107526E+00
          2   -1    0    0  501    0  0.00000000000E+00  0.00000000000E+00  0.67038123355E+03  0.67038123355E+03  0.00000000000E+00 0. -1.
         -2   -1    0    0    0  501 -0.00000000000E+00 -0.00000000000E+00 -0.10668855916E+03  0.10668855916E+03  0.00000000000E+00 0.  1.
         23    2    1    2    0    0 -0.18464388439E+03 -0.74889073515E+02  0.10645823584E+03  0.24390868251E+03  0.91958425676E+02 0.  0.
          5    1    1    2  502    0  0.52657493429E+02  0.17955670835E+02  0.34829101590E+03  0.35273777723E+03  0.47000000000E+01 0. -1.
         -5    1    1    2    0  502  0.13198639096E+03  0.56933402680E+02  0.10894342266E+03  0.18042333297E+03  0.47000000000E+01 0.  1.
        -11    1    3    3    0    0 -0.65053542424E+02 -0.25896835975E+01  0.77457836677E+02  0.10118491145E+03  0.00000000000E+00 0. -1.
         11    1    3    3    0    0 -0.11959034197E+03 -0.72299389917E+02  0.29000399159E+02  0.14272377106E+03  0.00000000000E+00 0.  1.
<mgrwt>
<rscale>  0 0.25936406E+03</rscale>
<asrwt>0</asrwt>
<pdfrwt beam="1">  1        2 0.10313557E+00 0.27422151E+03</pdfrwt>
<pdfrwt beam="2">  1       -2 0.16413625E-01 0.27422151E+03</pdfrwt>
<totfact> 0.13023740E+03</totfact>
</mgrwt>
</event>
<event>
 8    1  0.1224355E-005  0.1306713E+03  0.7546771E-02  0.1237154E+00
          3   -1    0    0  501    0  0.00000000000E+00  0.00000000000E+00  0.24162424168E+03  0.24162424168E+03  0.00000000000E+00 0. -1.
         -3   -1    0    0    0  501 -0.00000000000E+00 -0.00000000000E+00 -0.57405709971E+02  0.57405709971E+02  0.00000000000E+00 0.  1.
         23    2    1    2    0    0 -0.31073953181E+02 -0.22033667551E+02  0.83906987568E+02  0.13429565529E+03  0.97692719255E+02 0.  0.
         23    2    1    2    0    0  0.31073953181E+02  0.22033667551E+02  0.10031154414E+03  0.16473429636E+03  0.12499563767E+03 0.  0.
          5    1    4    4  502    0  0.42391567881E+02 -0.34518440357E+02  0.90803058287E+02  0.10609360559E+03  0.47000000000E+01 0. -1.
         -5    1    4    4    0  502 -0.11317614700E+02  0.56552107909E+02  0.95084858565E+01  0.58640690776E+02  0.47000000000E+01 0. -1.
        -11    1    3    3    0    0  0.13692917504E+02  0.30533609016E+02  0.41324659791E+02  0.53174474855E+02  0.00000000000E+00 0. -1.
         11    1    3    3    0    0 -0.44766870684E+02 -0.52567276567E+02  0.42582327777E+02  0.81121180437E+02  0.00000000000E+00 0.  1.
<mgrwt>
<rscale>  0 0.12367565E+03</rscale>
<asrwt>0</asrwt>
<pdfrwt beam="1">  1        3 0.37172960E-01 0.13067128E+03</pdfrwt>
<pdfrwt beam="2">  1       -3 0.88316478E-02 0.13067128E+03</pdfrwt>
<totfact> 0.14819592E+03</totfact>
</mgrwt>
</event>
<event>
 8    1  0.1224355E-005  0.1251898E+03  0.7546771E-02  0.1250718E+00
         -2   -1    0    0    0  501 -0.00000000000E+00  0.00000000000E+00  0.16832705496E+02  0.16832705496E+02  0.00000000000E+00 0.  1.
          2   -1    0    0  501    0  0.00000000000E+00 -0.00000000000E+00 -0.75588422410E+03  0.75588422410E+03  0.00000000000E+00 0. -1.
         23    2    1    2    0    0 -0.65423968678E+01 -0.20925820041E+01 -0.20458964597E+03  0.22378889953E+03  0.90428792190E+02 0.  0.
         23    2    1    2    0    0  0.65423968678E+01  0.20925820041E+01 -0.53446187263E+03  0.54892803007E+03  0.12500122815E+03 0.  0.
          5    1    4    4  502    0  0.14497249519E+02 -0.28317244898E+01 -0.53773505541E+03  0.53795842658E+03  0.47000000000E+01 0. -1.
         -5    1    4    4    0  502 -0.79548526514E+01  0.49243064939E+01  0.32731827820E+01  0.10969603488E+02  0.47000000000E+01 0. -1.
        -11    1    3    3    0    0  0.32366953712E+02 -0.11725496436E+02 -0.16071512357E+03  0.16436075536E+03  0.00000000000E+00 0.  1.
         11    1    3    3    0    0 -0.38909350580E+02  0.96329144319E+01 -0.43874522402E+02  0.59428144165E+02  0.00000000000E+00 0. -1.
<mgrwt>
<rscale>  0 0.11549568E+03</rscale>
<asrwt>0</asrwt>
<pdfrwt beam="2">  1        2 0.11628987E+00 0.12518981E+03</pdfrwt>
<pdfrwt beam="1">  1       -2 0.25896472E-02 0.12518981E+03</pdfrwt>
<totfact> 0.18948020E+04</totfact>
</mgrwt>
</event>
<event>
 8    1  0.1224355E-005  0.2192191E+03  0.7546771E-02  0.1137734E+00
         -2   -1    0    0    0  501 -0.00000000000E+00  0.00000000000E+00  0.11417955234E+03  0.11417955234E+03  0.00000000000E+00 0. -1.
          2   -1    0    0  501    0  0.00000000000E+00 -0.00000000000E+00 -0.42274982750E+03  0.42274982750E+03  0.00000000000E+00 0.  1.
         23    2    1    2    0    0 -0.49611010208E+02  0.17311799289E+03 -0.73291900548E+02  0.21535056671E+03  0.92590885630E+02 0.  0.
         23    2    1    2    0    0  0.49611010208E+02 -0.17311799289E+03 -0.23527837462E+03  0.32157881313E+03  0.12500371072E+03 0.  0.
          5    1    4    4  502    0  0.87544951730E+02 -0.80509712972E+02 -0.12858137140E+03  0.17521755485E+03  0.47000000000E+01 0. -1.
         -5    1    4    4    0  502 -0.37933941522E+02 -0.92608279918E+02 -0.10669700322E+03  0.14636125828E+03  0.47000000000E+01 0. -1.
        -11    1    3    3    0    0 -0.57562312322E+01  0.11231244244E+03 -0.82975375647E+02  0.13975740369E+03  0.00000000000E+00 0.  1.
         11    1    3    3    0    0 -0.43854778976E+02  0.60805550455E+02  0.96834750992E+01  0.75593163018E+02  0.00000000000E+00 0. -1.
<mgrwt>
<rscale>  0 0.21491281E+03</rscale>
<asrwt>0</asrwt>
<pdfrwt beam="2">  1        2 0.65038435E-01 0.21921911E+03</pdfrwt>
<pdfrwt beam="1">  1       -2 0.17566085E-01 0.21921911E+03</pdfrwt>
<totfact> 0.19583075E+03</totfact>
</mgrwt>
</event>
<event>
 8    1  0.1224355E-005  0.1330756E+03  0.7546771E-02  0.1235383E+00
         -2   -1    0    0    0  501 -0.00000000000E+00  0.00000000000E+00  0.25995162917E+02  0.25995162917E+02  0.00000000000E+00 0. -1.
          2   -1    0    0  501    0  0.00000000000E+00 -0.00000000000E+00 -0.54522437468E+03  0.54522437468E+03  0.00000000000E+00 0.  1.
         23    2    1    2    0    0  0.32075844421E+02  0.32497696389E+02 -0.18954716270E+03  0.21569266063E+03  0.92250945224E+02 0.  0.
         23    2    1    2    0    0 -0.32075844421E+02 -0.32497696389E+02 -0.32968204906E+03  0.35552687697E+03  0.12499658678E+03 0.  0.
          5    1    4    4  502    0  0.15011183872E+02 -0.57374583056E+02 -0.77289030969E+02  0.97533905542E+02  0.47000000000E+01 0.  1.
         -5    1    4    4    0  502 -0.47087028293E+02  0.24876886667E+02 -0.25239301809E+03  0.25799297142E+03  0.47000000000E+01 0.  1.
        -11    1    3    3    0    0 -0.24650827930E+02  0.33301955449E+02 -0.49257505342E+02  0.64366026652E+02  0.00000000000E+00 0. -1.
         11    1    3    3    0    0  0.56726672351E+02 -0.80425906028E+00 -0.14028965736E+03  0.15132663398E+03  0.00000000000E+00 0.  1.
<mgrwt>
<rscale>  0 0.12479936E+03</rscale>
<asrwt>0</asrwt>
<pdfrwt beam="2">  1        2 0.83880674E-01 0.13307557E+03</pdfrwt>
<pdfrwt beam="1">  1       -2 0.39992558E-02 0.13307557E+03</pdfrwt>
<totfact> 0.14662482E+04</totfact>
</mgrwt>
</event>
<event>
 8    1  0.1224355E-005  0.1377852E+03  0.7546771E-02  0.1228759E+00
          2   -1    0    0  501    0  0.00000000000E+00  0.00000000000E+00  0.22677504708E+03  0.22677504708E+03  0.00000000000E+00 0. -1.
         -2   -1    0    0    0  501 -0.00000000000E+00 -0.00000000000E+00 -0.10727207834E+03  0.10727207834E+03  0.00000000000E+00 0.  1.
         23    2    1    2    0    0  0.57924783669E+02  0.23250846803E+01 -0.48457023474E+02  0.11680227705E+03  0.89073016214E+02 0.  0.
         23    2    1    2    0    0 -0.57924783669E+02 -0.23250846803E+01  0.16795999222E+03  0.21724484837E+03  0.12499631425E+03 0.  0.
          5    1    4    4  502    0  0.38991386027E+02  0.74681932451E+01  0.55320720988E+02  0.68253749093E+02  0.47000000000E+01 0. -1.
         -5    1    4    4    0  502 -0.96916169697E+02 -0.97932779254E+01  0.11263927123E+03  0.14899109928E+03  0.47000000000E+01 0. -1.
        -11    1    3    3    0    0  0.42510389632E+02  0.44391641733E+02 -0.27185889801E+02  0.67207318699E+02  0.00000000000E+00 0.  1.
         11    1    3    3    0    0  0.15414394037E+02 -0.42066557053E+02 -0.21271133673E+02  0.49594958348E+02  0.00000000000E+00 0. -1.
<mgrwt>
<rscale>  0 0.12912527E+03</rscale>
<asrwt>0</asrwt>
<pdfrwt beam="1">  1        2 0.34888469E-01 0.13778521E+03</pdfrwt>
<pdfrwt beam="2">  1       -2 0.16503397E-01 0.13778521E+03</pdfrwt>
<totfact> 0.41617330E+03</totfact>
</mgrwt>
</event>
<event>
 8    1  0.1224355E-005  0.1325256E+03  0.7546771E-02  0.1236770E+00
         -1   -1    0    0    0  501 -0.00000000000E+00  0.00000000000E+00  0.26514204032E+03  0.26514204032E+03  0.00000000000E+00 0.  1.
          1   -1    0    0  501    0  0.00000000000E+00 -0.00000000000E+00 -0.89179802147E+02  0.89179802147E+02  0.00000000000E+00 0. -1.
         23    2    1    2    0    0  0.32857834925E+02  0.29269356477E+02  0.19566899881E+03  0.22033901763E+03  0.91250167400E+02 0.  0.
         23    2    1    2    0    0 -0.32857834925E+02 -0.29269356477E+02 -0.19706760636E+02  0.13398282484E+03  0.12500683338E+03 0.  0.
          5    1    4    4  502    0 -0.20678376411E+02  0.38769319571E+02 -0.42239958580E+02  0.61130675538E+02  0.47000000000E+01 0.  1.
         -5    1    4    4    0  502 -0.12179458514E+02 -0.68038676047E+02  0.22533197944E+02  0.72852149300E+02  0.47000000000E+01 0.  1.
        -11    1    3    3    0    0  0.58933206842E+02  0.39892421023E+02  0.15820228294E+03  0.17347187222E+03  0.00000000000E+00 0.  1.
         11    1    3    3    0    0 -0.26075371917E+02 -0.10623064546E+02  0.37466715872E+02  0.46867145413E+02  0.00000000000E+00 0. -1.
<mgrwt>
<rscale>  0 0.12391783E+03</rscale>
<asrwt>0</asrwt>
<pdfrwt beam="2">  1        1 0.13719970E-01 0.13252562E+03</pdfrwt>
<pdfrwt beam="1">  1       -1 0.40791083E-01 0.13252562E+03</pdfrwt>
<totfact> 0.24210388E+03</totfact>
</mgrwt>
</event>
<event>
 8    1  0.1224355E-005  0.2033731E+03  0.7546771E-02  0.1151096E+00
         -1   -1    0    0    0  501 -0.00000000000E+00  0.00000000000E+00  0.12433573181E+03  0.12433573181E+03  0.00000000000E+00 0.  1.
          1   -1    0    0  501    0  0.00000000000E+00 -0.00000000000E+00 -0.34076537101E+03  0.34076537101E+03  0.00000000000E+00 0. -1.
         23    2    1    2    0    0  0.17445350745E+02  0.15947190402E+03 -0.25150084811E+02  0.18590853700E+03  0.90519770923E+02 0.  0.
         23    2    1    2    0    0 -0.17445350745E+02 -0.15947190402E+03 -0.19127955439E+03  0.27919256583E+03  0.12499996980E+03 0.  0.
          5    1    4    4  502    0  0.45834663276E+02 -0.90377863838E+02 -0.60068014309E+02  0.11789499978E+03  0.47000000000E+01 0.  1.
         -5    1    4    4    0  502 -0.63280014021E+02 -0.69094040186E+02 -0.13121154008E+03  0.16129756605E+03  0.47000000000E+01 0.  1.
        -11    1    3    3    0    0  0.27784725477E+02  0.11873828914E+03 -0.55588397236E+02  0.13401806663E+03  0.00000000000E+00 0. -1.
         11    1    3    3    0    0 -0.10339374733E+02  0.40733614887E+02  0.30438312424E+02  0.51890470367E+02  0.00000000000E+00 0.  1.
<mgrwt>
<rscale>  0 0.19840027E+03</rscale>
<asrwt>0</asrwt>
<pdfrwt beam="2">  1        1 0.52425442E-01 0.20337311E+03</pdfrwt>
<pdfrwt beam="1">  1       -1 0.19128574E-01 0.20337311E+03</pdfrwt>
<totfact> 0.16048938E+03</totfact>
</mgrwt>
</event>
<event>
 8    1  0.1224355E-005  0.1626080E+03  0.7546771E-02  0.1193059E+00
          1   -1    0    0  501    0  0.00000000000E+00  0.00000000000E+00  0.19057688982E+03  0.19057688982E+03  0.00000000000E+00 0. -1.
         -1   -1    0    0    0  501 -0.00000000000E+00 -0.00000000000E+00 -0.13601947100E+03  0.13601947100E+03  0.00000000000E+00 0.  1.
         23    2    1    2    0    0  0.64281841929E+02  0.81753378154E+02 -0.32425380111E+02  0.14218551424E+03  0.91375845504E+02 0.  0.
         23    2    1    2    0    0 -0.64281841929E+02 -0.81753378154E+02  0.86982798926E+02  0.18441084658E+03  0.12500233193E+03 0.  0.
          5    1    4    4  502    0 -0.65428366636E+02 -0.29630586982E+02 -0.11489206913E+02  0.72889880786E+02  0.47000000000E+01 0.  1.
         -5    1    4    4    0  502  0.11465247066E+01 -0.52122791172E+02  0.98472005839E+02  0.11152096580E+03  0.47000000000E+01 0.  1.
        -11    1    3    3    0    0  0.21124851950E+02  0.86277695021E+02 -0.13922818806E+01  0.88837145817E+02  0.00000000000E+00 0.  1.
         11    1    3    3    0    0  0.43156989979E+02 -0.45243168668E+01 -0.31033098230E+02  0.53348368418E+02  0.00000000000E+00 0. -1.
<mgrwt>
<rscale>  0 0.15619635E+03</rscale>
<asrwt>0</asrwt>
<pdfrwt beam="1">  1        1 0.29319522E-01 0.16260797E+03</pdfrwt>
<pdfrwt beam="2">  1       -1 0.20926072E-01 0.16260797E+03</pdfrwt>
<totfact> 0.28498151E+03</totfact>
</mgrwt>
</event>
<event>
 8    1  0.1224355E-005  0.1495361E+03  0.7546771E-02  0.1210476E+00
         -2   -1    0    0    0  501 -0.00000000000E+00  0.00000000000E+00  0.39352667974E+02  0.39352667974E+02  0.00000000000E+00 0.  1.
          2   -1    0    0  501    0  0.00000000000E+00 -0.00000000000E+00 -0.53612908924E+03  0.53612908924E+03  0.00000000000E+00 0. -1.
         23    2    1    2    0    0  0.57186120106E+02  0.58854081894E+02 -0.12483990550E+03  0.17461042716E+03  0.90386636069E+02 0.  0.
         23    2    1    2    0    0 -0.57186120106E+02 -0.58854081894E+02 -0.37193651577E+03  0.40087133005E+03  0.12500798458E+03 0.  0.
          5    1    4    4  502    0 -0.40123798815E+02 -0.70856393859E+02 -0.10441134431E+03  0.13249289265E+03  0.47000000000E+01 0. -1.
         -5    1    4    4    0  502 -0.17062321290E+02  0.12002311965E+02 -0.26752517145E+03  0.26837843740E+03  0.47000000000E+01 0. -1.
        -11    1    3    3    0    0  0.13319199010E+02  0.68743088581E+02 -0.45786805844E+02  0.83662685107E+02  0.00000000000E+00 0.  1.
         11    1    3    3    0    0  0.43866921095E+02 -0.98890066871E+01 -0.79053099652E+02  0.90947742052E+02  0.00000000000E+00 0. -1.
<mgrwt>
<rscale>  0 0.14214177E+03</rscale>
<asrwt>0</asrwt>
<pdfrwt beam="2">  1        2 0.82481404E-01 0.14953612E+03</pdfrwt>
<pdfrwt beam="1">  1       -2 0.60542562E-02 0.14953612E+03</pdfrwt>
<totfact> 0.80781093E+03</totfact>
</mgrwt>
</event>
<event>
 8    1  0.1224355E-005  0.1272125E+03  0.7546771E-02  0.1245648E+00
         -2   -1    0    0    0  501 -0.00000000000E+00  0.00000000000E+00  0.13270949145E+03  0.13270949145E+03  0.00000000000E+00 0.  1.
          2   -1    0    0  501    0  0.00000000000E+00 -0.00000000000E+00 -0.98389409461E+02  0.98389409461E+02  0.00000000000E+00 0. -1.
         23    2    1    2    0    0  0.22886902640E+01 -0.23578727171E+02 -0.10438615744E+02  0.96242096660E+02  0.92695102313E+02 0.  0.
         23    2    1    2    0    0 -0.22886902640E+01  0.23578727171E+02  0.44758697729E+02  0.13485680425E+03  0.12498728796E+03 0.  0.
          5    1    4    4  502    0  0.35633837502E+02  0.11045377870E+02  0.75428255081E+02  0.84280973012E+02  0.47000000000E+01 0. -1.
         -5    1    4    4    0  502 -0.37922527766E+02  0.12533349300E+02 -0.30669557351E+02  0.50575831233E+02  0.47000000000E+01 0. -1.
        -11    1    3    3    0    0  0.39470094940E+02 -0.15272931859E+02 -0.31455811038E+02  0.52731573940E+02  0.00000000000E+00 0. -1.
         11    1    3    3    0    0 -0.37181404676E+02 -0.83057953122E+01  0.21017195294E+02  0.43510522721E+02  0.00000000000E+00 0.  1.
<mgrwt>
<rscale>  0 0.11846666E+03</rscale>
<asrwt>0</asrwt>
<pdfrwt beam="2">  1        2 0.15136832E-01 0.12721249E+03</pdfrwt>
<pdfrwt beam="1">  1       -2 0.20416845E-01 0.12721249E+03</pdfrwt>
<totfact> 0.73547398E+03</totfact>
</mgrwt>
</event>
<event>
 8    1  0.1224355E-005  0.1275475E+03  0.7546771E-02  0.1245386E+00
          1   -1    0    0  501    0  0.00000000000E+00  0.00000000000E+00  0.37464402522E+02  0.37464402522E+02  0.00000000000E+00 0. -1.
         -1   -1    0    0    0  501 -0.00000000000E+00 -0.00000000000E+00 -0.33263385828E+03  0.33263385828E+03  0.00000000000E+00 0.  1.
         23    2    1    2    0    0 -0.24905071274E+02 -0.48882477843E+01 -0.13577034565E+03  0.16595018445E+03  0.91987604692E+02 0.  0.
         23    2    1    2    0    0  0.24905071274E+02  0.48882477843E+01 -0.15939911010E+03  0.20414807636E+03  0.12499681290E+03 0.  0.
          5    1    4    4  502    0 -0.33908959869E+02  0.19780009336E+02 -0.13129712988E+03  0.13712072288E+03  0.47000000000E+01 0. -1.
         -5    1    4    4    0  502  0.58814031143E+02 -0.14891761551E+02 -0.28101980226E+02  0.67027353476E+02  0.47000000000E+01 0. -1.
        -11    1    3    3    0    0 -0.85095470233E+01 -0.42625775476E+02 -0.10770296755E+03  0.11614343866E+03  0.00000000000E+00 0.  1.
         11    1    3    3    0    0 -0.16395524251E+02  0.37737527692E+02 -0.28067378103E+02  0.49806745781E+02  0.00000000000E+00 0. -1.
<mgrwt>
<rscale>  0 0.11862307E+03</rscale>
<asrwt>0</asrwt>
<pdfrwt beam="1">  1        1 0.57637543E-02 0.12754748E+03</pdfrwt>
<pdfrwt beam="2">  1       -1 0.51174439E-01 0.12754748E+03</pdfrwt>
<totfact> 0.51029610E+03</totfact>
</mgrwt>
</event>
<event>
 7    1  0.1224355E-005  0.2357802E+03  0.7546771E-02  0.1159421E+00
         -4   -1    0    0    0  501 -0.00000000000E+00  0.00000000000E+00  0.30624778442E+03  0.30624778442E+03  0.00000000000E+00 0.  1.
          4   -1    0    0  501    0  0.00000000000E+00 -0.00000000000E+00 -0.27289715164E+03  0.27289715164E+03  0.00000000000E+00 0. -1.
         23    2    1    2    0    0 -0.32981233607E+02  0.17122118627E+02  0.24419774758E+03  0.26284000931E+03  0.89840980939E+02 0.  0.
          5    1    1    2  502    0 -0.23639266039E+02 -0.59948676500E+02 -0.23299587341E+03  0.24178880400E+03  0.47000000000E+01 0. -1.
         -5    1    1    2    0  502  0.56620499645E+02  0.42826557873E+02  0.22148758615E+02  0.74516122735E+02  0.47000000000E+01 0.  1.
        -11    1    3    3    0    0 -0.54322089688E+02  0.43460698785E+01  0.22476179388E+03  0.23127395387E+03  0.00000000000E+00 0.  1.
         11    1    3    3    0    0  0.21340856081E+02  0.12776048749E+02  0.19435953701E+02  0.31566055442E+02  0.00000000000E+00 0. -1.
<mgrwt>
<rscale>  0 0.18893954E+03</rscale>
<asrwt>0</asrwt>
<pdfrwt beam="2">  1        4 0.41984177E-01 0.23578020E+03</pdfrwt>
<pdfrwt beam="1">  1       -4 0.47115044E-01 0.23578020E+03</pdfrwt>
<totfact> 0.43774800E+01</totfact>
</mgrwt>
</event>
<event>
 8    1  0.1224355E-005  0.1963383E+03  0.7546771E-02  0.1157412E+00
          1   -1    0    0  501    0  0.00000000000E+00  0.00000000000E+00  0.96102636394E+02  0.96102636394E+02  0.00000000000E+00 0. -1.
         -1   -1    0    0    0  501 -0.00000000000E+00 -0.00000000000E+00 -0.38065324757E+03  0.38065324757E+03  0.00000000000E+00 0.  1.
         23    2    1    2    0    0  0.14309088329E+03 -0.49477189678E+02 -0.18841511395E+03  0.25814489140E+03  0.90639597369E+02 0.  0.
         23    2    1    2    0    0 -0.14309088329E+03  0.49477189678E+02 -0.96135497226E+02  0.21861099257E+03  0.12500295623E+03 0.  0.
          5    1    4    4  502    0 -0.46550973784E+02 -0.87010598614E+01 -0.94476783051E+02  0.10578588818E+03  0.47000000000E+01 0. -1.
         -5    1    4    4    0  502 -0.96539909505E+02  0.58178249539E+02 -0.16587141754E+01  0.11282510439E+03  0.47000000000E+01 0. -1.
        -11    1    3    3    0    0  0.47305675844E+02 -0.13108624872E+02 -0.13276607113E+03  0.14155031846E+03  0.00000000000E+00 0.  1.
         11    1    3    3    0    0  0.95785207446E+02 -0.36368564807E+02 -0.55649042821E+02  0.11659457294E+03  0.00000000000E+00 0. -1.
<mgrwt>
<rscale>  0 0.19116838E+03</rscale>
<asrwt>0</asrwt>
<pdfrwt beam="1">  1        1 0.14785021E-01 0.19633831E+03</pdfrwt>
<pdfrwt beam="2">  1       -1 0.58562037E-01 0.19633831E+03</pdfrwt>
<totfact> 0.11491274E+03</totfact>
</mgrwt>
</event>
<event>
 8    1  0.1224355E-005  0.1620741E+03  0.7546771E-02  0.1193476E+00
          2   -1    0    0  501    0  0.00000000000E+00  0.00000000000E+00  0.85729935979E+03  0.85729935979E+03  0.00000000000E+00 0.  1.
         -2   -1    0    0    0  501 -0.00000000000E+00 -0.00000000000E+00 -0.26457906776E+02  0.26457906776E+02  0.00000000000E+00 0. -1.
         23    2    1    2    0    0  0.10238576017E+03  0.12624864961E+02  0.35517326116E+03  0.38123539547E+03  0.92467022320E+02 0.  0.
         23    2    1    2    0    0 -0.10238576017E+03 -0.12624864961E+02  0.47566819185E+03  0.50252187109E+03  0.12500308431E+03 0.  0.
          5    1    4    4  502    0 -0.34826830542E+01  0.11914446966E+02 -0.25747461746E+01  0.13520445467E+02  0.47000000000E+01 0.  1.
         -5    1    4    4    0  502 -0.98903077111E+02 -0.24539311926E+02  0.47824293803E+03  0.48900142562E+03  0.47000000000E+01 0.  1.
        -11    1    3    3    0    0  0.35867923629E+02 -0.28647897855E+02  0.22252667913E+03  0.22721208798E+03  0.00000000000E+00 0. -1.
         11    1    3    3    0    0  0.66517836536E+02  0.41272762816E+02  0.13264658203E+03  0.15402330750E+03  0.00000000000E+00 0.  1.
<mgrwt>
<rscale>  0 0.15583903E+03</rscale>
<asrwt>0</asrwt>
<pdfrwt beam="1">  1        2 0.13189219E+00 0.16207406E+03</pdfrwt>
<pdfrwt beam="2">  1       -2 0.40704479E-02 0.16207406E+03</pdfrwt>
<totfact> 0.84464820E+03</totfact>
</mgrwt>
</event>
<event>
 8    1  0.1224355E-005  0.1266475E+03  0.7546771E-02  0.1247302E+00
         -2   -1    0    0    0  501 -0.00000000000E+00  0.00000000000E+00  0.46523971366E+02  0.46523971366E+02  0.00000000000E+00 0.  1.
          2   -1    0    0  501    0  0.00000000000E+00 -0.00000000000E+00 -0.27090100127E+03  0.27090100127E+03  0.00000000000E+00 0. -1.
         23    2    1    2    0    0  0.65100558909E+01  0.19281843065E+02 -0.66239433431E+02  0.11482415787E+03  0.91557383044E+02 0.  0.
         23    2    1    2    0    0 -0.65100558909E+01 -0.19281843065E+02 -0.15813759647E+03  0.20260081476E+03  0.12500168169E+03 0.  0.
          5    1    4    4  502    0  0.69848971145E+01 -0.67614430764E+02 -0.54116292660E+02  0.87012431104E+02  0.47000000000E+01 0.  1.
         -5    1    4    4    0  502 -0.13494953005E+02  0.48332587699E+02 -0.10402130381E+03  0.11558838366E+03  0.47000000000E+01 0.  1.
        -11    1    3    3    0    0 -0.11989149804E+02 -0.19026011940E+02  0.12205172500E+02  0.25587009968E+02  0.00000000000E+00 0.  1.
         11    1    3    3    0    0  0.18499205694E+02  0.38307855005E+02 -0.78444605930E+02  0.89237147904E+02  0.00000000000E+00 0. -1.
<mgrwt>
<rscale>  0 0.11748674E+03</rscale>
<asrwt>0</asrwt>
<pdfrwt beam="2">  1        2 0.41677077E-01 0.12664751E+03</pdfrwt>
<pdfrwt beam="1">  1       -2 0.71575341E-02 0.12664751E+03</pdfrwt>
<totfact> 0.12864971E+04</totfact>
</mgrwt>
</event>
<event>
 8    1  0.1224355E-005  0.2109020E+03  0.7546771E-02  0.1144597E+00
         -2   -1    0    0    0  501 -0.00000000000E+00  0.00000000000E+00  0.41365599719E+03  0.41365599719E+03  0.00000000000E+00 0.  1.
          2   -1    0    0  501    0  0.00000000000E+00 -0.00000000000E+00 -0.13414752195E+03  0.13414752195E+03  0.00000000000E+00 0. -1.
         23    2    1    2    0    0 -0.12263621246E+02  0.16942518255E+03  0.27626370858E+03  0.33687656815E+03  0.91153149143E+02 0.  0.
         23    2    1    2    0    0  0.12263621246E+02 -0.16942518255E+03  0.32447666476E+01  0.21092695099E+03  0.12499744499E+03 0.  0.
          5    1    4    4  502    0  0.22962801161E+02 -0.18389932755E+03  0.19253707267E+02  0.18638414137E+03  0.47000000000E+01 0. -1.
         -5    1    4    4    0  502 -0.10699179915E+02  0.14474145000E+02 -0.16008940619E+02  0.24542809621E+02  0.47000000000E+01 0. -1.
        -11    1    3    3    0    0  0.23598967322E+02  0.61993516914E+02  0.16619430296E+03  0.17894315783E+03  0.00000000000E+00 0.  1.
         11    1    3    3    0    0 -0.35862588568E+02  0.10743166564E+03  0.11006940562E+03  0.15793341032E+03  0.00000000000E+00 0. -1.
<mgrwt>
<rscale>  0 0.20621777E+03</rscale>
<asrwt>0</asrwt>
<pdfrwt beam="2">  1        2 0.20638080E-01 0.21090199E+03</pdfrwt>
<pdfrwt beam="1">  1       -2 0.63639384E-01 0.21090199E+03</pdfrwt>
<totfact> 0.62479917E+02</totfact>
</mgrwt>
</event>
<event>
 8    1  0.1224355E-005  0.1279572E+03  0.7546771E-02  0.1245299E+00
          1   -1    0    0  501    0  0.00000000000E+00  0.00000000000E+00  0.90550530845E+02  0.90550530845E+02  0.00000000000E+00 0. -1.
         -1   -1    0    0    0  501 -0.00000000000E+00 -0.00000000000E+00 -0.14285023476E+03  0.14285023476E+03  0.00000000000E+00 0.  1.
         23    2    1    2    0    0  0.71252871838E+01  0.26392468452E+02 -0.46075633345E+02  0.10529225471E+03  0.90643051616E+02 0.  0.
         23    2    1    2    0    0 -0.71252871838E+01 -0.26392468452E+02 -0.62240705705E+01  0.12810851089E+03  0.12500287757E+03 0.  0.
          5    1    4    4  502    0  0.27722858080E+02  0.41600459881E+02 -0.11033891937E+02  0.51410036896E+02  0.47000000000E+01 0. -1.
         -5    1    4    4    0  502 -0.34848145263E+02 -0.67992928333E+02  0.48098213663E+01  0.76698473995E+02  0.47000000000E+01 0. -1.
        -11    1    3    3    0    0 -0.38030727078E+02  0.34869806650E+01 -0.38261496927E+02  0.54059572541E+02  0.00000000000E+00 0.  1.
         11    1    3    3    0    0  0.45156014261E+02  0.22905487787E+02 -0.78141364179E+01  0.51232682173E+02  0.00000000000E+00 0. -1.
<mgrwt>
<rscale>  0 0.11867474E+03</rscale>
<asrwt>0</asrwt>
<pdfrwt beam="1">  1        1 0.13930851E-01 0.12795723E+03</pdfrwt>
<pdfrwt beam="2">  1       -1 0.21976959E-01 0.12795723E+03</pdfrwt>
<totfact> 0.66973438E+03</totfact>
</mgrwt>
</event>
<event>
 8    1  0.1224355E-005  0.1305043E+03  0.7546771E-02  0.1233775E+00
          1   -1    0    0  501    0  0.00000000000E+00  0.00000000000E+00  0.92219218481E+02  0.92219218481E+02  0.00000000000E+00 0. -1.
         -1   -1    0    0    0  501 -0.00000000000E+00 -0.00000000000E+00 -0.27015926039E+03  0.27015926039E+03  0.00000000000E+00 0.  1.
         23    2    1    2    0    0 -0.56188620598E+02 -0.31245253027E+02 -0.20039333719E+03  0.22995675833E+03  0.92677905609E+02 0.  0.
         23    2    1    2    0    0  0.56188620598E+02  0.31245253027E+02  0.22453295286E+02  0.13242172054E+03  0.11356907449E+03 0.  0.
          5    1    4    4  502    0  0.27614616739E+02  0.49620805977E+02 -0.34009503021E+02  0.66359081814E+02  0.47000000000E+01 0. -1.
         -5    1    4    4    0  502  0.28574003859E+02 -0.18375552950E+02  0.56462798307E+02  0.66062638726E+02  0.47000000000E+01 0.  1.
        -11    1    3    3    0    0  0.22228827773E+02 -0.39147866140E+01 -0.15822429072E+02  0.27564390074E+02  0.00000000000E+00 0. -1.
         11    1    3    3    0    0 -0.78417448371E+02 -0.27330466413E+02 -0.18457090812E+03  0.20239236826E+03  0.00000000000E+00 0.  1.
<mgrwt>
<rscale>  0 0.12583185E+03</rscale>
<asrwt>0</asrwt>
<pdfrwt beam="1">  1        1 0.14187572E-01 0.13050426E+03</pdfrwt>
<pdfrwt beam="2">  1       -1 0.41562962E-01 0.13050426E+03</pdfrwt>
<totfact> 0.22410474E+03</totfact>
</mgrwt>
</event>
<event>
 8    1  0.1224355E-005  0.3117330E+03  0.7546771E-02  0.1081049E+00
         -2   -1    0    0    0  501 -0.00000000000E+00  0.00000000000E+00  0.59925560154E+02  0.59925560154E+02  0.00000000000E+00 0.  1.
          2   -1    0    0  501    0  0.00000000000E+00 -0.00000000000E+00 -0.15923266827E+04  0.15923266827E+04  0.00000000000E+00 0. -1.
         23    2    1    2    0    0 -0.80895457970E+02  0.27388788570E+03 -0.62742697390E+03  0.69509201901E+03  0.89048628622E+02 0.  0.
         23    2    1    2    0    0  0.80895457970E+02 -0.27388788570E+03 -0.90497414866E+03  0.95716022386E+03  0.12497533893E+03 0.  0.
          5    1    4    4  502    0  0.87521078677E+02 -0.10600480630E+03 -0.31522335694E+03  0.34392559215E+03  0.47000000000E+01 0. -1.
         -5    1    4    4    0  502 -0.66256207076E+01 -0.16788307940E+03 -0.58975079172E+03  0.61323463171E+03  0.47000000000E+01 0. -1.
        -11    1    3    3    0    0  0.16778063817E+02  0.83309631695E+02 -0.17526149022E+03  0.19477830504E+03  0.00000000000E+00 0.  1.
         11    1    3    3    0    0 -0.97673521787E+02  0.19057825401E+03 -0.45216548368E+03  0.50031371397E+03  0.00000000000E+00 0. -1.
<mgrwt>
<rscale>  0 0.30853746E+03</rscale>
<asrwt>0</asrwt>
<pdfrwt beam="2">  1        2 0.24497334E+00 0.31173303E+03</pdfrwt>
<pdfrwt beam="1">  1       -2 0.92193169E-02 0.31173303E+03</pdfrwt>
<totfact> 0.91834330E+02</totfact>
</mgrwt>
</event>
<event>
 8    1  0.1224355E-005  0.1578990E+03  0.7546771E-02  0.1195589E+00
          2   -1    0    0  501    0  0.00000000000E+00  0.00000000000E+00  0.10238107450E+04  0.10238107450E+04  0.00000000000E+00 0. -1.
         -2   -1    0    0    0  501 -0.00000000000E+00 -0.00000000000E+00 -0.23714313836E+02  0.23714313836E+02  0.00000000000E+00 0.  1.
         23    2    1    2    0    0 -0.57741138371E+02 -0.97339456711E+02  0.34112495182E+03  0.36990016023E+03  0.87469348311E+02 0.  0.
         23    2    1    2    0    0  0.57741138371E+02  0.97339456711E+02  0.65897147931E+03  0.67762489857E+03  0.11010487602E+03 0.  0.
          5    1    4    4  502    0 -0.17211534814E+02 -0.27605601441E+01  0.23176690922E+03  0.23246902553E+03  0.47000000000E+01 0. -1.
         -5    1    4    4    0  502  0.74952673185E+02  0.10010001686E+03  0.42720457010E+03  0.44515587304E+03  0.47000000000E+01 0.  1.
        -11    1    3    3    0    0 -0.77937011306E+02 -0.58450307331E+02  0.20657137665E+03  0.22839078311E+03  0.00000000000E+00 0. -1.
         11    1    3    3    0    0  0.20195872936E+02 -0.38889149380E+02  0.13455357517E+03  0.14150937712E+03  0.00000000000E+00 0.  1.
<mgrwt>
<rscale>  0 0.15404495E+03</rscale>
<asrwt>0</asrwt>
<pdfrwt beam="1">  1        2 0.15750931E+00 0.15789899E+03</pdfrwt>
<pdfrwt beam="2">  1       -2 0.36483568E-02 0.15789899E+03</pdfrwt>
<totfact> 0.78249743E+03</totfact>
</mgrwt>
</event>
<event>
 8    1  0.1224355E-005  0.2005075E+03  0.7546771E-02  0.1153562E+00
         -2   -1    0    0    0  501 -0.00000000000E+00  0.00000000000E+00  0.39136891574E+02  0.39136891574E+02  0.00000000000E+00 0.  1.
          2   -1    0    0  501    0  0.00000000000E+00 -0.00000000000E+00 -0.10931808515E+04  0.10931808515E+04  0.00000000000E+00 0. -1.
         23    2    1    2    0    0  0.10974814687E+03 -0.11194996406E+03 -0.28692690420E+03  0.33942946185E+03  0.91147468555E+02 0.  0.
         23    2    1    2    0    0 -0.10974814687E+03  0.11194996406E+03 -0.76711705577E+03  0.79288828127E+03  0.12500319647E+03 0.  0.
          5    1    4    4  502    0 -0.11734728886E+03  0.13074840008E+03 -0.62443696497E+03  0.64869803726E+03  0.47000000000E+01 0.  1.
         -5    1    4    4    0  502  0.75991419951E+01 -0.18798436022E+02 -0.14268009080E+03  0.14419024401E+03  0.47000000000E+01 0.  1.
        -11    1    3    3    0    0  0.43017923906E+01 -0.63548589795E+02 -0.12413856590E+03  0.13952531034E+03  0.00000000000E+00 0.  1.
         11    1    3    3    0    0  0.10544635448E+03 -0.48401374263E+02 -0.16278833830E+03  0.19990415151E+03  0.00000000000E+00 0. -1.
<mgrwt>
<rscale>  0 0.19553440E+03</rscale>
<asrwt>0</asrwt>
<pdfrwt beam="2">  1        2 0.16818167E+00 0.20050748E+03</pdfrwt>
<pdfrwt beam="1">  1       -2 0.60210604E-02 0.20050748E+03</pdfrwt>
<totfact> 0.33725307E+03</totfact>
</mgrwt>
</event>
<event>
 7    1  0.1224355E-005  0.1374011E+03  0.7546771E-02  0.1232655E+00
          2   -1    0    0  501    0  0.00000000000E+00  0.00000000000E+00  0.10546564767E+04  0.10546564767E+04  0.00000000000E+00 0. -1.
         -2   -1    0    0    0  501 -0.00000000000E+00 -0.00000000000E+00 -0.13243253666E+02  0.13243253666E+02  0.00000000000E+00 0.  1.
         23    2    1    2    0    0 -0.38413990166E+02 -0.91593382247E+01  0.42345086674E+03  0.43484639364E+03  0.90670951270E+02 0.  0.
          5    1    1    2  502    0  0.22241008895E+02 -0.57982972207E+02  0.20240766478E+03  0.21177261462E+03  0.47000000000E+01 0. -1.
         -5    1    1    2    0  502  0.16172981270E+02  0.67142310431E+02  0.41555469147E+03  0.42128072206E+03  0.47000000000E+01 0.  1.
        -11    1    3    3    0    0 -0.39640343068E+02 -0.46391439893E+02  0.28597288087E+03  0.29241068908E+03  0.00000000000E+00 0.  1.
         11    1    3    3    0    0  0.12263529020E+01  0.37232101668E+02  0.13747798587E+03  0.14243570457E+03  0.00000000000E+00 0. -1.
<mgrwt>
<rscale>  0 0.12655785E+03</rscale>
<asrwt>0</asrwt>
<pdfrwt beam="1">  1        2 0.16225478E+00 0.13740107E+03</pdfrwt>
<pdfrwt beam="2">  1       -2 0.20374245E-02 0.13740107E+03</pdfrwt>
<totfact> 0.17517886E+04</totfact>
</mgrwt>
</event>
<event>
 8    1  0.1224355E-005  0.1641941E+03  0.7546771E-02  0.1190980E+00
          1   -1    0    0  501    0  0.00000000000E+00  0.00000000000E+00  0.24761505860E+03  0.24761505860E+03  0.00000000000E+00 0. -1.
         -1   -1    0    0    0  501 -0.00000000000E+00 -0.00000000000E+00 -0.98330327885E+02  0.98330327885E+02  0.00000000000E+00 0.  1.
         23    2    1    2    0    0  0.93518912162E+02  0.50873006915E+02  0.32536741089E+02  0.14447628695E+03  0.92091846573E+02 0.  0.
         23    2    1    2    0    0 -0.93518912162E+02 -0.50873006915E+02  0.11674798963E+03  0.20146909954E+03  0.12500342084E+03 0.  0.
          5    1    4    4  502    0 -0.10019931156E+03 -0.62380204981E+02  0.13435945048E+03  0.17890149229E+03  0.47000000000E+01 0.  1.
         -5    1    4    4    0  502  0.66803993970E+01  0.11507198066E+02 -0.17611460854E+02  0.22567607247E+02  0.47000000000E+01 0.  1.
        -11    1    3    3    0    0  0.34945556619E+02  0.70590770371E+02  0.14455689047E+02  0.80082555746E+02  0.00000000000E+00 0.  1.
         11    1    3    3    0    0  0.58573355543E+02 -0.19717763456E+02  0.18081052042E+02  0.64393731202E+02  0.00000000000E+00 0. -1.
<mgrwt>
<rscale>  0 0.15799443E+03</rscale>
<asrwt>0</asrwt>
<pdfrwt beam="1">  1        1 0.38094624E-01 0.16419411E+03</pdfrwt>
<pdfrwt beam="2">  1       -1 0.15127743E-01 0.16419411E+03</pdfrwt>
<totfact> 0.34529540E+03</totfact>
</mgrwt>
</event>
<event>
 8    1  0.1224355E-005  0.1277535E+03  0.7546771E-02  0.1243841E+00
          2   -1    0    0  501    0  0.00000000000E+00  0.00000000000E+00  0.11041755130E+03  0.11041755130E+03  0.00000000000E+00 0. -1.
         -2   -1    0    0    0  501 -0.00000000000E+00 -0.00000000000E+00 -0.12649223368E+03  0.12649223368E+03  0.00000000000E+00 0.  1.
         23    2    1    2    0    0 -0.34014593837E+01  0.26155535266E+02 -0.41933608737E+02  0.10656545242E+03  0.94350867283E+02 0.  0.
         23    2    1    2    0    0  0.34014593837E+01 -0.26155535266E+02  0.25858926361E+02  0.13034433256E+03  0.12500111603E+03 0.  0.
          5    1    4    4  502    0  0.38066187663E+02 -0.56270612664E+02  0.43636277135E+02  0.80880350982E+02  0.47000000000E+01 0.  1.
         -5    1    4    4    0  502 -0.34664728279E+02  0.30115077398E+02 -0.17777350774E+02  0.49463981582E+02  0.47000000000E+01 0.  1.
        -11    1    3    3    0    0  0.12668944607E+02  0.51975718790E+02 -0.51925234503E+02  0.74553386773E+02  0.00000000000E+00 0.  1.
         11    1    3    3    0    0 -0.16070403990E+02 -0.25820183524E+02  0.99916257664E+01  0.32012065648E+02  0.00000000000E+00 0. -1.
<mgrwt>
<rscale>  0 0.11955037E+03</rscale>
<asrwt>0</asrwt>
<pdfrwt beam="1">  1        2 0.16987316E-01 0.12775352E+03</pdfrwt>
<pdfrwt beam="2">  1       -2 0.19460344E-01 0.12775352E+03</pdfrwt>
<totfact> 0.69797960E+03</totfact>
</mgrwt>
</event>
<event>
 8    1  0.1224355E-005  0.1666907E+03  0.7546771E-02  0.1187827E+00
         -4   -1    0    0    0  501 -0.00000000000E+00  0.00000000000E+00  0.33725956298E+03  0.33725956298E+03  0.00000000000E+00 0.  1.
          4   -1    0    0  501    0  0.00000000000E+00 -0.00000000000E+00 -0.72693253381E+02  0.72693253381E+02  0.00000000000E+00 0. -1.
         23    2    1    2    0    0  0.10494071759E+03 -0.33885217371E+02  0.98596218874E+02  0.17472554045E+03  0.92989450719E+02 0.  0.
         23    2    1    2    0    0 -0.10494071759E+03  0.33885217371E+02  0.16597009072E+03  0.23522727591E+03  0.12500015260E+03 0.  0.
          5    1    4    4  502    0 -0.10657584266E+03 -0.84093384633E+01  0.15961848427E+03  0.19216991891E+03  0.47000000000E+01 0. -1.
         -5    1    4    4    0  502  0.16351250709E+01  0.42294555834E+02  0.63516064551E+01  0.43057357000E+02  0.47000000000E+01 0. -1.
        -11    1    3    3    0    0 -0.16332098609E+02 -0.11140740903E+02  0.66902557509E+01  0.20871345785E+02  0.00000000000E+00 0.  1.
         11    1    3    3    0    0  0.12127281620E+03 -0.22744476468E+02  0.91905963123E+02  0.15385419467E+03  0.00000000000E+00 0. -1.
<mgrwt>
<rscale>  0 0.16077254E+03</rscale>
<asrwt>0</asrwt>
<pdfrwt beam="2">  1        4 0.11183578E-01 0.16669073E+03</pdfrwt>
<pdfrwt beam="1">  1       -4 0.51886086E-01 0.16669073E+03</pdfrwt>
<totfact> 0.38899439E+02</totfact>
</mgrwt>
</event>
<event>
 8    1  0.1224355E-005  0.1263251E+03  0.7546771E-02  0.1247145E+00
          2   -1    0    0  501    0  0.00000000000E+00  0.00000000000E+00  0.19727055453E+03  0.19727055453E+03  0.00000000000E+00 0.  1.
         -2   -1    0    0    0  501 -0.00000000000E+00 -0.00000000000E+00 -0.62285293999E+02  0.62285293999E+02  0.00000000000E+00 0. -1.
         23    2    1    2    0    0  0.35479615111E+01  0.17995232608E+02  0.48795107840E+02  0.10662852680E+03  0.93017545393E+02 0.  0.
         23    2    1    2    0    0 -0.35479615111E+01 -0.17995232608E+02  0.86190152688E+02  0.15292732173E+03  0.12498642679E+03 0.  0.
          5    1    4    4  502    0 -0.45223005881E+02  0.32487671866E+02  0.60739286334E+02  0.82534356413E+02  0.47000000000E+01 0. -1.
         -5    1    4    4    0  502  0.41675044369E+02 -0.50482904474E+02  0.25450866354E+02  0.70392965313E+02  0.47000000000E+01 0. -1.
        -11    1    3    3    0    0 -0.20985541982E+02  0.20956038048E+02 -0.18490084893E+02  0.34948987715E+02  0.00000000000E+00 0. -1.
         11    1    3    3    0    0  0.24533503494E+02 -0.29608054392E+01  0.67285192732E+02  0.71679539086E+02  0.00000000000E+00 0.  1.
<mgrwt>
<rscale>  0 0.11757883E+03</rscale>
<asrwt>0</asrwt>
<pdfrwt beam="1">  1        2 0.30349316E-01 0.12632507E+03</pdfrwt>
<pdfrwt beam="2">  1       -2 0.95823530E-02 0.12632507E+03</pdfrwt>
<totfact> 0.11497019E+04</totfact>
</mgrwt>
</event>
<event>
 8    1  0.1224355E-005  0.1569831E+03  0.7546771E-02  0.1200291E+00
         -1   -1    0    0    0  501 -0.00000000000E+00  0.00000000000E+00  0.62479469514E+02  0.62479469514E+02  0.00000000000E+00 0.  1.
          1   -1    0    0  501    0  0.00000000000E+00 -0.00000000000E+00 -0.34794678528E+03  0.34794678528E+03  0.00000000000E+00 0. -1.
         23    2    1    2    0    0  0.11524502405E+02  0.94273267174E+02 -0.87847934225E+02  0.15804340803E+03  0.90775526520E+02 0.  0.
         23    2    1    2    0    0 -0.11524502405E+02 -0.94273267174E+02 -0.19761938154E+03  0.25238284676E+03  0.12499367312E+03 0.  0.
          5    1    4    4  502    0 -0.45531729159E+02 -0.70617384943E+02 -0.19285936937E+03  0.21042048325E+03  0.47000000000E+01 0. -1.
         -5    1    4    4    0  502  0.34007226754E+02 -0.23655882231E+02 -0.47600121662E+01  0.41962363511E+02  0.47000000000E+01 0. -1.
        -11    1    3    3    0    0 -0.10415274980E+02  0.31167645543E+02 -0.85045798878E+02  0.91173943582E+02  0.00000000000E+00 0. -1.
         11    1    3    3    0    0  0.21939777385E+02  0.63105621631E+02 -0.28021353475E+01  0.66869464448E+02  0.00000000000E+00 0.  1.
<mgrwt>
<rscale>  0 0.15014855E+03</rscale>
<asrwt>0</asrwt>
<pdfrwt beam="2">  1        1 0.53530275E-01 0.15698306E+03</pdfrwt>
<pdfrwt beam="1">  1       -1 0.96122260E-02 0.15698306E+03</pdfrwt>
<totfact> 0.45571763E+03</totfact>
</mgrwt>
</event>
<event>
 8    1  0.1224355E-005  0.1532933E+03  0.7546771E-02  0.1204900E+00
          3   -1    0    0  501    0  0.00000000000E+00  0.00000000000E+00  0.20807348061E+03  0.20807348061E+03  0.00000000000E+00 0. -1.
         -3   -1    0    0    0  501 -0.00000000000E+00 -0.00000000000E+00 -0.21187188383E+03  0.21187188383E+03  0.00000000000E+00 0.  1.
         23    2    1    2    0    0  0.84247203220E+01 -0.88342195577E+02 -0.15756368485E+03  0.20282189794E+03  0.91842735512E+02 0.  0.
         23    2    1    2    0    0 -0.84247203220E+01  0.88342195577E+02  0.15376528164E+03  0.21712346650E+03  0.12499407361E+03 0.  0.
          5    1    4    4  502    0 -0.13759608020E+02  0.47926028293E+02  0.16672820911E+03  0.17408795683E+03  0.47000000000E+01 0.  1.
         -5    1    4    4    0  502  0.53348876977E+01  0.40416167284E+02 -0.12962927465E+02  0.43035509677E+02  0.47000000000E+01 0.  1.
        -11    1    3    3    0    0  0.47469222038E+02 -0.56991156848E+02 -0.70193235686E+02  0.10211958351E+03  0.00000000000E+00 0.  1.
         11    1    3    3    0    0 -0.39044501716E+02 -0.31351038729E+02 -0.87370449166E+02  0.10070231443E+03  0.00000000000E+00 0. -1.
<mgrwt>
<rscale>  0 0.14645375E+03</rscale>
<asrwt>0</asrwt>
<pdfrwt beam="1">  1        3 0.32011305E-01 0.15329331E+03</pdfrwt>
<pdfrwt beam="2">  1       -3 0.32595674E-01 0.15329331E+03</pdfrwt>
<totfact> 0.20717650E+02</totfact>
</mgrwt>
</event>
<event>
 8    1  0.1224355E-005  0.1598323E+03  0.7546771E-02  0.1194137E+00
         -2   -1    0    0    0  501 -0.00000000000E+00  0.00000000000E+00  0.10869041144E+03  0.10869041144E+03  0.00000000000E+00 0.  1.
          2   -1    0    0  501    0  0.00000000000E+00 -0.00000000000E+00 -0.21391689853E+03  0.21391689853E+03  0.00000000000E+00 0. -1.
         23    2    1    2    0    0 -0.68637820180E+02 -0.72121431950E+02 -0.27995091250E+02  0.14509381203E+03  0.10176363717E+03 0.  0.
         23    2    1    2    0    0  0.68637820180E+02  0.72121431950E+02 -0.77231395841E+02  0.17751349794E+03  0.12503480372E+03 0.  0.
          5    1    4    4  502    0  0.92481469654E+02  0.57558746666E+02 -0.94541547928E+02  0.14431225115E+03  0.47000000000E+01 0. -1.
         -5    1    4    4    0  502 -0.23843649474E+02  0.14562685284E+02  0.17310152087E+02  0.33201246787E+02  0.47000000000E+01 0. -1.
        -11    1    3    3    0    0 -0.79335519804E+02 -0.88262584304E+02 -0.10749881547E+02  0.11916362047E+03  0.00000000000E+00 0.  1.
         11    1    3    3    0    0  0.10697699625E+02  0.16141152354E+02 -0.17245209703E+02  0.25930191559E+02  0.00000000000E+00 0. -1.
<mgrwt>
<rscale>  0 0.15527481E+03</rscale>
<asrwt>0</asrwt>
<pdfrwt beam="2">  1        2 0.32910292E-01 0.15983227E+03</pdfrwt>
<pdfrwt beam="1">  1       -2 0.16721602E-01 0.15983227E+03</pdfrwt>
<totfact> 0.43716612E+03</totfact>
</mgrwt>
</event>
<event>
 8    1  0.1224355E-005  0.1890772E+03  0.7546771E-02  0.1163208E+00
         -2   -1    0    0    0  501 -0.00000000000E+00  0.00000000000E+00  0.92196024872E+02  0.92196024872E+02  0.00000000000E+00 0.  1.
          2   -1    0    0  501    0  0.00000000000E+00 -0.00000000000E+00 -0.41919851603E+03  0.41919851603E+03  0.00000000000E+00 0. -1.
         23    2    1    2    0    0 -0.14007311300E+03 -0.22496875620E+02 -0.57098042405E+02  0.18185152133E+03  0.98403267034E+02 0.  0.
         23    2    1    2    0    0  0.14007311300E+03  0.22496875620E+02 -0.26990444876E+03  0.32954301958E+03  0.12499441546E+03 0.  0.
          5    1    4    4  502    0 -0.15959748787E+02  0.49195736547E+01 -0.11333402021E+00  0.17349888498E+02  0.47000000000E+01 0. -1.
         -5    1    4    4    0  502  0.15603286179E+03  0.17577301966E+02 -0.26979111474E+03  0.31219313108E+03  0.47000000000E+01 0. -1.
        -11    1    3    3    0    0 -0.65573365150E+02 -0.56560325115E+02 -0.95170988900E+01  0.87117803952E+02  0.00000000000E+00 0.  1.
         11    1    3    3    0    0 -0.74499747855E+02  0.34063449494E+02 -0.47580943515E+02  0.94733717375E+02  0.00000000000E+00 0. -1.
<mgrwt>
<rscale>  0 0.18483076E+03</rscale>
<asrwt>0</asrwt>
<pdfrwt beam="2">  1        2 0.64492080E-01 0.18907721E+03</pdfrwt>
<pdfrwt beam="1">  1       -2 0.14184004E-01 0.18907721E+03</pdfrwt>
<totfact> 0.28059914E+03</totfact>
</mgrwt>
</event>
<event>
 8    1  0.1224355E-005  0.1386501E+03  0.7546771E-02  0.1226811E+00
          3   -1    0    0  501    0  0.00000000000E+00  0.00000000000E+00  0.32808619778E+03  0.32808619778E+03  0.00000000000E+00 0. -1.
         -3   -1    0    0    0  501 -0.00000000000E+00 -0.00000000000E+00 -0.50256980721E+02  0.50256980721E+02  0.00000000000E+00 0.  1.
         23    2    1    2    0    0  0.59172642082E+02  0.98517910337E+01  0.72458734590E+02  0.13055113652E+03  0.90525530487E+02 0.  0.
         23    2    1    2    0    0 -0.59172642082E+02 -0.98517910337E+01  0.20537048246E+03  0.24779204198E+03  0.12500160656E+03 0.  0.
          5    1    4    4  502    0 -0.93512745545E+02 -0.29364691644E+02  0.15732047380E+03  0.18541504839E+03  0.47000000000E+01 0.  1.
         -5    1    4    4    0  502  0.34340103463E+02  0.19512900610E+02  0.48050008668E+02  0.62376993588E+02  0.47000000000E+01 0.  1.
        -11    1    3    3    0    0 -0.20764173412E+02  0.11918179311E+02  0.34606833843E+02  0.42081193474E+02  0.00000000000E+00 0. -1.
         11    1    3    3    0    0  0.79936815494E+02 -0.20663882768E+01  0.37851900747E+02  0.88469943042E+02  0.00000000000E+00 0.  1.
<mgrwt>
<rscale>  0 0.13043520E+03</rscale>
<asrwt>0</asrwt>
<pdfrwt beam="1">  1        3 0.50474798E-01 0.13865014E+03</pdfrwt>
<pdfrwt beam="2">  1       -3 0.77318434E-02 0.13865014E+03</pdfrwt>
<totfact> 0.10236119E+03</totfact>
</mgrwt>
</event>
<event>
 8    1  0.1224355E-005  0.1447198E+03  0.7546771E-02  0.1217931E+00
          2   -1    0    0  501    0  0.00000000000E+00  0.00000000000E+00  0.44652674343E+03  0.44652674343E+03  0.00000000000E+00 0. -1.
         -2   -1    0    0    0  501 -0.00000000000E+00 -0.00000000000E+00 -0.40440457994E+02  0.40440457994E+02  0.00000000000E+00 0.  1.
         23    2    1    2    0    0 -0.72838832936E+02  0.36618585489E+01  0.11906709681E+03  0.16552697024E+03  0.88900503607E+02 0.  0.
         23    2    1    2    0    0  0.72838832936E+02 -0.36618585489E+01  0.28701918863E+03  0.32144023119E+03  0.12499961118E+03 0.  0.
          5    1    4    4  502    0 -0.13239091374E-01  0.25981206955E+02  0.20863598427E+03  0.21029999340E+03  0.47000000000E+01 0. -1.
         -5    1    4    4    0  502  0.72852072028E+02 -0.29643065503E+02  0.78383204357E+02  0.11114023779E+03  0.47000000000E+01 0. -1.
        -11    1    3    3    0    0 -0.94515827096E+01  0.28441348930E+02  0.83540444188E+02  0.88753865041E+02  0.00000000000E+00 0. -1.
         11    1    3    3    0    0 -0.63387250227E+02 -0.24779490381E+02  0.35526652622E+02  0.76773105196E+02  0.00000000000E+00 0.  1.
<mgrwt>
<rscale>  0 0.13663402E+03</rscale>
<asrwt>0</asrwt>
<pdfrwt beam="1">  1        2 0.68696419E-01 0.14471976E+03</pdfrwt>
<pdfrwt beam="2">  1       -2 0.62216092E-02 0.14471976E+03</pdfrwt>
<totfact> 0.94538917E+03</totfact>
</mgrwt>
</event>
<event>
 8    1  0.1224355E-005  0.1257202E+03  0.7546771E-02  0.1250996E+00
          1   -1    0    0  501    0  0.00000000000E+00  0.00000000000E+00  0.12118351155E+03  0.12118351155E+03  0.00000000000E+00 0. -1.
         -1   -1    0    0    0  501 -0.00000000000E+00 -0.00000000000E+00 -0.12094935210E+03  0.12094935210E+03  0.00000000000E+00 0.  1.
         23    2    1    2    0    0 -0.10378854707E+02 -0.85214229150E+01 -0.55159089625E+02  0.10475026067E+03  0.88032702270E+02 0.  0.
         23    2    1    2    0    0  0.10378854707E+02  0.85214229150E+01  0.55393249073E+02  0.13738260298E+03  0.12500092914E+03 0.  0.
          5    1    4    4  502    0 -0.14796935625E+02 -0.34334845831E+02  0.74849686516E+02  0.83799740535E+02  0.47000000000E+01 0. -1.
         -5    1    4    4    0  502  0.25175790332E+02  0.42856268746E+02 -0.19456437443E+02  0.53582862443E+02  0.47000000000E+01 0. -1.
        -11    1    3    3    0    0 -0.37681907189E+02  0.14791923769E+01 -0.64064980101E+02  0.74340001445E+02  0.00000000000E+00 0.  1.
         11    1    3    3    0    0  0.27303052483E+02 -0.10000615292E+02  0.89058904756E+01  0.30410259227E+02  0.00000000000E+00 0. -1.
<mgrwt>
<rscale>  0 0.11533565E+03</rscale>
<asrwt>0</asrwt>
<pdfrwt beam="1">  1        1 0.18643617E-01 0.12572020E+03</pdfrwt>
<pdfrwt beam="2">  1       -1 0.18607593E-01 0.12572020E+03</pdfrwt>
<totfact> 0.60058464E+03</totfact>
</mgrwt>
</event>
<event>
 8    1  0.1224355E-005  0.2392166E+03  0.7546771E-02  0.1123304E+00
         -2   -1    0    0    0  501 -0.00000000000E+00  0.00000000000E+00  0.46740630901E+02  0.46740630901E+02  0.00000000000E+00 0.  1.
          2   -1    0    0  501    0  0.00000000000E+00 -0.00000000000E+00 -0.18608754781E+04  0.18608754781E+04  0.00000000000E+00 0. -1.
         23    2    1    2    0    0 -0.15317513743E+03  0.13468777627E+03 -0.29219854777E+03  0.36699458732E+03  0.87758851404E+02 0.  0.
         23    2    1    2    0    0  0.15317513743E+03 -0.13468777627E+03 -0.15219362994E+04  0.15406215217E+04  0.12498461405E+03 0.  0.
          5    1    4    4  502    0  0.67481573848E+02 -0.63904107249E+02 -0.31200464840E+03  0.32558637618E+03  0.47000000000E+01 0. -1.
         -5    1    4    4    0  502  0.85693563579E+02 -0.70783669019E+02 -0.12099316510E+04  0.12150351455E+04  0.47000000000E+01 0. -1.
        -11    1    3    3    0    0 -0.78655613233E+02  0.33060521830E+02 -0.65276064367E+02  0.10742750195E+03  0.00000000000E+00 0. -1.
         11    1    3    3    0    0 -0.74519524194E+02  0.10162725444E+03 -0.22692248340E+03  0.25956708536E+03  0.00000000000E+00 0.  1.
<mgrwt>
<rscale>  0 0.23480367E+03</rscale>
<asrwt>0</asrwt>
<pdfrwt beam="2">  1        2 0.28628849E+00 0.23921658E+03</pdfrwt>
<pdfrwt beam="1">  1       -2 0.71908674E-02 0.23921658E+03</pdfrwt>
<totfact> 0.98673101E+02</totfact>
</mgrwt>
</event>
<event>
 8    1  0.1224355E-005  0.1617083E+03  0.7546771E-02  0.1196295E+00
          1   -1    0    0  501    0  0.00000000000E+00  0.00000000000E+00  0.31390020951E+02  0.31390020951E+02  0.00000000000E+00 0.  1.
         -1   -1    0    0    0  501 -0.00000000000E+00 -0.00000000000E+00 -0.81186225762E+03  0.81186225762E+03  0.00000000000E+00 0. -1.
         23    2    1    2    0    0 -0.63000442085E+02  0.80977552921E+02 -0.52318783194E+03  0.53936935017E+03  0.81653956631E+02 0.  0.
         23    2    1    2    0    0  0.63000442085E+02 -0.80977552921E+02 -0.25728440473E+03  0.30388292841E+03  0.12499259769E+03 0.  0.
          5    1    4    4  502    0 -0.72256071577E+01  0.26995357991E+02 -0.23045799596E+02  0.36526122582E+02  0.47000000000E+01 0. -1.
         -5    1    4    4    0  502  0.70226049243E+02 -0.10797291091E+03 -0.23423860514E+03  0.26735680582E+03  0.47000000000E+01 0. -1.
        -11    1    3    3    0    0 -0.11527850434E+02  0.78646930011E+02 -0.30642009609E+03  0.31656201008E+03  0.00000000000E+00 0.  1.
         11    1    3    3    0    0 -0.51472591651E+02  0.23306229101E+01 -0.21676773584E+03  0.22280734009E+03  0.00000000000E+00 0. -1.
<mgrwt>
<rscale>  0 0.15345133E+03</rscale>
<asrwt>0</asrwt>
<pdfrwt beam="1">  1        1 0.48292345E-02 0.16170828E+03</pdfrwt>
<pdfrwt beam="2">  1       -1 0.12490187E+00 0.16170828E+03</pdfrwt>
<totfact> 0.10358937E+03</totfact>
</mgrwt>
</event>
<event>
 8    1  0.1224355E-005  0.1982034E+03  0.7546771E-02  0.1155355E+00
         -1   -1    0    0    0  501 -0.00000000000E+00  0.00000000000E+00  0.18056425419E+03  0.18056425419E+03  0.00000000000E+00 0.  1.
          1   -1    0    0  501    0  0.00000000000E+00 -0.00000000000E+00 -0.22587855225E+03  0.22587855225E+03  0.00000000000E+00 0. -1.
         23    2    1    2    0    0 -0.14770130076E+03  0.42943715027E+02  0.49577219927E+02  0.18669529471E+03  0.93474036097E+02 0.  0.
         23    2    1    2    0    0  0.14770130076E+03 -0.42943715027E+02 -0.94891517986E+02  0.21974751174E+03  0.12499892728E+03 0.  0.
          5    1    4    4  502    0  0.67207504819E+02  0.29967211695E+01 -0.10667309969E+03  0.12620249300E+03  0.47000000000E+01 0. -1.
         -5    1    4    4    0  502  0.80493795945E+02 -0.45940436196E+02  0.11781581702E+02  0.93545018739E+02  0.47000000000E+01 0. -1.
        -11    1    3    3    0    0 -0.10268286624E+03  0.34245107082E+01 -0.87170813298E+01  0.10310909660E+03  0.00000000000E+00 0. -1.
         11    1    3    3    0    0 -0.45018434519E+02  0.39519204319E+02  0.58294301257E+02  0.83586198116E+02  0.00000000000E+00 0.  1.
<mgrwt>
<rscale>  0 0.19348475E+03</rscale>
<asrwt>0</asrwt>
<pdfrwt beam="2">  1        1 0.34750546E-01 0.19820335E+03</pdfrwt>
<pdfrwt beam="1">  1       -1 0.27779116E-01 0.19820335E+03</pdfrwt>
<totfact> 0.14535208E+03</totfact>
</mgrwt>
</event>
<event>
 8    1  0.1224355E-005  0.2541240E+03  0.7546771E-02  0.1113106E+00
         -2   -1    0    0    0  501 -0.00000000000E+00  0.00000000000E+00  0.31943477264E+02  0.31943477264E+02  0.00000000000E+00 0.  1.
          2   -1    0    0  501    0  0.00000000000E+00 -0.00000000000E+00 -0.22649353393E+04  0.22649353393E+04  0.00000000000E+00 0. -1.
         23    2    1    2    0    0  0.16645491135E+03 -0.14575777126E+03 -0.63043305223E+03  0.67429637762E+03  0.90979152168E+02 0.  0.
         23    2    1    2    0    0 -0.16645491135E+03  0.14575777126E+03 -0.16025588098E+04  0.16225824389E+04  0.12500586744E+03 0.  0.
          5    1    4    4  502    0 -0.14246008758E+02  0.81051800943E+02 -0.37706487609E+03  0.38596936923E+03  0.47000000000E+01 0.  1.
         -5    1    4    4    0  502 -0.15220890259E+03  0.64705970320E+02 -0.12254939337E+04  0.12366130697E+04  0.47000000000E+01 0.  1.
        -11    1    3    3    0    0  0.16231947080E+03 -0.94977912411E+02 -0.50742393045E+03  0.54115382253E+03  0.00000000000E+00 0.  1.
         11    1    3    3    0    0  0.41354405417E+01 -0.50779858852E+02 -0.12300912178E+03  0.13314255509E+03  0.00000000000E+00 0. -1.
<mgrwt>
<rscale>  0 0.25031512E+03</rscale>
<asrwt>0</asrwt>
<pdfrwt beam="2">  1        2 0.34845166E+00 0.25412405E+03</pdfrwt>
<pdfrwt beam="1">  1       -2 0.49143801E-02 0.25412405E+03</pdfrwt>
<totfact> 0.10831884E+03</totfact>
</mgrwt>
</event>
<event>
 8    1  0.1224355E-005  0.1538696E+03  0.7546771E-02  0.1204839E+00
         -3   -1    0    0    0  501 -0.00000000000E+00  0.00000000000E+00  0.22334426962E+02  0.22334426962E+02  0.00000000000E+00 0.  1.
          3   -1    0    0  501    0  0.00000000000E+00 -0.00000000000E+00 -0.99434029659E+03  0.99434029659E+03  0.00000000000E+00 0. -1.
         23    2    1    2    0    0  0.84414464409E+02  0.30357100665E+02 -0.27197251767E+03  0.29993030733E+03  0.89116684895E+02 0.  0.
         23    2    1    2    0    0 -0.84414464409E+02 -0.30357100665E+02 -0.70003335197E+03  0.71674441623E+03  0.12501403507E+03 0.  0.
          5    1    4    4  502    0  0.25774747934E+01 -0.41785497156E+02 -0.44519668395E+03  0.44718547444E+03  0.47000000000E+01 0.  1.
         -5    1    4    4    0  502 -0.86991939202E+02  0.11428396491E+02 -0.25483666801E+03  0.26955894179E+03  0.47000000000E+01 0.  1.
        -11    1    3    3    0    0  0.54424690663E+02 -0.27702328340E+02 -0.12804647345E+03  0.14186389714E+03  0.00000000000E+00 0.  1.
         11    1    3    3    0    0  0.29989773745E+02  0.58059429006E+02 -0.14392604422E+03  0.15806641019E+03  0.00000000000E+00 0. -1.
<mgrwt>
<rscale>  0 0.14650175E+03</rscale>
<asrwt>0</asrwt>
<pdfrwt beam="2">  1        3 0.15297548E+00 0.15386963E+03</pdfrwt>
<pdfrwt beam="1">  1       -3 0.34360647E-02 0.15386963E+03</pdfrwt>
<totfact> 0.31995522E+02</totfact>
</mgrwt>
</event>
<event>
 8    1  0.1224355E-005  0.1372996E+03  0.7546771E-02  0.1228816E+00
          4   -1    0    0  501    0  0.00000000000E+00  0.00000000000E+00  0.12772307811E+03  0.12772307811E+03  0.00000000000E+00 0. -1.
         -4   -1    0    0    0  501 -0.00000000000E+00 -0.00000000000E+00 -0.13119573349E+03  0.13119573349E+03  0.00000000000E+00 0.  1.
         23    2    1    2    0    0 -0.40848989803E+01 -0.56672953647E+02 -0.43707677106E+02  0.11584531684E+03  0.91001463285E+02 0.  0.
         23    2    1    2    0    0  0.40848989803E+01  0.56672953647E+02  0.40235021717E+02  0.14307349476E+03  0.12499063108E+03 0.  0.
          5    1    4    4  502    0 -0.16503430857E+02  0.42758756147E+02 -0.38709989011E+02  0.60176637547E+02  0.47000000000E+01 0. -1.
         -5    1    4    4    0  502  0.20588329838E+02  0.13914197501E+02  0.78945010728E+02  0.82896857217E+02  0.47000000000E+01 0. -1.
        -11    1    3    3    0    0  0.87474562010E+01 -0.15781795234E+02 -0.65376896252E+02  0.67821247514E+02  0.00000000000E+00 0.  1.
         11    1    3    3    0    0 -0.12832355181E+02 -0.40891158413E+02  0.21669219146E+02  0.48024069322E+02  0.00000000000E+00 0. -1.
<mgrwt>
<rscale>  0 0.12908780E+03</rscale>
<asrwt>0</asrwt>
<pdfrwt beam="1">  1        4 0.19649704E-01 0.13729956E+03</pdfrwt>
<pdfrwt beam="2">  1       -4 0.20183959E-01 0.13729956E+03</pdfrwt>
<totfact> 0.85626403E+02</totfact>
</mgrwt>
</event>
<event>
 8    1  0.1224355E-005  0.1512174E+03  0.7546771E-02  0.1209986E+00
          1   -1    0    0  501    0  0.00000000000E+00  0.00000000000E+00  0.16988947393E+03  0.16988947393E+03  0.00000000000E+00 0. -1.
         -1   -1    0    0    0  501 -0.00000000000E+00 -0.00000000000E+00 -0.14144990507E+03  0.14144990507E+03  0.00000000000E+00 0.  1.
         23    2    1    2    0    0 -0.16840577850E+02 -0.83423377008E+02 -0.62711224561E+02  0.13477446542E+03  0.83596614455E+02 0.  0.
         23    2    1    2    0    0  0.16840577850E+02  0.83423377008E+02  0.91150793416E+02  0.17656491358E+03  0.12499454658E+03 0.  0.
          5    1    4    4  502    0  0.29004813471E+02 -0.26544014815E+02  0.15857338216E+02  0.42654532025E+02  0.47000000000E+01 0.  1.
         -5    1    4    4    0  502 -0.12164235621E+02  0.10996739182E+03  0.75293455200E+02  0.13391038156E+03  0.47000000000E+01 0.  1.
        -11    1    3    3    0    0  0.16933662890E+02  0.24300679184E+01 -0.34152501336E+02  0.38197480499E+02  0.00000000000E+00 0.  1.
         11    1    3    3    0    0 -0.33774240740E+02 -0.85853444927E+02 -0.28558723225E+02  0.96576984917E+02  0.00000000000E+00 0. -1.
<mgrwt>
<rscale>  0 0.14251399E+03</rscale>
<asrwt>0</asrwt>
<pdfrwt beam="1">  1        1 0.26136842E-01 0.15121740E+03</pdfrwt>
<pdfrwt beam="2">  1       -1 0.21761524E-01 0.15121740E+03</pdfrwt>
<totfact> 0.30788655E+03</totfact>
</mgrwt>
</event>
<event>
 8    1  0.1224355E-005  0.1409468E+03  0.7546771E-02  0.1223037E+00
          2   -1    0    0  501    0  0.00000000000E+00  0.00000000000E+00  0.13438423702E+04  0.13438423702E+04  0.00000000000E+00 0. -1.
         -2   -1    0    0    0  501 -0.00000000000E+00 -0.00000000000E+00 -0.17912515212E+02  0.17912515212E+02  0.00000000000E+00 0.  1.
         23    2    1    2    0    0  0.57418620638E+02 -0.30731029975E+02  0.21911055637E+03  0.24599731906E+03  0.90906275222E+02 0.  0.
         23    2    1    2    0    0 -0.57418620638E+02  0.30731029975E+02  0.11068192986E+04  0.11157575664E+04  0.12499877147E+03 0.  0.
          5    1    4    4  502    0 -0.60518299718E+02  0.73828195452E+02  0.84020714224E+03  0.84562592138E+03  0.47000000000E+01 0. -1.
         -5    1    4    4    0  502  0.30996790795E+01 -0.43097165477E+02  0.26661215639E+03  0.27013164497E+03  0.47000000000E+01 0. -1.
        -11    1    3    3    0    0  0.68174221815E+01 -0.46007642077E+02  0.47698542287E+02  0.66620802390E+02  0.00000000000E+00 0.  1.
         11    1    3    3    0    0  0.50601198457E+02  0.15276612102E+02  0.17141201408E+03  0.17937651667E+03  0.00000000000E+00 0. -1.
<mgrwt>
<rscale>  0 0.13302333E+03</rscale>
<asrwt>0</asrwt>
<pdfrwt beam="1">  1        2 0.20674490E+00 0.14094675E+03</pdfrwt>
<pdfrwt beam="2">  1       -2 0.27557726E-02 0.14094675E+03</pdfrwt>
<totfact> 0.77962345E+03</totfact>
</mgrwt>
</event>
<event>
 8    1  0.1224355E-005  0.1476340E+03  0.7546771E-02  0.1212883E+00
          2   -1    0    0  501    0  0.00000000000E+00  0.00000000000E+00  0.31064564956E+03  0.31064564956E+03  0.00000000000E+00 0. -1.
         -2   -1    0    0    0  501 -0.00000000000E+00 -0.00000000000E+00 -0.63606231188E+02  0.63606231188E+02  0.00000000000E+00 0.  1.
         23    2    1    2    0    0 -0.41490696412E+02  0.66735339104E+02  0.56219413663E+02  0.13298836020E+03  0.91379418375E+02 0.  0.
         23    2    1    2    0    0  0.41490696412E+02 -0.66735339104E+02  0.19082000471E+03  0.24126352055E+03  0.12498291393E+03 0.  0.
          5    1    4    4  502    0  0.52879339362E+01 -0.77126601401E+02  0.18785095536E+03  0.20319091101E+03  0.47000000000E+01 0. -1.
         -5    1    4    4    0  502  0.36202762476E+02  0.10391262296E+02  0.29690493567E+01  0.38072609539E+02  0.47000000000E+01 0. -1.
        -11    1    3    3    0    0 -0.34415755659E+02  0.11646559416E+02 -0.17791238545E+02  0.40455095510E+02  0.00000000000E+00 0.  1.
         11    1    3    3    0    0 -0.70749407538E+01  0.55088779688E+02  0.74010652208E+02  0.92533264692E+02  0.00000000000E+00 0. -1.
<mgrwt>
<rscale>  0 0.14033160E+03</rscale>
<asrwt>0</asrwt>
<pdfrwt beam="1">  1        2 0.47791637E-01 0.14763405E+03</pdfrwt>
<pdfrwt beam="2">  1       -2 0.97855742E-02 0.14763405E+03</pdfrwt>
<totfact> 0.69299838E+03</totfact>
</mgrwt>
</event>
<event>
 8    1  0.1589099E-005  0.1372192E+03  0.7546771E-02  0.1229455E+00
          2   -1    0    0  501    0  0.00000000000E+00  0.00000000000E+00  0.27149923440E+03  0.27149923440E+03  0.00000000000E+00 0. -1.
         -2   -1    0    0    0  501 -0.00000000000E+00 -0.00000000000E+00 -0.65611479290E+02  0.65611479290E+02  0.00000000000E+00 0.  1.
         23    2    1    2    0    0  0.46009622787E+02 -0.32975747376E+02  0.23098326795E+02  0.10854763911E+03  0.89692652716E+02 0.  0.
         23    2    1    2    0    0 -0.46009622787E+02  0.32975747376E+02  0.18278942832E+03  0.22856307459E+03  0.12499927462E+03 0.  0.
          5    1    4    4  502    0  0.12729242533E+02  0.34663808186E+02  0.76738247348E+00  0.37232943602E+02  0.47000000000E+01 0. -1.
         -5    1    4    4    0  502 -0.58738865320E+02 -0.16880608097E+01  0.18202204584E+03  0.19133013098E+03  0.47000000000E+01 0. -1.
        -11    1    3    3    0    0  0.34137790503E+02 -0.52131167353E+01 -0.31121151414E+02  0.46487540179E+02  0.00000000000E+00 0.  1.
         11    1    3    3    0    0  0.11871832284E+02 -0.27762630641E+02  0.54219478209E+02  0.62060098929E+02  0.00000000000E+00 0. -1.
<mgrwt>
<rscale>  0 0.12866210E+03</rscale>
<asrwt>0</asrwt>
<pdfrwt beam="1">  1        2 0.41769112E-01 0.13721918E+03</pdfrwt>
<pdfrwt beam="2">  1       -2 0.10094074E-01 0.13721918E+03</pdfrwt>
<totfact> 0.75779283E+03</totfact>
</mgrwt>
</event>
<event>
 8    1  0.1224355E-005  0.1474722E+03  0.7546771E-02  0.1213068E+00
          2   -1    0    0  501    0  0.00000000000E+00  0.00000000000E+00  0.24101564110E+03  0.24101564110E+03  0.00000000000E+00 0. -1.
         -2   -1    0    0    0  501 -0.00000000000E+00 -0.00000000000E+00 -0.80270445330E+02  0.80270445330E+02  0.00000000000E+00 0.  1.
         23    2    1    2    0    0  0.77356945962E+02 -0.11775187327E+02  0.29821645180E+02  0.12408308533E+03  0.91567076063E+02 0.  0.
         23    2    1    2    0    0 -0.77356945962E+02  0.11775187327E+02  0.13092355059E+03  0.19720300110E+03  0.12500118167E+03 0.  0.
          5    1    4    4  502    0 -0.27628344837E+02  0.53809023537E+02  0.12450906344E+02  0.61934251600E+02  0.47000000000E+01 0.  1.
         -5    1    4    4    0  502 -0.49728601125E+02 -0.42033836210E+02  0.11847264424E+03  0.13526874950E+03  0.47000000000E+01 0.  1.
        -11    1    3    3    0    0 -0.20576154707E+02 -0.83945794728E+01  0.85414008155E+01  0.23807617162E+02  0.00000000000E+00 0. -1.
         11    1    3    3    0    0  0.97933100669E+02 -0.33806078537E+01  0.21280244364E+02  0.10027546817E+03  0.00000000000E+00 0.  1.
<mgrwt>
<rscale>  0 0.14019446E+03</rscale>
<asrwt>0</asrwt>
<pdfrwt beam="1">  1        2 0.37079329E-01 0.14747219E+03</pdfrwt>
<pdfrwt beam="2">  1       -2 0.12349299E-01 0.14747219E+03</pdfrwt>
<totfact> 0.62751621E+03</totfact>
</mgrwt>
</event>
<event>
 8    1  0.1224355E-005  0.1357767E+03  0.7546771E-02  0.1231525E+00
         -1   -1    0    0    0  501 -0.00000000000E+00  0.00000000000E+00  0.25629132683E+03  0.25629132683E+03  0.00000000000E+00 0.  1.
          1   -1    0    0  501    0  0.00000000000E+00 -0.00000000000E+00 -0.56551023128E+02  0.56551023128E+02  0.00000000000E+00 0. -1.
         23    2    1    2    0    0 -0.52542163266E+02  0.70670200253E+01  0.82538131777E+02  0.13347775323E+03  0.90515997027E+02 0.  0.
         23    2    1    2    0    0  0.52542163266E+02 -0.70670200253E+01  0.11720217193E+03  0.17936459673E+03  0.12499875104E+03 0.  0.
          5    1    4    4  502    0 -0.38926285139E+02 -0.18700304651E+02  0.38596161903E+02  0.58109472398E+02  0.47000000000E+01 0. -1.
         -5    1    4    4    0  502  0.91468448405E+02  0.11633284625E+02  0.78606010027E+02  0.12125512433E+03  0.47000000000E+01 0. -1.
        -11    1    3    3    0    0 -0.10526946095E+02  0.44630718651E+02  0.52169539162E+02  0.69457745845E+02  0.00000000000E+00 0.  1.
         11    1    3    3    0    0 -0.42015217171E+02 -0.37563698626E+02  0.30368592615E+02  0.64020007387E+02  0.00000000000E+00 0. -1.
<mgrwt>
<rscale>  0 0.12729507E+03</rscale>
<asrwt>0</asrwt>
<pdfrwt beam="2">  1        1 0.87001575E-02 0.13577669E+03</pdfrwt>
<pdfrwt beam="1">  1       -1 0.39429434E-01 0.13577669E+03</pdfrwt>
<totfact> 0.46910444E+03</totfact>
</mgrwt>
</event>
<event>
 8    1  0.1224355E-005  0.1304071E+03  0.7546771E-02  0.1241614E+00
          1   -1    0    0  501    0  0.00000000000E+00  0.00000000000E+00  0.38363511924E+02  0.38363511924E+02  0.00000000000E+00 0. -1.
         -1   -1    0    0    0  501 -0.00000000000E+00 -0.00000000000E+00 -0.33729121667E+03  0.33729121667E+03  0.00000000000E+00 0.  1.
         23    2    1    2    0    0  0.37074723977E+02  0.28330844278E+01 -0.14222050160E+03  0.17178429395E+03  0.88885381524E+02 0.  0.
         23    2    1    2    0    0 -0.37074723977E+02 -0.28330844278E+01 -0.15670720315E+03  0.20387043464E+03  0.12499378015E+03 0.  0.
          5    1    4    4  502    0 -0.31540226936E+02  0.48168952770E+02 -0.25945902188E+02  0.63327038194E+02  0.47000000000E+01 0.  1.
         -5    1    4    4    0  502 -0.55344970411E+01 -0.51002037198E+02 -0.13076130096E+03  0.14054339644E+03  0.47000000000E+01 0.  1.
        -11    1    3    3    0    0 -0.11101401763E+02 -0.24924649141E+02 -0.11274130322E+02  0.29522623028E+02  0.00000000000E+00 0. -1.
         11    1    3    3    0    0  0.48176125740E+02  0.27757733569E+02 -0.13094637127E+03  0.14226167092E+03  0.00000000000E+00 0.  1.
<mgrwt>
<rscale>  0 0.12090324E+03</rscale>
<asrwt>0</asrwt>
<pdfrwt beam="1">  1        1 0.59020784E-02 0.13040708E+03</pdfrwt>
<pdfrwt beam="2">  1       -1 0.51890959E-01 0.13040708E+03</pdfrwt>
<totfact> 0.48244688E+03</totfact>
</mgrwt>
</event>
<event>
 8    1  0.1224355E-005  0.1305474E+03  0.7546771E-02  0.1240393E+00
          1   -1    0    0  501    0  0.00000000000E+00  0.00000000000E+00  0.55706466685E+03  0.55706466685E+03  0.00000000000E+00 0. -1.
         -1   -1    0    0    0  501 -0.00000000000E+00 -0.00000000000E+00 -0.26199208080E+02  0.26199208080E+02  0.00000000000E+00 0.  1.
         23    2    1    2    0    0 -0.30946332877E+02 -0.21464375712E+02  0.13981137775E+03  0.17099463903E+03  0.90959058305E+02 0.  0.
         23    2    1    2    0    0  0.30946332877E+02  0.21464375712E+02  0.39105408103E+03  0.41226923590E+03  0.12499693451E+03 0.  0.
          5    1    4    4  502    0  0.36663408277E+01 -0.45426264981E+02  0.24513393281E+03  0.24937867314E+03  0.47000000000E+01 0. -1.
         -5    1    4    4    0  502  0.27279992049E+02  0.66890640693E+02  0.14592014822E+03  0.16289056276E+03  0.47000000000E+01 0. -1.
        -11    1    3    3    0    0 -0.32558211434E+02  0.22613734047E+02  0.11210425789E+03  0.11890661351E+03  0.00000000000E+00 0. -1.
         11    1    3    3    0    0  0.16118785573E+01 -0.44078109759E+02  0.27707119860E+02  0.52088025527E+02  0.00000000000E+00 0.  1.
<mgrwt>
<rscale>  0 0.12165433E+03</rscale>
<asrwt>0</asrwt>
<pdfrwt beam="1">  1        1 0.85702247E-01 0.13054742E+03</pdfrwt>
<pdfrwt beam="2">  1       -1 0.40306478E-02 0.13054742E+03</pdfrwt>
<totfact> 0.90365442E+03</totfact>
</mgrwt>
</event>
<event>
 8    1  0.1224355E-005  0.2186940E+03  0.7546771E-02  0.1138261E+00
          1   -1    0    0  501    0  0.00000000000E+00  0.00000000000E+00  0.40517127379E+03  0.40517127379E+03  0.00000000000E+00 0. -1.
         -1   -1    0    0    0  501 -0.00000000000E+00 -0.00000000000E+00 -0.13591331262E+03  0.13591331262E+03  0.00000000000E+00 0.  1.
         23    2    1    2    0    0  0.15424378839E+03  0.91688082251E+02  0.95990773257E+01  0.20159995542E+03  0.91392281162E+02 0.  0.
         23    2    1    2    0    0 -0.15424378839E+03 -0.91688082251E+02  0.25965888384E+03  0.33948463099E+03  0.12501691101E+03 0.  0.
          5    1    4    4  502    0 -0.92319038349E+02 -0.10723036915E+03  0.11900499838E+03  0.18494711825E+03  0.47000000000E+01 0.  1.
         -5    1    4    4    0  502 -0.61924750043E+02  0.15542286896E+02  0.14065388546E+03  0.15453751274E+03  0.47000000000E+01 0.  1.
        -11    1    3    3    0    0  0.72260827974E+02  0.64885368987E+02 -0.36561851478E+02  0.10377141876E+03  0.00000000000E+00 0.  1.
         11    1    3    3    0    0  0.81982960418E+02  0.26802713265E+02  0.46160928804E+02  0.97828536661E+02  0.00000000000E+00 0. -1.
<mgrwt>
<rscale>  0 0.21422842E+03</rscale>
<asrwt>0</asrwt>
<pdfrwt beam="1">  1        1 0.62334042E-01 0.21869403E+03</pdfrwt>
<pdfrwt beam="2">  1       -1 0.20909741E-01 0.21869403E+03</pdfrwt>
<totfact> 0.11158683E+03</totfact>
</mgrwt>
</event>
<event>
 8    1  0.1224355E-005  0.1396882E+03  0.7546771E-02  0.1224320E+00
         -3   -1    0    0    0  501 -0.00000000000E+00  0.00000000000E+00  0.48717378267E+02  0.48717378267E+02  0.00000000000E+00 0.  1.
          3   -1    0    0  501    0  0.00000000000E+00 -0.00000000000E+00 -0.40790469232E+03  0.40790469232E+03  0.00000000000E+00 0. -1.
         23    2    1    2    0    0 -0.60706126136E+02 -0.14205229601E+02 -0.61136787818E+02  0.12746117121E+03  0.92852684629E+02 0.  0.
         23    2    1    2    0    0  0.60706126136E+02  0.14205229601E+02 -0.29805052623E+03  0.32916089937E+03  0.12500303673E+03 0.  0.
          5    1    4    4  502    0  0.41511998411E+02  0.27282935941E+01 -0.30291680055E+03  0.30579628457E+03  0.47000000000E+01 0.  1.
         -5    1    4    4    0  502  0.19194127725E+02  0.11476936007E+02  0.48662743229E+01  0.23364614806E+02  0.47000000000E+01 0.  1.
        -11    1    3    3    0    0 -0.19371404439E+02 -0.29884389579E+02 -0.73399696438E+02  0.81583353005E+02  0.00000000000E+00 0. -1.
         11    1    3    3    0    0 -0.41334721696E+02  0.15679159977E+02  0.12262908619E+02  0.45877818203E+02  0.00000000000E+00 0.  1.
<mgrwt>
<rscale>  0 0.13213594E+03</rscale>
<asrwt>0</asrwt>
<pdfrwt beam="2">  1        3 0.62754569E-01 0.13968816E+03</pdfrwt>
<pdfrwt beam="1">  1       -3 0.74949812E-02 0.13968816E+03</pdfrwt>
<totfact> 0.69181179E+02</totfact>
</mgrwt>
</event>
<event>
 8    1  0.1224355E-005  0.1347775E+03  0.7546771E-02  0.1233103E+00
          2   -1    0    0  501    0  0.00000000000E+00  0.00000000000E+00  0.19327950642E+03  0.19327950642E+03  0.00000000000E+00 0. -1.
         -2   -1    0    0    0  501 -0.00000000000E+00 -0.00000000000E+00 -0.75004654189E+02  0.75004654189E+02  0.00000000000E+00 0.  1.
         23    2    1    2    0    0 -0.47902544326E+02  0.15699044593E+02  0.33649954268E+02  0.10914160468E+03  0.90765944583E+02 0.  0.
         23    2    1    2    0    0  0.47902544326E+02 -0.15699044593E+02  0.84624897963E+02  0.15914255593E+03  0.12499546391E+03 0.  0.
          5    1    4    4  502    0  0.81639505841E+02 -0.12554899861E+02  0.92437586466E+02  0.12405414873E+03  0.47000000000E+01 0.  1.
         -5    1    4    4    0  502 -0.33736961515E+02 -0.31441447324E+01 -0.78126885026E+01  0.35088407202E+02  0.47000000000E+01 0.  1.
        -11    1    3    3    0    0 -0.19390012236E+02  0.17696536404E+01  0.62985468968E+02  0.65926273591E+02  0.00000000000E+00 0. -1.
         11    1    3    3    0    0 -0.28512532090E+02  0.13929390953E+02 -0.29335514700E+02  0.43215331090E+02  0.00000000000E+00 0.  1.
<mgrwt>
<rscale>  0 0.12626654E+03</rscale>
<asrwt>0</asrwt>
<pdfrwt beam="1">  1        2 0.29735309E-01 0.13477752E+03</pdfrwt>
<pdfrwt beam="2">  1       -2 0.11539178E-01 0.13477752E+03</pdfrwt>
<totfact> 0.88145766E+03</totfact>
</mgrwt>
</event>
<event>
 8    1  0.1224355E-005  0.1330654E+03  0.7546771E-02  0.1235363E+00
         -1   -1    0    0    0  501 -0.00000000000E+00  0.00000000000E+00  0.87800195846E+02  0.87800195846E+02  0.00000000000E+00 0.  1.
          1   -1    0    0  501    0  0.00000000000E+00 -0.00000000000E+00 -0.27353409596E+03  0.27353409596E+03  0.00000000000E+00 0. -1.
         23    2    1    2    0    0  0.19578482706E+02  0.40805653258E+02  0.30515247115E+02  0.10742469031E+03  0.92522783461E+02 0.  0.
         23    2    1    2    0    0 -0.19578482706E+02 -0.40805653258E+02 -0.21624914723E+03  0.25390960149E+03  0.12513182541E+03 0.  0.
          5    1    4    4  502    0 -0.41248307047E+02  0.23912729684E+02 -0.15447828898E+03  0.16173704969E+03  0.47000000000E+01 0. -1.
         -5    1    4    4    0  502  0.21669824341E+02 -0.64718382942E+02 -0.61770858247E+02  0.92172551804E+02  0.47000000000E+01 0. -1.
        -11    1    3    3    0    0 -0.11904958349E+01  0.35410010429E+02  0.60763287007E+02  0.70338205598E+02  0.00000000000E+00 0.  1.
         11    1    3    3    0    0  0.20768978541E+02  0.53956428296E+01 -0.30248039892E+02  0.37086484715E+02  0.00000000000E+00 0. -1.
<mgrwt>
<rscale>  0 0.12481233E+03</rscale>
<asrwt>0</asrwt>
<pdfrwt beam="2">  1        1 0.42082169E-01 0.13306537E+03</pdfrwt>
<pdfrwt beam="1">  1       -1 0.13507722E-01 0.13306537E+03</pdfrwt>
<totfact> 0.36078989E+03</totfact>
</mgrwt>
</event>
<event>
 8    1  0.1224355E-005  0.1277037E+03  0.7546771E-02  0.1245211E+00
         -1   -1    0    0    0  501 -0.00000000000E+00  0.00000000000E+00  0.60287432729E+02  0.60287432729E+02  0.00000000000E+00 0.  1.
          1   -1    0    0  501    0  0.00000000000E+00 -0.00000000000E+00 -0.21884360650E+03  0.21884360650E+03  0.00000000000E+00 0. -1.
         23    2    1    2    0    0  0.26121974762E+02  0.74240392793E-01 -0.35541832647E+02  0.10181557348E+03  0.91765059031E+02 0.  0.
         23    2    1    2    0    0 -0.26121974762E+02 -0.74240392793E-01 -0.12301434113E+03  0.17731546575E+03  0.12500353272E+03 0.  0.
          5    1    4    4  502    0  0.61541131318E+01  0.56515338612E+02 -0.83015072843E+02  0.10072461926E+03  0.47000000000E+01 0.  1.
         -5    1    4    4    0  502 -0.32276087894E+02 -0.56589579005E+02 -0.39999268284E+02  0.76590846483E+02  0.47000000000E+01 0.  1.
        -11    1    3    3    0    0  0.24357548488E+02 -0.41004118205E+02 -0.34859565323E+00  0.47694332966E+02  0.00000000000E+00 0.  1.
         11    1    3    3    0    0  0.17644262745E+01  0.41078358598E+02 -0.35193236994E+02  0.54121240519E+02  0.00000000000E+00 0. -1.
<mgrwt>
<rscale>  0 0.11872766E+03</rscale>
<asrwt>0</asrwt>
<pdfrwt beam="2">  1        1 0.33668247E-01 0.12770374E+03</pdfrwt>
<pdfrwt beam="1">  1       -1 0.92749897E-02 0.12770374E+03</pdfrwt>
<totfact> 0.84416760E+03</totfact>
</mgrwt>
</event>
<event>
 8    1  0.1224355E-005  0.1251205E+03  0.7546771E-02  0.1250704E+00
         -2   -1    0    0    0  501 -0.00000000000E+00  0.00000000000E+00  0.31646096949E+02  0.31646096949E+02  0.00000000000E+00 0.  1.
          2   -1    0    0  501    0  0.00000000000E+00 -0.00000000000E+00 -0.85395734681E+03  0.85395734681E+03  0.00000000000E+00 0. -1.
         23    2    1    2    0    0 -0.49667584986E+01  0.24367745317E+01 -0.50982132944E+02  0.10419206998E+03  0.90698417883E+02 0.  0.
         23    2    1    2    0    0  0.49667584986E+01 -0.24367745317E+01 -0.77132911692E+03  0.78141137378E+03  0.12499808763E+03 0.  0.
          5    1    4    4  502    0 -0.41564724529E+01  0.27725253859E+02 -0.38331597746E+02  0.47721770195E+02  0.47000000000E+01 0.  1.
         -5    1    4    4    0  502  0.91232309515E+01 -0.30162028391E+02 -0.73299751917E+03  0.73368960359E+03  0.47000000000E+01 0.  1.
        -11    1    3    3    0    0  0.38140331781E+02  0.19271658335E+02 -0.14047867870E+02  0.44982488982E+02  0.00000000000E+00 0.  1.
         11    1    3    3    0    0 -0.43107090280E+02 -0.16834883803E+02 -0.36934265074E+02  0.59209580995E+02  0.00000000000E+00 0. -1.
<mgrwt>
<rscale>  0 0.11550420E+03</rscale>
<asrwt>0</asrwt>
<pdfrwt beam="2">  1        2 0.13137804E+00 0.12512046E+03</pdfrwt>
<pdfrwt beam="1">  1       -2 0.48686307E-02 0.12512046E+03</pdfrwt>
<totfact> 0.64113114E+03</totfact>
</mgrwt>
</event>
<event>
 8    1  0.1224355E-005  0.1279679E+03  0.7546771E-02  0.1245368E+00
         -1   -1    0    0    0  501 -0.00000000000E+00  0.00000000000E+00  0.97186288529E+02  0.97186288529E+02  0.00000000000E+00 0.  1.
          1   -1    0    0  501    0  0.00000000000E+00 -0.00000000000E+00 -0.12809381734E+03  0.12809381734E+03  0.00000000000E+00 0. -1.
         23    2    1    2    0    0  0.26086601812E+02 -0.84064755424E+01 -0.45886442932E+01  0.94633741716E+02  0.90461648169E+02 0.  0.
         23    2    1    2    0    0 -0.26086601812E+02  0.84064755424E+01 -0.26318884513E+02  0.13064636415E+03  0.12499843662E+03 0.  0.
          5    1    4    4  502    0 -0.13860665623E+02  0.62976039362E+02  0.75578026559E+01  0.65094623175E+02  0.47000000000E+01 0.  1.
         -5    1    4    4    0  502 -0.12225936189E+02 -0.54569563820E+02 -0.33876687169E+02  0.65551740974E+02  0.47000000000E+01 0.  1.
        -11    1    3    3    0    0  0.43497004278E+02  0.29245926227E+02  0.28369585021E+01  0.52491541371E+02  0.00000000000E+00 0.  1.
         11    1    3    3    0    0 -0.17410402466E+02 -0.37652401769E+02 -0.74256027953E+01  0.42142200344E+02  0.00000000000E+00 0. -1.
<mgrwt>
<rscale>  0 0.11863410E+03</rscale>
<asrwt>0</asrwt>
<pdfrwt beam="2">  1        1 0.19706741E-01 0.12796792E+03</pdfrwt>
<pdfrwt beam="1">  1       -1 0.14951737E-01 0.12796792E+03</pdfrwt>
<totfact> 0.79135365E+03</totfact>
</mgrwt>
</event>
<event>
 8    1  0.1224355E-005  0.1288266E+03  0.7546771E-02  0.1240846E+00
          1   -1    0    0  501    0  0.00000000000E+00  0.00000000000E+00  0.23392930405E+03  0.23392930405E+03  0.00000000000E+00 0. -1.
         -1   -1    0    0    0  501 -0.00000000000E+00 -0.00000000000E+00 -0.56865771814E+02  0.56865771814E+02  0.00000000000E+00 0.  1.
         23    2    1    2    0    0  0.35211720872E+02  0.30269447773E+02  0.85887644871E+02  0.13296814742E+03  0.90264810045E+02 0.  0.
         23    2    1    2    0    0 -0.35211720872E+02 -0.30269447773E+02  0.91175887366E+02  0.15782692844E+03  0.12016735060E+03 0.  0.
          5    1    4    4  502    0 -0.33500921244E+02  0.42843803490E+02  0.29541060657E+02  0.62069859726E+02  0.47000000000E+01 0. -1.
         -5    1    4    4    0  502 -0.17107996287E+01 -0.73113251263E+02  0.61634826708E+02  0.95757068715E+02  0.47000000000E+01 0.  1.
        -11    1    3    3    0    0  0.38465413940E+02  0.50470709087E+02  0.91864850192E+02  0.11165138264E+03  0.00000000000E+00 0. -1.
         11    1    3    3    0    0 -0.32536930679E+01 -0.20201261314E+02 -0.59772053211E+01  0.21316764780E+02  0.00000000000E+00 0.  1.
<mgrwt>
<rscale>  0 0.12137496E+03</rscale>
<asrwt>0</asrwt>
<pdfrwt beam="1">  1        1 0.35989123E-01 0.12882662E+03</pdfrwt>
<pdfrwt beam="2">  1       -1 0.87485804E-02 0.12882662E+03</pdfrwt>
<totfact> 0.84992028E+03</totfact>
</mgrwt>
</event>
<event>
 8    1  0.1224355E-005  0.1892380E+03  0.7546771E-02  0.1163961E+00
         -2   -1    0    0    0  501 -0.00000000000E+00  0.00000000000E+00  0.18623600262E+02  0.18623600262E+02  0.00000000000E+00 0.  1.
          2   -1    0    0  501    0  0.00000000000E+00 -0.00000000000E+00 -0.18516204664E+04  0.18516204664E+04  0.00000000000E+00 0. -1.
         23    2    1    2    0    0 -0.91145299792E+02 -0.10898342162E+03 -0.62475114813E+03  0.64726871106E+03  0.91967034164E+02 0.  0.
         23    2    1    2    0    0  0.91145299792E+02  0.10898342162E+03 -0.12082457180E+04  0.12229753556E+04  0.12500461372E+03 0.  0.
          5    1    4    4  502    0  0.76701602075E+02  0.77123900158E+02 -0.11480080372E+04  0.11531590416E+04  0.47000000000E+01 0. -1.
         -5    1    4    4    0  502  0.14443697717E+02  0.31859521462E+02 -0.60237680802E+02  0.69816313996E+02  0.47000000000E+01 0. -1.
        -11    1    3    3    0    0 -0.22253748112E+02 -0.56614634282E+02 -0.11377094368E+03  0.12901268832E+03  0.00000000000E+00 0.  1.
         11    1    3    3    0    0 -0.68891551680E+02 -0.52368787338E+02 -0.51098020444E+03  0.51825602275E+03  0.00000000000E+00 0. -1.
<mgrwt>
<rscale>  0 0.18402766E+03</rscale>
<asrwt>0</asrwt>
<pdfrwt beam="2">  1        2 0.28486470E+00 0.18923796E+03</pdfrwt>
<pdfrwt beam="1">  1       -2 0.28651692E-02 0.18923796E+03</pdfrwt>
<totfact> 0.40248721E+03</totfact>
</mgrwt>
</event>
<event>
 8    1  0.1224355E-005  0.1318232E+03  0.7546771E-02  0.1237317E+00
          2   -1    0    0  501    0  0.00000000000E+00  0.00000000000E+00  0.24548838859E+03  0.24548838859E+03  0.00000000000E+00 0. -1.
         -2   -1    0    0    0  501 -0.00000000000E+00 -0.00000000000E+00 -0.84831487132E+02  0.84831487132E+02  0.00000000000E+00 0.  1.
         23    2    1    2    0    0 -0.81028232955E+01 -0.41074815963E+02 -0.22895745794E+02  0.10433550088E+03  0.92784079006E+02 0.  0.
         23    2    1    2    0    0  0.81028232955E+01  0.41074815963E+02  0.18355264725E+03  0.22598437484E+03  0.12499826841E+03 0.  0.
          5    1    4    4  502    0 -0.18250712956E+02  0.64475420589E+02  0.40189670245E+02  0.78278144957E+02  0.47000000000E+01 0.  1.
         -5    1    4    4    0  502  0.26353536251E+02 -0.23400604625E+02  0.14336297700E+03  0.14770622988E+03  0.47000000000E+01 0.  1.
        -11    1    3    3    0    0  0.41174946260E+02 -0.87493590865E+01 -0.15859572948E+02  0.44982813807E+02  0.00000000000E+00 0.  1.
         11    1    3    3    0    0 -0.49277769555E+02 -0.32325456877E+02 -0.70361728468E+01  0.59352687075E+02  0.00000000000E+00 0. -1.
<mgrwt>
<rscale>  0 0.12357276E+03</rscale>
<asrwt>0</asrwt>
<pdfrwt beam="1">  1        2 0.37767444E-01 0.13182323E+03</pdfrwt>
<pdfrwt beam="2">  1       -2 0.13050998E-01 0.13182323E+03</pdfrwt>
<totfact> 0.55912490E+03</totfact>
</mgrwt>
</event>
<event>
 8    1  0.1224355E-005  0.1639968E+03  0.7546771E-02  0.1191561E+00
          1   -1    0    0  501    0  0.00000000000E+00  0.00000000000E+00  0.24182207190E+03  0.24182207190E+03  0.00000000000E+00 0. -1.
         -1   -1    0    0    0  501 -0.00000000000E+00 -0.00000000000E+00 -0.12000647977E+03  0.12000647977E+03  0.00000000000E+00 0.  1.
         23    2    1    2    0    0  0.10055055418E+03  0.34056334180E+02 -0.25019232572E+02  0.14170263209E+03  0.90462291038E+02 0.  0.
         23    2    1    2    0    0 -0.10055055418E+03 -0.34056334180E+02  0.14683482470E+03  0.22012591958E+03  0.12499882752E+03 0.  0.
          5    1    4    4  502    0  0.23460474886E+02 -0.26738106877E+01 -0.15886388025E+01  0.24127928190E+02  0.47000000000E+01 0.  1.
         -5    1    4    4    0  502 -0.12401102906E+03 -0.31382523492E+02  0.14842346350E+03  0.19599799139E+03  0.47000000000E+01 0.  1.
        -11    1    3    3    0    0  0.17810776994E+02 -0.14108188607E+02 -0.38814820451E+02  0.44976160903E+02  0.00000000000E+00 0.  1.
         11    1    3    3    0    0  0.82739777182E+02  0.48164522786E+02  0.13795587879E+02  0.96726471187E+02  0.00000000000E+00 0. -1.
<mgrwt>
<rscale>  0 0.15748956E+03</rscale>
<asrwt>0</asrwt>
<pdfrwt beam="1">  1        1 0.37203396E-01 0.16399681E+03</pdfrwt>
<pdfrwt beam="2">  1       -1 0.18462535E-01 0.16399681E+03</pdfrwt>
<totfact> 0.25916232E+03</totfact>
</mgrwt>
</event>
<event>
 8    1  0.1224355E-005  0.1637333E+03  0.7546771E-02  0.1191479E+00
          1   -1    0    0  501    0  0.00000000000E+00  0.00000000000E+00  0.72844376287E+03  0.72844376287E+03  0.00000000000E+00 0. -1.
         -1   -1    0    0    0  501 -0.00000000000E+00 -0.00000000000E+00 -0.40248086616E+02  0.40248086616E+02  0.00000000000E+00 0.  1.
         23    2    1    2    0    0 -0.45160410525E+02 -0.95620929145E+02  0.14703661484E+03  0.20330549170E+03  0.92360879611E+02 0.  0.
         23    2    1    2    0    0  0.45160410525E+02  0.95620929145E+02  0.54115906141E+03  0.56538635778E+03  0.12500311616E+03 0.  0.
          5    1    4    4  502    0  0.33362533180E+02  0.90916358722E+02  0.54311595690E+03  0.55170270576E+03  0.47000000000E+01 0.  1.
         -5    1    4    4    0  502  0.11797877345E+02  0.47045704231E+01 -0.19568954901E+01  0.13683652022E+02  0.47000000000E+01 0.  1.
        -11    1    3    3    0    0 -0.34833874864E+02  0.40050258433E+01  0.64932062927E+02  0.73794389123E+02  0.00000000000E+00 0.  1.
         11    1    3    3    0    0 -0.10326535661E+02 -0.99625954989E+02  0.82104551917E+02  0.12951110258E+03  0.00000000000E+00 0. -1.
<mgrwt>
<rscale>  0 0.15756070E+03</rscale>
<asrwt>0</asrwt>
<pdfrwt beam="1">  1        1 0.11206826E+00 0.16373333E+03</pdfrwt>
<pdfrwt beam="2">  1       -1 0.61920139E-02 0.16373333E+03</pdfrwt>
<totfact> 0.33291838E+03</totfact>
</mgrwt>
</event>
<event>
 8    1  0.1224355E-005  0.1895073E+03  0.7546771E-02  0.1162037E+00
         -1   -1    0    0    0  501 -0.00000000000E+00  0.00000000000E+00  0.88820248342E+02  0.88820248342E+02  0.00000000000E+00 0.  1.
          1   -1    0    0  501    0  0.00000000000E+00 -0.00000000000E+00 -0.42198470063E+03  0.42198470063E+03  0.00000000000E+00 0. -1.
         23    2    1    2    0    0 -0.13750726069E+03  0.61754767009E+02 -0.77313533981E+02  0.19241416675E+03  0.91235579896E+02 0.  0.
         23    2    1    2    0    0  0.13750726069E+03 -0.61754767009E+02 -0.25585091831E+03  0.31839078222E+03  0.11485251332E+03 0.  0.
          5    1    4    4  502    0  0.32012824198E+02 -0.60719275321E+02 -0.16615040459E+03  0.17983241714E+03  0.47000000000E+01 0. -1.
         -5    1    4    4    0  502  0.10549443649E+03 -0.10354916879E+01 -0.89700513718E+02  0.13855836508E+03  0.47000000000E+01 0.  1.
        -11    1    3    3    0    0  0.12885253564E+02 -0.23582044704E+00 -0.10241733871E+02  0.16461424099E+02  0.00000000000E+00 0.  1.
         11    1    3    3    0    0 -0.15039251425E+03  0.61990587456E+02 -0.67071800109E+02  0.17595274265E+03  0.00000000000E+00 0. -1.
<mgrwt>
<rscale>  0 0.18608860E+03</rscale>
<asrwt>0</asrwt>
<pdfrwt beam="2">  1        1 0.64920724E-01 0.18950725E+03</pdfrwt>
<pdfrwt beam="1">  1       -1 0.13664653E-01 0.18950725E+03</pdfrwt>
<totfact> 0.20854633E+03</totfact>
</mgrwt>
</event>
<event>
 8    1  0.1224355E-005  0.1554202E+03  0.7546771E-02  0.1202276E+00
         -1   -1    0    0    0  501 -0.00000000000E+00  0.00000000000E+00  0.15039854708E+02  0.15039854708E+02  0.00000000000E+00 0.  1.
          1   -1    0    0  501    0  0.00000000000E+00 -0.00000000000E+00 -0.16065756311E+04  0.16065756311E+04  0.00000000000E+00 0. -1.
         23    2    1    2    0    0 -0.82514384659E+02  0.41495680547E+02 -0.41314758440E+03  0.43302212532E+03  0.91031419522E+02 0.  0.
         23    2    1    2    0    0  0.82514384659E+02 -0.41495680547E+02 -0.11783881920E+04  0.11885933605E+04  0.12499972159E+03 0.  0.
          5    1    4    4  502    0  0.10511015865E+03 -0.62015157611E+02 -0.10140934648E+04  0.10214213972E+04  0.47000000000E+01 0.  1.
         -5    1    4    4    0  502 -0.22595773989E+02  0.20519477064E+02 -0.16429472723E+03  0.16717196337E+03  0.47000000000E+01 0.  1.
        -11    1    3    3    0    0 -0.69185017602E+02  0.68478699786E+02 -0.34611406103E+03  0.35954254578E+03  0.00000000000E+00 0. -1.
         11    1    3    3    0    0 -0.13329367057E+02 -0.26983019240E+02 -0.67033523374E+02  0.73479579540E+02  0.00000000000E+00 0.  1.
<mgrwt>
<rscale>  0 0.14854224E+03</rscale>
<asrwt>0</asrwt>
<pdfrwt beam="2">  1        1 0.24716555E+00 0.15542022E+03</pdfrwt>
<pdfrwt beam="1">  1       -1 0.23138231E-02 0.15542022E+03</pdfrwt>
<totfact> 0.33462200E+03</totfact>
</mgrwt>
</event>
<event>
 8    1  0.1224355E-005  0.1286015E+03  0.7546771E-02  0.1243269E+00
          1   -1    0    0  501    0  0.00000000000E+00  0.00000000000E+00  0.77866170821E+02  0.77866170821E+02  0.00000000000E+00 0. -1.
         -1   -1    0    0    0  501 -0.00000000000E+00 -0.00000000000E+00 -0.20287002643E+03  0.20287002643E+03  0.00000000000E+00 0.  1.
         23    2    1    2    0    0 -0.17433507881E+02 -0.24704433527E+02 -0.11672282029E+03  0.15186837659E+03  0.92333909269E+02 0.  0.
         23    2    1    2    0    0  0.17433507881E+02  0.24704433527E+02 -0.82810353180E+01  0.12886782065E+03  0.12499641363E+03 0.  0.
          5    1    4    4  502    0 -0.33040927067E+02  0.52764457790E+01  0.42661466790E+02  0.54420901225E+02  0.47000000000E+01 0. -1.
         -5    1    4    4    0  502  0.50474434947E+02  0.19427987748E+02 -0.50942502108E+02  0.74446919427E+02  0.47000000000E+01 0. -1.
        -11    1    3    3    0    0 -0.39935877884E+02 -0.18154903394E+02 -0.12040226531E+03  0.12814515345E+03  0.00000000000E+00 0.  1.
         11    1    3    3    0    0  0.22502370003E+02 -0.65495301334E+01  0.36794450281E+01  0.23723223146E+02  0.00000000000E+00 0. -1.
<mgrwt>
<rscale>  0 0.11989601E+03</rscale>
<asrwt>0</asrwt>
<pdfrwt beam="1">  1        1 0.11979411E-01 0.12860148E+03</pdfrwt>
<pdfrwt beam="2">  1       -1 0.31210773E-01 0.12860148E+03</pdfrwt>
<totfact> 0.45724633E+03</totfact>
</mgrwt>
</event>
<event>
 7    1  0.1224355E-005  0.3316619E+03  0.7546771E-02  0.1113937E+00
         -1   -1    0    0    0  501 -0.00000000000E+00  0.00000000000E+00  0.41545031687E+02  0.41545031687E+02  0.00000000000E+00 0.  1.
          1   -1    0    0  501    0  0.00000000000E+00 -0.00000000000E+00 -0.27264920842E+04  0.27264920842E+04  0.00000000000E+00 0. -1.
         23    2    1    2    0    0 -0.40691732576E+02 -0.32148788827E+02 -0.58088755798E+02  0.12032412129E+03  0.91729106014E+02 0.  0.
          5    1    1    2  502    0 -0.14445896884E+03  0.20510702592E+02 -0.11239706389E+04  0.11334112977E+04  0.47000000000E+01 0. -1.
         -5    1    1    2    0  502  0.18515070141E+03  0.11638086235E+02 -0.15028876578E+04  0.15143016969E+04  0.47000000000E+01 0.  1.
        -11    1    3    3    0    0 -0.17510381118E+02  0.82727525681E+01 -0.69668317558E+02  0.72309932605E+02  0.00000000000E+00 0. -1.
         11    1    3    3    0    0 -0.23181351458E+02 -0.40421541396E+02  0.11579561760E+02  0.48014188682E+02  0.00000000000E+00 0.  1.
<mgrwt>
<rscale>  0 0.24900300E+03</rscale>
<asrwt>0</asrwt>
<pdfrwt beam="2">  1        1 0.41946048E+00 0.33166186E+03</pdfrwt>
<pdfrwt beam="1">  1       -1 0.63915409E-02 0.33166186E+03</pdfrwt>
<totfact> 0.13353120E+02</totfact>
</mgrwt>
</event>
<event>
 8    1  0.1224355E-005  0.1516255E+03  0.7546771E-02  0.1207148E+00
          1   -1    0    0  501    0  0.00000000000E+00  0.00000000000E+00  0.62029246593E+03  0.62029246593E+03  0.00000000000E+00 0. -1.
         -1   -1    0    0    0  501 -0.00000000000E+00 -0.00000000000E+00 -0.35225579934E+02  0.35225579934E+02  0.00000000000E+00 0.  1.
         23    2    1    2    0    0  0.16406299633E+02  0.84222987656E+02  0.15552375815E+03  0.19999900826E+03  0.91919995867E+02 0.  0.
         23    2    1    2    0    0 -0.16406299633E+02 -0.84222987656E+02  0.42954312785E+03  0.45551903760E+03  0.12501046604E+03 0.  0.
          5    1    4    4  502    0 -0.42996957689E+02 -0.60548105607E+02  0.10332456866E+03  0.12732976067E+03  0.47000000000E+01 0. -1.
         -5    1    4    4    0  502  0.26590658057E+02 -0.23674882049E+02  0.32621855918E+03  0.32818927693E+03  0.47000000000E+01 0. -1.
        -11    1    3    3    0    0  0.46330962275E+02  0.52188034312E+02  0.50346785574E+02  0.86052006416E+02  0.00000000000E+00 0.  1.
         11    1    3    3    0    0 -0.29924662642E+02  0.32034953344E+02  0.10517697257E+03  0.11394700185E+03  0.00000000000E+00 0. -1.
<mgrwt>
<rscale>  0 0.14469464E+03</rscale>
<asrwt>0</asrwt>
<pdfrwt beam="1">  1        1 0.95429603E-01 0.15162551E+03</pdfrwt>
<pdfrwt beam="2">  1       -1 0.54193204E-02 0.15162551E+03</pdfrwt>
<totfact> 0.50867660E+03</totfact>
</mgrwt>
</event>
<event>
 8    1  0.1991665E-005  0.1628038E+03  0.7546771E-02  0.1193065E+00
          4   -1    0    0  501    0  0.00000000000E+00  0.00000000000E+00  0.28598937799E+03  0.28598937799E+03  0.00000000000E+00 0. -1.
         -4   -1    0    0    0  501 -0.00000000000E+00 -0.00000000000E+00 -0.79340139135E+02  0.79340139135E+02  0.00000000000E+00 0.  1.
         23    2    1    2    0    0  0.74356684190E+02 -0.73154265651E+02  0.83888028107E+02  0.16142903204E+03  0.90231192276E+02 0.  0.
         23    2    1    2    0    0 -0.74356684190E+02  0.73154265651E+02  0.12276121074E+03  0.20390048508E+03  0.12499851953E+03 0.  0.
          5    1    4    4  502    0 -0.65528960532E+02 -0.19836313726E+02  0.43033428642E+02  0.81003024582E+02  0.47000000000E+01 0.  1.
         -5    1    4    4    0  502 -0.88277236581E+01  0.92990579377E+02  0.79727782101E+02  0.12289746050E+03  0.47000000000E+01 0.  1.
        -11    1    3    3    0    0 -0.16590301198E+02 -0.25891709738E+02  0.30686414134E+01  0.30903645207E+02  0.00000000000E+00 0.  1.
         11    1    3    3    0    0  0.90946985389E+02 -0.47262555913E+02  0.80819386693E+02  0.13052538683E+03  0.00000000000E+00 0. -1.
<mgrwt>
<rscale>  0 0.15619096E+03</rscale>
<asrwt>0</asrwt>
<pdfrwt beam="1">  1        4 0.43998365E-01 0.16280385E+03</pdfrwt>
<pdfrwt beam="2">  1       -4 0.12206175E-01 0.16280385E+03</pdfrwt>
<totfact> 0.46610083E+02</totfact>
</mgrwt>
</event>
<event>
 8    1  0.1224355E-005  0.1199716E+03  0.7546771E-02  0.1256319E+00
         -1   -1    0    0    0  501 -0.00000000000E+00  0.00000000000E+00  0.21134406064E+03  0.21134406064E+03  0.00000000000E+00 0.  1.
          1   -1    0    0  501    0  0.00000000000E+00 -0.00000000000E+00 -0.53513967230E+02  0.53513967230E+02  0.00000000000E+00 0. -1.
         23    2    1    2    0    0  0.12198326090E+02 -0.88537600903E+01  0.77875921440E+02  0.12068504974E+03  0.90956219487E+02 0.  0.
         23    2    1    2    0    0 -0.12198326090E+02  0.88537600903E+01  0.79954171968E+02  0.14417297813E+03  0.11902096362E+03 0.  0.
          5    1    4    4  502    0  0.52105880565E+02  0.15532735559E+02  0.43610613477E+02  0.69858888276E+02  0.47000000000E+01 0. -1.
         -5    1    4    4    0  502 -0.64304206654E+02 -0.66789754688E+01  0.36343558491E+02  0.74314089852E+02  0.47000000000E+01 0.  1.
        -11    1    3    3    0    0  0.12533241358E+02  0.12096720388E+02  0.93144305078E+02  0.94759033087E+02  0.00000000000E+00 0.  1.
         11    1    3    3    0    0 -0.33491526788E+00 -0.20950480478E+02 -0.15268383639E+02  0.25926016652E+02  0.00000000000E+00 0. -1.
<mgrwt>
<rscale>  0 0.11232788E+03</rscale>
<asrwt>0</asrwt>
<pdfrwt beam="2">  1        1 0.82329181E-02 0.11997157E+03</pdfrwt>
<pdfrwt beam="1">  1       -1 0.32514471E-01 0.11997157E+03</pdfrwt>
<totfact> 0.69725364E+03</totfact>
</mgrwt>
</event>
<event>
 8    1  0.1224355E-005  0.1384143E+03  0.7546771E-02  0.1226763E+00
         -2   -1    0    0    0  501 -0.00000000000E+00  0.00000000000E+00  0.31987503407E+03  0.31987503407E+03  0.00000000000E+00 0.  1.
          2   -1    0    0  501    0  0.00000000000E+00 -0.00000000000E+00 -0.49118251833E+02  0.49118251833E+02  0.00000000000E+00 0. -1.
         23    2    1    2    0    0 -0.42945579137E+02 -0.41136058160E+02  0.14816328130E+03  0.18409414600E+03  0.91661325643E+02 0.  0.
         23    2    1    2    0    0  0.42945579137E+02  0.41136058160E+02  0.12259350093E+03  0.18489913989E+03  0.12498810909E+03 0.  0.
          5    1    4    4  502    0  0.58461398276E+01 -0.40725750245E+02  0.13679042264E+02  0.43611584254E+02  0.47000000000E+01 0.  1.
         -5    1    4    4    0  502  0.37099439309E+02  0.81861808404E+02  0.10891445867E+03  0.14128755564E+03  0.47000000000E+01 0.  1.
        -11    1    3    3    0    0 -0.44829885338E+02 -0.64575157516E+02  0.13725450425E+03  0.15817227483E+03  0.00000000000E+00 0.  1.
         11    1    3    3    0    0  0.18843062013E+01  0.23439099357E+02  0.10908777054E+02  0.25921871177E+02  0.00000000000E+00 0. -1.
<mgrwt>
<rscale>  0 0.13046787E+03</rscale>
<asrwt>0</asrwt>
<pdfrwt beam="2">  1        2 0.75566543E-02 0.13841433E+03</pdfrwt>
<pdfrwt beam="1">  1       -2 0.49211542E-01 0.13841433E+03</pdfrwt>
<totfact> 0.34727048E+03</totfact>
</mgrwt>
</event>
<event>
 8    1  0.1224355E-005  0.1322431E+03  0.7546771E-02  0.1237190E+00
          1   -1    0    0  501    0  0.00000000000E+00  0.00000000000E+00  0.26979650080E+03  0.26979650080E+03  0.00000000000E+00 0. -1.
         -1   -1    0    0    0  501 -0.00000000000E+00 -0.00000000000E+00 -0.60882580777E+02  0.60882580777E+02  0.00000000000E+00 0.  1.
         23    2    1    2    0    0  0.21874255950E+02  0.37210420150E+02  0.24957211145E+02  0.10412159425E+03  0.91407579332E+02 0.  0.
         23    2    1    2    0    0 -0.21874255950E+02 -0.37210420150E+02  0.18395670888E+03  0.22655748733E+03  0.12500050353E+03 0.  0.
          5    1    4    4  502    0  0.49618668052E+02 -0.14714434486E+02  0.10743117636E+03  0.11934016280E+03  0.47000000000E+01 0.  1.
         -5    1    4    4    0  502 -0.71492924002E+02 -0.22495985664E+02  0.76525532516E+02  0.10721732453E+03  0.47000000000E+01 0.  1.
        -11    1    3    3    0    0  0.11194961112E+02 -0.18827070970E+01  0.53411293769E+02  0.54604377502E+02  0.00000000000E+00 0.  1.
         11    1    3    3    0    0  0.10679294838E+02  0.39093127247E+02 -0.28454082625E+02  0.49517216745E+02  0.00000000000E+00 0. -1.
<mgrwt>
<rscale>  0 0.12365245E+03</rscale>
<asrwt>0</asrwt>
<pdfrwt beam="1">  1        1 0.41507153E-01 0.13224305E+03</pdfrwt>
<pdfrwt beam="2">  1       -1 0.93665510E-02 0.13224305E+03</pdfrwt>
<totfact> 0.64377517E+03</totfact>
</mgrwt>
</event>
<event>
 8    1  0.1224355E-005  0.1703393E+03  0.7546771E-02  0.1184337E+00
          3   -1    0    0  501    0  0.00000000000E+00  0.00000000000E+00  0.37449482947E+03  0.37449482947E+03  0.00000000000E+00 0. -1.
         -3   -1    0    0    0  501 -0.00000000000E+00 -0.00000000000E+00 -0.70427847015E+02  0.70427847015E+02  0.00000000000E+00 0.  1.
         23    2    1    2    0    0 -0.10749321112E+03  0.42847738402E+02  0.90916266574E+02  0.17206978299E+03  0.89171315829E+02 0.  0.
         23    2    1    2    0    0  0.10749321112E+03 -0.42847738402E+02  0.21315071588E+03  0.27285289349E+03  0.12499901873E+03 0.  0.
          5    1    4    4  502    0 -0.21967776881E+02 -0.32948093135E+02  0.59605861848E+02  0.71715471336E+02  0.47000000000E+01 0. -1.
         -5    1    4    4    0  502  0.12946098801E+03 -0.98996452676E+01  0.15354485403E+03  0.20113742216E+03  0.47000000000E+01 0. -1.
        -11    1    3    3    0    0 -0.12239922955E+01  0.35965915429E+02  0.40712365807E+02  0.54337298050E+02  0.00000000000E+00 0. -1.
         11    1    3    3    0    0 -0.10626921883E+03  0.68818229732E+01  0.50203900767E+02  0.11773248494E+03  0.00000000000E+00 0.  1.
<mgrwt>
<rscale>  0 0.16392347E+03</rscale>
<asrwt>0</asrwt>
<pdfrwt beam="1">  1        3 0.57614588E-01 0.17033929E+03</pdfrwt>
<pdfrwt beam="2">  1       -3 0.10835054E-01 0.17033929E+03</pdfrwt>
<totfact> 0.46261615E+02</totfact>
</mgrwt>
</event>
<event>
 8    1  0.1224355E-005  0.1287351E+03  0.7546771E-02  0.1240504E+00
          2   -1    0    0  501    0  0.00000000000E+00  0.00000000000E+00  0.15180284441E+03  0.15180284441E+03  0.00000000000E+00 0. -1.
         -2   -1    0    0    0  501 -0.00000000000E+00 -0.00000000000E+00 -0.21822150235E+03  0.21822150235E+03  0.00000000000E+00 0.  1.
         23    2    1    2    0    0 -0.24462495981E+02  0.18699898066E+02 -0.17422869529E+03  0.20210851798E+03  0.97693985885E+02 0.  0.
         23    2    1    2    0    0  0.24462495981E+02 -0.18699898066E+02  0.10781003736E+03  0.16791582878E+03  0.12499848600E+03 0.  0.
          5    1    4    4  502    0  0.34978467583E+02 -0.22955306721E+02 -0.14849301334E+02  0.44643376342E+02  0.47000000000E+01 0.  1.
         -5    1    4    4    0  502 -0.10515971602E+02  0.42554086546E+01  0.12265933869E+03  0.12327245244E+03  0.47000000000E+01 0.  1.
        -11    1    3    3    0    0  0.12774044419E+02 -0.26074276761E+02 -0.15243354740E+02  0.32793352729E+02  0.00000000000E+00 0. -1.
         11    1    3    3    0    0 -0.37236540401E+02  0.44774174828E+02 -0.15898534055E+03  0.16931516525E+03  0.00000000000E+00 0.  1.
<mgrwt>
<rscale>  0 0.12158530E+03</rscale>
<asrwt>0</asrwt>
<pdfrwt beam="1">  1        2 0.23354284E-01 0.12873508E+03</pdfrwt>
<pdfrwt beam="2">  1       -2 0.33572539E-01 0.12873508E+03</pdfrwt>
<totfact> 0.18741518E+03</totfact>
</mgrwt>
</event>
<event>
 7    1  0.1224355E-005  0.2432764E+03  0.7546771E-02  0.1130861E+00
          1   -1    0    0  501    0  0.00000000000E+00  0.00000000000E+00  0.52738271944E+03  0.52738271944E+03  0.00000000000E+00 0. -1.
         -1   -1    0    0    0  501 -0.00000000000E+00 -0.00000000000E+00 -0.94847659710E+02  0.94847659710E+02  0.00000000000E+00 0.  1.
         23    2    1    2    0    0  0.13339327184E+03  0.66086634558E+02  0.76825982619E+02  0.19128680863E+03  0.92342857395E+02 0.  0.
          5    1    1    2  502    0 -0.44321180109E+01 -0.86898800841E+02  0.24367581654E+03  0.25878763267E+03  0.47000000000E+01 0. -1.
         -5    1    1    2    0  502 -0.12896115383E+03  0.20812166283E+02  0.11203326057E+03  0.17215593785E+03  0.47000000000E+01 0.  1.
        -11    1    3    3    0    0  0.58026228635E+02  0.65379380806E+02  0.56140926993E+01  0.87595802873E+02  0.00000000000E+00 0. -1.
         11    1    3    3    0    0  0.75367043204E+02  0.70725375231E+00  0.71211889920E+02  0.10369100576E+03  0.00000000000E+00 0.  1.
<mgrwt>
<rscale>  0 0.22410255E+03</rscale>
<asrwt>0</asrwt>
<pdfrwt beam="1">  1        1 0.81135802E-01 0.24327641E+03</pdfrwt>
<pdfrwt beam="2">  1       -1 0.14591948E-01 0.24327641E+03</pdfrwt>
<totfact> 0.14098467E+03</totfact>
</mgrwt>
</event>
<event>
 8    1  0.1224355E-005  0.1845183E+03  0.7546771E-02  0.1168184E+00
          2   -1    0    0  501    0  0.00000000000E+00  0.00000000000E+00  0.12717511147E+04  0.12717511147E+04  0.00000000000E+00 0. -1.
         -2   -1    0    0    0  501 -0.00000000000E+00 -0.00000000000E+00 -0.24790575972E+02  0.24790575972E+02  0.00000000000E+00 0.  1.
         23    2    1    2    0    0 -0.13573214502E+03 -0.19054230416E+00  0.48301760129E+03  0.51063087343E+03  0.94945427726E+02 0.  0.
         23    2    1    2    0    0  0.13573214502E+03  0.19054230416E+00  0.76394293745E+03  0.78591081726E+03  0.12499499791E+03 0.  0.
          5    1    4    4  502    0  0.13119409456E+03 -0.39328574226E+02  0.66851712425E+03  0.68241912533E+03  0.47000000000E+01 0.  1.
         -5    1    4    4    0  502  0.45380504621E+01  0.39519116530E+02  0.95425813206E+02  0.10349169193E+03  0.47000000000E+01 0.  1.
        -11    1    3    3    0    0 -0.61819294168E+02  0.91070494297E+01  0.37020339289E+03  0.37543989611E+03  0.00000000000E+00 0. -1.
         11    1    3    3    0    0 -0.73912850850E+02 -0.92975917338E+01  0.11281420840E+03  0.13519097732E+03  0.00000000000E+00 0.  1.
<mgrwt>
<rscale>  0 0.17960706E+03</rscale>
<asrwt>0</asrwt>
<pdfrwt beam="1">  1        2 0.19565397E+00 0.18451829E+03</pdfrwt>
<pdfrwt beam="2">  1       -2 0.38139358E-02 0.18451829E+03</pdfrwt>
<totfact> 0.53198166E+03</totfact>
</mgrwt>
</event>
<event>
 8    1  0.1224355E-005  0.1405008E+03  0.7546771E-02  0.1223174E+00
         -3   -1    0    0    0  501 -0.00000000000E+00  0.00000000000E+00  0.44107980093E+02  0.44107980093E+02  0.00000000000E+00 0.  1.
          3   -1    0    0  501    0  0.00000000000E+00 -0.00000000000E+00 -0.53716650752E+03  0.53716650752E+03  0.00000000000E+00 0. -1.
         23    2    1    2    0    0 -0.49692124288E+01 -0.63951017390E+02 -0.63337063586E+02  0.12916717981E+03  0.92510275208E+02 0.  0.
         23    2    1    2    0    0  0.49692124288E+01  0.63951017390E+02 -0.42972146384E+03  0.45210730780E+03  0.12500422227E+03 0.  0.
          5    1    4    4  502    0 -0.13917793013E+02  0.11726621287E+02 -0.36978524094E+03  0.37026265411E+03  0.47000000000E+01 0.  1.
         -5    1    4    4    0  502  0.18887005441E+02  0.52224396103E+02 -0.59936222898E+02  0.81844653693E+02  0.47000000000E+01 0.  1.
        -11    1    3    3    0    0  0.16779459694E+01  0.19441126231E+02  0.61032032375E+01  0.20445585870E+02  0.00000000000E+00 0.  1.
         11    1    3    3    0    0 -0.66471583982E+01 -0.83392143621E+02 -0.69440266824E+02  0.10872159394E+03  0.00000000000E+00 0. -1.
<mgrwt>
<rscale>  0 0.13292824E+03</rscale>
<asrwt>0</asrwt>
<pdfrwt beam="2">  1        3 0.82641000E-01 0.14050082E+03</pdfrwt>
<pdfrwt beam="1">  1       -3 0.67858432E-02 0.14050082E+03</pdfrwt>
<totfact> 0.45253988E+02</totfact>
</mgrwt>
</event>
<event>
 8    1  0.1224355E-005  0.1614772E+03  0.7546771E-02  0.1194359E+00
         -1   -1    0    0    0  501 -0.00000000000E+00  0.00000000000E+00  0.15022435695E+03  0.15022435695E+03  0.00000000000E+00 0.  1.
          1   -1    0    0  501    0  0.00000000000E+00 -0.00000000000E+00 -0.18344977290E+03  0.18344977290E+03  0.00000000000E+00 0. -1.
         23    2    1    2    0    0  0.71395834926E+02  0.73158464969E+02  0.56947775508E+02  0.14872525989E+03  0.91796664176E+02 0.  0.
         23    2    1    2    0    0 -0.71395834926E+02 -0.73158464969E+02 -0.90173191452E+02  0.18494886995E+03  0.12500141519E+03 0.  0.
          5    1    4    4  502    0 -0.93680439864E+01 -0.68139562184E+02 -0.10031667275E+03  0.12172216320E+03  0.47000000000E+01 0. -1.
         -5    1    4    4    0  502 -0.62027790940E+02 -0.50189027842E+01  0.10143481295E+02  0.63226706753E+02  0.47000000000E+01 0. -1.
        -11    1    3    3    0    0  0.86998727295E+02  0.40437280103E+02  0.58632219996E+02  0.11243526758E+03  0.00000000000E+00 0.  1.
         11    1    3    3    0    0 -0.15602892369E+02  0.32721184865E+02 -0.16844444872E+01  0.36289992319E+02  0.00000000000E+00 0. -1.
<mgrwt>
<rscale>  0 0.15508599E+03</rscale>
<asrwt>0</asrwt>
<pdfrwt beam="2">  1        1 0.28223042E-01 0.16147718E+03</pdfrwt>
<pdfrwt beam="1">  1       -1 0.23111439E-01 0.16147718E+03</pdfrwt>
<totfact> 0.25421778E+03</totfact>
</mgrwt>
</event>
<event>
 8    1  0.1224355E-005  0.2017736E+03  0.7546771E-02  0.1152351E+00
         -2   -1    0    0    0  501 -0.00000000000E+00  0.00000000000E+00  0.81396470591E+02  0.81396470591E+02  0.00000000000E+00 0.  1.
          2   -1    0    0  501    0  0.00000000000E+00 -0.00000000000E+00 -0.45519570987E+03  0.45519570987E+03  0.00000000000E+00 0. -1.
         23    2    1    2    0    0 -0.10697555213E+03 -0.11680231040E+03 -0.18381404509E+03  0.25945151784E+03  0.91874580103E+02 0.  0.
         23    2    1    2    0    0  0.10697555213E+03  0.11680231040E+03 -0.18998519419E+03  0.27714066262E+03  0.12500409752E+03 0.  0.
          5    1    4    4  502    0  0.88181310967E+02  0.14273053785E+03 -0.17105283647E+03  0.23964372077E+03  0.47000000000E+01 0.  1.
         -5    1    4    4    0  502  0.18794241163E+02 -0.25928227446E+02 -0.18932357715E+02  0.37496941849E+02  0.47000000000E+01 0.  1.
        -11    1    3    3    0    0  0.82582970757E+01  0.90298200797E+01 -0.15874571686E+02  0.20043431530E+02  0.00000000000E+00 0. -1.
         11    1    3    3    0    0 -0.11523384921E+03 -0.12583213048E+03 -0.16793947341E+03  0.23940808631E+03  0.00000000000E+00 0.  1.
<mgrwt>
<rscale>  0 0.19693519E+03</rscale>
<asrwt>0</asrwt>
<pdfrwt beam="2">  1        2 0.70030111E-01 0.20177357E+03</pdfrwt>
<pdfrwt beam="1">  1       -2 0.12522534E-01 0.20177357E+03</pdfrwt>
<totfact> 0.31478456E+03</totfact>
</mgrwt>
</event>
<event>
 8    1  0.1224355E-005  0.1268482E+03  0.7546771E-02  0.1244947E+00
         -1   -1    0    0    0  501 -0.00000000000E+00  0.00000000000E+00  0.10501166739E+02  0.10501166739E+02  0.00000000000E+00 0.  1.
          1   -1    0    0  501    0  0.00000000000E+00 -0.00000000000E+00 -0.12176804046E+04  0.12176804046E+04  0.00000000000E+00 0. -1.
         23    2    1    2    0    0  0.12109686974E+02 -0.17880875437E+02 -0.45814852588E+03  0.46848593105E+03  0.95460073335E+02 0.  0.
         23    2    1    2    0    0 -0.12109686974E+02  0.17880875437E+02 -0.74903071198E+03  0.75969564028E+03  0.12499635257E+03 0.  0.
          5    1    4    4  502    0 -0.14631518627E+02  0.38191556914E+02 -0.76807132763E+02  0.87144144956E+02  0.47000000000E+01 0. -1.
         -5    1    4    4    0  502  0.25218316534E+01 -0.20310681477E+02 -0.67222357921E+03  0.67255149533E+03  0.47000000000E+01 0. -1.
        -11    1    3    3    0    0 -0.22834696838E+02 -0.46712773482E+02 -0.26991352475E+03  0.27487600373E+03  0.00000000000E+00 0.  1.
         11    1    3    3    0    0  0.34944383812E+02  0.28831898045E+02 -0.18823500113E+03  0.19360992732E+03  0.00000000000E+00 0. -1.
<mgrwt>
<rscale>  0 0.11888530E+03</rscale>
<asrwt>0</asrwt>
<pdfrwt beam="2">  1        1 0.18733540E+00 0.12684817E+03</pdfrwt>
<pdfrwt beam="1">  1       -1 0.16155645E-02 0.12684817E+03</pdfrwt>
<totfact> 0.10059190E+04</totfact>
</mgrwt>
</event>
<event>
 8    1  0.1224355E-005  0.1830905E+03  0.7546771E-02  0.1172282E+00
          1   -1    0    0  501    0  0.00000000000E+00  0.00000000000E+00  0.27684062489E+03  0.27684062489E+03  0.00000000000E+00 0. -1.
         -1   -1    0    0    0  501 -0.00000000000E+00 -0.00000000000E+00 -0.16895209052E+03  0.16895209052E+03  0.00000000000E+00 0.  1.
         23    2    1    2    0    0 -0.99987192587E+02 -0.88324076834E+02 -0.87966204921E+02  0.17768600649E+03  0.77689654802E+02 0.  0.
         23    2    1    2    0    0  0.99987192587E+02  0.88324076834E+02  0.19585473930E+03  0.26810670892E+03  0.12539356934E+03 0.  0.
          5    1    4    4  502    0  0.12976359550E+03  0.75738843685E+02  0.16422739368E+03  0.22263802459E+03  0.47000000000E+01 0. -1.
         -5    1    4    4    0  502 -0.29776402910E+02  0.12585233149E+02  0.31627345621E+02  0.45468684330E+02  0.47000000000E+01 0.  1.
        -11    1    3    3    0    0 -0.11138126663E+03 -0.80043276761E+02 -0.67573011458E+02  0.15290135574E+03  0.00000000000E+00 0.  1.
         11    1    3    3    0    0  0.11394074038E+02 -0.82808000725E+01 -0.20393193464E+02  0.24784650747E+02  0.00000000000E+00 0. -1.
<mgrwt>
<rscale>  0 0.17544846E+03</rscale>
<asrwt>0</asrwt>
<pdfrwt beam="1">  1        1 0.42590865E-01 0.18309049E+03</pdfrwt>
<pdfrwt beam="2">  1       -1 0.25992629E-01 0.18309049E+03</pdfrwt>
<totfact> 0.12576471E+03</totfact>
</mgrwt>
</event>
<event>
 8    1  0.1224355E-005  0.1304651E+03  0.7546771E-02  0.1241476E+00
         -1   -1    0    0    0  501 -0.00000000000E+00  0.00000000000E+00  0.10260833913E+03  0.10260833913E+03  0.00000000000E+00 0.  1.
          1   -1    0    0  501    0  0.00000000000E+00 -0.00000000000E+00 -0.13435981791E+03  0.13435981791E+03  0.00000000000E+00 0. -1.
         23    2    1    2    0    0 -0.35630738190E+02  0.11256215283E+02  0.16449726289E+02  0.97883655511E+02  0.88962714857E+02 0.  0.
         23    2    1    2    0    0  0.35630738190E+02 -0.11256215283E+02 -0.48201205064E+02  0.13908450153E+03  0.12499956204E+03 0.  0.
          5    1    4    4  502    0  0.17973815647E+02 -0.64612717851E+02 -0.38578756397E+01  0.67341180280E+02  0.47000000000E+01 0. -1.
         -5    1    4    4    0  502  0.17656922543E+02  0.53356502568E+02 -0.44343329425E+02  0.71743321253E+02  0.47000000000E+01 0. -1.
        -11    1    3    3    0    0 -0.41439941787E+02 -0.31733005861E+02  0.15673025629E+02  0.54496753744E+02  0.00000000000E+00 0. -1.
         11    1    3    3    0    0  0.58092035972E+01  0.42989221144E+02  0.77670066047E+00  0.43386901767E+02  0.00000000000E+00 0.  1.
<mgrwt>
<rscale>  0 0.12098821E+03</rscale>
<asrwt>0</asrwt>
<pdfrwt beam="2">  1        1 0.20670741E-01 0.13046510E+03</pdfrwt>
<pdfrwt beam="1">  1       -1 0.15785898E-01 0.13046510E+03</pdfrwt>
<totfact> 0.68505561E+03</totfact>
</mgrwt>
</event>
<event>
 8    1  0.1224355E-005  0.1370114E+03  0.7546771E-02  0.1229466E+00
         -1   -1    0    0    0  501 -0.00000000000E+00  0.00000000000E+00  0.26572708128E+02  0.26572708128E+02  0.00000000000E+00 0.  1.
          1   -1    0    0  501    0  0.00000000000E+00 -0.00000000000E+00 -0.76090562831E+03  0.76090562831E+03  0.00000000000E+00 0. -1.
         23    2    1    2    0    0 -0.55948306756E+02  0.43544026015E+01 -0.13128827364E+03  0.16906507924E+03  0.90538480072E+02 0.  0.
         23    2    1    2    0    0  0.55948306756E+02 -0.43544026015E+01 -0.60304464654E+03  0.61841325720E+03  0.12499174812E+03 0.  0.
          5    1    4    4  502    0  0.93436845037E+02 -0.19342907574E+02 -0.39042045027E+03  0.40193881384E+03  0.47000000000E+01 0.  1.
         -5    1    4    4    0  502 -0.37488538282E+02  0.14988504972E+02 -0.21262419627E+03  0.21647444335E+03  0.47000000000E+01 0.  1.
        -11    1    3    3    0    0 -0.72369644944E+02  0.19343535122E+02 -0.65108902306E+02  0.99250728057E+02  0.00000000000E+00 0.  1.
         11    1    3    3    0    0  0.16421338189E+02 -0.14989132520E+02 -0.66179371331E+02  0.69814351185E+02  0.00000000000E+00 0. -1.
<mgrwt>
<rscale>  0 0.12865440E+03</rscale>
<asrwt>0</asrwt>
<pdfrwt beam="2">  1        1 0.11706241E+00 0.13701135E+03</pdfrwt>
<pdfrwt beam="1">  1       -1 0.40881088E-02 0.13701135E+03</pdfrwt>
<totfact> 0.57403745E+03</totfact>
</mgrwt>
</event>
<event>
 7    1  0.1224355E-005  0.2110076E+03  0.7546771E-02  0.1168320E+00
          2   -1    0    0  501    0  0.00000000000E+00  0.00000000000E+00  0.21047385926E+03  0.21047385926E+03  0.00000000000E+00 0. -1.
         -2   -1    0    0    0  501 -0.00000000000E+00 -0.00000000000E+00 -0.12542639176E+03  0.12542639176E+03  0.00000000000E+00 0.  1.
         23    2    1    2    0    0  0.32624768329E+01 -0.64843494646E+02  0.60331422669E+01  0.11058387790E+03  0.89314459597E+02 0.  0.
          5    1    1    2  502    0 -0.55955294276E+02 -0.29478400307E+02  0.96793932958E+02  0.11572003500E+03  0.47000000000E+01 0. -1.
         -5    1    1    2    0  502  0.52692817443E+02  0.94321894953E+02 -0.17779607726E+02  0.10959633812E+03  0.47000000000E+01 0.  1.
        -11    1    3    3    0    0  0.40158637709E+02 -0.33620194218E+02 -0.19540953765E+02  0.55900648619E+02  0.00000000000E+00 0.  1.
         11    1    3    3    0    0 -0.36896160876E+02 -0.31223300428E+02  0.25574096031E+02  0.54683229283E+02  0.00000000000E+00 0. -1.
<mgrwt>
<rscale>  0 0.17946704E+03</rscale>
<asrwt>0</asrwt>
<pdfrwt beam="1">  1        2 0.32380594E-01 0.21100759E+03</pdfrwt>
<pdfrwt beam="2">  1       -2 0.19296368E-01 0.21100759E+03</pdfrwt>
<totfact> 0.35452015E+03</totfact>
</mgrwt>
</event>
<event>
 8    1  0.1224355E-005  0.1385737E+03  0.7546771E-02  0.1226873E+00
         -1   -1    0    0    0  501 -0.00000000000E+00  0.00000000000E+00  0.17164788595E+02  0.17164788595E+02  0.00000000000E+00 0.  1.
          1   -1    0    0  501    0  0.00000000000E+00 -0.00000000000E+00 -0.94992918077E+03  0.94992918077E+03  0.00000000000E+00 0. -1.
         23    2    1    2    0    0 -0.23139820936E+02  0.55126374854E+02 -0.29294896607E+03  0.31244409963E+03  0.90707497785E+02 0.  0.
         23    2    1    2    0    0  0.23139820936E+02 -0.55126374854E+02 -0.63981542610E+03  0.65464986973E+03  0.12501321508E+03 0.  0.
          5    1    4    4  502    0 -0.21749322836E+02 -0.80484180232E+02 -0.46054486204E+03  0.46805383907E+03  0.47000000000E+01 0. -1.
         -5    1    4    4    0  502  0.44889143772E+02  0.25357805378E+02 -0.17927056406E+03  0.18659603066E+03  0.47000000000E+01 0. -1.
        -11    1    3    3    0    0 -0.27124629003E+02 -0.19254273084E+02 -0.72914744639E+02  0.80143823944E+02  0.00000000000E+00 0. -1.
         11    1    3    3    0    0  0.39848080670E+01  0.74380647939E+02 -0.22003422143E+03  0.23230027569E+03  0.00000000000E+00 0.  1.
<mgrwt>
<rscale>  0 0.13039354E+03</rscale>
<asrwt>0</asrwt>
<pdfrwt beam="2">  1        1 0.14614297E+00 0.13857371E+03</pdfrwt>
<pdfrwt beam="1">  1       -1 0.26407364E-02 0.13857371E+03</pdfrwt>
<totfact> 0.77055938E+03</totfact>
</mgrwt>
</event>
<event>
 8    1  0.1224355E-005  0.1902238E+03  0.7546771E-02  0.1163336E+00
          1   -1    0    0  501    0  0.00000000000E+00  0.00000000000E+00  0.94676641708E+02  0.94676641708E+02  0.00000000000E+00 0.  1.
         -1   -1    0    0    0  501 -0.00000000000E+00 -0.00000000000E+00 -0.35011815209E+03  0.35011815209E+03  0.00000000000E+00 0. -1.
         23    2    1    2    0    0  0.52022910303E+02 -0.13361748741E+03 -0.15653778597E+03  0.23039554260E+03  0.89543349702E+02 0.  0.
         23    2    1    2    0    0 -0.52022910303E+02  0.13361748741E+03 -0.98903724406E+02  0.21439925119E+03  0.12500030429E+03 0.  0.
          5    1    4    4  502    0 -0.13612434739E+02  0.11426025240E+03 -0.10088778058E+02  0.11560526415E+03  0.47000000000E+01 0. -1.
         -5    1    4    4    0  502 -0.38410475565E+02  0.19357235010E+02 -0.88814946349E+02  0.98793987040E+02  0.47000000000E+01 0. -1.
        -11    1    3    3    0    0  0.10063370316E+02 -0.12575980589E+03 -0.12173725745E+03  0.17531902365E+03  0.00000000000E+00 0.  1.
         11    1    3    3    0    0  0.41959539988E+02 -0.78576815126E+01 -0.34800528522E+02  0.55076518954E+02  0.00000000000E+00 0. -1.
<mgrwt>
<rscale>  0 0.18469395E+03</rscale>
<asrwt>0</asrwt>
<pdfrwt beam="1">  1        1 0.14565637E-01 0.19022380E+03</pdfrwt>
<pdfrwt beam="2">  1       -1 0.53864331E-01 0.19022380E+03</pdfrwt>
<totfact> 0.13710755E+03</totfact>
</mgrwt>
</event>
<event>
 7    1  0.1224355E-005  0.1613555E+03  0.7546771E-02  0.1197517E+00
         -2   -1    0    0    0  501 -0.00000000000E+00  0.00000000000E+00  0.21478976906E+02  0.21478976906E+02  0.00000000000E+00 0.  1.
          2   -1    0    0  501    0  0.00000000000E+00 -0.00000000000E+00 -0.11842602762E+04  0.11842602762E+04  0.00000000000E+00 0. -1.
         23    2    1    2    0    0 -0.29161619744E+01  0.89630196722E+02 -0.27670644551E+03  0.30509267812E+03  0.92048949421E+02 0.  0.
          5    1    1    2  502    0 -0.91093281834E+01 -0.34704233029E+02 -0.77700118872E+03  0.77784336528E+03  0.47000000000E+01 0. -1.
         -5    1    1    2    0  502  0.12025490158E+02 -0.54925963693E+02 -0.10907366503E+03  0.12280320967E+03  0.47000000000E+01 0.  1.
        -11    1    3    3    0    0 -0.41110336002E+02  0.57503662590E+02 -0.10733228761E+03  0.12851829015E+03  0.00000000000E+00 0. -1.
         11    1    3    3    0    0  0.38194174028E+02  0.32126534131E+02 -0.16937415789E+03  0.17657438797E+03  0.00000000000E+00 0.  1.
<mgrwt>
<rscale>  0 0.15243089E+03</rscale>
<asrwt>0</asrwt>
<pdfrwt beam="2">  1        2 0.18219386E+00 0.16135553E+03</pdfrwt>
<pdfrwt beam="1">  1       -2 0.33044584E-02 0.16135553E+03</pdfrwt>
<totfact> 0.73317490E+03</totfact>
</mgrwt>
</event>
<event>
 8    1  0.1224355E-005  0.1429733E+03  0.7546771E-02  0.1219652E+00
         -2   -1    0    0    0  501 -0.00000000000E+00  0.00000000000E+00  0.97731850260E+02  0.97731850260E+02  0.00000000000E+00 0.  1.
          2   -1    0    0  501    0  0.00000000000E+00 -0.00000000000E+00 -0.28396971657E+03  0.28396971657E+03  0.00000000000E+00 0. -1.
         23    2    1    2    0    0  0.35218111338E+02 -0.59752535571E+02  0.33278765530E+02  0.11973037133E+03  0.91745325282E+02 0.  0.
         23    2    1    2    0    0 -0.35218111338E+02  0.59752535571E+02 -0.21951663184E+03  0.26197119550E+03  0.12502269691E+03 0.  0.
          5    1    4    4  502    0  0.20295948807E+02  0.61524428605E+02 -0.45662501262E+02  0.79399841779E+02  0.47000000000E+01 0.  1.
         -5    1    4    4    0  502 -0.55514060145E+02 -0.17718930338E+01 -0.17385413058E+03  0.18257135372E+03  0.47000000000E+01 0.  1.
        -11    1    3    3    0    0  0.10928467186E+02 -0.41887640233E+01 -0.29929806723E+02  0.32136746406E+02  0.00000000000E+00 0. -1.
         11    1    3    3    0    0  0.24289644152E+02 -0.55563771548E+02  0.63208572253E+02  0.87593624927E+02  0.00000000000E+00 0.  1.
<mgrwt>
<rscale>  0 0.13540274E+03</rscale>
<asrwt>0</asrwt>
<pdfrwt beam="2">  1        2 0.43687648E-01 0.14297327E+03</pdfrwt>
<pdfrwt beam="1">  1       -2 0.15035670E-01 0.14297327E+03</pdfrwt>
<totfact> 0.38239015E+03</totfact>
</mgrwt>
</event>
<event>
 7    1  0.1224355E-005  0.1280107E+03  0.7546771E-02  0.1282176E+00
          2   -1    0    0  501    0  0.00000000000E+00  0.00000000000E+00  0.10093794949E+04  0.10093794949E+04  0.00000000000E+00 0. -1.
         -2   -1    0    0    0  501 -0.00000000000E+00 -0.00000000000E+00 -0.82318360519E+01  0.82318360519E+01  0.00000000000E+00 0.  1.
         23    2    1    2    0    0  0.28530632646E+02  0.13522496538E+02  0.85103821339E+03  0.86061187075E+03  0.12405602170E+03 0.  0.
          5    1    3    3  502    0  0.95442129149E+01 -0.34889193397E+02  0.69721594719E+03  0.69816940267E+03  0.47000000000E+01 0. -1.
         -5    1    3    3    0  502  0.18986419731E+02  0.48411689935E+02  0.15382226620E+03  0.16244246808E+03  0.47000000000E+01 0.  1.
        -11    1    1    2    0    0 -0.10974939011E+02 -0.22291383927E+02  0.63349578837E+02  0.68047955315E+02  0.00000000000E+00 0. -1.
         11    1    1    2    0    0 -0.17555693635E+02  0.87688873887E+01  0.86759866641E+02  0.88951504903E+02  0.00000000000E+00 0.  1.
<mgrwt>
<rscale>  0 0.99111465E+02</rscale>
<asrwt>0</asrwt>
<pdfrwt beam="1">  1        2 0.15528906E+00 0.12801075E+03</pdfrwt>
<pdfrwt beam="2">  1       -2 0.12664371E-02 0.12801075E+03</pdfrwt>
<totfact> 0.36790962E+04</totfact>
</mgrwt>
</event>
<event>
 8    1  0.1224355E-005  0.1297383E+03  0.7546771E-02  0.1242105E+00
          1   -1    0    0  501    0  0.00000000000E+00  0.00000000000E+00  0.43393088984E+03  0.43393088984E+03  0.00000000000E+00 0. -1.
         -1   -1    0    0    0  501 -0.00000000000E+00 -0.00000000000E+00 -0.36440104119E+02  0.36440104119E+02  0.00000000000E+00 0.  1.
         23    2    1    2    0    0  0.29931449999E+02 -0.17630642001E+02  0.74235672260E+02  0.12205233537E+03  0.90438411618E+02 0.  0.
         23    2    1    2    0    0 -0.29931449999E+02  0.17630642001E+02  0.32325511346E+03  0.34831865860E+03  0.12500115323E+03 0.  0.
          5    1    4    4  502    0  0.38357427281E+02  0.40522629748E+02  0.11494326706E+03  0.12785703106E+03  0.47000000000E+01 0.  1.
         -5    1    4    4    0  502 -0.68288877280E+02 -0.22891987747E+02  0.20831184640E+03  0.22046162753E+03  0.47000000000E+01 0.  1.
        -11    1    3    3    0    0  0.65151395811E+01  0.19688287043E+02  0.75177226857E+02  0.77985198136E+02  0.00000000000E+00 0. -1.
         11    1    3    3    0    0  0.23416310417E+02 -0.37318929043E+02 -0.94155459715E+00  0.44067137229E+02  0.00000000000E+00 0.  1.
<mgrwt>
<rscale>  0 0.12060358E+03</rscale>
<asrwt>0</asrwt>
<pdfrwt beam="1">  1        1 0.66758595E-01 0.12973827E+03</pdfrwt>
<pdfrwt beam="2">  1       -1 0.56061702E-02 0.12973827E+03</pdfrwt>
<totfact> 0.76807320E+03</totfact>
</mgrwt>
</event>
<event>
 8    1  0.1224355E-005  0.2624233E+03  0.7546771E-02  0.1107906E+00
         -1   -1    0    0    0  501 -0.00000000000E+00  0.00000000000E+00  0.35334645381E+02  0.35334645381E+02  0.00000000000E+00 0.  1.
          1   -1    0    0  501    0  0.00000000000E+00 -0.00000000000E+00 -0.18827537830E+04  0.18827537830E+04  0.00000000000E+00 0. -1.
         23    2    1    2    0    0  0.14352297790E+03  0.18067402263E+03 -0.10371310025E+04  0.10663649576E+04  0.90838091225E+02 0.  0.
         23    2    1    2    0    0 -0.14352297790E+03 -0.18067402263E+03 -0.81028813505E+03  0.85172347071E+03  0.12499624441E+03 0.  0.
          5    1    4    4  502    0 -0.41801357856E+02 -0.84271000022E+02 -0.53013239276E+03  0.53843421030E+03  0.47000000000E+01 0.  1.
         -5    1    4    4    0  502 -0.10172162005E+03 -0.96403022606E+02 -0.28015574228E+03  0.31328926041E+03  0.47000000000E+01 0.  1.
        -11    1    3    3    0    0  0.64917091589E+02  0.14998611517E+03 -0.70207297139E+03  0.72084431099E+03  0.00000000000E+00 0.  1.
         11    1    3    3    0    0  0.78605886314E+02  0.30687907459E+02 -0.33505803115E+03  0.34552064666E+03  0.00000000000E+00 0. -1.
<mgrwt>
<rscale>  0 0.25873519E+03</rscale>
<asrwt>0</asrwt>
<pdfrwt beam="2">  1        1 0.28965434E+00 0.26242334E+03</pdfrwt>
<pdfrwt beam="1">  1       -1 0.54361010E-02 0.26242334E+03</pdfrwt>
<totfact> 0.62435184E+02</totfact>
</mgrwt>
</event>
<event>
 8    1  0.1224355E-005  0.1261837E+03  0.7546771E-02  0.1248442E+00
         -1   -1    0    0    0  501 -0.00000000000E+00  0.00000000000E+00  0.16667579768E+03  0.16667579768E+03  0.00000000000E+00 0.  1.
          1   -1    0    0  501    0  0.00000000000E+00 -0.00000000000E+00 -0.76137972475E+02  0.76137972475E+02  0.00000000000E+00 0. -1.
         23    2    1    2    0    0 -0.12503244114E+02 -0.11924553635E+02  0.67212791754E+02  0.11449234126E+03  0.91062674788E+02 0.  0.
         23    2    1    2    0    0  0.12503244114E+02  0.11924553635E+02  0.23325033454E+02  0.12832142890E+03  0.12499522325E+03 0.  0.
          5    1    4    4  502    0 -0.37722180916E+02 -0.38259250748E+02  0.17301627667E+01  0.53961251506E+02  0.47000000000E+01 0.  1.
         -5    1    4    4    0  502  0.50225425030E+02  0.50183804383E+02  0.21594870688E+02  0.74360177392E+02  0.47000000000E+01 0.  1.
        -11    1    3    3    0    0  0.39196582352E+02 -0.30480992612E+00  0.22760711103E+02  0.45326757518E+02  0.00000000000E+00 0. -1.
         11    1    3    3    0    0 -0.51699826466E+02 -0.11619743708E+02  0.44452080652E+02  0.69165583744E+02  0.00000000000E+00 0.  1.
<mgrwt>
<rscale>  0 0.11681741E+03</rscale>
<asrwt>0</asrwt>
<pdfrwt beam="2">  1        1 0.11713534E-01 0.12618372E+03</pdfrwt>
<pdfrwt beam="1">  1       -1 0.25642430E-01 0.12618372E+03</pdfrwt>
<totfact> 0.65227245E+03</totfact>
</mgrwt>
</event>
<event>
 7    1  0.1224355E-005  0.1800220E+03  0.7546771E-02  0.1177981E+00
         -4   -1    0    0    0  501 -0.00000000000E+00  0.00000000000E+00  0.19034823263E+03  0.19034823263E+03  0.00000000000E+00 0.  1.
          4   -1    0    0  501    0  0.00000000000E+00 -0.00000000000E+00 -0.15811427379E+03  0.15811427379E+03  0.00000000000E+00 0. -1.
         23    2    1    2    0    0 -0.77076226312E+02 -0.81289359929E+02  0.78085023175E+02  0.16269313991E+03  0.88448189521E+02 0.  0.
          5    1    1    2  502    0  0.73594074321E+02  0.10439068736E+03 -0.74943719382E+02  0.14816259466E+03  0.47000000000E+01 0. -1.
         -5    1    1    2    0  502  0.34821519908E+01 -0.23101327430E+02  0.29092655047E+02  0.37606771853E+02  0.47000000000E+01 0.  1.
        -11    1    3    3    0    0 -0.11471112343E+02 -0.50812608575E+02  0.73661727186E+02  0.90219497120E+02  0.00000000000E+00 0. -1.
         11    1    3    3    0    0 -0.65605113969E+02 -0.30476751354E+02  0.44232959890E+01  0.72473642791E+02  0.00000000000E+00 0.  1.
<mgrwt>
<rscale>  0 0.16987244E+03</rscale>
<asrwt>0</asrwt>
<pdfrwt beam="2">  1        4 0.24325273E-01 0.18002205E+03</pdfrwt>
<pdfrwt beam="1">  1       -4 0.29284344E-01 0.18002205E+03</pdfrwt>
<totfact> 0.30678756E+02</totfact>
</mgrwt>
</event>
<event>
 8    1  0.1224355E-005  0.1541701E+03  0.7546771E-02  0.1204248E+00
          2   -1    0    0  501    0  0.00000000000E+00  0.00000000000E+00  0.23271460741E+03  0.23271460741E+03  0.00000000000E+00 0. -1.
         -2   -1    0    0    0  501 -0.00000000000E+00 -0.00000000000E+00 -0.10968381480E+03  0.10968381480E+03  0.00000000000E+00 0.  1.
         23    2    1    2    0    0 -0.50548245376E+02  0.74777491770E+02 -0.23763490411E+02  0.12952059713E+03  0.89800240643E+02 0.  0.
         23    2    1    2    0    0  0.50548245376E+02 -0.74777491770E+02  0.14679428302E+03  0.21287782508E+03  0.12498643325E+03 0.  0.
          5    1    4    4  502    0  0.67920968466E+02  0.65706497985E+01  0.47578160934E+02  0.83319882345E+02  0.47000000000E+01 0. -1.
         -5    1    4    4    0  502 -0.17372723090E+02 -0.81348141569E+02  0.99216122082E+02  0.12955794273E+03  0.47000000000E+01 0. -1.
        -11    1    3    3    0    0  0.51301106899E+01  0.70056427742E+02 -0.22022634010E+02  0.73615334764E+02  0.00000000000E+00 0.  1.
         11    1    3    3    0    0 -0.55678356066E+02  0.47210640282E+01 -0.17408564011E+01  0.55905262371E+02  0.00000000000E+00 0. -1.
<mgrwt>
<rscale>  0 0.14696904E+03</rscale>
<asrwt>0</asrwt>
<pdfrwt beam="1">  1        2 0.35802247E-01 0.15417006E+03</pdfrwt>
<pdfrwt beam="2">  1       -2 0.16874433E-01 0.15417006E+03</pdfrwt>
<totfact> 0.39249647E+03</totfact>
</mgrwt>
</event>
<event>
 7    1  0.1224355E-005  0.7073561E+03  0.7546771E-02  0.9704734E-01
         -1   -1    0    0    0  501 -0.00000000000E+00  0.00000000000E+00  0.23755109284E+03  0.23755109284E+03  0.00000000000E+00 0.  1.
          1   -1    0    0  501    0  0.00000000000E+00 -0.00000000000E+00 -0.52657373437E+03  0.52657373437E+03  0.00000000000E+00 0. -1.
         23    2    1    2    0    0 -0.59459282405E+02  0.15849599566E+03  0.70279739083E+02  0.20489692693E+03  0.91581231900E+02 0.  0.
          5    1    1    2  502    0  0.15124554783E+03 -0.22326087026E+03 -0.35615027506E+03  0.44675019905E+03  0.47000000000E+01 0. -1.
         -5    1    1    2    0  502 -0.91786265422E+02  0.64764874605E+02 -0.31521055580E+01  0.11247770122E+03  0.47000000000E+01 0.  1.
        -11    1    3    3    0    0 -0.37463553769E+02  0.63620599120E+01  0.68696124935E+01  0.38615867763E+02  0.00000000000E+00 0. -1.
         11    1    3    3    0    0 -0.21995728636E+02  0.15213393575E+03  0.63410126590E+02  0.16628105917E+03  0.00000000000E+00 0.  1.
<mgrwt>
<rscale>  0 0.70735611E+03</rscale>
<asrwt>0</asrwt>
<pdfrwt beam="2">  1        1 0.81011343E-01 0.70735611E+03</pdfrwt>
<pdfrwt beam="1">  1       -1 0.36546323E-01 0.70735611E+03</pdfrwt>
<totfact> 0.29964766E+02</totfact>
</mgrwt>
</event>
<event>
 8    1  0.1224355E-005  0.1513011E+03  0.7546771E-02  0.1207823E+00
          2   -1    0    0  501    0  0.00000000000E+00  0.00000000000E+00  0.27426044759E+03  0.27426044759E+03  0.00000000000E+00 0. -1.
         -2   -1    0    0    0  501 -0.00000000000E+00 -0.00000000000E+00 -0.71018861423E+02  0.71018861423E+02  0.00000000000E+00 0.  1.
         23    2    1    2    0    0  0.26024789996E+02  0.81177331456E+02  0.66571813415E+02  0.14139048173E+03  0.91062687994E+02 0.  0.
         23    2    1    2    0    0 -0.26024789996E+02 -0.81177331456E+02  0.13666977275E+03  0.20388882729E+03  0.12499991309E+03 0.  0.
          5    1    4    4  502    0 -0.54581337162E+02 -0.10489305088E+02  0.11039392602E+02  0.56860408692E+02  0.47000000000E+01 0.  1.
         -5    1    4    4    0  502  0.28556547166E+02 -0.70688026368E+02  0.12563038015E+03  0.14702841860E+03  0.47000000000E+01 0.  1.
        -11    1    3    3    0    0  0.12802029390E+02  0.39099621591E+02  0.84339866645E+02  0.93839679618E+02  0.00000000000E+00 0. -1.
         11    1    3    3    0    0  0.13222760606E+02  0.42077709865E+02 -0.17768053230E+02  0.47550802108E+02  0.00000000000E+00 0.  1.
<mgrwt>
<rscale>  0 0.14417200E+03</rscale>
<asrwt>0</asrwt>
<pdfrwt beam="1">  1        2 0.42193914E-01 0.15130111E+03</pdfrwt>
<pdfrwt beam="2">  1       -2 0.10925979E-01 0.15130111E+03</pdfrwt>
<totfact> 0.66574299E+03</totfact>
</mgrwt>
</event>
<event>
 7    1  0.1224355E-005  0.2005334E+03  0.7546771E-02  0.1160318E+00
          1   -1    0    0  501    0  0.00000000000E+00  0.00000000000E+00  0.44869441766E+03  0.44869441766E+03  0.00000000000E+00 0. -1.
         -1   -1    0    0    0  501 -0.00000000000E+00 -0.00000000000E+00 -0.75081709630E+02  0.75081709630E+02  0.00000000000E+00 0.  1.
         23    2    1    2    0    0 -0.80014288336E+02 -0.95277167679E+02  0.98918925771E+02  0.18367272686E+03  0.92036360730E+02 0.  0.
          5    1    1    2  502    0  0.20649667333E+01  0.56219692933E+02  0.23933333450E+03  0.24590130737E+03  0.47000000000E+01 0. -1.
         -5    1    1    2    0  502  0.77949321602E+02  0.39057474746E+02  0.35360447751E+02  0.94202093061E+02  0.47000000000E+01 0.  1.
        -11    1    3    3    0    0 -0.28147263489E+01 -0.27513651220E+02  0.72517874233E+02  0.77612922707E+02  0.00000000000E+00 0.  1.
         11    1    3    3    0    0 -0.77199561987E+02 -0.67763516459E+02  0.26401051538E+02  0.10605980415E+03  0.00000000000E+00 0. -1.
<mgrwt>
<rscale>  0 0.18795543E+03</rscale>
<asrwt>0</asrwt>
<pdfrwt beam="1">  1        1 0.69029909E-01 0.20053341E+03</pdfrwt>
<pdfrwt beam="2">  1       -1 0.11551033E-01 0.20053341E+03</pdfrwt>
<totfact> 0.25086851E+03</totfact>
</mgrwt>
</event>
<event>
 8    1  0.1224355E-005  0.1424737E+03  0.7546771E-02  0.1220695E+00
          1   -1    0    0  501    0  0.00000000000E+00  0.00000000000E+00  0.99458438361E+03  0.99458438361E+03  0.00000000000E+00 0. -1.
         -1   -1    0    0    0  501 -0.00000000000E+00 -0.00000000000E+00 -0.19153445416E+02  0.19153445416E+02  0.00000000000E+00 0.  1.
         23    2    1    2    0    0 -0.31810962648E+01  0.68271966961E+02  0.25280390574E+03  0.27719958023E+03  0.90876903970E+02 0.  0.
         23    2    1    2    0    0  0.31810962648E+01 -0.68271966961E+02  0.72262703246E+03  0.73653824880E+03  0.12501033183E+03 0.  0.
          5    1    4    4  502    0  0.36329178203E+02 -0.58659332019E+01  0.62933683812E+02  0.73054479119E+02  0.47000000000E+01 0.  1.
         -5    1    4    4    0  502 -0.33148081938E+02 -0.62406033759E+02  0.65969334865E+03  0.66348376969E+03  0.47000000000E+01 0.  1.
        -11    1    3    3    0    0 -0.39511734147E+02  0.10624227584E+02  0.13547766256E+03  0.14152119417E+03  0.00000000000E+00 0. -1.
         11    1    3    3    0    0  0.36330637882E+02  0.57647739376E+02  0.11732624318E+03  0.13567838605E+03  0.00000000000E+00 0.  1.
<mgrwt>
<rscale>  0 0.13466354E+03</rscale>
<asrwt>0</asrwt>
<pdfrwt beam="1">  1        1 0.15301294E+00 0.14247373E+03</pdfrwt>
<pdfrwt beam="2">  1       -1 0.29466847E-02 0.14247373E+03</pdfrwt>
<totfact> 0.60952460E+03</totfact>
</mgrwt>
</event>
<event>
 7    1  0.1224355E-005  0.1727553E+03  0.7546771E-02  0.1203146E+00
          2   -1    0    0  501    0  0.00000000000E+00  0.00000000000E+00  0.17801815040E+03  0.17801815040E+03  0.00000000000E+00 0. -1.
         -2   -1    0    0    0  501 -0.00000000000E+00 -0.00000000000E+00 -0.12137715919E+03  0.12137715919E+03  0.00000000000E+00 0.  1.
         23    2    1    2    0    0 -0.76600593526E+00  0.15019073021E+02 -0.40577280316E+02  0.10116370142E+03  0.91440797724E+02 0.  0.
          5    1    1    2  502    0 -0.69954504461E+02 -0.29884437285E+02  0.10003177649E+03  0.12575833410E+03  0.47000000000E+01 0. -1.
         -5    1    1    2    0  502  0.70720510396E+02  0.14865364264E+02 -0.28135049653E+01  0.72473274078E+02  0.47000000000E+01 0.  1.
        -11    1    3    3    0    0 -0.30187484304E+02  0.42395077273E+02 -0.18007188001E+02  0.55071640663E+02  0.00000000000E+00 0.  1.
         11    1    3    3    0    0  0.29421478368E+02 -0.27376004251E+02 -0.22570092315E+02  0.46092060762E+02  0.00000000000E+00 0. -1.
<mgrwt>
<rscale>  0 0.14784522E+03</rscale>
<asrwt>0</asrwt>
<pdfrwt beam="1">  1        2 0.27387408E-01 0.17275526E+03</pdfrwt>
<pdfrwt beam="2">  1       -2 0.18673409E-01 0.17275526E+03</pdfrwt>
<totfact> 0.44583364E+03</totfact>
</mgrwt>
</event>
<event>
 8    1  0.1224355E-005  0.1586398E+03  0.7546771E-02  0.1198292E+00
         -2   -1    0    0    0  501 -0.00000000000E+00  0.00000000000E+00  0.34570854767E+02  0.34570854767E+02  0.00000000000E+00 0.  1.
          2   -1    0    0  501    0  0.00000000000E+00 -0.00000000000E+00 -0.65904622033E+03  0.65904622033E+03  0.00000000000E+00 0. -1.
         23    2    1    2    0    0  0.41624278406E+02  0.88367502507E+02 -0.19715081813E+03  0.23779601189E+03  0.90205887435E+02 0.  0.
         23    2    1    2    0    0 -0.41624278406E+02 -0.88367502507E+02 -0.42732454744E+03  0.45582106322E+03  0.12500070710E+03 0.  0.
          5    1    4    4  502    0 -0.70578683435E+02 -0.24028526306E+02 -0.30966510537E+03  0.31854872173E+03  0.47000000000E+01 0.  1.
         -5    1    4    4    0  502  0.28954405029E+02 -0.64338976201E+02 -0.11765944206E+03  0.13727234148E+03  0.47000000000E+01 0.  1.
        -11    1    3    3    0    0 -0.43652894259E+00  0.28120211346E+02 -0.78619354200E+00  0.28134586259E+02  0.00000000000E+00 0.  1.
         11    1    3    3    0    0  0.42060807349E+02  0.60247291161E+02 -0.19636462459E+03  0.20966142563E+03  0.00000000000E+00 0. -1.
<mgrwt>
<rscale>  0 0.15178879E+03</rscale>
<asrwt>0</asrwt>
<pdfrwt beam="2">  1        2 0.10139172E+00 0.15863976E+03</pdfrwt>
<pdfrwt beam="1">  1       -2 0.53185931E-02 0.15863976E+03</pdfrwt>
<totfact> 0.77933192E+03</totfact>
</mgrwt>
</event>
<event>
 8    1  0.1290463E-005  0.2232656E+03  0.7546771E-02  0.1134661E+00
          2   -1    0    0  501    0  0.00000000000E+00  0.00000000000E+00  0.43045674523E+03  0.43045674523E+03  0.00000000000E+00 0. -1.
         -2   -1    0    0    0  501 -0.00000000000E+00 -0.00000000000E+00 -0.11451352458E+03  0.11451352458E+03  0.00000000000E+00 0.  1.
         23    2    1    2    0    0 -0.17820889448E+03 -0.49629238098E+02  0.83797773910E+02  0.22288480707E+03  0.91837350587E+02 0.  0.
         23    2    1    2    0    0  0.17820889448E+03  0.49629238098E+02  0.23214544674E+03  0.32208546275E+03  0.12500426202E+03 0.  0.
          5    1    4    4  502    0  0.54627401299E+02 -0.72298135667E+01  0.27817283421E+01  0.55373740974E+02  0.47000000000E+01 0.  1.
         -5    1    4    4    0  502  0.12358149318E+03  0.56859051665E+02  0.22936371840E+03  0.26671172177E+03  0.47000000000E+01 0.  1.
        -11    1    3    3    0    0 -0.10383821383E+03 -0.19533955564E+02  0.94738427283E+02  0.14191307084E+03  0.00000000000E+00 0.  1.
         11    1    3    3    0    0 -0.74370680652E+02 -0.30095282535E+02 -0.10940653373E+02  0.80971736227E+02  0.00000000000E+00 0. -1.
<mgrwt>
<rscale>  0 0.21895928E+03</rscale>
<asrwt>0</asrwt>
<pdfrwt beam="1">  1        2 0.66224114E-01 0.22326562E+03</pdfrwt>
<pdfrwt beam="2">  1       -2 0.17617465E-01 0.22326562E+03</pdfrwt>
<totfact> 0.19114099E+03</totfact>
</mgrwt>
</event>
<event>
 8    1  0.1224355E-005  0.1846786E+03  0.7546771E-02  0.1168726E+00
          4   -1    0    0  501    0  0.00000000000E+00  0.00000000000E+00  0.50586657632E+02  0.50586657632E+02  0.00000000000E+00 0. -1.
         -4   -1    0    0    0  501 -0.00000000000E+00 -0.00000000000E+00 -0.59819690563E+03  0.59819690563E+03  0.00000000000E+00 0.  1.
         23    2    1    2    0    0  0.55311525440E+02  0.12434166909E+03 -0.26307124455E+03  0.30956586353E+03  0.90024044770E+02 0.  0.
         23    2    1    2    0    0 -0.55311525440E+02 -0.12434166909E+03 -0.28453900345E+03  0.33921769973E+03  0.12484385371E+03 0.  0.
          5    1    4    4  502    0 -0.59769841560E+02 -0.14814340619E+03 -0.24095377404E+03  0.28913615129E+03  0.47000000000E+01 0.  1.
         -5    1    4    4    0  502  0.44583161201E+01  0.23801737101E+02 -0.43585229404E+02  0.50081548437E+02  0.47000000000E+01 0.  1.
        -11    1    3    3    0    0  0.27035365822E+02  0.85908627822E+02 -0.80275987587E+02  0.12064591797E+03  0.00000000000E+00 0. -1.
         11    1    3    3    0    0  0.28276159617E+02  0.38433041270E+02 -0.18279525696E+03  0.18891994556E+03  0.00000000000E+00 0.  1.
<mgrwt>
<rscale>  0 0.17904937E+03</rscale>
<asrwt>0</asrwt>
<pdfrwt beam="1">  1        4 0.77825628E-02 0.18467865E+03</pdfrwt>
<pdfrwt beam="2">  1       -4 0.92030292E-01 0.18467865E+03</pdfrwt>
<totfact> 0.21050997E+02</totfact>
</mgrwt>
</event>
<event>
 8    1  0.1224355E-005  0.2586464E+03  0.7546771E-02  0.1110251E+00
         -1   -1    0    0    0  501 -0.00000000000E+00  0.00000000000E+00  0.53525271283E+02  0.53525271283E+02  0.00000000000E+00 0.  1.
          1   -1    0    0  501    0  0.00000000000E+00 -0.00000000000E+00 -0.13114516201E+04  0.13114516201E+04  0.00000000000E+00 0. -1.
         23    2    1    2    0    0  0.14636752827E+03 -0.17277263934E+03 -0.39633514675E+03  0.46540068588E+03  0.90787728419E+02 0.  0.
         23    2    1    2    0    0 -0.14636752827E+03  0.17277263934E+03 -0.86159120211E+03  0.89957620555E+03  0.12499644714E+03 0.  0.
          5    1    4    4  502    0 -0.88867115313E+01  0.35680597144E+02 -0.36820412291E+02  0.52248554197E+02  0.47000000000E+01 0.  1.
         -5    1    4    4    0  502 -0.13748081674E+03  0.13709204220E+03 -0.82477078982E+03  0.84732765135E+03  0.47000000000E+01 0.  1.
        -11    1    3    3    0    0  0.99286414722E+02 -0.48038488423E+02 -0.16729087094E+03  0.20037895103E+03  0.00000000000E+00 0.  1.
         11    1    3    3    0    0  0.47081113545E+02 -0.12473415092E+03 -0.22904427581E+03  0.26502173485E+03  0.00000000000E+00 0. -1.
<mgrwt>
<rscale>  0 0.25489379E+03</rscale>
<asrwt>0</asrwt>
<pdfrwt beam="2">  1        1 0.20176180E+00 0.25864638E+03</pdfrwt>
<pdfrwt beam="1">  1       -1 0.82346567E-02 0.25864638E+03</pdfrwt>
<totfact> 0.79130519E+02</totfact>
</mgrwt>
</event>
<event>
 8    1  0.1224355E-005  0.1665402E+03  0.7546771E-02  0.1188315E+00
          2   -1    0    0  501    0  0.00000000000E+00  0.00000000000E+00  0.22142140411E+03  0.22142140411E+03  0.00000000000E+00 0. -1.
         -2   -1    0    0    0  501 -0.00000000000E+00 -0.00000000000E+00 -0.11257379968E+03  0.11257379968E+03  0.00000000000E+00 0.  1.
         23    2    1    2    0    0 -0.67135229149E+02  0.87181679457E+02  0.83125815099E+02  0.16548036322E+03  0.91466197310E+02 0.  0.
         23    2    1    2    0    0  0.67135229149E+02 -0.87181679457E+02  0.25721789331E+02  0.16851484058E+03  0.12501142677E+03 0.  0.
          5    1    4    4  502    0  0.10213923967E+03 -0.69179377130E+02  0.44619067184E+01  0.12353221893E+03  0.47000000000E+01 0.  1.
         -5    1    4    4    0  502 -0.35004010524E+02 -0.18002302327E+02  0.21259882613E+02  0.44982621650E+02  0.47000000000E+01 0.  1.
        -11    1    3    3    0    0 -0.32999270403E+02  0.83703252079E+02  0.17837331070E+02  0.91724351376E+02  0.00000000000E+00 0.  1.
         11    1    3    3    0    0 -0.34135958746E+02  0.34784273779E+01  0.65288484029E+02  0.73756011846E+02  0.00000000000E+00 0. -1.
<mgrwt>
<rscale>  0 0.16033904E+03</rscale>
<asrwt>0</asrwt>
<pdfrwt beam="1">  1        2 0.34064831E-01 0.16654021E+03</pdfrwt>
<pdfrwt beam="2">  1       -2 0.17319046E-01 0.16654021E+03</pdfrwt>
<totfact> 0.39810872E+03</totfact>
</mgrwt>
</event>
<event>
 8    1  0.1224355E-005  0.1623857E+03  0.7546771E-02  0.1193593E+00
         -2   -1    0    0    0  501 -0.00000000000E+00  0.00000000000E+00  0.10451265117E+03  0.10451265117E+03  0.00000000000E+00 0. -1.
          2   -1    0    0  501    0  0.00000000000E+00 -0.00000000000E+00 -0.21570922581E+03  0.21570922581E+03  0.00000000000E+00 0.  1.
         23    2    1    2    0    0  0.34961785477E+02  0.97576759693E+02 -0.60389510637E+02  0.15007349897E+03  0.90175449109E+02 0.  0.
         23    2    1    2    0    0 -0.34961785477E+02 -0.97576759693E+02 -0.50807063995E+02  0.17014837801E+03  0.12500224923E+03 0.  0.
          5    1    4    4  502    0  0.40343141492E+02 -0.36842946488E+01 -0.21838365757E+02  0.46261726204E+02  0.47000000000E+01 0. -1.
         -5    1    4    4    0  502 -0.75304926969E+02 -0.93892465044E+02 -0.28968698238E+02  0.12388665181E+03  0.47000000000E+01 0. -1.
        -11    1    3    3    0    0  0.57456596120E+02  0.55371160855E+02 -0.96987448379E+01  0.80382159361E+02  0.00000000000E+00 0. -1.
         11    1    3    3    0    0 -0.22494810643E+02  0.42205598838E+02 -0.50690765799E+02  0.69691339608E+02  0.00000000000E+00 0.  1.
<mgrwt>
<rscale>  0 0.15573892E+03</rscale>
<asrwt>0</asrwt>
<pdfrwt beam="2">  1        2 0.33186034E-01 0.16238569E+03</pdfrwt>
<pdfrwt beam="1">  1       -2 0.16078870E-01 0.16238569E+03</pdfrwt>
<totfact> 0.46269819E+03</totfact>
</mgrwt>
</event>
<event>
 8    1  0.1224355E-005  0.1298232E+03  0.7546771E-02  0.1242576E+00
         -1   -1    0    0    0  501 -0.00000000000E+00  0.00000000000E+00  0.11444395393E+02  0.11444395393E+02  0.00000000000E+00 0.  1.
          1   -1    0    0  501    0  0.00000000000E+00 -0.00000000000E+00 -0.11409348534E+04  0.11409348534E+04  0.00000000000E+00 0. -1.
         23    2    1    2    0    0  0.30543143046E+02 -0.17221831865E+02 -0.39057423953E+03  0.40214512531E+03  0.89123454548E+02 0.  0.
         23    2    1    2    0    0 -0.30543143046E+02  0.17221831865E+02 -0.73891621847E+03  0.75023412347E+03  0.12499834807E+03 0.  0.
          5    1    4    4  502    0  0.31840768155E+02  0.47301125991E+02 -0.41791477743E+03  0.42181285214E+03  0.47000000000E+01 0.  1.
         -5    1    4    4    0  502 -0.62383911202E+02 -0.30079294126E+02 -0.32100144104E+03  0.32842127133E+03  0.47000000000E+01 0.  1.
        -11    1    3    3    0    0  0.17526061311E+02  0.36503659546E+02 -0.16538595568E+03  0.17027094385E+03  0.00000000000E+00 0.  1.
         11    1    3    3    0    0  0.13017081735E+02 -0.53725491411E+02 -0.22518828385E+03  0.23187418146E+03  0.00000000000E+00 0. -1.
<mgrwt>
<rscale>  0 0.12031644E+03</rscale>
<asrwt>0</asrwt>
<pdfrwt beam="2">  1        1 0.17552847E+00 0.12982320E+03</pdfrwt>
<pdfrwt beam="1">  1       -1 0.17606759E-02 0.12982320E+03</pdfrwt>
<totfact> 0.10050098E+04</totfact>
</mgrwt>
</event>
<event>
 7    1  0.1224355E-005  0.1688472E+03  0.7546771E-02  0.1203181E+00
         -2   -1    0    0    0  501 -0.00000000000E+00  0.00000000000E+00  0.17492278840E+02  0.17492278840E+02  0.00000000000E+00 0.  1.
          2   -1    0    0  501    0  0.00000000000E+00 -0.00000000000E+00 -0.11759332989E+04  0.11759332989E+04  0.00000000000E+00 0. -1.
         23    2    1    2    0    0 -0.24178477058E+02  0.27956188036E+02 -0.24156378917E+03  0.26113096279E+03  0.92033517170E+02 0.  0.
          5    1    1    2  502    0 -0.24915261814E+02  0.26421233354E+02 -0.73842577317E+03  0.73933318898E+03  0.47000000000E+01 0. -1.
         -5    1    1    2    0  502  0.49093738872E+02 -0.54377421391E+02 -0.17845145770E+03  0.19296142596E+03  0.47000000000E+01 0.  1.
        -11    1    3    3    0    0  0.30493917747E+02 -0.74579115515E+01 -0.10894722625E+03  0.11337988169E+03  0.00000000000E+00 0.  1.
         11    1    3    3    0    0 -0.54672394805E+02  0.35414099588E+02 -0.13261656293E+03  0.14775108110E+03  0.00000000000E+00 0. -1.
<mgrwt>
<rscale>  0 0.14781705E+03</rscale>
<asrwt>0</asrwt>
<pdfrwt beam="2">  1        2 0.18091281E+00 0.16884725E+03</pdfrwt>
<pdfrwt beam="1">  1       -2 0.26911199E-02 0.16884725E+03</pdfrwt>
<totfact> 0.10055055E+04</totfact>
</mgrwt>
</event>
<event>
 8    1  0.1224355E-005  0.1510239E+03  0.7546771E-02  0.1207978E+00
         -1   -1    0    0    0  501 -0.00000000000E+00  0.00000000000E+00  0.19829567560E+02  0.19829567560E+02  0.00000000000E+00 0.  1.
          1   -1    0    0  501    0  0.00000000000E+00 -0.00000000000E+00 -0.97684727606E+03  0.97684727606E+03  0.00000000000E+00 0. -1.
         23    2    1    2    0    0 -0.17329335714E+02  0.82961229810E+02 -0.37021257550E+03  0.39074905877E+03  0.91894528360E+02 0.  0.
         23    2    1    2    0    0  0.17329335714E+02 -0.82961229810E+02 -0.58680513300E+03  0.60592778485E+03  0.12500137924E+03 0.  0.
          5    1    4    4  502    0  0.14387370501E+01 -0.56683165432E+02 -0.79986770122E+02  0.98158161160E+02  0.47000000000E+01 0. -1.
         -5    1    4    4    0  502  0.15890598664E+02 -0.26278064378E+02 -0.50681836288E+03  0.50776962369E+03  0.47000000000E+01 0. -1.
        -11    1    3    3    0    0  0.39820285429E+01  0.80782760536E+02 -0.35592534430E+03  0.36499939954E+03  0.00000000000E+00 0. -1.
         11    1    3    3    0    0 -0.21311364257E+02  0.21784692739E+01 -0.14287231197E+02  0.25749659224E+02  0.00000000000E+00 0.  1.
<mgrwt>
<rscale>  0 0.14405235E+03</rscale>
<asrwt>0</asrwt>
<pdfrwt beam="2">  1        1 0.15028410E+00 0.15102389E+03</pdfrwt>
<pdfrwt beam="1">  1       -1 0.30507046E-02 0.15102389E+03</pdfrwt>
<totfact> 0.59869289E+03</totfact>
</mgrwt>
</event>
<event>
 8    1  0.1224355E-005  0.3506333E+03  0.7546771E-02  0.1063509E+00
          1   -1    0    0  501    0  0.00000000000E+00  0.00000000000E+00  0.22127363028E+04  0.22127363028E+04  0.00000000000E+00 0. -1.
         -1   -1    0    0    0  501 -0.00000000000E+00 -0.00000000000E+00 -0.54875716764E+02  0.54875716764E+02  0.00000000000E+00 0.  1.
         23    2    1    2    0    0 -0.11693556597E+03 -0.30598468926E+03  0.90473215252E+03  0.96635318216E+03  0.89429571334E+02 0.  0.
         23    2    1    2    0    0  0.11693556597E+03  0.30598468926E+03  0.12531284335E+04  0.13012588374E+04  0.12507251646E+03 0.  0.
          5    1    4    4  502    0  0.47872540124E+02  0.26543285928E+02  0.32160081876E+03  0.32625986997E+03  0.47000000000E+01 0.  1.
         -5    1    4    4    0  502  0.69063025842E+02  0.27944140333E+03  0.93152761476E+03  0.97499896743E+03  0.47000000000E+01 0.  1.
        -11    1    3    3    0    0  0.48767258375E+01 -0.71954740047E+02  0.25760465835E+03  0.26750967659E+03  0.00000000000E+00 0.  1.
         11    1    3    3    0    0 -0.12181229180E+03 -0.23402994921E+03  0.64712749417E+03  0.69884350557E+03  0.00000000000E+00 0. -1.
<mgrwt>
<rscale>  0 0.34783050E+03</rscale>
<asrwt>0</asrwt>
<pdfrwt beam="1">  1        1 0.34042090E+00 0.35063327E+03</pdfrwt>
<pdfrwt beam="2">  1       -1 0.84424197E-02 0.35063327E+03</pdfrwt>
<totfact> 0.19136948E+02</totfact>
</mgrwt>
</event>
<event>
 8    1  0.1224355E-005  0.2154443E+03  0.7546771E-02  0.1140827E+00
          2   -1    0    0  501    0  0.00000000000E+00  0.00000000000E+00  0.16044198353E+03  0.16044198353E+03  0.00000000000E+00 0. -1.
         -2   -1    0    0    0  501 -0.00000000000E+00 -0.00000000000E+00 -0.29222156545E+03  0.29222156545E+03  0.00000000000E+00 0.  1.
         23    2    1    2    0    0  0.17522158277E+03 -0.94771947186E+01 -0.13068784908E+03  0.23721644825E+03  0.91651018194E+02 0.  0.
         23    2    1    2    0    0 -0.17522158277E+03  0.94771947186E+01 -0.10917328469E+01  0.21544710073E+03  0.12499536409E+03 0.  0.
          5    1    4    4  502    0 -0.15016085853E+03  0.39544915625E+02 -0.39618900507E+02  0.16032414373E+03  0.47000000000E+01 0.  1.
         -5    1    4    4    0  502 -0.25060724240E+02 -0.30067720906E+02  0.38527167660E+02  0.55122956995E+02  0.47000000000E+01 0.  1.
        -11    1    3    3    0    0  0.17829497379E+03 -0.21676020621E+02 -0.13414080039E+03  0.22417114417E+03  0.00000000000E+00 0.  1.
         11    1    3    3    0    0 -0.30733910218E+01  0.12198825903E+02  0.34529513128E+01  0.13045304080E+02  0.00000000000E+00 0. -1.
<mgrwt>
<rscale>  0 0.21093636E+03</rscale>
<asrwt>0</asrwt>
<pdfrwt beam="1">  1        2 0.24683382E-01 0.21544433E+03</pdfrwt>
<pdfrwt beam="2">  1       -2 0.44957163E-01 0.21544433E+03</pdfrwt>
<totfact> 0.10312477E+03</totfact>
</mgrwt>
</event>
<event>
 8    1  0.1224355E-005  0.1252187E+03  0.7546771E-02  0.1249031E+00
         -1   -1    0    0    0  501 -0.00000000000E+00  0.00000000000E+00  0.48715099633E+02  0.48715099633E+02  0.00000000000E+00 0.  1.
          1   -1    0    0  501    0  0.00000000000E+00 -0.00000000000E+00 -0.25942665384E+03  0.25942665384E+03  0.00000000000E+00 0. -1.
         23    2    1    2    0    0  0.70725525438E+01  0.20529391888E+01 -0.56313695417E+02  0.10934934889E+03  0.93444166500E+02 0.  0.
         23    2    1    2    0    0 -0.70725525438E+01 -0.20529391888E+01 -0.15439785879E+03  0.19879240458E+03  0.12500194303E+03 0.  0.
          5    1    4    4  502    0 -0.53208518396E+02 -0.33404032929E+02 -0.11225088676E+03  0.12872189955E+03  0.47000000000E+01 0. -1.
         -5    1    4    4    0  502  0.46135965852E+02  0.31351093741E+02 -0.42146972034E+02  0.70070505032E+02  0.47000000000E+01 0. -1.
        -11    1    3    3    0    0 -0.53070215498E+00  0.36033389746E+02  0.73556306932E+01  0.36780322515E+02  0.00000000000E+00 0.  1.
         11    1    3    3    0    0  0.76032546988E+01 -0.33980450558E+02 -0.63669326110E+02  0.72569026378E+02  0.00000000000E+00 0. -1.
<mgrwt>
<rscale>  0 0.11647322E+03</rscale>
<asrwt>0</asrwt>
<pdfrwt beam="2">  1        1 0.39911793E-01 0.12521869E+03</pdfrwt>
<pdfrwt beam="1">  1       -1 0.74946307E-02 0.12521869E+03</pdfrwt>
<totfact> 0.94235106E+03</totfact>
</mgrwt>
</event>
<event>
 7    1  0.1224355E-005  0.2161704E+03  0.7546771E-02  0.1160054E+00
         -3   -1    0    0    0  501 -0.00000000000E+00  0.00000000000E+00  0.38581881257E+03  0.38581881257E+03  0.00000000000E+00 0.  1.
          3   -1    0    0  501    0  0.00000000000E+00 -0.00000000000E+00 -0.85737225299E+02  0.85737225299E+02  0.00000000000E+00 0. -1.
         23    2    1    2    0    0  0.28616396609E+02 -0.79463206235E+02  0.19486833154E+03  0.23114085407E+03  0.91209256561E+02 0.  0.
          5    1    1    2  502    0  0.97229309444E+00 -0.53853357138E+02 -0.17429289439E+02  0.56806685867E+02  0.47000000000E+01 0. -1.
         -5    1    1    2    0  502 -0.29588689704E+02  0.13331656337E+03  0.12264254518E+03  0.18360849794E+03  0.47000000000E+01 0.  1.
        -11    1    3    3    0    0  0.48195901165E+02 -0.84630099491E+02  0.12537693383E+03  0.15875917034E+03  0.00000000000E+00 0. -1.
         11    1    3    3    0    0 -0.19579504555E+02  0.51668932560E+01  0.69491397703E+02  0.72381683727E+02  0.00000000000E+00 0.  1.
<mgrwt>
<rscale>  0 0.18824425E+03</rscale>
<asrwt>0</asrwt>
<pdfrwt beam="2">  1        3 0.13190343E-01 0.21617038E+03</pdfrwt>
<pdfrwt beam="1">  1       -3 0.59356739E-01 0.21617038E+03</pdfrwt>
<totfact> 0.32080205E+02</totfact>
</mgrwt>
</event>
<event>
 8    1  0.1224355E-005  0.1490990E+03  0.7546771E-02  0.1210948E+00
          1   -1    0    0  501    0  0.00000000000E+00  0.00000000000E+00  0.13696599185E+03  0.13696599185E+03  0.00000000000E+00 0. -1.
         -1   -1    0    0    0  501 -0.00000000000E+00 -0.00000000000E+00 -0.14794844804E+03  0.14794844804E+03  0.00000000000E+00 0.  1.
         23    2    1    2    0    0 -0.29537200311E+02 -0.75714680945E+02 -0.48421368788E+02  0.13118681036E+03  0.90885593706E+02 0.  0.
         23    2    1    2    0    0  0.29537200311E+02  0.75714680945E+02  0.37438912596E+02  0.15372762954E+03  0.12500141117E+03 0.  0.
          5    1    4    4  502    0  0.51085047518E+02  0.46231942029E+02  0.74431906631E+02  0.10153459149E+03  0.47000000000E+01 0.  1.
         -5    1    4    4    0  502 -0.21547847207E+02  0.29482738916E+02 -0.36992994035E+02  0.52193038050E+02  0.47000000000E+01 0.  1.
        -11    1    3    3    0    0 -0.58437989055E+01 -0.90368822816E+02 -0.49698371308E+02  0.10329860712E+03  0.00000000000E+00 0. -1.
         11    1    3    3    0    0 -0.23693401406E+02  0.14654141871E+02  0.12770025199E+01  0.27888203234E+02  0.00000000000E+00 0.  1.
<mgrwt>
<rscale>  0 0.14178423E+03</rscale>
<asrwt>0</asrwt>
<pdfrwt beam="1">  1        1 0.21071691E-01 0.14909900E+03</pdfrwt>
<pdfrwt beam="2">  1       -1 0.22761300E-01 0.14909900E+03</pdfrwt>
<totfact> 0.37543063E+03</totfact>
</mgrwt>
</event>
<event>
 8    1  0.1224355E-005  0.1568272E+03  0.7546771E-02  0.1200419E+00
          1   -1    0    0  501    0  0.00000000000E+00  0.00000000000E+00  0.22038238717E+02  0.22038238717E+02  0.00000000000E+00 0. -1.
         -1   -1    0    0    0  501 -0.00000000000E+00 -0.00000000000E+00 -0.98557172118E+03  0.98557172118E+03  0.00000000000E+00 0.  1.
         23    2    1    2    0    0  0.60714828332E+02  0.72717576677E+02 -0.33612019162E+03  0.36089348519E+03  0.91066942988E+02 0.  0.
         23    2    1    2    0    0 -0.60714828332E+02 -0.72717576677E+02 -0.62741329084E+03  0.64671647470E+03  0.12498249791E+03 0.  0.
          5    1    4    4  502    0 -0.16904673554E+02  0.28930482106E+02 -0.28073157130E+03  0.28276323295E+03  0.47000000000E+01 0. -1.
         -5    1    4    4    0  502 -0.43810154778E+02 -0.10164805878E+03 -0.34668171955E+03  0.36395324176E+03  0.47000000000E+01 0. -1.
        -11    1    3    3    0    0 -0.15871524333E+02  0.47357680905E+02 -0.14811478697E+03  0.15630945380E+03  0.00000000000E+00 0.  1.
         11    1    3    3    0    0  0.76586352665E+02  0.25359895772E+02 -0.18800540464E+03  0.20458403140E+03  0.00000000000E+00 0. -1.
<mgrwt>
<rscale>  0 0.15004416E+03</rscale>
<asrwt>0</asrwt>
<pdfrwt beam="1">  1        1 0.33904989E-02 0.15682717E+03</pdfrwt>
<pdfrwt beam="2">  1       -1 0.15162639E+00 0.15682717E+03</pdfrwt>
<totfact> 0.10390485E+03</totfact>
</mgrwt>
</event>
<event>
 8    1  0.1224355E-005  0.1307514E+03  0.7546771E-02  0.1239176E+00
          1   -1    0    0  501    0  0.00000000000E+00  0.00000000000E+00  0.43610658034E+02  0.43610658034E+02  0.00000000000E+00 0. -1.
         -1   -1    0    0    0  501 -0.00000000000E+00 -0.00000000000E+00 -0.34340901412E+03  0.34340901412E+03  0.00000000000E+00 0.  1.
         23    2    1    2    0    0  0.24348460248E+02 -0.29628411677E+02 -0.19540147254E+03  0.21970367399E+03  0.92829298186E+02 0.  0.
         23    2    1    2    0    0 -0.24348460248E+02  0.29628411677E+02 -0.10439688355E+03  0.16731599817E+03  0.12500097460E+03 0.  0.
          5    1    4    4  502    0 -0.10326022753E+02  0.50104025222E+02  0.81100406782E+01  0.52008680517E+02  0.47000000000E+01 0. -1.
         -5    1    4    4    0  502 -0.14022437495E+02 -0.20475613544E+02 -0.11250692423E+03  0.11530731765E+03  0.47000000000E+01 0. -1.
        -11    1    3    3    0    0 -0.16259669764E+02  0.12647956995E+02 -0.60260605619E+01  0.21463016630E+02  0.00000000000E+00 0. -1.
         11    1    3    3    0    0  0.40608130012E+02 -0.42276368672E+02 -0.18937541197E+03  0.19824065736E+03  0.00000000000E+00 0.  1.
<mgrwt>
<rscale>  0 0.12240813E+03</rscale>
<asrwt>0</asrwt>
<pdfrwt beam="1">  1        1 0.67093321E-02 0.13075142E+03</pdfrwt>
<pdfrwt beam="2">  1       -1 0.52832155E-01 0.13075142E+03</pdfrwt>
<totfact> 0.39245403E+03</totfact>
</mgrwt>
</event>
<event>
 8    1  0.1224355E-005  0.2213399E+03  0.7546771E-02  0.1136154E+00
         -1   -1    0    0    0  501 -0.00000000000E+00  0.00000000000E+00  0.12550767208E+03  0.12550767208E+03  0.00000000000E+00 0.  1.
          1   -1    0    0  501    0  0.00000000000E+00 -0.00000000000E+00 -0.36459688691E+03  0.36459688691E+03  0.00000000000E+00 0. -1.
         23    2    1    2    0    0  0.54469376325E+02 -0.17435739074E+03 -0.13895244729E+03  0.24716686083E+03  0.91740186511E+02 0.  0.
         23    2    1    2    0    0 -0.54469376325E+02  0.17435739074E+03 -0.10013676754E+03  0.24293769815E+03  0.12499576116E+03 0.  0.
          5    1    4    4  502    0  0.54155983617E+00  0.13899632001E+03 -0.10910048378E+03  0.17676333280E+03  0.47000000000E+01 0.  1.
         -5    1    4    4    0  502 -0.55010936162E+02  0.35361070732E+02  0.89637162375E+01  0.66174365350E+02  0.47000000000E+01 0.  1.
        -11    1    3    3    0    0  0.11356382976E+02 -0.14270879944E+03 -0.68473149375E+02  0.15869259925E+03  0.00000000000E+00 0. -1.
         11    1    3    3    0    0  0.43112993350E+02 -0.31648591299E+02 -0.70479297915E+02  0.88474261576E+02  0.00000000000E+00 0.  1.
<mgrwt>
<rscale>  0 0.21698046E+03</rscale>
<asrwt>0</asrwt>
<pdfrwt beam="2">  1        1 0.56091829E-01 0.22133990E+03</pdfrwt>
<pdfrwt beam="1">  1       -1 0.19308872E-01 0.22133990E+03</pdfrwt>
<totfact> 0.14533800E+03</totfact>
</mgrwt>
</event>
<event>
 8    1  0.1224355E-005  0.1414593E+03  0.7546771E-02  0.1221702E+00
          1   -1    0    0  501    0  0.00000000000E+00  0.00000000000E+00  0.34260958057E+02  0.34260958057E+02  0.00000000000E+00 0. -1.
         -1   -1    0    0    0  501 -0.00000000000E+00 -0.00000000000E+00 -0.47583652429E+03  0.47583652429E+03  0.00000000000E+00 0.  1.
         23    2    1    2    0    0  0.37676205641E+02 -0.54479644307E+02 -0.18796188303E+03  0.21970011410E+03  0.92471306617E+02 0.  0.
         23    2    1    2    0    0 -0.37676205641E+02  0.54479644307E+02 -0.25361368321E+03  0.29039736825E+03  0.12499281205E+03 0.  0.
          5    1    4    4  502    0 -0.29427248613E+02  0.87648290991E+02 -0.23174001364E+03  0.24954700920E+03  0.47000000000E+01 0. -1.
         -5    1    4    4    0  502 -0.82489570280E+01 -0.33168646685E+02 -0.21873669562E+02  0.40850359057E+02  0.47000000000E+01 0. -1.
        -11    1    3    3    0    0  0.15496213904E+02 -0.76560283713E+02 -0.10380316845E+03  0.12991038245E+03  0.00000000000E+00 0.  1.
         11    1    3    3    0    0  0.22179991737E+02  0.22080639406E+02 -0.84158714582E+02  0.89789731652E+02  0.00000000000E+00 0. -1.
<mgrwt>
<rscale>  0 0.13395501E+03</rscale>
<asrwt>0</asrwt>
<pdfrwt beam="1">  1        1 0.52709172E-02 0.14145929E+03</pdfrwt>
<pdfrwt beam="2">  1       -1 0.73205612E-01 0.14145929E+03</pdfrwt>
<totfact> 0.29275565E+03</totfact>
</mgrwt>
</event>
<event>
 8    1  0.1224355E-005  0.1398365E+03  0.7546771E-02  0.1225251E+00
         -2   -1    0    0    0  501 -0.00000000000E+00  0.00000000000E+00  0.21696185463E+02  0.21696185463E+02  0.00000000000E+00 0. -1.
          2   -1    0    0  501    0  0.00000000000E+00 -0.00000000000E+00 -0.88125555374E+03  0.88125555374E+03  0.00000000000E+00 0.  1.
         23    2    1    2    0    0 -0.60832671571E+02 -0.15118013068E+02 -0.19246049349E+03  0.22135423309E+03  0.89596242675E+02 0.  0.
         23    2    1    2    0    0  0.60832671571E+02  0.15118013068E+02 -0.66709887478E+03  0.68159750611E+03  0.12500033340E+03 0.  0.
          5    1    4    4  502    0  0.37198200990E+02 -0.43807260344E+02 -0.15182822488E+03  0.16240899632E+03  0.47000000000E+01 0. -1.
         -5    1    4    4    0  502  0.23634470581E+02  0.58925273412E+02 -0.51527064991E+03  0.51918850979E+03  0.47000000000E+01 0. -1.
        -11    1    3    3    0    0 -0.41941190943E+02 -0.47552154216E+02 -0.15859484066E+03  0.17079986637E+03  0.00000000000E+00 0.  1.
         11    1    3    3    0    0 -0.18891480629E+02  0.32434141148E+02 -0.33865652824E+02  0.50554366711E+02  0.00000000000E+00 0. -1.
<mgrwt>
<rscale>  0 0.13149725E+03</rscale>
<asrwt>0</asrwt>
<pdfrwt beam="2">  1        2 0.13557777E+00 0.13983652E+03</pdfrwt>
<pdfrwt beam="1">  1       -2 0.33378749E-02 0.13983652E+03</pdfrwt>
<totfact> 0.10854852E+04</totfact>
</mgrwt>
</event>
<event>
 8    1  0.1224355E-005  0.2203495E+03  0.7546771E-02  0.1137078E+00
         -1   -1    0    0    0  501 -0.00000000000E+00  0.00000000000E+00  0.60726130603E+02  0.60726130603E+02  0.00000000000E+00 0.  1.
          1   -1    0    0  501    0  0.00000000000E+00 -0.00000000000E+00 -0.75916962256E+03  0.75916962256E+03  0.00000000000E+00 0. -1.
         23    2    1    2    0    0  0.12293431846E+03  0.13325799677E+03 -0.26407934294E+03  0.33283711768E+03  0.90399707858E+02 0.  0.
         23    2    1    2    0    0 -0.12293431846E+03 -0.13325799677E+03 -0.43436414902E+03  0.48705863548E+03  0.12523322276E+03 0.  0.
          5    1    4    4  502    0 -0.75583187847E+02 -0.11080358567E+03 -0.16542355600E+03  0.21301947273E+03  0.47000000000E+01 0.  1.
         -5    1    4    4    0  502 -0.47351130613E+02 -0.22454411107E+02 -0.26894059302E+03  0.27403916275E+03  0.47000000000E+01 0.  1.
        -11    1    3    3    0    0  0.20699406537E+02  0.19490525855E+02 -0.90833644717E+00  0.28445932999E+02  0.00000000000E+00 0.  1.
         11    1    3    3    0    0  0.10223491192E+03  0.11376747092E+03 -0.26317100649E+03  0.30439118468E+03  0.00000000000E+00 0. -1.
<mgrwt>
<rscale>  0 0.21576871E+03</rscale>
<asrwt>0</asrwt>
<pdfrwt beam="2">  1        1 0.11679533E+00 0.22034950E+03</pdfrwt>
<pdfrwt beam="1">  1       -1 0.93424810E-02 0.22034950E+03</pdfrwt>
<totfact> 0.16878845E+03</totfact>
</mgrwt>
</event>
<event>
 8    1  0.1224355E-005  0.1270789E+03  0.7546771E-02  0.1245610E+00
         -2   -1    0    0    0  501 -0.00000000000E+00  0.00000000000E+00  0.13959464894E+03  0.13959464894E+03  0.00000000000E+00 0.  1.
          2   -1    0    0  501    0  0.00000000000E+00 -0.00000000000E+00 -0.10000226983E+03  0.10000226983E+03  0.00000000000E+00 0. -1.
         23    2    1    2    0    0  0.22849522439E+02 -0.81106433567E+00  0.56441060691E+02  0.11140592609E+03  0.93289487806E+02 0.  0.
         23    2    1    2    0    0 -0.22849522439E+02  0.81106433567E+00 -0.16848681581E+02  0.12819099269E+03  0.12500517603E+03 0.  0.
          5    1    4    4  502    0 -0.11171362573E+02  0.57061921203E+01 -0.71065512526E+02  0.72317059127E+02  0.47000000000E+01 0. -1.
         -5    1    4    4    0  502 -0.11678159866E+02 -0.48951277846E+01  0.54216830945E+02  0.55873933561E+02  0.47000000000E+01 0. -1.
        -11    1    3    3    0    0  0.15887028346E+02 -0.45690341221E+02  0.17060509732E+02  0.51293917211E+02  0.00000000000E+00 0.  1.
         11    1    3    3    0    0  0.69624940936E+01  0.44879276885E+02  0.39380550959E+02  0.60112008880E+02  0.00000000000E+00 0. -1.
<mgrwt>
<rscale>  0 0.11848953E+03</rscale>
<asrwt>0</asrwt>
<pdfrwt beam="2">  1        2 0.15384965E-01 0.12707892E+03</pdfrwt>
<pdfrwt beam="1">  1       -2 0.21476100E-01 0.12707892E+03</pdfrwt>
<totfact> 0.66214262E+03</totfact>
</mgrwt>
</event>
<event>
 8    1  0.1224355E-005  0.1276109E+03  0.7546771E-02  0.1237668E+00
         -1   -1    0    0    0  501 -0.00000000000E+00  0.00000000000E+00  0.52151035613E+02  0.52151035613E+02  0.00000000000E+00 0.  1.
          1   -1    0    0  501    0  0.00000000000E+00 -0.00000000000E+00 -0.27573745019E+03  0.27573745019E+03  0.00000000000E+00 0. -1.
         23    2    1    2    0    0  0.16779377291E+02  0.61519020322E+02 -0.90796427172E+02  0.14372081723E+03  0.91353953145E+02 0.  0.
         23    2    1    2    0    0 -0.16779377291E+02 -0.61519020322E+02 -0.13278998741E+03  0.18416766857E+03  0.11053692608E+03 0.  0.
          5    1    4    4  502    0  0.10138864352E+02 -0.79380957582E+02 -0.12820136191E+03  0.15120123079E+03  0.47000000000E+01 0. -1.
         -5    1    4    4    0  502 -0.26918241642E+02  0.17861937260E+02 -0.45886254909E+01  0.32966437777E+02  0.47000000000E+01 0.  1.
        -11    1    3    3    0    0  0.13535452755E+02 -0.20079790396E+02 -0.42305173266E+02  0.48745606455E+02  0.00000000000E+00 0. -1.
         11    1    3    3    0    0  0.32439245355E+01  0.81598810717E+02 -0.48491253907E+02  0.94975210778E+02  0.00000000000E+00 0.  1.
<mgrwt>
<rscale>  0 0.12335159E+03</rscale>
<asrwt>0</asrwt>
<pdfrwt beam="2">  1        1 0.42421146E-01 0.12761093E+03</pdfrwt>
<pdfrwt beam="1">  1       -1 0.80232362E-02 0.12761093E+03</pdfrwt>
<totfact> 0.79011812E+03</totfact>
</mgrwt>
</event>
<event>
 7    1  0.1224355E-005  0.1423268E+03  0.7546771E-02  0.1225456E+00
         -3   -1    0    0    0  501 -0.00000000000E+00  0.00000000000E+00  0.10257293796E+03  0.10257293796E+03  0.00000000000E+00 0.  1.
          3   -1    0    0  501    0  0.00000000000E+00 -0.00000000000E+00 -0.42969623178E+03  0.42969623178E+03  0.00000000000E+00 0. -1.
         23    2    1    2    0    0  0.37059267968E+02 -0.33434042342E+02  0.60264728129E+02  0.11956299029E+03  0.90400479324E+02 0.  0.
          5    1    1    2  502    0 -0.73841926877E+02  0.23231570668E+02 -0.35200285207E+03  0.36044477234E+03  0.47000000000E+01 0. -1.
         -5    1    1    2    0  502  0.36782658908E+02  0.10202471674E+02 -0.35385169878E+02  0.52261407099E+02  0.47000000000E+01 0.  1.
        -11    1    3    3    0    0 -0.20156338756E+02  0.16528203841E+02  0.76674141859E+01  0.27170733419E+02  0.00000000000E+00 0. -1.
         11    1    3    3    0    0  0.57215606724E+02 -0.49962246183E+02  0.52597313943E+02  0.92392256875E+02  0.00000000000E+00 0.  1.
<mgrwt>
<rscale>  0 0.13135672E+03</rscale>
<asrwt>0</asrwt>
<pdfrwt beam="2">  1        3 0.66107112E-01 0.14232678E+03</pdfrwt>
<pdfrwt beam="1">  1       -3 0.15780452E-01 0.14232678E+03</pdfrwt>
<totfact> 0.17989985E+02</totfact>
</mgrwt>
</event>
<event>
 8    1  0.1224355E-005  0.1305673E+03  0.7546771E-02  0.1240551E+00
          1   -1    0    0  501    0  0.00000000000E+00  0.00000000000E+00  0.47658484643E+03  0.47658484643E+03  0.00000000000E+00 0. -1.
         -1   -1    0    0    0  501 -0.00000000000E+00 -0.00000000000E+00 -0.28626668587E+02  0.28626668587E+02  0.00000000000E+00 0.  1.
         23    2    1    2    0    0 -0.37446490208E+02  0.47994283292E+01  0.14226522161E+03  0.17280213107E+03  0.90531260255E+02 0.  0.
         23    2    1    2    0    0  0.37446490208E+02 -0.47994283292E+01  0.30569295623E+03  0.33240938394E+03  0.12499016321E+03 0.  0.
          5    1    4    4  502    0  0.80579910293E+02 -0.18801118134E+02  0.16735555543E+03  0.18675271328E+03  0.47000000000E+01 0.  1.
         -5    1    4    4    0  502 -0.43133420085E+02  0.14001689805E+02  0.13833740081E+03  0.14565667066E+03  0.47000000000E+01 0.  1.
        -11    1    3    3    0    0 -0.38118281163E+02 -0.30342723962E+02  0.12392123376E+03  0.13315463354E+03  0.00000000000E+00 0. -1.
         11    1    3    3    0    0  0.67179095554E+00  0.35142152291E+02  0.18343987851E+02  0.39647497537E+02  0.00000000000E+00 0.  1.
<mgrwt>
<rscale>  0 0.12155682E+03</rscale>
<asrwt>0</asrwt>
<pdfrwt beam="1">  1        1 0.73320740E-01 0.13056728E+03</pdfrwt>
<pdfrwt beam="2">  1       -1 0.44041032E-02 0.13056728E+03</pdfrwt>
<totfact> 0.97340612E+03</totfact>
</mgrwt>
</event>
<event>
 8    1  0.1224355E-005  0.1218325E+03  0.7546771E-02  0.1247578E+00
         -1   -1    0    0    0  501 -0.00000000000E+00  0.00000000000E+00  0.57362029228E+02  0.57362029228E+02  0.00000000000E+00 0.  1.
          1   -1    0    0  501    0  0.00000000000E+00 -0.00000000000E+00 -0.34399050788E+03  0.34399050788E+03  0.00000000000E+00 0. -1.
         23    2    1    2    0    0 -0.46567711951E+02 -0.21279981080E+02 -0.17894761256E+02  0.10629158801E+03  0.91412744249E+02 0.  0.
         23    2    1    2    0    0  0.46567711951E+02  0.21279981080E+02 -0.26873371739E+03  0.29506094909E+03  0.11055208466E+03 0.  0.
          5    1    4    4  502    0 -0.88205123113E+01 -0.28162643992E+02 -0.21332641439E+02  0.36716584057E+02  0.47000000000E+01 0.  1.
         -5    1    4    4    0  502  0.55388224263E+02  0.49442625072E+02 -0.24740107596E+03  0.25834436503E+03  0.47000000000E+01 0. -1.
        -11    1    3    3    0    0 -0.42482826319E+02  0.26495557144E+02 -0.27888727120E+02  0.57311309362E+02  0.00000000000E+00 0. -1.
         11    1    3    3    0    0 -0.40848856323E+01 -0.47775538224E+02  0.99939658644E+01  0.48980278653E+02  0.00000000000E+00 0.  1.
<mgrwt>
<rscale>  0 0.11732380E+03</rscale>
<asrwt>0</asrwt>
<pdfrwt beam="2">  1        1 0.52921616E-01 0.12183248E+03</pdfrwt>
<pdfrwt beam="1">  1       -1 0.88249276E-02 0.12183248E+03</pdfrwt>
<totfact> 0.51906551E+03</totfact>
</mgrwt>
</event>
<event>
 8    1  0.1224355E-005  0.1615954E+03  0.7546771E-02  0.1197464E+00
         -1   -1    0    0    0  501 -0.00000000000E+00  0.00000000000E+00  0.15233589210E+02  0.15233589210E+02  0.00000000000E+00 0.  1.
          1   -1    0    0  501    0  0.00000000000E+00 -0.00000000000E+00 -0.26536696216E+04  0.26536696216E+04  0.00000000000E+00 0. -1.
         23    2    1    2    0    0 -0.87387005702E+02  0.53389236208E+02 -0.31771754681E+03  0.34256545104E+03  0.76939907639E+02 0.  0.
         23    2    1    2    0    0  0.87387005702E+02 -0.53389236208E+02 -0.23207184856E+04  0.23263377598E+04  0.12500473551E+03 0.  0.
          5    1    4    4  502    0  0.10443176820E+03 -0.29353415840E+01 -0.17494995093E+04  0.17526223876E+04  0.47000000000E+01 0.  1.
         -5    1    4    4    0  502 -0.17044762496E+02 -0.50453894624E+02 -0.57121897625E+03  0.57371537215E+03  0.47000000000E+01 0.  1.
        -11    1    3    3    0    0 -0.72148690154E+02  0.66469004744E+02 -0.30051917529E+03  0.31612550799E+03  0.00000000000E+00 0. -1.
         11    1    3    3    0    0 -0.15238315548E+02 -0.13079768536E+02 -0.17198371513E+02  0.26439943048E+02  0.00000000000E+00 0.  1.
<mgrwt>
<rscale>  0 0.15247523E+03</rscale>
<asrwt>0</asrwt>
<pdfrwt beam="2">  1        1 0.40825696E+00 0.16159543E+03</pdfrwt>
<pdfrwt beam="1">  1       -1 0.23436285E-02 0.16159543E+03</pdfrwt>
<totfact> 0.69235615E+02</totfact>
</mgrwt>
</event>
<event>
 8    1  0.1224355E-005  0.1250013E+03  0.7546771E-02  0.1235237E+00
          2   -1    0    0  501    0  0.00000000000E+00  0.00000000000E+00  0.23497352548E+03  0.23497352548E+03  0.00000000000E+00 0. -1.
         -2   -1    0    0    0  501 -0.00000000000E+00 -0.00000000000E+00 -0.72430819247E+02  0.72430819247E+02  0.00000000000E+00 0.  1.
         23    2    1    2    0    0 -0.13940707243E+01  0.37946403545E+00  0.36306486634E+02  0.12975044423E+03  0.12455893938E+03 0.  0.
         23    2    1    2    0    0  0.13940707243E+01 -0.37946403545E+00  0.12623621959E+03  0.17765390049E+03  0.12499295099E+03 0.  0.
          5    1    4    4  502    0 -0.25379622142E+02 -0.54220577860E+02  0.39021963226E+02  0.71615640035E+02  0.47000000000E+01 0.  1.
         -5    1    4    4    0  502  0.26773692866E+02  0.53841113824E+02  0.87214256368E+02  0.10603826046E+03  0.47000000000E+01 0.  1.
        -11    1    3    3    0    0 -0.16839192476E+02  0.17514084686E+02 -0.41778335571E+02  0.48329399839E+02  0.00000000000E+00 0.  1.
         11    1    3    3    0    0  0.15445121752E+02 -0.17134620651E+02  0.78084822206E+02  0.81421044390E+02  0.00000000000E+00 0. -1.
<mgrwt>
<rscale>  0 0.12489266E+03</rscale>
<asrwt>0</asrwt>
<pdfrwt beam="1">  1        2 0.36149773E-01 0.12500130E+03</pdfrwt>
<pdfrwt beam="2">  1       -2 0.11143203E-01 0.12500130E+03</pdfrwt>
<totfact> 0.75109216E+03</totfact>
</mgrwt>
</event>
<event>
 8    1  0.1224355E-005  0.1385488E+03  0.7546771E-02  0.1227184E+00
          1   -1    0    0  501    0  0.00000000000E+00  0.00000000000E+00  0.16329666952E+04  0.16329666952E+04  0.00000000000E+00 0. -1.
         -1   -1    0    0    0  501 -0.00000000000E+00 -0.00000000000E+00 -0.23029117571E+02  0.23029117571E+02  0.00000000000E+00 0.  1.
         23    2    1    2    0    0 -0.58465864019E+02  0.12277242706E+02  0.12747468435E+03  0.16707271043E+03  0.89969480799E+02 0.  0.
         23    2    1    2    0    0  0.58465864019E+02 -0.12277242706E+02  0.14824628933E+04  0.14889231023E+04  0.12500714701E+03 0.  0.
          5    1    4    4  502    0  0.14620102169E+02 -0.23335178949E+01  0.18053591806E+02  0.23816273224E+02  0.47000000000E+01 0. -1.
         -5    1    4    4    0  502  0.43845761850E+02 -0.99437248108E+01  0.14644093015E+04  0.14651068291E+04  0.47000000000E+01 0. -1.
        -11    1    3    3    0    0 -0.35058151420E+02  0.72530305391E+01 -0.15612790831E+01  0.35834592580E+02  0.00000000000E+00 0.  1.
         11    1    3    3    0    0 -0.23407712599E+02  0.50242121666E+01  0.12903596343E+03  0.13123811785E+03  0.00000000000E+00 0. -1.
<mgrwt>
<rscale>  0 0.13018343E+03</rscale>
<asrwt>0</asrwt>
<pdfrwt beam="1">  1        1 0.25122556E+00 0.13854882E+03</pdfrwt>
<pdfrwt beam="2">  1       -1 0.35429424E-02 0.13854882E+03</pdfrwt>
<totfact> 0.17278663E+03</totfact>
</mgrwt>
</event>
<event>
 8    1  0.1224355E-005  0.1390618E+03  0.7546771E-02  0.1226272E+00
          2   -1    0    0  501    0  0.00000000000E+00  0.00000000000E+00  0.82919970735E+03  0.82919970735E+03  0.00000000000E+00 0. -1.
         -2   -1    0    0    0  501 -0.00000000000E+00 -0.00000000000E+00 -0.20676422449E+02  0.20676422449E+02  0.00000000000E+00 0.  1.
         23    2    1    2    0    0  0.12113126339E+02  0.59691322635E+02  0.22410019974E+03  0.24913614771E+03  0.90211633095E+02 0.  0.
         23    2    1    2    0    0 -0.12113126339E+02 -0.59691322635E+02  0.58442308516E+03  0.60073998209E+03  0.12501360638E+03 0.  0.
          5    1    4    4  502    0 -0.53811989273E+02 -0.70835390337E+02  0.29750555382E+03  0.31055599699E+03  0.47000000000E+01 0. -1.
         -5    1    4    4    0  502  0.41698862934E+02  0.11144067702E+02  0.28691753134E+03  0.29018398510E+03  0.47000000000E+01 0. -1.
        -11    1    3    3    0    0 -0.22468002296E+01 -0.23235605237E+02  0.34037161580E+02  0.41273112682E+02  0.00000000000E+00 0. -1.
         11    1    3    3    0    0  0.14359926568E+02  0.82926927872E+02  0.19006303816E+03  0.20786303503E+03  0.00000000000E+00 0.  1.
<mgrwt>
<rscale>  0 0.13080102E+03</rscale>
<asrwt>0</asrwt>
<pdfrwt beam="1">  1        2 0.12756916E+00 0.13906180E+03</pdfrwt>
<pdfrwt beam="2">  1       -2 0.31809887E-02 0.13906180E+03</pdfrwt>
<totfact> 0.12593278E+04</totfact>
</mgrwt>
</event>
<event>
 8    1  0.1224355E-005  0.1385707E+03  0.7546771E-02  0.1227789E+00
          1   -1    0    0  501    0  0.00000000000E+00  0.00000000000E+00  0.10888242824E+04  0.10888242824E+04  0.00000000000E+00 0. -1.
         -1   -1    0    0    0  501 -0.00000000000E+00 -0.00000000000E+00 -0.14158815096E+02  0.14158815096E+02  0.00000000000E+00 0.  1.
         23    2    1    2    0    0  0.51860830721E+02 -0.29782706887E+02  0.38214469315E+03  0.39673466257E+03  0.88245513121E+02 0.  0.
         23    2    1    2    0    0 -0.51860830721E+02  0.29782706887E+02  0.69252077416E+03  0.70624843494E+03  0.12500109525E+03 0.  0.
          5    1    4    4  502    0  0.97072238545E+01  0.64334108514E+02  0.26491490493E+03  0.27282797615E+03  0.47000000000E+01 0. -1.
         -5    1    4    4    0  502 -0.61568054575E+02 -0.34551401628E+02  0.42760586923E+03  0.43342045879E+03  0.47000000000E+01 0. -1.
        -11    1    3    3    0    0 -0.24743102599E+02 -0.21258075052E+01  0.10299530812E+03  0.10594703242E+03  0.00000000000E+00 0.  1.
         11    1    3    3    0    0  0.76603933320E+02 -0.27656899381E+02  0.27914938504E+03  0.29078763015E+03  0.00000000000E+00 0. -1.
<mgrwt>
<rscale>  0 0.12977590E+03</rscale>
<asrwt>0</asrwt>
<pdfrwt beam="1">  1        1 0.16751136E+00 0.13857067E+03</pdfrwt>
<pdfrwt beam="2">  1       -1 0.21782801E-02 0.13857067E+03</pdfrwt>
<totfact> 0.80713874E+03</totfact>
</mgrwt>
</event>
<event>
 7    1  0.1224355E-005  0.3557564E+03  0.7546771E-02  0.1102980E+00
         -1   -1    0    0    0  501 -0.00000000000E+00  0.00000000000E+00  0.25559952242E+02  0.25559952242E+02  0.00000000000E+00 0.  1.
          1   -1    0    0  501    0  0.00000000000E+00 -0.00000000000E+00 -0.30460671553E+04  0.30460671553E+04  0.00000000000E+00 0. -1.
         23    2    1    2    0    0  0.34371364548E+02 -0.57858203458E+02 -0.20785357087E+03  0.23656395609E+03  0.90721750358E+02 0.  0.
          5    1    1    2  502    0  0.29309794096E+02  0.19591396853E+03 -0.18316969534E+04  0.18423835557E+04  0.47000000000E+01 0. -1.
         -5    1    1    2    0  502 -0.63681158644E+02 -0.13805576507E+03 -0.98095667876E+03  0.99267959576E+03  0.47000000000E+01 0.  1.
        -11    1    3    3    0    0 -0.17253325768E+02 -0.21782069991E+02 -0.11007825060E+02  0.29888259162E+02  0.00000000000E+00 0.  1.
         11    1    3    3    0    0  0.51624690316E+02 -0.36076133467E+02 -0.19684574581E+03  0.20667569693E+03  0.00000000000E+00 0. -1.
<mgrwt>
<rscale>  0 0.26705045E+03</rscale>
<asrwt>0</asrwt>
<pdfrwt beam="2">  1        1 0.46862565E+00 0.35575640E+03</pdfrwt>
<pdfrwt beam="1">  1       -1 0.39323009E-02 0.35575640E+03</pdfrwt>
<totfact> 0.16606347E+02</totfact>
</mgrwt>
</event>
<event>
 8    1  0.1224355E-005  0.1897119E+03  0.7546771E-02  0.1163619E+00
         -1   -1    0    0    0  501 -0.00000000000E+00  0.00000000000E+00  0.60238197034E+03  0.60238197034E+03  0.00000000000E+00 0.  1.
          1   -1    0    0  501    0  0.00000000000E+00 -0.00000000000E+00 -0.57086711083E+02  0.57086711083E+02  0.00000000000E+00 0. -1.
         23    2    1    2    0    0 -0.68983976644E+02  0.12492979281E+03  0.34071418381E+03  0.38046327252E+03  0.91103811788E+02 0.  0.
         23    2    1    2    0    0  0.68983976644E+02 -0.12492979281E+03  0.20458107545E+03  0.27900540891E+03  0.12499743838E+03 0.  0.
          5    1    4    4  502    0  0.73098114784E+02 -0.14029170920E+03  0.20869688147E+03  0.26191902640E+03  0.47000000000E+01 0. -1.
         -5    1    4    4    0  502 -0.41141381405E+01  0.15361916394E+02 -0.41158060185E+01  0.17086382505E+02  0.47000000000E+01 0. -1.
        -11    1    3    3    0    0 -0.58708748252E+02  0.43206748143E+02  0.23737269258E+03  0.24831297870E+03  0.00000000000E+00 0.  1.
         11    1    3    3    0    0 -0.10275228392E+02  0.81723044665E+02  0.10334149123E+03  0.13215029382E+03  0.00000000000E+00 0. -1.
<mgrwt>
<rscale>  0 0.18439200E+03</rscale>
<asrwt>0</asrwt>
<pdfrwt beam="2">  1        1 0.87825714E-02 0.18971189E+03</pdfrwt>
<pdfrwt beam="1">  1       -1 0.92674145E-01 0.18971189E+03</pdfrwt>
<totfact> 0.90695127E+02</totfact>
</mgrwt>
</event>
<event>
 8    1  0.1224355E-005  0.1445092E+03  0.7546771E-02  0.1217479E+00
         -2   -1    0    0    0  501 -0.00000000000E+00  0.00000000000E+00  0.12265317668E+03  0.12265317668E+03  0.00000000000E+00 0.  1.
          2   -1    0    0  501    0  0.00000000000E+00 -0.00000000000E+00 -0.14138129693E+03  0.14138129693E+03  0.00000000000E+00 0. -1.
         23    2    1    2    0    0  0.54815604306E+02 -0.47494910838E+02  0.87934866276E+01  0.11692791131E+03  0.91292354578E+02 0.  0.
         23    2    1    2    0    0 -0.54815604306E+02  0.47494910838E+02 -0.27521606875E+02  0.14710656230E+03  0.12498953875E+03 0.  0.
          5    1    4    4  502    0 -0.85914401431E+02  0.10471712107E+02  0.78230377878E+01  0.87030058301E+02  0.47000000000E+01 0.  1.
         -5    1    4    4    0  502  0.31098797124E+02  0.37023198730E+02 -0.35344644663E+02  0.60076504002E+02  0.47000000000E+01 0.  1.
        -11    1    3    3    0    0  0.50695615936E+02 -0.20423353877E+02  0.45511881688E+02  0.71123064005E+02  0.00000000000E+00 0.  1.
         11    1    3    3    0    0  0.41199883707E+01 -0.27071556961E+02 -0.36718395061E+02  0.45804847301E+02  0.00000000000E+00 0. -1.
<mgrwt>
<rscale>  0 0.13695983E+03</rscale>
<asrwt>0</asrwt>
<pdfrwt beam="2">  1        2 0.21750969E-01 0.14450918E+03</pdfrwt>
<pdfrwt beam="1">  1       -2 0.18869719E-01 0.14450918E+03</pdfrwt>
<totfact> 0.55989284E+03</totfact>
</mgrwt>
</event>
<event>
 8    1  0.1224355E-005  0.1276626E+03  0.7546771E-02  0.1247049E+00
          2   -1    0    0  501    0  0.00000000000E+00  0.00000000000E+00  0.76953428146E+03  0.76953428146E+03  0.00000000000E+00 0. -1.
         -2   -1    0    0    0  501 -0.00000000000E+00 -0.00000000000E+00 -0.15683172517E+02  0.15683172517E+02  0.00000000000E+00 0.  1.
         23    2    1    2    0    0  0.24629763473E+02  0.77977658361E+01  0.32038746345E+03  0.33334525700E+03  0.88337439535E+02 0.  0.
         23    2    1    2    0    0 -0.24629763473E+02 -0.77977658361E+01  0.43346364549E+03  0.45187219698E+03  0.12502127835E+03 0.  0.
          5    1    4    4  502    0 -0.46465884847E+02 -0.86316223190E+01  0.54666454232E+02  0.72416120973E+02  0.47000000000E+01 0. -1.
         -5    1    4    4    0  502  0.21836121374E+02  0.83385648296E+00  0.37879719126E+03  0.37945607601E+03  0.47000000000E+01 0. -1.
        -11    1    3    3    0    0  0.96459248282E+01 -0.40299985582E+02  0.13316484448E+03  0.13946328732E+03  0.00000000000E+00 0.  1.
         11    1    3    3    0    0  0.14983838645E+02  0.48097751418E+02  0.18722261897E+03  0.19388196968E+03  0.00000000000E+00 0. -1.
<mgrwt>
<rscale>  0 0.11763574E+03</rscale>
<asrwt>0</asrwt>
<pdfrwt beam="1">  1        2 0.11838986E+00 0.12766264E+03</pdfrwt>
<pdfrwt beam="2">  1       -2 0.24127964E-02 0.12766264E+03</pdfrwt>
<totfact> 0.20586803E+04</totfact>
</mgrwt>
</event>
<event>
 8    1  0.1224355E-005  0.1446422E+03  0.7546771E-02  0.1216860E+00
          1   -1    0    0  501    0  0.00000000000E+00  0.00000000000E+00  0.30034015576E+03  0.30034015576E+03  0.00000000000E+00 0. -1.
         -1   -1    0    0    0  501 -0.00000000000E+00 -0.00000000000E+00 -0.57640323702E+02  0.57640323702E+02  0.00000000000E+00 0.  1.
         23    2    1    2    0    0 -0.21122177017E+02 -0.69639546012E+02  0.96016028986E+02  0.15197682069E+03  0.92639427220E+02 0.  0.
         23    2    1    2    0    0  0.21122177017E+02  0.69639546012E+02  0.14668380307E+03  0.20600365877E+03  0.12500222642E+03 0.  0.
          5    1    4    4  502    0 -0.18213104906E+02  0.66248974758E+02  0.15104626117E+03  0.16600514107E+03  0.47000000000E+01 0.  1.
         -5    1    4    4    0  502  0.39335281923E+02  0.33905712542E+01 -0.43624581007E+01  0.39998517699E+02  0.47000000000E+01 0.  1.
        -11    1    3    3    0    0  0.29810044546E+02 -0.18252521234E+02  0.43895883663E+01  0.35228706665E+02  0.00000000000E+00 0.  1.
         11    1    3    3    0    0 -0.50932221564E+02 -0.51387024778E+02  0.91626440619E+02  0.11674811403E+03  0.00000000000E+00 0. -1.
<mgrwt>
<rscale>  0 0.13740789E+03</rscale>
<asrwt>0</asrwt>
<pdfrwt beam="1">  1        1 0.46206177E-01 0.14464221E+03</pdfrwt>
<pdfrwt beam="2">  1       -1 0.88677423E-02 0.14464221E+03</pdfrwt>
<totfact> 0.61610508E+03</totfact>
</mgrwt>
</event>
<event>
 8    1  0.1224355E-005  0.1721227E+03  0.7546771E-02  0.1183561E+00
          2   -1    0    0  501    0  0.00000000000E+00  0.00000000000E+00  0.57123172257E+03  0.57123172257E+03  0.00000000000E+00 0. -1.
         -2   -1    0    0    0  501 -0.00000000000E+00 -0.00000000000E+00 -0.44913384731E+02  0.44913384731E+02  0.00000000000E+00 0.  1.
         23    2    1    2    0    0  0.11579372987E+03 -0.24386840793E+02  0.19114326187E+03  0.23935794762E+03  0.82180135356E+02 0.  0.
         23    2    1    2    0    0 -0.11579372987E+03  0.24386840793E+02  0.33517507597E+03  0.37678715968E+03  0.12499330491E+03 0.  0.
          5    1    4    4  502    0 -0.67125978270E+02 -0.45342820310E+02  0.21235557227E+03  0.22732982072E+03  0.47000000000E+01 0. -1.
         -5    1    4    4    0  502 -0.48667751599E+02  0.69729661103E+02  0.12281950370E+03  0.14945733897E+03  0.47000000000E+01 0. -1.
        -11    1    3    3    0    0  0.56948469192E+02 -0.38148181459E+02  0.15363210480E+03  0.16822971057E+03  0.00000000000E+00 0. -1.
         11    1    3    3    0    0  0.58845260677E+02  0.13761340666E+02  0.37511157075E+02  0.71128237052E+02  0.00000000000E+00 0.  1.
<mgrwt>
<rscale>  0 0.16463527E+03</rscale>
<asrwt>0</asrwt>
<pdfrwt beam="1">  1        2 0.87881798E-01 0.17212272E+03</pdfrwt>
<pdfrwt beam="2">  1       -2 0.69097519E-02 0.17212272E+03</pdfrwt>
<totfact> 0.61927382E+03</totfact>
</mgrwt>
</event>
<event>
 8    1  0.1224355E-005  0.1709966E+03  0.7546771E-02  0.1183472E+00
         -2   -1    0    0    0  501 -0.00000000000E+00  0.00000000000E+00  0.48384656975E+02  0.48384656975E+02  0.00000000000E+00 0.  1.
          2   -1    0    0  501    0  0.00000000000E+00 -0.00000000000E+00 -0.52436180402E+03  0.52436180402E+03  0.00000000000E+00 0. -1.
         23    2    1    2    0    0 -0.11452942776E+03 -0.22327240960E+02 -0.20706003201E+03  0.25406756279E+03  0.89782927623E+02 0.  0.
         23    2    1    2    0    0  0.11452942776E+03  0.22327240960E+02 -0.26891711504E+03  0.31867889821E+03  0.12499731954E+03 0.  0.
          5    1    4    4  502    0  0.68883153004E+02 -0.50031863226E+02 -0.13032905204E+03  0.15574282619E+03  0.47000000000E+01 0. -1.
         -5    1    4    4    0  502  0.45646274758E+02  0.72359104186E+02 -0.13858806300E+03  0.16293607201E+03  0.47000000000E+01 0. -1.
        -11    1    3    3    0    0 -0.56701508950E+02 -0.51025398311E+02 -0.74508827864E+02  0.10663122347E+03  0.00000000000E+00 0.  1.
         11    1    3    3    0    0 -0.57827918813E+02  0.28698157351E+02 -0.13255120415E+03  0.14743633932E+03  0.00000000000E+00 0. -1.
<mgrwt>
<rscale>  0 0.16471726E+03</rscale>
<asrwt>0</asrwt>
<pdfrwt beam="2">  1        2 0.80671043E-01 0.17099657E+03</pdfrwt>
<pdfrwt beam="1">  1       -2 0.74437937E-02 0.17099657E+03</pdfrwt>
<totfact> 0.60777797E+03</totfact>
</mgrwt>
</event>
<event>
 8    1  0.1224355E-005  0.1391816E+03  0.7546771E-02  0.1225194E+00
          1   -1    0    0  501    0  0.00000000000E+00  0.00000000000E+00  0.14436847230E+04  0.14436847230E+04  0.00000000000E+00 0. -1.
         -1   -1    0    0    0  501 -0.00000000000E+00 -0.00000000000E+00 -0.14699208902E+02  0.14699208902E+02  0.00000000000E+00 0.  1.
         23    2    1    2    0    0 -0.13593140250E+02 -0.59699815088E+02  0.28337018734E+03  0.30434493659E+03  0.92619306695E+02 0.  0.
         23    2    1    2    0    0  0.13593140250E+02  0.59699815088E+02  0.11456153268E+04  0.11540389953E+04  0.12499073731E+03 0.  0.
          5    1    4    4  502    0  0.62102124238E+02  0.50995604149E+02  0.89284123862E+03  0.89646237671E+03  0.47000000000E+01 0. -1.
         -5    1    4    4    0  502 -0.48508983989E+02  0.87042109391E+01  0.25277408817E+03  0.25757661863E+03  0.47000000000E+01 0. -1.
        -11    1    3    3    0    0  0.26737878548E+02 -0.63058604319E+02  0.20504088950E+03  0.21617832476E+03  0.00000000000E+00 0. -1.
         11    1    3    3    0    0 -0.40331018797E+02  0.33587892307E+01  0.78329297838E+02  0.88166611833E+02  0.00000000000E+00 0.  1.
<mgrwt>
<rscale>  0 0.13153593E+03</rscale>
<asrwt>0</asrwt>
<pdfrwt beam="1">  1        1 0.22210523E+00 0.13918163E+03</pdfrwt>
<pdfrwt beam="2">  1       -1 0.22614179E-02 0.13918163E+03</pdfrwt>
<totfact> 0.44016642E+03</totfact>
</mgrwt>
</event>
<event>
 8    1  0.1224355E-005  0.1292629E+03  0.7546771E-02  0.1243240E+00
         -2   -1    0    0    0  501 -0.00000000000E+00  0.00000000000E+00  0.27148300501E+02  0.27148300501E+02  0.00000000000E+00 0.  1.
          2   -1    0    0  501    0  0.00000000000E+00 -0.00000000000E+00 -0.59268006190E+03  0.59268006190E+03  0.00000000000E+00 0. -1.
         23    2    1    2    0    0 -0.59640901658E+01 -0.32503233750E+02 -0.10768521745E+03  0.14408436520E+03  0.89845242848E+02 0.  0.
         23    2    1    2    0    0  0.59640901658E+01  0.32503233750E+02 -0.45784654394E+03  0.47574399719E+03  0.12496744572E+03 0.  0.
          5    1    4    4  502    0 -0.37839978540E+02 -0.28595313666E+02 -0.11078856976E+03  0.12060577568E+03  0.47000000000E+01 0. -1.
         -5    1    4    4    0  502  0.43804068706E+02  0.61098547416E+02 -0.34705797419E+03  0.35513822151E+03  0.47000000000E+01 0. -1.
        -11    1    3    3    0    0 -0.11963092116E+02  0.70555024727E+01  0.11708061887E+02  0.18165197529E+02  0.00000000000E+00 0.  1.
         11    1    3    3    0    0  0.59990019503E+01 -0.39558736222E+02 -0.11939327934E+03  0.12591916768E+03  0.00000000000E+00 0. -1.
<mgrwt>
<rscale>  0 0.11991325E+03</rscale>
<asrwt>0</asrwt>
<pdfrwt beam="2">  1        2 0.91181548E-01 0.12926288E+03</pdfrwt>
<pdfrwt beam="1">  1       -2 0.41766616E-02 0.12926288E+03</pdfrwt>
<totfact> 0.12489466E+04</totfact>
</mgrwt>
</event>
<event>
 8    1  0.1224355E-005  0.1716950E+03  0.7546771E-02  0.1181696E+00
          3   -1    0    0  501    0  0.00000000000E+00  0.00000000000E+00  0.34622918805E+03  0.34622918805E+03  0.00000000000E+00 0. -1.
         -3   -1    0    0    0  501 -0.00000000000E+00 -0.00000000000E+00 -0.76145587130E+02  0.76145587130E+02  0.00000000000E+00 0.  1.
         23    2    1    2    0    0  0.45757656118E+02  0.10844116962E+03  0.10503581159E+03  0.18421527969E+03  0.95128845226E+02 0.  0.
         23    2    1    2    0    0 -0.45757656118E+02 -0.10844116962E+03  0.16504778933E+03  0.23815949549E+03  0.12500368862E+03 0.  0.
          5    1    4    4  502    0  0.27732121232E+02 -0.85401429492E+01  0.86316078515E+02  0.91184209159E+02  0.47000000000E+01 0. -1.
         -5    1    4    4    0  502 -0.73489777350E+02 -0.99901026667E+02  0.78731710815E+02  0.14697528633E+03  0.47000000000E+01 0. -1.
        -11    1    3    3    0    0 -0.16998398360E+02  0.32260218105E+02 -0.45338522402E+01  0.36745381140E+02  0.00000000000E+00 0.  1.
         11    1    3    3    0    0  0.62756054478E+02  0.76180951511E+02  0.10956966383E+03  0.14746989855E+03  0.00000000000E+00 0. -1.
<mgrwt>
<rscale>  0 0.16636202E+03</rscale>
<asrwt>0</asrwt>
<pdfrwt beam="1">  1        3 0.53266028E-01 0.17169500E+03</pdfrwt>
<pdfrwt beam="2">  1       -3 0.11714706E-01 0.17169500E+03</pdfrwt>
<totfact> 0.47678901E+02</totfact>
</mgrwt>
</event>
<event>
 8    1  0.1224355E-005  0.1383786E+03  0.7546771E-02  0.1227232E+00
          1   -1    0    0  501    0  0.00000000000E+00  0.00000000000E+00  0.10684495774E+04  0.10684495774E+04  0.00000000000E+00 0. -1.
         -1   -1    0    0    0  501 -0.00000000000E+00 -0.00000000000E+00 -0.14293734781E+02  0.14293734781E+02  0.00000000000E+00 0.  1.
         23    2    1    2    0    0 -0.57567756808E+02  0.14512388559E+02  0.49701328736E+03  0.50867323156E+03  0.90562644874E+02 0.  0.
         23    2    1    2    0    0  0.57567756808E+02 -0.14512388559E+02  0.55714255522E+03  0.57407008059E+03  0.12499589808E+03 0.  0.
          5    1    4    4  502    0 -0.20901629806E+02  0.21167393779E+02  0.41644558045E+02  0.51393539503E+02  0.47000000000E+01 0. -1.
         -5    1    4    4    0  502  0.78469386614E+02 -0.35679782338E+02  0.51549799718E+03  0.52267654108E+03  0.47000000000E+01 0. -1.
        -11    1    3    3    0    0 -0.81234574062E+02  0.28395669489E+01  0.39709622721E+03  0.40533015288E+03  0.00000000000E+00 0.  1.
         11    1    3    3    0    0  0.23666817254E+02  0.11672821610E+02  0.99917060143E+02  0.10334307868E+03  0.00000000000E+00 0. -1.
<mgrwt>
<rscale>  0 0.13015071E+03</rscale>
<asrwt>0</asrwt>
<pdfrwt beam="1">  1        1 0.16437680E+00 0.13837858E+03</pdfrwt>
<pdfrwt beam="2">  1       -1 0.21990370E-02 0.13837858E+03</pdfrwt>
<totfact> 0.82306665E+03</totfact>
</mgrwt>
</event>
<event>
 8    1  0.1224355E-005  0.1806473E+03  0.7546771E-02  0.1172697E+00
          2   -1    0    0  501    0  0.00000000000E+00  0.00000000000E+00  0.35730672750E+03  0.35730672750E+03  0.00000000000E+00 0. -1.
         -2   -1    0    0    0  501 -0.00000000000E+00 -0.00000000000E+00 -0.80822431261E+02  0.80822431261E+02  0.00000000000E+00 0.  1.
         23    2    1    2    0    0  0.11566956938E+03  0.60222151049E+02  0.13075155092E+03  0.20602688052E+03  0.91350701524E+02 0.  0.
         23    2    1    2    0    0 -0.11566956938E+03 -0.60222151049E+02  0.14573274531E+03  0.23210227824E+03  0.12500911068E+03 0.  0.
          5    1    4    4  502    0 -0.10682159657E+02  0.22740696570E+02 -0.93501663133E+01  0.27216969440E+02  0.47000000000E+01 0.  1.
         -5    1    4    4    0  502 -0.10498740972E+03 -0.82962847618E+02  0.15508291163E+03  0.20488530881E+03  0.47000000000E+01 0.  1.
        -11    1    3    3    0    0  0.28238849419E+00  0.11185178536E+02 -0.11748638242E+02  0.16224008835E+02  0.00000000000E+00 0.  1.
         11    1    3    3    0    0  0.11538718089E+03  0.49036972513E+02  0.14250018917E+03  0.18980287168E+03  0.00000000000E+00 0. -1.
<mgrwt>
<rscale>  0 0.17503430E+03</rscale>
<asrwt>0</asrwt>
<pdfrwt beam="1">  1        2 0.54970265E-01 0.18064727E+03</pdfrwt>
<pdfrwt beam="2">  1       -2 0.12434220E-01 0.18064727E+03</pdfrwt>
<totfact> 0.41210348E+03</totfact>
</mgrwt>
</event>
<event>
 8    1  0.1224355E-005  0.1445189E+03  0.7546771E-02  0.1215745E+00
         -2   -1    0    0    0  501 -0.00000000000E+00  0.00000000000E+00  0.43393530885E+02  0.43393530885E+02  0.00000000000E+00 0. -1.
          2   -1    0    0  501    0  0.00000000000E+00 -0.00000000000E+00 -0.40594267277E+03  0.40594267277E+03  0.00000000000E+00 0.  1.
         23    2    1    2    0    0 -0.60476999522E+02  0.40080861985E+02 -0.16632202256E+03  0.20563396292E+03  0.96738661085E+02 0.  0.
         23    2    1    2    0    0  0.60476999522E+02 -0.40080861985E+02 -0.19622711932E+03  0.24370224073E+03  0.12498702658E+03 0.  0.
          5    1    4    4  502    0  0.39396254356E+01 -0.71075223482E+02 -0.61183591301E+02  0.93982604167E+02  0.47000000000E+01 0.  1.
         -5    1    4    4    0  502  0.56537374086E+02  0.30994361497E+02 -0.13504352802E+03  0.14971963657E+03  0.47000000000E+01 0.  1.
        -11    1    3    3    0    0 -0.78426053051E+02  0.50870019924E+02 -0.10375413172E+03  0.13965430381E+03  0.00000000000E+00 0. -1.
         11    1    3    3    0    0  0.17949053529E+02 -0.10789157940E+02 -0.62567890838E+02  0.65979659104E+02  0.00000000000E+00 0.  1.
<mgrwt>
<rscale>  0 0.13821984E+03</rscale>
<asrwt>0</asrwt>
<pdfrwt beam="2">  1        2 0.62452719E-01 0.14451886E+03</pdfrwt>
<pdfrwt beam="1">  1       -2 0.66759278E-02 0.14451886E+03</pdfrwt>
<totfact> 0.94075733E+03</totfact>
</mgrwt>
</event>
<event>
 8    1  0.1279739E-005  0.1639372E+03  0.7546771E-02  0.1190608E+00
          1   -1    0    0  501    0  0.00000000000E+00  0.00000000000E+00  0.55335376588E+02  0.55335376588E+02  0.00000000000E+00 0. -1.
         -1   -1    0    0    0  501 -0.00000000000E+00 -0.00000000000E+00 -0.44846327876E+03  0.44846327876E+03  0.00000000000E+00 0.  1.
         23    2    1    2    0    0  0.14640479430E+02  0.10505002485E+03 -0.24169403588E+03  0.28062242513E+03  0.95305231479E+02 0.  0.
         23    2    1    2    0    0 -0.14640479430E+02 -0.10505002485E+03 -0.15143386629E+03  0.22317623022E+03  0.12500225004E+03 0.  0.
          5    1    4    4  502    0  0.15184714108E+02  0.13186025011E+02 -0.78147669748E+02  0.80830656840E+02  0.47000000000E+01 0.  1.
         -5    1    4    4    0  502 -0.29825193538E+02 -0.11823604986E+03 -0.73286196547E+02  0.14234557338E+03  0.47000000000E+01 0.  1.
        -11    1    3    3    0    0 -0.36320894849E+02  0.58920296653E+02 -0.15673701919E+03  0.17133972670E+03  0.00000000000E+00 0.  1.
         11    1    3    3    0    0  0.50961374278E+02  0.46129728198E+02 -0.84957016691E+02  0.10928269843E+03  0.00000000000E+00 0. -1.
<mgrwt>
<rscale>  0 0.15831906E+03</rscale>
<asrwt>0</asrwt>
<pdfrwt beam="1">  1        1 0.85131349E-02 0.16393723E+03</pdfrwt>
<pdfrwt beam="2">  1       -1 0.68994350E-01 0.16393723E+03</pdfrwt>
<totfact> 0.17308001E+03</totfact>
</mgrwt>
</event>
<event>
 7    1  0.1224355E-005  0.1450493E+03  0.7546771E-02  0.1220544E+00
          2   -1    0    0  501    0  0.00000000000E+00  0.00000000000E+00  0.11207443023E+04  0.11207443023E+04  0.00000000000E+00 0. -1.
         -2   -1    0    0    0  501 -0.00000000000E+00 -0.00000000000E+00 -0.32159702848E+02  0.32159702848E+02  0.00000000000E+00 0.  1.
         23    2    1    2    0    0 -0.40278937694E+02 -0.39414812670E+02  0.81384184571E+02  0.13531274925E+03  0.92250931339E+02 0.  0.
          5    1    1    2  502    0  0.84467254089E+02  0.40616927065E+02  0.52283187898E+03  0.53118708141E+03  0.47000000000E+01 0. -1.
         -5    1    1    2    0  502 -0.44188316395E+02 -0.12021143949E+01  0.48436853589E+03  0.48640417447E+03  0.47000000000E+01 0.  1.
        -11    1    3    3    0    0 -0.55538863558E+02 -0.58498226932E+02  0.47741073762E+02  0.93732694634E+02  0.00000000000E+00 0.  1.
         11    1    3    3    0    0  0.15259925864E+02  0.19083414262E+02  0.33643110809E+02  0.41580054620E+02  0.00000000000E+00 0. -1.
<mgrwt>
<rscale>  0 0.13477073E+03</rscale>
<asrwt>0</asrwt>
<pdfrwt beam="1">  1        2 0.17242217E+00 0.14504926E+03</pdfrwt>
<pdfrwt beam="2">  1       -2 0.49476475E-02 0.14504926E+03</pdfrwt>
<totfact> 0.43453649E+03</totfact>
</mgrwt>
</event>
<event>
 8    1  0.1224355E-005  0.2263601E+03  0.7546771E-02  0.1132654E+00
          1   -1    0    0  501    0  0.00000000000E+00  0.00000000000E+00  0.29699253112E+03  0.29699253112E+03  0.00000000000E+00 0. -1.
         -1   -1    0    0    0  501 -0.00000000000E+00 -0.00000000000E+00 -0.30688957105E+03  0.30688957105E+03  0.00000000000E+00 0.  1.
         23    2    1    2    0    0 -0.66553310209E+02  0.17658867159E+03 -0.21441464240E+03  0.29881431827E+03  0.87769333441E+02 0.  0.
         23    2    1    2    0    0  0.66553310209E+02 -0.17658867159E+03  0.20451760246E+03  0.30506778390E+03  0.12500400404E+03 0.  0.
          5    1    4    4  502    0  0.66598312868E+02 -0.18363551544E+03  0.14092478341E+03  0.24091330886E+03  0.47000000000E+01 0.  1.
         -5    1    4    4    0  502 -0.45002659490E-01  0.70468438472E+01  0.63592819052E+02  0.64154475046E+02  0.47000000000E+01 0.  1.
        -11    1    3    3    0    0 -0.40209513824E+02  0.17692594158E+03 -0.18125303115E+03  0.25646102064E+03  0.00000000000E+00 0.  1.
         11    1    3    3    0    0 -0.26343796385E+02 -0.33726999671E+00 -0.33161611247E+02  0.42353297623E+02  0.00000000000E+00 0. -1.
<mgrwt>
<rscale>  0 0.22165699E+03</rscale>
<asrwt>0</asrwt>
<pdfrwt beam="1">  1        1 0.45691159E-01 0.22636012E+03</pdfrwt>
<pdfrwt beam="2">  1       -1 0.47213780E-01 0.22636012E+03</pdfrwt>
<totfact> 0.40863151E+02</totfact>
</mgrwt>
</event>
<event>
 7    1  0.1224355E-005  0.1473879E+03  0.7546771E-02  0.1214925E+00
         -1   -1    0    0    0  501 -0.00000000000E+00  0.00000000000E+00  0.17847135229E+02  0.17847135229E+02  0.00000000000E+00 0.  1.
          1   -1    0    0  501    0  0.00000000000E+00 -0.00000000000E+00 -0.11752109754E+04  0.11752109754E+04  0.00000000000E+00 0. -1.
         23    2    1    2    0    0 -0.70784115296E+02 -0.14190531788E+02 -0.27487283370E+03  0.29834387218E+03  0.90786723653E+02 0.  0.
          5    1    1    2  502    0  0.20106037322E+02 -0.28085063349E+01 -0.76789200817E+03  0.76817469801E+03  0.47000000000E+01 0. -1.
         -5    1    1    2    0  502  0.50678077975E+02  0.16999038123E+02 -0.11459899833E+03  0.12653954047E+03  0.47000000000E+01 0.  1.
        -11    1    3    3    0    0 -0.79433327476E+02 -0.38787203655E+02 -0.19000907127E+03  0.20956513986E+03  0.00000000000E+00 0.  1.
         11    1    3    3    0    0  0.86492121796E+01  0.24596671867E+02 -0.84863762431E+02  0.88778732320E+02  0.00000000000E+00 0. -1.
<mgrwt>
<rscale>  0 0.13882023E+03</rscale>
<asrwt>0</asrwt>
<pdfrwt beam="2">  1        1 0.18080164E+00 0.14738790E+03</pdfrwt>
<pdfrwt beam="1">  1       -1 0.27457138E-02 0.14738790E+03</pdfrwt>
<totfact> 0.50331032E+03</totfact>
</mgrwt>
</event>
<event>
 8    1  0.1224355E-005  0.1559995E+03  0.7546771E-02  0.1201639E+00
          2   -1    0    0  501    0  0.00000000000E+00  0.00000000000E+00  0.12429504899E+04  0.12429504899E+04  0.00000000000E+00 0. -1.
         -2   -1    0    0    0  501 -0.00000000000E+00 -0.00000000000E+00 -0.18476048833E+02  0.18476048833E+02  0.00000000000E+00 0.  1.
         23    2    1    2    0    0 -0.46420555904E+02  0.80974659192E+02  0.35485018402E+03  0.37792090552E+03  0.90519579570E+02 0.  0.
         23    2    1    2    0    0  0.46420555904E+02 -0.80974659192E+02  0.86962425704E+03  0.88350563321E+03  0.12499636811E+03 0.  0.
          5    1    4    4  502    0  0.89129743817E+02 -0.47707694013E+02  0.59722655437E+03  0.60574068920E+03  0.47000000000E+01 0. -1.
         -5    1    4    4    0  502 -0.42709187913E+02 -0.33266965179E+02  0.27239770267E+03  0.27776494402E+03  0.47000000000E+01 0. -1.
        -11    1    3    3    0    0 -0.31177803778E+02  0.17685417096E+02  0.30386741050E+02  0.46991312579E+02  0.00000000000E+00 0.  1.
         11    1    3    3    0    0 -0.15242752126E+02  0.63289242095E+02  0.32446344297E+03  0.33092959294E+03  0.00000000000E+00 0. -1.
<mgrwt>
<rscale>  0 0.14905487E+03</rscale>
<asrwt>0</asrwt>
<pdfrwt beam="1">  1        2 0.19122309E+00 0.15599954E+03</pdfrwt>
<pdfrwt beam="2">  1       -2 0.28424700E-02 0.15599954E+03</pdfrwt>
<totfact> 0.84842109E+03</totfact>
</mgrwt>
</event>
<event>
 7    1  0.1224355E-005  0.1835472E+03  0.7546771E-02  0.1175970E+00
          2   -1    0    0  501    0  0.00000000000E+00  0.00000000000E+00  0.14120728975E+04  0.14120728975E+04  0.00000000000E+00 0. -1.
         -2   -1    0    0    0  501 -0.00000000000E+00 -0.00000000000E+00 -0.19063126315E+02  0.19063126315E+02  0.00000000000E+00 0.  1.
         23    2    1    2    0    0 -0.57241789763E+02 -0.97605054620E+02  0.71281683911E+03  0.72661349640E+03  0.83999749093E+02 0.  0.
          5    1    1    2  502    0 -0.23408752135E+02  0.84089223430E+02  0.21359689915E+03  0.23079144806E+03  0.47000000000E+01 0. -1.
         -5    1    1    2    0  502  0.80650541898E+02  0.13515831190E+02  0.46659603297E+03  0.47373107940E+03  0.47000000000E+01 0.  1.
        -11    1    3    3    0    0  0.87251239350E+01  0.94994765811E+01  0.36847051467E+02  0.39039378130E+02  0.00000000000E+00 0. -1.
         11    1    3    3    0    0 -0.65966913698E+02 -0.10710453120E+03  0.67596978764E+03  0.68757411827E+03  0.00000000000E+00 0.  1.
<mgrwt>
<rscale>  0 0.17181313E+03</rscale>
<asrwt>0</asrwt>
<pdfrwt beam="1">  1        2 0.21724190E+00 0.18354718E+03</pdfrwt>
<pdfrwt beam="2">  1       -2 0.29327898E-02 0.18354718E+03</pdfrwt>
<totfact> 0.65983849E+03</totfact>
</mgrwt>
</event>
<event>
 8    1  0.1224355E-005  0.1267449E+03  0.7546771E-02  0.1246318E+00
         -3   -1    0    0    0  501 -0.00000000000E+00  0.00000000000E+00  0.56430489063E+02  0.56430489063E+02  0.00000000000E+00 0.  1.
          3   -1    0    0  501    0  0.00000000000E+00 -0.00000000000E+00 -0.60931565679E+03  0.60931565679E+03  0.00000000000E+00 0. -1.
         23    2    1    2    0    0  0.73878735905E+01 -0.19604709400E+02  0.31050446187E+01  0.95492344551E+02  0.93114022891E+02 0.  0.
         23    2    1    2    0    0 -0.73878735905E+01  0.19604709400E+02 -0.55599021235E+03  0.57025380130E+03  0.12500142546E+03 0.  0.
          5    1    4    4  502    0  0.94948268737E+01  0.70626713949E+02 -0.35745808093E+03  0.36452250148E+03  0.47000000000E+01 0. -1.
         -5    1    4    4    0  502 -0.16882700464E+02 -0.51022004548E+02 -0.19853213142E+03  0.20573129983E+03  0.47000000000E+01 0. -1.
        -11    1    3    3    0    0 -0.18665229638E+02 -0.93064171667E+01  0.42389158555E+02  0.47242364049E+02  0.00000000000E+00 0.  1.
         11    1    3    3    0    0  0.26053103229E+02 -0.10298292234E+02 -0.39284113936E+02  0.48249980503E+02  0.00000000000E+00 0. -1.
<mgrwt>
<rscale>  0 0.11806813E+03</rscale>
<asrwt>0</asrwt>
<pdfrwt beam="2">  1        3 0.93740868E-01 0.12674495E+03</pdfrwt>
<pdfrwt beam="1">  1       -3 0.86816139E-02 0.12674495E+03</pdfrwt>
<totfact> 0.22667051E+02</totfact>
</mgrwt>
</event>
<event>
 8    1  0.1224355E-005  0.1427305E+03  0.7546771E-02  0.1220223E+00
         -1   -1    0    0    0  501 -0.00000000000E+00  0.00000000000E+00  0.15509391761E+02  0.15509391761E+02  0.00000000000E+00 0.  1.
          1   -1    0    0  501    0  0.00000000000E+00 -0.00000000000E+00 -0.19854638918E+04  0.19854638918E+04  0.00000000000E+00 0. -1.
         23    2    1    2    0    0 -0.16622258315E+02 -0.66857078440E+02 -0.24716621828E+03  0.27228260304E+03  0.91107124052E+02 0.  0.
         23    2    1    2    0    0  0.16622258315E+02  0.66857078440E+02 -0.17227882817E+04  0.17286906805E+04  0.12500334686E+03 0.  0.
          5    1    4    4  502    0 -0.32885103078E+02 -0.11944195784E+02 -0.20284766955E+03  0.20589648093E+03  0.47000000000E+01 0. -1.
         -5    1    4    4    0  502  0.49507361393E+02  0.78801274224E+02 -0.15199406122E+04  0.15227941995E+04  0.47000000000E+01 0. -1.
        -11    1    3    3    0    0 -0.48224725761E+02 -0.57284086877E+02 -0.12481353357E+03  0.14555242679E+03  0.00000000000E+00 0.  1.
         11    1    3    3    0    0  0.31602467446E+02 -0.95729915629E+01 -0.12235268471E+03  0.12673017625E+03  0.00000000000E+00 0. -1.
<mgrwt>
<rscale>  0 0.13499732E+03</rscale>
<asrwt>0</asrwt>
<pdfrwt beam="2">  1        1 0.30545603E+00 0.14273053E+03</pdfrwt>
<pdfrwt beam="1">  1       -1 0.23860599E-02 0.14273053E+03</pdfrwt>
<totfact> 0.18316696E+03</totfact>
</mgrwt>
</event>
<event>
 8    1  0.1224355E-005  0.1566243E+03  0.7546771E-02  0.1200694E+00
         -2   -1    0    0    0  501 -0.00000000000E+00  0.00000000000E+00  0.80145958104E+02  0.80145958104E+02  0.00000000000E+00 0.  1.
          2   -1    0    0  501    0  0.00000000000E+00 -0.00000000000E+00 -0.25993398428E+03  0.25993398428E+03  0.00000000000E+00 0. -1.
         23    2    1    2    0    0  0.90507751979E+02  0.26738578768E+02 -0.95449304010E+02  0.16219178836E+03  0.91043955379E+02 0.  0.
         23    2    1    2    0    0 -0.90507751979E+02 -0.26738578768E+02 -0.84338722170E+02  0.17788815403E+03  0.12499828209E+03 0.  0.
          5    1    4    4  502    0 -0.77402257739E+02  0.37246572928E+02 -0.25168118437E+02  0.89632253590E+02  0.47000000000E+01 0. -1.
         -5    1    4    4    0  502 -0.13105494240E+02 -0.63985151696E+02 -0.59170603732E+02  0.88255900443E+02  0.47000000000E+01 0. -1.
        -11    1    3    3    0    0  0.71701545661E+02  0.58345435206E+02 -0.55191910557E+02  0.10766358925E+03  0.00000000000E+00 0.  1.
         11    1    3    3    0    0  0.18806206318E+02 -0.31606856437E+02 -0.40257393453E+02  0.54528199104E+02  0.00000000000E+00 0. -1.
<mgrwt>
<rscale>  0 0.14982061E+03</rscale>
<asrwt>0</asrwt>
<pdfrwt beam="2">  1        2 0.39989843E-01 0.15662431E+03</pdfrwt>
<pdfrwt beam="1">  1       -2 0.12330147E-01 0.15662431E+03</pdfrwt>
<totfact> 0.58241592E+03</totfact>
</mgrwt>
</event>
<event>
 8    1  0.1224355E-005  0.1980516E+03  0.7546771E-02  0.1155784E+00
          1   -1    0    0  501    0  0.00000000000E+00  0.00000000000E+00  0.15717015587E+03  0.15717015587E+03  0.00000000000E+00 0. -1.
         -1   -1    0    0    0  501 -0.00000000000E+00 -0.00000000000E+00 -0.25167529338E+03  0.25167529338E+03  0.00000000000E+00 0.  1.
         23    2    1    2    0    0  0.46003187216E+02  0.14657159110E+03 -0.11071249854E+03  0.21013176699E+03  0.91096529099E+02 0.  0.
         23    2    1    2    0    0 -0.46003187216E+02 -0.14657159110E+03  0.16207361034E+02  0.19871368226E+03  0.12499969766E+03 0.  0.
          5    1    4    4  502    0  0.30076413981E+02 -0.97512235945E+02 -0.14125760509E+02  0.10312542823E+03  0.47000000000E+01 0.  1.
         -5    1    4    4    0  502 -0.76079601197E+02 -0.49059355152E+02  0.30333121543E+02  0.95588254031E+02  0.47000000000E+01 0.  1.
        -11    1    3    3    0    0  0.57939069658E+02  0.10837887534E+03 -0.11693438589E+03  0.16963657334E+03  0.00000000000E+00 0.  1.
         11    1    3    3    0    0 -0.11935882442E+02  0.38192715753E+02  0.62218873421E+01  0.40495193645E+02  0.00000000000E+00 0. -1.
<mgrwt>
<rscale>  0 0.19299872E+03</rscale>
<asrwt>0</asrwt>
<pdfrwt beam="1">  1        1 0.24180024E-01 0.19805163E+03</pdfrwt>
<pdfrwt beam="2">  1       -1 0.38719275E-01 0.19805163E+03</pdfrwt>
<totfact> 0.12981069E+03</totfact>
</mgrwt>
</event>
<event>
 8    1  0.1224355E-005  0.1322379E+03  0.7546771E-02  0.1237338E+00
          1   -1    0    0  501    0  0.00000000000E+00  0.00000000000E+00  0.38004702642E+03  0.38004702642E+03  0.00000000000E+00 0. -1.
         -1   -1    0    0    0  501 -0.00000000000E+00 -0.00000000000E+00 -0.37194949465E+02  0.37194949465E+02  0.00000000000E+00 0.  1.
         23    2    1    2    0    0  0.41323881815E+02  0.12382715397E+02  0.10805600862E+03  0.14776831650E+03  0.91095441784E+02 0.  0.
         23    2    1    2    0    0 -0.41323881815E+02 -0.12382715397E+02  0.23479606834E+03  0.26947365939E+03  0.12500345814E+03 0.  0.
          5    1    4    4  502    0 -0.33721675176E+02  0.41113635931E+02  0.19507349282E+03  0.20224549448E+03  0.47000000000E+01 0. -1.
         -5    1    4    4    0  502 -0.76022066390E+01 -0.53496351328E+02  0.39722575522E+02  0.67228164911E+02  0.47000000000E+01 0. -1.
        -11    1    3    3    0    0  0.50982727004E+02 -0.11685186090E+02  0.10995867632E+03  0.12176490679E+03  0.00000000000E+00 0. -1.
         11    1    3    3    0    0 -0.96588451883E+01  0.24067901487E+02 -0.19026677006E+01  0.26003409714E+02  0.00000000000E+00 0.  1.
<mgrwt>
<rscale>  0 0.12355926E+03</rscale>
<asrwt>0</asrwt>
<pdfrwt beam="1">  1        1 0.58468771E-01 0.13223789E+03</pdfrwt>
<pdfrwt beam="2">  1       -1 0.57223002E-02 0.13223789E+03</pdfrwt>
<totfact> 0.88187945E+03</totfact>
</mgrwt>
</event>
<event>
 8    1  0.1224355E-005  0.2078580E+03  0.7546771E-02  0.1145635E+00
          3   -1    0    0  501    0  0.00000000000E+00  0.00000000000E+00  0.14088706732E+03  0.14088706732E+03  0.00000000000E+00 0. -1.
         -3   -1    0    0    0  501 -0.00000000000E+00 -0.00000000000E+00 -0.29974788952E+03  0.29974788952E+03  0.00000000000E+00 0.  1.
         23    2    1    2    0    0  0.20304709300E+02 -0.16482525530E+03 -0.37636345553E+02  0.20001006022E+03  0.10491846205E+03 0.  0.
         23    2    1    2    0    0 -0.20304709300E+02  0.16482525530E+03 -0.12122447664E+03  0.24062489661E+03  0.12500128451E+03 0.  0.
          5    1    4    4  502    0 -0.42811777950E+02  0.24195400907E+02 -0.76887608391E+02  0.91389605976E+02  0.47000000000E+01 0.  1.
         -5    1    4    4    0  502  0.22507068650E+02  0.14062985439E+03 -0.44336868253E+02  0.14923529064E+03  0.47000000000E+01 0.  1.
        -11    1    3    3    0    0 -0.22042570476E+01 -0.67510241791E+02 -0.67766166820E+02  0.95680430922E+02  0.00000000000E+00 0.  1.
         11    1    3    3    0    0  0.22508966348E+02 -0.97315013509E+02  0.30129821267E+02  0.10432962930E+03  0.00000000000E+00 0. -1.
<mgrwt>
<rscale>  0 0.20494201E+03</rscale>
<asrwt>0</asrwt>
<pdfrwt beam="1">  1        3 0.21674933E-01 0.20785805E+03</pdfrwt>
<pdfrwt beam="2">  1       -3 0.46115060E-01 0.20785805E+03</pdfrwt>
<totfact> 0.22386590E+02</totfact>
</mgrwt>
</event>
<event>
 8    1  0.1224355E-005  0.1296148E+03  0.7546771E-02  0.1242572E+00
         -1   -1    0    0    0  501 -0.00000000000E+00  0.00000000000E+00  0.57580564321E+02  0.57580564321E+02  0.00000000000E+00 0.  1.
          1   -1    0    0  501    0  0.00000000000E+00 -0.00000000000E+00 -0.30471434111E+03  0.30471434111E+03  0.00000000000E+00 0. -1.
         23    2    1    2    0    0 -0.14350391943E+02 -0.31117122584E+02 -0.16374647460E+02  0.97625737972E+02  0.89935791364E+02 0.  0.
         23    2    1    2    0    0  0.14350391943E+02  0.31117122584E+02 -0.23075912933E+03  0.26466916746E+03  0.12500313343E+03 0.  0.
          5    1    4    4  502    0 -0.11556610152E+02  0.59349567602E+02 -0.46533203350E+02  0.76441843428E+02  0.47000000000E+01 0. -1.
         -5    1    4    4    0  502  0.25907002096E+02 -0.28232445017E+02 -0.18422592598E+03  0.18822732403E+03  0.47000000000E+01 0. -1.
        -11    1    3    3    0    0 -0.38813293912E+00 -0.39775857982E+02 -0.47787194856E+02  0.62176245605E+02  0.00000000000E+00 0. -1.
         11    1    3    3    0    0 -0.13962259004E+02  0.86587353977E+01  0.31412547395E+02  0.35449492367E+02  0.00000000000E+00 0.  1.
<mgrwt>
<rscale>  0 0.12031862E+03</rscale>
<asrwt>0</asrwt>
<pdfrwt beam="2">  1        1 0.46879129E-01 0.12961478E+03</pdfrwt>
<pdfrwt beam="1">  1       -1 0.88585485E-02 0.12961478E+03</pdfrwt>
<totfact> 0.60202786E+03</totfact>
</mgrwt>
</event>
<event>
 8    1  0.1224355E-005  0.1648164E+03  0.7546771E-02  0.1187169E+00
          1   -1    0    0  501    0  0.00000000000E+00  0.00000000000E+00  0.10721857364E+04  0.10721857364E+04  0.00000000000E+00 0. -1.
         -1   -1    0    0    0  501 -0.00000000000E+00 -0.00000000000E+00 -0.44865859399E+02  0.44865859399E+02  0.00000000000E+00 0.  1.
         23    2    1    2    0    0 -0.10134985142E+03 -0.53533162914E+02  0.11547142277E+03  0.19042758489E+03  0.98951623009E+02 0.  0.
         23    2    1    2    0    0  0.10134985142E+03  0.53533162914E+02  0.91184845425E+03  0.92662401093E+03  0.11843505475E+03 0.  0.
          5    1    4    4  502    0  0.59478840867E+02  0.86381636008E+02  0.71450719658E+03  0.72217874762E+03  0.47000000000E+01 0. -1.
         -5    1    4    4    0  502  0.41871010555E+02 -0.32848473094E+02  0.19734125767E+03  0.20444526331E+03  0.47000000000E+01 0.  1.
        -11    1    3    3    0    0 -0.22325580646E+02 -0.49467093624E+02  0.93826070886E+02  0.10839168087E+03  0.00000000000E+00 0. -1.
         11    1    3    3    0    0 -0.79024270775E+02 -0.40660692893E+01  0.21645351883E+02  0.82035904025E+02  0.00000000000E+00 0.  1.
<mgrwt>
<rscale>  0 0.16136099E+03</rscale>
<asrwt>0</asrwt>
<pdfrwt beam="1">  1        1 0.16495163E+00 0.16481643E+03</pdfrwt>
<pdfrwt beam="2">  1       -1 0.69024408E-02 0.16481643E+03</pdfrwt>
<totfact> 0.15250215E+03</totfact>
</mgrwt>
</event>
<event>
 8    1  0.1224355E-005  0.1881186E+03  0.7546771E-02  0.1165824E+00
          2   -1    0    0  501    0  0.00000000000E+00  0.00000000000E+00  0.49387803383E+03  0.49387803383E+03  0.00000000000E+00 0. -1.
         -2   -1    0    0    0  501 -0.00000000000E+00 -0.00000000000E+00 -0.70919429511E+02  0.70919429511E+02  0.00000000000E+00 0.  1.
         23    2    1    2    0    0 -0.13988835898E+03 -0.13994620896E+02  0.10575858835E+03  0.19600962541E+03  0.86430850132E+02 0.  0.
         23    2    1    2    0    0  0.13988835898E+03  0.13994620896E+02  0.31720001597E+03  0.36878783793E+03  0.12499606745E+03 0.  0.
          5    1    4    4  502    0  0.12159347959E+03 -0.35445780185E+02  0.26830172244E+03  0.29673099244E+03  0.47000000000E+01 0. -1.
         -5    1    4    4    0  502  0.18294879389E+02  0.49440401080E+02  0.48898293530E+02  0.72056845483E+02  0.47000000000E+01 0. -1.
        -11    1    3    3    0    0 -0.51351648286E+02 -0.13609680769E+02 -0.59642373302E+01  0.53458276433E+02  0.00000000000E+00 0.  1.
         11    1    3    3    0    0 -0.88536710691E+02 -0.38494012666E+00  0.11172282568E+03  0.14255134898E+03  0.00000000000E+00 0. -1.
<mgrwt>
<rscale>  0 0.18206001E+03</rscale>
<asrwt>0</asrwt>
<pdfrwt beam="1">  1        2 0.75981234E-01 0.18811863E+03</pdfrwt>
<pdfrwt beam="2">  1       -2 0.10910682E-01 0.18811863E+03</pdfrwt>
<totfact> 0.35806418E+03</totfact>
</mgrwt>
</event>
<event>
 8    1  0.1224355E-005  0.2352217E+03  0.7546771E-02  0.1125756E+00
         -2   -1    0    0    0  501 -0.00000000000E+00  0.00000000000E+00  0.37867735066E+02  0.37867735066E+02  0.00000000000E+00 0.  1.
          2   -1    0    0  501    0  0.00000000000E+00 -0.00000000000E+00 -0.19691679717E+04  0.19691679717E+04  0.00000000000E+00 0. -1.
         23    2    1    2    0    0 -0.13085313119E+03 -0.15027263024E+03 -0.38805116646E+03  0.44596333161E+03  0.92710193658E+02 0.  0.
         23    2    1    2    0    0  0.13085313119E+03  0.15027263024E+03 -0.15432490701E+04  0.15610723751E+04  0.12499945017E+03 0.  0.
          5    1    4    4  502    0  0.10967254205E+03  0.16810343517E+03 -0.12002929194E+04  0.12169683701E+04  0.47000000000E+01 0. -1.
         -5    1    4    4    0  502  0.21180589136E+02 -0.17830804934E+02 -0.34295615075E+03  0.34410400506E+03  0.47000000000E+01 0. -1.
        -11    1    3    3    0    0 -0.17635259390E+02 -0.24762874163E+02 -0.10264421197E+02  0.32086767569E+02  0.00000000000E+00 0.  1.
         11    1    3    3    0    0 -0.11321787180E+03 -0.12550975607E+03 -0.37778674527E+03  0.41387656404E+03  0.00000000000E+00 0. -1.
<mgrwt>
<rscale>  0 0.23126027E+03</rscale>
<asrwt>0</asrwt>
<pdfrwt beam="2">  1        2 0.30294895E+00 0.23522174E+03</pdfrwt>
<pdfrwt beam="1">  1       -2 0.58258048E-02 0.23522174E+03</pdfrwt>
<totfact> 0.11992154E+03</totfact>
</mgrwt>
</event>
<event>
 8    1  0.1224355E-005  0.1541352E+03  0.7546771E-02  0.1203794E+00
         -1   -1    0    0    0  501 -0.00000000000E+00  0.00000000000E+00  0.25492577309E+03  0.25492577309E+03  0.00000000000E+00 0.  1.
          1   -1    0    0  501    0  0.00000000000E+00 -0.00000000000E+00 -0.78934662459E+02  0.78934662459E+02  0.00000000000E+00 0. -1.
         23    2    1    2    0    0 -0.86395055773E+02 -0.25860894399E+02  0.93422499115E+02  0.15900269918E+03  0.91767115486E+02 0.  0.
         23    2    1    2    0    0  0.86395055773E+02  0.25860894399E+02  0.82568611519E+02  0.17485773637E+03  0.12499904335E+03 0.  0.
          5    1    4    4  502    0  0.39661397922E+02 -0.15869624671E+02 -0.25412730469E+02  0.49927631050E+02  0.47000000000E+01 0. -1.
         -5    1    4    4    0  502  0.46733657851E+02  0.41730519070E+02  0.10798134199E+03  0.12493010532E+03  0.47000000000E+01 0. -1.
        -11    1    3    3    0    0 -0.77619964403E+02 -0.48181736546E+02  0.38627725727E+02  0.99188909689E+02  0.00000000000E+00 0. -1.
         11    1    3    3    0    0 -0.87750913706E+01  0.22320842147E+02  0.54794773388E+02  0.59813789492E+02  0.00000000000E+00 0.  1.
<mgrwt>
<rscale>  0 0.14732943E+03</rscale>
<asrwt>0</asrwt>
<pdfrwt beam="2">  1        1 0.12143794E-01 0.15413518E+03</pdfrwt>
<pdfrwt beam="1">  1       -1 0.39219349E-01 0.15413518E+03</pdfrwt>
<totfact> 0.30649358E+03</totfact>
</mgrwt>
</event>
<event>
 8    1  0.1224355E-005  0.1257277E+03  0.7546771E-02  0.1247453E+00
         -1   -1    0    0    0  501 -0.00000000000E+00  0.00000000000E+00  0.66907853345E+02  0.66907853345E+02  0.00000000000E+00 0.  1.
          1   -1    0    0  501    0  0.00000000000E+00 -0.00000000000E+00 -0.20750907627E+03  0.20750907627E+03  0.00000000000E+00 0. -1.
         23    2    1    2    0    0 -0.35622761587E+01  0.13034160630E+02 -0.15079777295E+02  0.96756898914E+02  0.94614579476E+02 0.  0.
         23    2    1    2    0    0  0.35622761587E+01 -0.13034160630E+02 -0.12552144563E+03  0.17766003070E+03  0.12499949616E+03 0.  0.
          5    1    4    4  502    0  0.31125215424E+01 -0.34882293629E+02  0.12771644326E+02  0.37572158548E+02  0.47000000000E+01 0.  1.
         -5    1    4    4    0  502  0.44975461625E+00  0.21848132999E+02 -0.13829308996E+03  0.14008787216E+03  0.47000000000E+01 0.  1.
        -11    1    3    3    0    0  0.11966382098E+02 -0.38111776634E+02  0.36650776818E+01  0.40114020156E+02  0.00000000000E+00 0.  1.
         11    1    3    3    0    0 -0.15528658257E+02  0.51145937264E+02 -0.18744854976E+02  0.56642878757E+02  0.00000000000E+00 0. -1.
<mgrwt>
<rscale>  0 0.11739749E+03</rscale>
<asrwt>0</asrwt>
<pdfrwt beam="2">  1        1 0.31924473E-01 0.12572769E+03</pdfrwt>
<pdfrwt beam="1">  1       -1 0.10293516E-01 0.12572769E+03</pdfrwt>
<totfact> 0.76851792E+03</totfact>
</mgrwt>
</event>
<event>
 8    1  0.1224355E-005  0.1348453E+03  0.7546771E-02  0.1232796E+00
          3   -1    0    0  501    0  0.00000000000E+00  0.00000000000E+00  0.73214997693E+03  0.73214997693E+03  0.00000000000E+00 0. -1.
         -3   -1    0    0    0  501 -0.00000000000E+00 -0.00000000000E+00 -0.21029285175E+02  0.21029285175E+02  0.00000000000E+00 0.  1.
         23    2    1    2    0    0 -0.23395574181E+01  0.50539027197E+02  0.21370164402E+03  0.23780662563E+03  0.91235583720E+02 0.  0.
         23    2    1    2    0    0  0.23395574181E+01 -0.50539027197E+02  0.49741904774E+03  0.51537263648E+03  0.12499431420E+03 0.  0.
          5    1    4    4  502    0  0.11431636766E+02 -0.52217754808E+01 -0.22009950933E+01  0.13597192274E+02  0.47000000000E+01 0.  1.
         -5    1    4    4    0  502 -0.90920793480E+01 -0.45317251716E+02  0.49962004283E+03  0.50177544421E+03  0.47000000000E+01 0.  1.
        -11    1    3    3    0    0 -0.32714636139E+02  0.60763079182E+02  0.11592283786E+03  0.13490924188E+03  0.00000000000E+00 0.  1.
         11    1    3    3    0    0  0.30375078721E+02 -0.10224051985E+02  0.97778806162E+02  0.10289738374E+03  0.00000000000E+00 0. -1.
<mgrwt>
<rscale>  0 0.12646587E+03</rscale>
<asrwt>0</asrwt>
<pdfrwt beam="1">  1        3 0.11263844E+00 0.13484526E+03</pdfrwt>
<pdfrwt beam="2">  1       -3 0.32352752E-02 0.13484526E+03</pdfrwt>
<totfact> 0.72116269E+02</totfact>
</mgrwt>
</event>
<event>
 8    1  0.1224355E-005  0.1354452E+03  0.7546771E-02  0.1230476E+00
          1   -1    0    0  501    0  0.00000000000E+00  0.00000000000E+00  0.90164480098E+03  0.90164480098E+03  0.00000000000E+00 0. -1.
         -1   -1    0    0    0  501 -0.00000000000E+00 -0.00000000000E+00 -0.16450566255E+02  0.16450566255E+02  0.00000000000E+00 0.  1.
         23    2    1    2    0    0 -0.40881001850E+02 -0.32388876175E+02  0.37660970374E+03  0.39178401528E+03  0.94549193861E+02 0.  0.
         23    2    1    2    0    0  0.40881001850E+02  0.32388876175E+02  0.50858453098E+03  0.52631135195E+03  0.12500047374E+03 0.  0.
          5    1    4    4  502    0  0.60311982089E+02 -0.30254234014E+02  0.30339363526E+03  0.31084182759E+03  0.47000000000E+01 0.  1.
         -5    1    4    4    0  502 -0.19430980239E+02  0.62643110190E+02  0.20519089571E+03  0.21546952437E+03  0.47000000000E+01 0.  1.
        -11    1    3    3    0    0 -0.47072813781E+02  0.22335743053E+02  0.15931380622E+03  0.16761749332E+03  0.00000000000E+00 0. -1.
         11    1    3    3    0    0  0.61918119307E+01 -0.54724619229E+02  0.21729589752E+03  0.22416652195E+03  0.00000000000E+00 0.  1.
<mgrwt>
<rscale>  0 0.12798510E+03</rscale>
<asrwt>0</asrwt>
<pdfrwt beam="1">  1        1 0.13871455E+00 0.13544524E+03</pdfrwt>
<pdfrwt beam="2">  1       -1 0.25308571E-02 0.13544524E+03</pdfrwt>
<totfact> 0.89057480E+03</totfact>
</mgrwt>
</event>
<event>
 8    1  0.1224355E-005  0.1299553E+03  0.7546771E-02  0.1240676E+00
          2   -1    0    0  501    0  0.00000000000E+00  0.00000000000E+00  0.51405648829E+02  0.51405648829E+02  0.00000000000E+00 0. -1.
         -2   -1    0    0    0  501 -0.00000000000E+00 -0.00000000000E+00 -0.26969517214E+03  0.26969517214E+03  0.00000000000E+00 0.  1.
         23    2    1    2    0    0 -0.74910617598E+01 -0.34737430101E+02 -0.13187746810E+03  0.16503860841E+03  0.92645942263E+02 0.  0.
         23    2    1    2    0    0  0.74910617598E+01  0.34737430101E+02 -0.86412055213E+02  0.15606221256E+03  0.12500226336E+03 0.  0.
          5    1    4    4  502    0  0.56294252413E+02  0.15498329033E+02 -0.85181754854E+02  0.10337921656E+03  0.47000000000E+01 0.  1.
         -5    1    4    4    0  502 -0.48803190653E+02  0.19239101068E+02 -0.12303003594E+01  0.52682995993E+02  0.47000000000E+01 0.  1.
        -11    1    3    3    0    0 -0.27814054683E+02 -0.46042191228E+02 -0.32217900490E+02  0.62701659651E+02  0.00000000000E+00 0. -1.
         11    1    3    3    0    0  0.20322992924E+02  0.11304761127E+02 -0.99659567609E+02  0.10233694876E+03  0.00000000000E+00 0.  1.
<mgrwt>
<rscale>  0 0.12147959E+03</rscale>
<asrwt>0</asrwt>
<pdfrwt beam="1">  1        2 0.79085612E-02 0.12995527E+03</pdfrwt>
<pdfrwt beam="2">  1       -2 0.41491566E-01 0.12995527E+03</pdfrwt>
<totfact> 0.45445246E+03</totfact>
</mgrwt>
</event>
<event>
 8    1  0.1224355E-005  0.1258259E+03  0.7546771E-02  0.1249590E+00
          2   -1    0    0  501    0  0.00000000000E+00  0.00000000000E+00  0.63972754837E+02  0.63972754837E+02  0.00000000000E+00 0.  1.
         -2   -1    0    0    0  501 -0.00000000000E+00 -0.00000000000E+00 -0.18676182623E+03  0.18676182623E+03  0.00000000000E+00 0. -1.
         23    2    1    2    0    0  0.14015445863E+02 -0.33360941947E+01 -0.37647979345E+02  0.98809732026E+02  0.90213250396E+02 0.  0.
         23    2    1    2    0    0 -0.14015445863E+02  0.33360941947E+01 -0.85141092044E+02  0.15192484904E+03  0.12499836780E+03 0.  0.
          5    1    4    4  502    0 -0.20244104868E+01 -0.56993873356E+02 -0.65959576160E+02  0.87322136512E+02  0.47000000000E+01 0. -1.
         -5    1    4    4    0  502 -0.11991035376E+02  0.60329967551E+02 -0.19181515884E+02  0.64602712526E+02  0.47000000000E+01 0. -1.
        -11    1    3    3    0    0 -0.24640686106E+02 -0.17280574439E+02 -0.47794828515E+02  0.56481211898E+02  0.00000000000E+00 0. -1.
         11    1    3    3    0    0  0.38656131969E+02  0.13944480244E+02  0.10146849170E+02  0.42328520127E+02  0.00000000000E+00 0.  1.
<mgrwt>
<rscale>  0 0.11614814E+03</rscale>
<asrwt>0</asrwt>
<pdfrwt beam="1">  1        2 0.98419623E-02 0.12582589E+03</pdfrwt>
<pdfrwt beam="2">  1       -2 0.28732588E-01 0.12582589E+03</pdfrwt>
<totfact> 0.67971677E+03</totfact>
</mgrwt>
</event>
<event>
 8    1  0.1224355E-005  0.1490228E+03  0.7546771E-02  0.1210548E+00
         -1   -1    0    0    0  501 -0.00000000000E+00  0.00000000000E+00  0.45722136595E+03  0.45722136595E+03  0.00000000000E+00 0.  1.
          1   -1    0    0  501    0  0.00000000000E+00 -0.00000000000E+00 -0.42870350683E+02  0.42870350683E+02  0.00000000000E+00 0. -1.
         23    2    1    2    0    0 -0.62609944076E+02 -0.51576012310E+02  0.24703683543E+03  0.27603404111E+03  0.92668784663E+02 0.  0.
         23    2    1    2    0    0  0.62609944076E+02  0.51576012310E+02  0.16731417984E+03  0.22405767553E+03  0.12501086770E+03 0.  0.
          5    1    4    4  502    0  0.27695086372E+02 -0.33675465801E+02  0.15685033233E+02  0.46574296276E+02  0.47000000000E+01 0.  1.
         -5    1    4    4    0  502  0.34914857704E+02  0.85251478111E+02  0.15162914661E+03  0.17748337925E+03  0.47000000000E+01 0.  1.
        -11    1    3    3    0    0  0.10885582224E+02 -0.97017146869E+01 -0.34991531763E+00  0.14585664501E+02  0.00000000000E+00 0. -1.
         11    1    3    3    0    0 -0.73495526300E+02 -0.41874297623E+02  0.24738675074E+03  0.26144837661E+03  0.00000000000E+00 0.  1.
<mgrwt>
<rscale>  0 0.14208696E+03</rscale>
<asrwt>0</asrwt>
<pdfrwt beam="2">  1        1 0.65954389E-02 0.14902284E+03</pdfrwt>
<pdfrwt beam="1">  1       -1 0.70341745E-01 0.14902284E+03</pdfrwt>
<totfact> 0.23420416E+03</totfact>
</mgrwt>
</event>
<event>
 7    1  0.1224355E-005  0.1487713E+03  0.7546771E-02  0.1218068E+00
         -3   -1    0    0    0  501 -0.00000000000E+00  0.00000000000E+00  0.36407056322E+02  0.36407056322E+02  0.00000000000E+00 0.  1.
          3   -1    0    0  501    0  0.00000000000E+00 -0.00000000000E+00 -0.11965001583E+04  0.11965001583E+04  0.00000000000E+00 0. -1.
         23    2    1    2    0    0 -0.31708657775E+02 -0.46424720806E+02 -0.57241421253E+02  0.12006637884E+03  0.89323352724E+02 0.  0.
          5    1    1    2  502    0  0.83398606958E+01  0.51309670056E+02 -0.10732668722E+04  0.10745352970E+04  0.47000000000E+01 0. -1.
         -5    1    1    2    0  502  0.23368797079E+02 -0.48849492501E+01 -0.29584808510E+02  0.38305538773E+02  0.47000000000E+01 0.  1.
        -11    1    3    3    0    0 -0.37884498710E+02 -0.69570761662E+02 -0.54048513018E+02  0.95898737636E+02  0.00000000000E+00 0.  1.
         11    1    3    3    0    0  0.61758409348E+01  0.23146040856E+02 -0.31929082350E+01  0.24167641208E+02  0.00000000000E+00 0. -1.
<mgrwt>
<rscale>  0 0.13653590E+03</rscale>
<asrwt>0</asrwt>
<pdfrwt beam="2">  1        3 0.18407694E+00 0.14877129E+03</pdfrwt>
<pdfrwt beam="1">  1       -3 0.56010857E-02 0.14877129E+03</pdfrwt>
<totfact> 0.91522214E+01</totfact>
</mgrwt>
</event>
<event>
 8    1  0.1224355E-005  0.1289529E+03  0.7546771E-02  0.1246422E+00
          1   -1    0    0  501    0  0.00000000000E+00  0.00000000000E+00  0.20315478782E+02  0.20315478782E+02  0.00000000000E+00 0. -1.
         -1   -1    0    0    0  501 -0.00000000000E+00 -0.00000000000E+00 -0.59366908067E+03  0.59366908067E+03  0.00000000000E+00 0.  1.
         23    2    1    2    0    0 -0.23360311153E+02  0.21175021673E+02 -0.25100062370E+03  0.26679544644E+03  0.84760907631E+02 0.  0.
         23    2    1    2    0    0  0.23360311153E+02 -0.21175021673E+02 -0.32235297818E+03  0.34718911301E+03  0.12503900179E+03 0.  0.
          5    1    4    4  502    0  0.37146679351E+02  0.93186628004E+01 -0.30810977636E+03  0.31051640464E+03  0.47000000000E+01 0.  1.
         -5    1    4    4    0  502 -0.13786368198E+02 -0.30493684473E+02 -0.14243201824E+02  0.36672708368E+02  0.47000000000E+01 0.  1.
        -11    1    3    3    0    0  0.16973405385E+02 -0.19961405276E+02 -0.38117841775E+02  0.46254989488E+02  0.00000000000E+00 0.  1.
         11    1    3    3    0    0 -0.40333716537E+02  0.41136426948E+02 -0.21288278192E+03  0.22054045695E+03  0.00000000000E+00 0. -1.
<mgrwt>
<rscale>  0 0.11800690E+03</rscale>
<asrwt>0</asrwt>
<pdfrwt beam="1">  1        1 0.31254587E-02 0.12895285E+03</pdfrwt>
<pdfrwt beam="2">  1       -1 0.91333693E-01 0.12895285E+03</pdfrwt>
<totfact> 0.37855318E+03</totfact>
</mgrwt>
</event>
<event>
 7    1  0.1224355E-005  0.1592321E+03  0.7546771E-02  0.1199358E+00
         -2   -1    0    0    0  501 -0.00000000000E+00  0.00000000000E+00  0.11385067475E+03  0.11385067475E+03  0.00000000000E+00 0.  1.
          2   -1    0    0  501    0  0.00000000000E+00 -0.00000000000E+00 -0.19720928307E+03  0.19720928307E+03  0.00000000000E+00 0. -1.
         23    2    1    2    0    0 -0.76912222019E+02  0.42704484944E+02  0.57384638826E+01  0.12859581241E+03  0.93620457551E+02 0.  0.
          5    1    1    2  502    0  0.11196742501E+03 -0.37273534627E+02 -0.86872724616E+02  0.14661166710E+03  0.47000000000E+01 0. -1.
         -5    1    1    2    0  502 -0.35055202994E+02 -0.54309503173E+01 -0.22243475921E+01  0.35852478304E+02  0.47000000000E+01 0.  1.
        -11    1    3    3    0    0 -0.30861731480E+02 -0.23320129342E+02 -0.20694055337E+02  0.43869338139E+02  0.00000000000E+00 0.  1.
         11    1    3    3    0    0 -0.46050490538E+02  0.66024614286E+02  0.26432519220E+02  0.84726474273E+02  0.00000000000E+00 0. -1.
<mgrwt>
<rscale>  0 0.15091123E+03</rscale>
<asrwt>0</asrwt>
<pdfrwt beam="2">  1        2 0.30339890E-01 0.15923215E+03</pdfrwt>
<pdfrwt beam="1">  1       -2 0.17515488E-01 0.15923215E+03</pdfrwt>
<totfact> 0.44187623E+03</totfact>
</mgrwt>
</event>
<event>
 8    1  0.1224355E-005  0.2256146E+03  0.7546771E-02  0.1133097E+00
         -1   -1    0    0    0  501 -0.00000000000E+00  0.00000000000E+00  0.42466256044E+02  0.42466256044E+02  0.00000000000E+00 0.  1.
          1   -1    0    0  501    0  0.00000000000E+00 -0.00000000000E+00 -0.11349752429E+04  0.11349752429E+04  0.00000000000E+00 0. -1.
         23    2    1    2    0    0  0.99912486149E+02  0.15838753799E+03 -0.61763445259E+03  0.65169651687E+03  0.90370990861E+02 0.  0.
         23    2    1    2    0    0 -0.99912486149E+02 -0.15838753799E+03 -0.47487453424E+03  0.52574498205E+03  0.12582863667E+03 0.  0.
          5    1    4    4  502    0  0.15148575607E+02 -0.69057343565E+02 -0.23117484230E+03  0.24178977182E+03  0.47000000000E+01 0.  1.
         -5    1    4    4    0  502 -0.11506106176E+03 -0.89330194425E+02 -0.24369969194E+03  0.28395521023E+03  0.47000000000E+01 0.  1.
        -11    1    3    3    0    0  0.97607913091E+02  0.74065067571E+02 -0.39739689710E+03  0.41585722641E+03  0.00000000000E+00 0.  1.
         11    1    3    3    0    0  0.23045730576E+01  0.84322470418E+02 -0.22023755549E+03  0.23583929046E+03  0.00000000000E+00 0. -1.
<mgrwt>
<rscale>  0 0.22105797E+03</rscale>
<asrwt>0</asrwt>
<pdfrwt beam="2">  1        1 0.17461156E+00 0.22561463E+03</pdfrwt>
<pdfrwt beam="1">  1       -1 0.65332707E-02 0.22561463E+03</pdfrwt>
<totfact> 0.14955194E+03</totfact>
</mgrwt>
</event>
<event>
 8    1  0.1224355E-005  0.1308952E+03  0.7546771E-02  0.1239388E+00
         -2   -1    0    0    0  501 -0.00000000000E+00  0.00000000000E+00  0.23926734582E+02  0.23926734582E+02  0.00000000000E+00 0.  1.
          2   -1    0    0  501    0  0.00000000000E+00 -0.00000000000E+00 -0.59996497846E+03  0.59996497846E+03  0.00000000000E+00 0. -1.
         23    2    1    2    0    0 -0.34540666881E+02  0.17768607727E+02 -0.16770316720E+03  0.19508980466E+03  0.91798139998E+02 0.  0.
         23    2    1    2    0    0  0.34540666881E+02 -0.17768607727E+02 -0.40833507668E+03  0.42880190838E+03  0.12499904276E+03 0.  0.
          5    1    4    4  502    0 -0.10960681656E+02  0.25814383086E+02 -0.31386777833E+03  0.31515328206E+03  0.47000000000E+01 0. -1.
         -5    1    4    4    0  502  0.45501348537E+02 -0.43582990813E+02 -0.94467298347E+02  0.11364862632E+03  0.47000000000E+01 0. -1.
        -11    1    3    3    0    0 -0.13227649964E+01  0.29564662106E+02 -0.67930802949E+01  0.30363874795E+02  0.00000000000E+00 0.  1.
         11    1    3    3    0    0 -0.33217901885E+02 -0.11796054379E+02 -0.16091008690E+03  0.16472592987E+03  0.00000000000E+00 0. -1.
<mgrwt>
<rscale>  0 0.12227633E+03</rscale>
<asrwt>0</asrwt>
<pdfrwt beam="2">  1        2 0.92302290E-01 0.13089516E+03</pdfrwt>
<pdfrwt beam="1">  1       -2 0.36810366E-02 0.13089516E+03</pdfrwt>
<totfact> 0.14869785E+04</totfact>
</mgrwt>
</event>
<event>
 8    1  0.1224355E-005  0.1258617E+03  0.7546771E-02  0.1245612E+00
          1   -1    0    0  501    0  0.00000000000E+00  0.00000000000E+00  0.96242275457E+03  0.96242275457E+03  0.00000000000E+00 0. -1.
         -1   -1    0    0    0  501 -0.00000000000E+00 -0.00000000000E+00 -0.13236691508E+02  0.13236691508E+02  0.00000000000E+00 0.  1.
         23    2    1    2    0    0  0.10238829677E+02 -0.10613136984E+02  0.46396565727E+03  0.47438107157E+03  0.97753760152E+02 0.  0.
         23    2    1    2    0    0 -0.10238829677E+02  0.10613136984E+02  0.48522040579E+03  0.50127837451E+03  0.12499477687E+03 0.  0.
          5    1    4    4  502    0  0.15540349334E+02  0.36420205798E+02  0.47512007534E+02  0.62027531852E+02  0.47000000000E+01 0.  1.
         -5    1    4    4    0  502 -0.25779179011E+02 -0.25807068814E+02  0.43770839825E+03  0.43925084266E+03  0.47000000000E+01 0.  1.
        -11    1    3    3    0    0  0.21513911886E+02 -0.50520689426E+02  0.31502970164E+03  0.31977945741E+03  0.00000000000E+00 0.  1.
         11    1    3    3    0    0 -0.11275082209E+02  0.39907552442E+02  0.14893595563E+03  0.15460161416E+03  0.00000000000E+00 0. -1.
<mgrwt>
<rscale>  0 0.11848822E+03</rscale>
<asrwt>0</asrwt>
<pdfrwt beam="1">  1        1 0.14806498E+00 0.12586170E+03</pdfrwt>
<pdfrwt beam="2">  1       -1 0.20364148E-02 0.12586170E+03</pdfrwt>
<totfact> 0.10922114E+04</totfact>
</mgrwt>
</event>
<event>
 6    1  0.1224355E-005  0.1690778E+03  0.7546771E-02  0.1230474E+00
         -4   -1    0    0    0  501 -0.00000000000E+00  0.00000000000E+00  0.70447012091E+02  0.70447012091E+02  0.00000000000E+00 0.  1.
          4   -1    0    0  501    0  0.00000000000E+00 -0.00000000000E+00 -0.29743335765E+03  0.29743335765E+03  0.00000000000E+00 0. -1.
          5    1    1    2  502    0 -0.46557721607E+02 -0.17020460833E+01 -0.25210135428E+03  0.25641314559E+03  0.47000000000E+01 0. -1.
         -5    1    1    2    0  502  0.47831836431E+02 -0.10995264398E+02 -0.26937854996E+01  0.49377392558E+02  0.47000000000E+01 0.  1.
        -11    1    1    2    0    0 -0.22839148050E+02 -0.89552228599E+01  0.86057159955E+01  0.25997712359E+02  0.00000000000E+00 0. -1.
         11    1    1    2    0    0  0.21565033226E+02  0.21652533341E+02  0.19203078218E+02  0.36092119240E+02  0.00000000000E+00 0.  1.
<mgrwt>
<rscale>  0 0.12798697E+03</rscale>
<asrwt>0</asrwt>
<pdfrwt beam="2">  1        4 0.45758978E-01 0.16907776E+03</pdfrwt>
<pdfrwt beam="1">  1       -4 0.10838002E-01 0.16907776E+03</pdfrwt>
<totfact> 0.53146639E+02</totfact>
</mgrwt>
</event>
<event>
 8    1  0.1308560E-005  0.1556567E+03  0.7546771E-02  0.1208863E+00
          2   -1    0    0  501    0  0.00000000000E+00  0.00000000000E+00  0.66109803203E+03  0.66109803203E+03  0.00000000000E+00 0. -1.
         -2   -1    0    0    0  501 -0.00000000000E+00 -0.00000000000E+00 -0.29910694881E+02  0.29910694881E+02  0.00000000000E+00 0.  1.
         23    2    1    2    0    0  0.79042012141E+01  0.92423743040E+02  0.16433211086E+03  0.19888799608E+03  0.62823304994E+02 0.  0.
         23    2    1    2    0    0 -0.79042012141E+01 -0.92423743040E+02  0.46685522628E+03  0.49212073083E+03  0.12499754688E+03 0.  0.
          5    1    4    4  502    0 -0.35944355963E+02 -0.11400997613E+03  0.37242301539E+03  0.39116654225E+03  0.47000000000E+01 0.  1.
         -5    1    4    4    0  502  0.28040154749E+02  0.21586233087E+02  0.94432210889E+02  0.10095418857E+03  0.47000000000E+01 0.  1.
        -11    1    3    3    0    0  0.32322691889E+02  0.48263164976E+02  0.63034370624E+02  0.85717100887E+02  0.00000000000E+00 0.  1.
         11    1    3    3    0    0 -0.24418490675E+02  0.44160578064E+02  0.10129774024E+03  0.11317089519E+03  0.00000000000E+00 0. -1.
<mgrwt>
<rscale>  0 0.14337135E+03</rscale>
<asrwt>0</asrwt>
<pdfrwt beam="1">  1        2 0.10170738E+00 0.15565671E+03</pdfrwt>
<pdfrwt beam="2">  1       -2 0.46016459E-02 0.15565671E+03</pdfrwt>
<totfact> 0.96466210E+03</totfact>
</mgrwt>
</event>
<event>
 8    1  0.1224355E-005  0.1435384E+03  0.7546771E-02  0.1219585E+00
         -2   -1    0    0    0  501 -0.00000000000E+00  0.00000000000E+00  0.28384354986E+02  0.28384354986E+02  0.00000000000E+00 0.  1.
          2   -1    0    0  501    0  0.00000000000E+00 -0.00000000000E+00 -0.82192497344E+03  0.82192497344E+03  0.00000000000E+00 0. -1.
         23    2    1    2    0    0  0.55248510327E+02 -0.43893599431E+02 -0.13628917193E+03  0.17756663207E+03  0.89309151128E+02 0.  0.
         23    2    1    2    0    0 -0.55248510327E+02  0.43893599431E+02 -0.65725144653E+03  0.67274269636E+03  0.12499690227E+03 0.  0.
          5    1    4    4  502    0 -0.43852544681E+02 -0.35129334659E+02 -0.17371604432E+03  0.18263753690E+03  0.47000000000E+01 0. -1.
         -5    1    4    4    0  502 -0.11395965645E+02  0.79022934089E+02 -0.48353540221E+03  0.49010515946E+03  0.47000000000E+01 0. -1.
        -11    1    3    3    0    0  0.21210275282E+02 -0.67116723017E+02 -0.68383438848E+02  0.98136766784E+02  0.00000000000E+00 0.  1.
         11    1    3    3    0    0  0.34038235044E+02  0.23223123587E+02 -0.67905733081E+02  0.79429865286E+02  0.00000000000E+00 0. -1.
<mgrwt>
<rscale>  0 0.13545076E+03</rscale>
<asrwt>0</asrwt>
<pdfrwt beam="2">  1        2 0.12644997E+00 0.14353840E+03</pdfrwt>
<pdfrwt beam="1">  1       -2 0.43668246E-02 0.14353840E+03</pdfrwt>
<totfact> 0.79735860E+03</totfact>
</mgrwt>
</event>
<event>
 8    1  0.1224355E-005  0.1518746E+03  0.7546771E-02  0.1206960E+00
         -1   -1    0    0    0  501 -0.00000000000E+00  0.00000000000E+00  0.64636972296E+02  0.64636972296E+02  0.00000000000E+00 0. -1.
          1   -1    0    0  501    0  0.00000000000E+00 -0.00000000000E+00 -0.30764897728E+03  0.30764897728E+03  0.00000000000E+00 0.  1.
         23    2    1    2    0    0 -0.71448962643E+02 -0.48350822933E+02 -0.77320941028E+02  0.14752067611E+03  0.91329434555E+02 0.  0.
         23    2    1    2    0    0  0.71448962643E+02  0.48350822933E+02 -0.16569106396E+03  0.22476527347E+03  0.12499257235E+03 0.  0.
          5    1    4    4  502    0  0.65073561139E+02  0.76813737695E+02 -0.16715280708E+03  0.19518470630E+03  0.47000000000E+01 0. -1.
         -5    1    4    4    0  502  0.63754015039E+01 -0.28462914762E+02  0.14617431269E+01  0.29580567169E+02  0.47000000000E+01 0. -1.
        -11    1    3    3    0    0 -0.20820544114E+02 -0.21942689701E+01  0.19701171822E+02  0.28747974619E+02  0.00000000000E+00 0. -1.
         11    1    3    3    0    0 -0.50628418528E+02 -0.46156553963E+02 -0.97022112851E+02  0.11877270149E+03  0.00000000000E+00 0.  1.
<mgrwt>
<rscale>  0 0.14484063E+03</rscale>
<asrwt>0</asrwt>
<pdfrwt beam="2">  1        1 0.47330613E-01 0.15187462E+03</pdfrwt>
<pdfrwt beam="1">  1       -1 0.99441494E-02 0.15187462E+03</pdfrwt>
<totfact> 0.50358868E+03</totfact>
</mgrwt>
</event>
<event>
 8    1  0.1224355E-005  0.1281357E+03  0.7546771E-02  0.1241376E+00
          1   -1    0    0  501    0  0.00000000000E+00  0.00000000000E+00  0.11465137349E+04  0.11465137349E+04  0.00000000000E+00 0. -1.
         -1   -1    0    0    0  501 -0.00000000000E+00 -0.00000000000E+00 -0.14769560610E+02  0.14769560610E+02  0.00000000000E+00 0.  1.
         23    2    1    2    0    0 -0.42869262171E+02 -0.20376932205E+02  0.24616262372E+03  0.26647971774E+03  0.90346054948E+02 0.  0.
         23    2    1    2    0    0  0.42869262171E+02  0.20376932205E+02  0.88558155059E+03  0.89480357779E+03  0.11902002805E+03 0.  0.
          5    1    4    4  502    0  0.56760116729E+02 -0.32430538440E+02  0.63070460948E+03  0.63410081619E+03  0.47000000000E+01 0. -1.
         -5    1    4    4    0  502 -0.13890854558E+02  0.52807470644E+02  0.25487694111E+03  0.26070276160E+03  0.47000000000E+01 0.  1.
        -11    1    3    3    0    0  0.20791796927E+02 -0.27011393679E+02  0.12355419241E+03  0.12817001470E+03  0.00000000000E+00 0. -1.
         11    1    3    3    0    0 -0.63661059099E+02  0.66344614743E+01  0.12260843131E+03  0.13830970303E+03  0.00000000000E+00 0.  1.
<mgrwt>
<rscale>  0 0.12104926E+03</rscale>
<asrwt>0</asrwt>
<pdfrwt beam="1">  1        1 0.17638666E+00 0.12813571E+03</pdfrwt>
<pdfrwt beam="2">  1       -1 0.22722410E-02 0.12813571E+03</pdfrwt>
<totfact> 0.68933091E+03</totfact>
</mgrwt>
</event>
<event>
 8    1  0.1224355E-005  0.2682411E+03  0.7546771E-02  0.1104391E+00
         -2   -1    0    0    0  501 -0.00000000000E+00  0.00000000000E+00  0.13402542658E+03  0.13402542658E+03  0.00000000000E+00 0.  1.
          2   -1    0    0  501    0  0.00000000000E+00 -0.00000000000E+00 -0.50970333727E+03  0.50970333727E+03  0.00000000000E+00 0. -1.
         23    2    1    2    0    0  0.21173807794E+03 -0.10720981893E+03 -0.17024886087E+03  0.30586133140E+03  0.90771804483E+02 0.  0.
         23    2    1    2    0    0 -0.21173807794E+03  0.10720981893E+03 -0.20542904982E+03  0.33786743246E+03  0.12500539381E+03 0.  0.
          5    1    4    4  502    0 -0.22537245727E+03  0.84217730171E+02 -0.17833564128E+03  0.29951804875E+03  0.47000000000E+01 0. -1.
         -5    1    4    4    0  502  0.13634379328E+02  0.22992088758E+02 -0.27093408534E+02  0.38349383713E+02  0.47000000000E+01 0. -1.
        -11    1    3    3    0    0 -0.23294841075E+01 -0.18439902753E+02 -0.29060550440E+02  0.34495972253E+02  0.00000000000E+00 0. -1.
         11    1    3    3    0    0  0.21406756205E+03 -0.88769916175E+02 -0.14118831043E+03  0.27136535914E+03  0.00000000000E+00 0.  1.
<mgrwt>
<rscale>  0 0.26463356E+03</rscale>
<asrwt>0</asrwt>
<pdfrwt beam="2">  1        2 0.78415899E-01 0.26824114E+03</pdfrwt>
<pdfrwt beam="1">  1       -2 0.20619296E-01 0.26824114E+03</pdfrwt>
<totfact> 0.12152646E+03</totfact>
</mgrwt>
</event>
<event>
 8    1  0.1224355E-005  0.1935954E+03  0.7546771E-02  0.1159881E+00
          2   -1    0    0  501    0  0.00000000000E+00  0.00000000000E+00  0.22081258617E+04  0.22081258617E+04  0.00000000000E+00 0. -1.
         -2   -1    0    0    0  501 -0.00000000000E+00 -0.00000000000E+00 -0.18238017743E+02  0.18238017743E+02  0.00000000000E+00 0.  1.
         23    2    1    2    0    0 -0.38791046867E+02  0.14265252205E+03  0.59759365411E+03  0.62234393901E+03  0.91319853410E+02 0.  0.
         23    2    1    2    0    0  0.38791046867E+02 -0.14265252205E+03  0.15922941899E+04  0.16040199405E+04  0.12499877965E+03 0.  0.
          5    1    4    4  502    0  0.71568578269E+02 -0.14276624223E+03  0.12630958790E+04  0.12731604576E+04  0.47000000000E+01 0. -1.
         -5    1    4    4    0  502 -0.32777531402E+02  0.11372017946E+00  0.32919831091E+03  0.33085948287E+03  0.47000000000E+01 0. -1.
        -11    1    3    3    0    0  0.27377601046E+01  0.12913887465E+03  0.41713705601E+03  0.43667799094E+03  0.00000000000E+00 0.  1.
         11    1    3    3    0    0 -0.41528806972E+02  0.13513647401E+02  0.18045659811E+03  0.18566594808E+03  0.00000000000E+00 0. -1.
<mgrwt>
<rscale>  0 0.18843476E+03</rscale>
<asrwt>0</asrwt>
<pdfrwt beam="1">  1        2 0.33971146E+00 0.19359541E+03</pdfrwt>
<pdfrwt beam="2">  1       -2 0.28058506E-02 0.19359541E+03</pdfrwt>
<totfact> 0.27076161E+03</totfact>
</mgrwt>
</event>
<event>
 8    1  0.1224355E-005  0.1320500E+03  0.7546771E-02  0.1237078E+00
         -2   -1    0    0    0  501 -0.00000000000E+00  0.00000000000E+00  0.15196906447E+02  0.15196906447E+02  0.00000000000E+00 0.  1.
          2   -1    0    0  501    0  0.00000000000E+00 -0.00000000000E+00 -0.10877555999E+04  0.10877555999E+04  0.00000000000E+00 0. -1.
         23    2    1    2    0    0  0.43533875912E+02 -0.95908193781E+01 -0.25092467550E+03  0.27077484881E+03  0.91480291891E+02 0.  0.
         23    2    1    2    0    0 -0.43533875912E+02  0.95908193781E+01 -0.82163401792E+03  0.83217765750E+03  0.12429807753E+03 0.  0.
          5    1    4    4  502    0 -0.72271225643E+02  0.26144710741E+02 -0.30894559215E+03  0.31839620737E+03  0.47000000000E+01 0. -1.
         -5    1    4    4    0  502  0.28737349731E+02 -0.16553891363E+02 -0.51268842576E+03  0.51378145013E+03  0.47000000000E+01 0.  1.
        -11    1    3    3    0    0  0.63082540240E+02  0.78265286148E+01 -0.10675415199E+03  0.12424616856E+03  0.00000000000E+00 0.  1.
         11    1    3    3    0    0 -0.19548664328E+02 -0.17417347993E+02 -0.14417052351E+03  0.14652868025E+03  0.00000000000E+00 0. -1.
<mgrwt>
<rscale>  0 0.12372339E+03</rscale>
<asrwt>0</asrwt>
<pdfrwt beam="2">  1        2 0.16734708E+00 0.13204997E+03</pdfrwt>
<pdfrwt beam="1">  1       -2 0.23379847E-02 0.13204997E+03</pdfrwt>
<totfact> 0.13685676E+04</totfact>
</mgrwt>
</event>
<event>
 8    1  0.1224355E-005  0.1787611E+03  0.7546771E-02  0.1175272E+00
         -2   -1    0    0    0  501 -0.00000000000E+00  0.00000000000E+00  0.47751411705E+03  0.47751411705E+03  0.00000000000E+00 0.  1.
          2   -1    0    0  501    0  0.00000000000E+00 -0.00000000000E+00 -0.69584966686E+02  0.69584966686E+02  0.00000000000E+00 0. -1.
         23    2    1    2    0    0  0.11378259851E+02  0.12680689383E+03  0.30164290481E+03  0.33912722500E+03  0.88370694177E+02 0.  0.
         23    2    1    2    0    0 -0.11378259851E+02 -0.12680689383E+03  0.10628624555E+03  0.20797185874E+03  0.12548336508E+03 0.  0.
          5    1    4    4  502    0  0.35944470226E+02 -0.57196751023E+02  0.10342264294E+03  0.12361960338E+03  0.47000000000E+01 0.  1.
         -5    1    4    4    0  502 -0.47322730077E+02 -0.69610142810E+02  0.28636026114E+01  0.84352255358E+02  0.47000000000E+01 0.  1.
        -11    1    3    3    0    0  0.49749260892E+01  0.57552397360E+02  0.44995919434E+02  0.73223364421E+02  0.00000000000E+00 0. -1.
         11    1    3    3    0    0  0.64033337615E+01  0.69254496474E+02  0.25664698538E+03  0.26590386057E+03  0.00000000000E+00 0.  1.
<mgrwt>
<rscale>  0 0.17249390E+03</rscale>
<asrwt>0</asrwt>
<pdfrwt beam="2">  1        2 0.10705380E-01 0.17876109E+03</pdfrwt>
<pdfrwt beam="1">  1       -2 0.73463708E-01 0.17876109E+03</pdfrwt>
<totfact> 0.99753142E+02</totfact>
</mgrwt>
</event>
<event>
 8    1  0.1224355E-005  0.1962777E+03  0.7546771E-02  0.1157582E+00
         -2   -1    0    0    0  501 -0.00000000000E+00  0.00000000000E+00  0.30041273737E+02  0.30041273737E+02  0.00000000000E+00 0.  1.
          2   -1    0    0  501    0  0.00000000000E+00 -0.00000000000E+00 -0.14752252720E+04  0.14752252720E+04  0.00000000000E+00 0. -1.
         23    2    1    2    0    0 -0.81233239885E+02  0.12766714024E+03 -0.34028588560E+03  0.38307013948E+03  0.89724633565E+02 0.  0.
         23    2    1    2    0    0  0.81233239885E+02 -0.12766714024E+03 -0.11048981126E+04  0.11221964062E+04  0.12500878718E+03 0.  0.
          5    1    4    4  502    0  0.98512382643E+02 -0.10720138736E+03 -0.10580291315E+04  0.10680096255E+04  0.47000000000E+01 0.  1.
         -5    1    4    4    0  502 -0.17279142758E+02 -0.20465752885E+02 -0.46868981107E+02  0.54186780728E+02  0.47000000000E+01 0.  1.
        -11    1    3    3    0    0 -0.76930294647E+02  0.49648318601E+02 -0.13231664187E+03  0.16090655515E+03  0.00000000000E+00 0.  1.
         11    1    3    3    0    0 -0.43029452375E+01  0.78018821640E+02 -0.20796924373E+03  0.22216358434E+03  0.00000000000E+00 0. -1.
<mgrwt>
<rscale>  0 0.19097773E+03</rscale>
<asrwt>0</asrwt>
<pdfrwt beam="2">  1        2 0.22695769E+00 0.19627770E+03</pdfrwt>
<pdfrwt beam="1">  1       -2 0.46217354E-02 0.19627770E+03</pdfrwt>
<totfact> 0.30995036E+03</totfact>
</mgrwt>
</event>
<event>
 8    1  0.1224355E-005  0.1939511E+03  0.7546771E-02  0.1159788E+00
         -2   -1    0    0    0  501 -0.00000000000E+00  0.00000000000E+00  0.15656371323E+03  0.15656371323E+03  0.00000000000E+00 0. -1.
          2   -1    0    0  501    0  0.00000000000E+00 -0.00000000000E+00 -0.22692258278E+03  0.22692258278E+03  0.00000000000E+00 0.  1.
         23    2    1    2    0    0 -0.14586299809E+03 -0.26649852950E+02  0.10175874514E+02  0.17347943655E+03  0.89472552262E+02 0.  0.
         23    2    1    2    0    0  0.14586299809E+03  0.26649852950E+02 -0.80534744073E+02  0.21000685946E+03  0.12502322641E+03 0.  0.
          5    1    4    4  502    0  0.16213995417E+02 -0.43343829240E+02 -0.20751029314E+02  0.50934039680E+02  0.47000000000E+01 0.  1.
         -5    1    4    4    0  502  0.12964900268E+03  0.69993682190E+02 -0.59783714759E+02  0.15907281978E+03  0.47000000000E+01 0.  1.
        -11    1    3    3    0    0 -0.66576677687E+02 -0.30649881157E+02  0.45841849911E+02  0.86448507390E+02  0.00000000000E+00 0. -1.
         11    1    3    3    0    0 -0.79286320408E+02  0.40000282069E+01 -0.35665975397E+02  0.87030929160E+02  0.00000000000E+00 0.  1.
<mgrwt>
<rscale>  0 0.18853592E+03</rscale>
<asrwt>0</asrwt>
<pdfrwt beam="2">  1        2 0.34911167E-01 0.19395112E+03</pdfrwt>
<pdfrwt beam="1">  1       -2 0.24086725E-01 0.19395112E+03</pdfrwt>
<totfact> 0.22213488E+03</totfact>
</mgrwt>
</event>
<event>
 8    1  0.1224355E-005  0.1480835E+03  0.7546771E-02  0.1212695E+00
          2   -1    0    0  501    0  0.00000000000E+00  0.00000000000E+00  0.22000249749E+03  0.22000249749E+03  0.00000000000E+00 0. -1.
         -2   -1    0    0    0  501 -0.00000000000E+00 -0.00000000000E+00 -0.90765827299E+02  0.90765827299E+02  0.00000000000E+00 0.  1.
         23    2    1    2    0    0  0.15349362842E+02 -0.77905871742E+02  0.94061314290E+01  0.12027399854E+03  0.89846711817E+02 0.  0.
         23    2    1    2    0    0 -0.15349362842E+02  0.77905871742E+02  0.11983053876E+03  0.19049432625E+03  0.12499521000E+03 0.  0.
          5    1    4    4  502    0  0.17415112039E+02  0.91840906186E+02  0.12286397325E+03  0.15445285397E+03  0.47000000000E+01 0.  1.
         -5    1    4    4    0  502 -0.32764474880E+02 -0.13935034445E+02 -0.30334344931E+01  0.36041472278E+02  0.47000000000E+01 0.  1.
        -11    1    3    3    0    0 -0.13336600337E+02  0.87428628751E+00  0.30947818126E+02  0.33710484004E+02  0.00000000000E+00 0. -1.
         11    1    3    3    0    0  0.28685963179E+02 -0.78780158029E+02 -0.21541686697E+02  0.86563514533E+02  0.00000000000E+00 0.  1.
<mgrwt>
<rscale>  0 0.14047206E+03</rscale>
<asrwt>0</asrwt>
<pdfrwt beam="1">  1        2 0.33846538E-01 0.14808352E+03</pdfrwt>
<pdfrwt beam="2">  1       -2 0.13963973E-01 0.14808352E+03</pdfrwt>
<totfact> 0.56767715E+03</totfact>
</mgrwt>
</event>
<event>
 8    1  0.1224355E-005  0.1270945E+03  0.7546771E-02  0.1246917E+00
         -1   -1    0    0    0  501 -0.00000000000E+00  0.00000000000E+00  0.57463182633E+02  0.57463182633E+02  0.00000000000E+00 0.  1.
          1   -1    0    0  501    0  0.00000000000E+00 -0.00000000000E+00 -0.23736837932E+03  0.23736837932E+03  0.00000000000E+00 0. -1.
         23    2    1    2    0    0 -0.20890541928E+02 -0.96453901754E+01 -0.29822652216E+02  0.98164877213E+02  0.90650450851E+02 0.  0.
         23    2    1    2    0    0  0.20890541928E+02  0.96453901754E+01 -0.15008254447E+03  0.19666668474E+03  0.12499426562E+03 0.  0.
          5    1    4    4  502    0 -0.20326585532E+02  0.43807793856E+02 -0.13090295522E+03  0.13960647036E+03  0.47000000000E+01 0.  1.
         -5    1    4    4    0  502  0.41217127460E+02 -0.34162403680E+02 -0.19179589255E+02  0.57060214381E+02  0.47000000000E+01 0.  1.
        -11    1    3    3    0    0 -0.34357813284E+02 -0.30316836321E+02  0.13967851062E+02  0.47902721859E+02  0.00000000000E+00 0.  1.
         11    1    3    3    0    0  0.13467271357E+02  0.20671446145E+02 -0.43790503278E+02  0.50262155354E+02  0.00000000000E+00 0. -1.
<mgrwt>
<rscale>  0 0.11771375E+03</rscale>
<asrwt>0</asrwt>
<pdfrwt beam="2">  1        1 0.36518211E-01 0.12709451E+03</pdfrwt>
<pdfrwt beam="1">  1       -1 0.88404899E-02 0.12709451E+03</pdfrwt>
<totfact> 0.82080128E+03</totfact>
</mgrwt>
</event>
<event>
 8    1  0.1224355E-005  0.1440453E+03  0.7546771E-02  0.1217887E+00
         -1   -1    0    0    0  501 -0.00000000000E+00  0.00000000000E+00  0.19641235797E+03  0.19641235797E+03  0.00000000000E+00 0.  1.
          1   -1    0    0  501    0  0.00000000000E+00 -0.00000000000E+00 -0.97716283492E+02  0.97716283492E+02  0.00000000000E+00 0. -1.
         23    2    1    2    0    0 -0.58161731451E+02 -0.41720272985E+02  0.94237227359E+02  0.15001438739E+03  0.92197034767E+02 0.  0.
         23    2    1    2    0    0  0.58161731451E+02  0.41720272985E+02  0.44588471223E+01  0.14411425408E+03  0.12500267488E+03 0.  0.
          5    1    4    4  502    0  0.97504045981E+02  0.24223238095E+02  0.58021792129E-01  0.10057781869E+03  0.47000000000E+01 0.  1.
         -5    1    4    4    0  502 -0.39342314530E+02  0.17497034890E+02  0.44008253302E+01  0.43536435385E+02  0.47000000000E+01 0.  1.
        -11    1    3    3    0    0 -0.57163406079E+02  0.15353719703E+02  0.54532133163E+02  0.80480713532E+02  0.00000000000E+00 0.  1.
         11    1    3    3    0    0 -0.99832537198E+00 -0.57073992688E+02  0.39705094196E+02  0.69533673857E+02  0.00000000000E+00 0. -1.
<mgrwt>
<rscale>  0 0.13666615E+03</rscale>
<asrwt>0</asrwt>
<pdfrwt beam="2">  1        1 0.15033274E-01 0.14404526E+03</pdfrwt>
<pdfrwt beam="1">  1       -1 0.30217286E-01 0.14404526E+03</pdfrwt>
<totfact> 0.36156390E+03</totfact>
</mgrwt>
</event>
<event>
 8    1  0.1224355E-005  0.1384375E+03  0.7546771E-02  0.1226990E+00
          2   -1    0    0  501    0  0.00000000000E+00  0.00000000000E+00  0.15706743560E+04  0.15706743560E+04  0.00000000000E+00 0. -1.
         -2   -1    0    0    0  501 -0.00000000000E+00 -0.00000000000E+00 -0.12382205106E+02  0.12382205106E+02  0.00000000000E+00 0.  1.
         23    2    1    2    0    0 -0.42286146174E+02 -0.41850996353E+02  0.34067915779E+03  0.35759895833E+03  0.90967589825E+02 0.  0.
         23    2    1    2    0    0  0.42286146174E+02  0.41850996353E+02  0.12176129931E+04  0.12254576028E+04  0.12500124460E+03 0.  0.
          5    1    4    4  502    0 -0.40952238284E+02  0.34512770725E+02  0.40695965532E+03  0.41049539366E+03  0.47000000000E+01 0.  1.
         -5    1    4    4    0  502  0.83238384458E+02  0.73382256277E+01  0.81065333782E+03  0.81496220914E+03  0.47000000000E+01 0.  1.
        -11    1    3    3    0    0 -0.12783276409E+02 -0.62212896629E+02  0.13986214744E+03  0.15360754196E+03  0.00000000000E+00 0.  1.
         11    1    3    3    0    0 -0.29502869766E+02  0.20361900276E+02  0.20081701035E+03  0.20399141637E+03  0.00000000000E+00 0. -1.
<mgrwt>
<rscale>  0 0.13031464E+03</rscale>
<asrwt>0</asrwt>
<pdfrwt beam="1">  1        2 0.24164205E+00 0.13843748E+03</pdfrwt>
<pdfrwt beam="2">  1       -2 0.19049559E-02 0.13843748E+03</pdfrwt>
<totfact> 0.10147645E+04</totfact>
</mgrwt>
</event>
<event>
 8    1  0.1224355E-005  0.2688357E+03  0.7546771E-02  0.1104097E+00
         -1   -1    0    0    0  501 -0.00000000000E+00  0.00000000000E+00  0.39647807441E+02  0.39647807441E+02  0.00000000000E+00 0.  1.
          1   -1    0    0  501    0  0.00000000000E+00 -0.00000000000E+00 -0.18893532242E+04  0.18893532242E+04  0.00000000000E+00 0. -1.
         23    2    1    2    0    0  0.12484604442E+03  0.20263416707E+03 -0.11850525335E+04  0.12120379441E+04  0.89662312748E+02 0.  0.
         23    2    1    2    0    0 -0.12484604442E+03 -0.20263416707E+03 -0.66465288328E+03  0.71696308756E+03  0.12500189277E+03 0.  0.
          5    1    4    4  502    0 -0.18699476160E+02 -0.14748796117E+03 -0.34913545684E+03  0.37949970530E+03  0.47000000000E+01 0.  1.
         -5    1    4    4    0  502 -0.10614656826E+03 -0.55146205897E+02 -0.31551742644E+03  0.33746338226E+03  0.47000000000E+01 0.  1.
        -11    1    3    3    0    0  0.10023690867E+03  0.81028187845E+02 -0.54082535915E+03  0.55597218832E+03  0.00000000000E+00 0. -1.
         11    1    3    3    0    0  0.24609135752E+02  0.12160597922E+03 -0.64422717434E+03  0.65606575578E+03  0.00000000000E+00 0.  1.
<mgrwt>
<rscale>  0 0.26513487E+03</rscale>
<asrwt>0</asrwt>
<pdfrwt beam="2">  1        1 0.29066959E+00 0.26883566E+03</pdfrwt>
<pdfrwt beam="1">  1       -1 0.60996655E-02 0.26883566E+03</pdfrwt>
<totfact> 0.51899137E+02</totfact>
</mgrwt>
</event>
<event>
 8    1  0.1224355E-005  0.1283258E+03  0.7546771E-02  0.1246248E+00
         -2   -1    0    0    0  501 -0.00000000000E+00  0.00000000000E+00  0.17296402987E+02  0.17296402987E+02  0.00000000000E+00 0.  1.
          2   -1    0    0  501    0  0.00000000000E+00 -0.00000000000E+00 -0.70222057620E+03  0.70222057620E+03  0.00000000000E+00 0. -1.
         23    2    1    2    0    0  0.27595998236E+02 -0.90062796431E+01 -0.28791784785E+03  0.30228618070E+03  0.87393339198E+02 0.  0.
         23    2    1    2    0    0 -0.27595998236E+02  0.90062796431E+01 -0.39700632536E+03  0.41723079849E+03  0.12499945857E+03 0.  0.
          5    1    4    4  502    0  0.33345644480E+02 -0.93024464312E+01 -0.29396579571E+03  0.29603453610E+03  0.47000000000E+01 0. -1.
         -5    1    4    4    0  502 -0.60941642716E+02  0.18308726074E+02 -0.10304052965E+03  0.12119626239E+03  0.47000000000E+01 0. -1.
        -11    1    3    3    0    0 -0.27295006384E+02 -0.22709135264E+02 -0.10933384714E+03  0.11495482734E+03  0.00000000000E+00 0. -1.
         11    1    3    3    0    0  0.54891004620E+02  0.13702855621E+02 -0.17858400071E+03  0.18733135335E+03  0.00000000000E+00 0.  1.
<mgrwt>
<rscale>  0 0.11810998E+03</rscale>
<asrwt>0</asrwt>
<pdfrwt beam="2">  1        2 0.10803391E+00 0.12832582E+03</pdfrwt>
<pdfrwt beam="1">  1       -2 0.26609856E-02 0.12832582E+03</pdfrwt>
<totfact> 0.19932433E+04</totfact>
</mgrwt>
</event>
<event>
 8    1  0.1224355E-005  0.1467723E+03  0.7546771E-02  0.1214743E+00
          1   -1    0    0  501    0  0.00000000000E+00  0.00000000000E+00  0.27037731637E+03  0.27037731637E+03  0.00000000000E+00 0. -1.
         -1   -1    0    0    0  501 -0.00000000000E+00 -0.00000000000E+00 -0.88152463242E+02  0.88152463242E+02  0.00000000000E+00 0.  1.
         23    2    1    2    0    0 -0.68509271474E+02 -0.35022236722E+02 -0.80960816729E+01  0.11818798970E+03  0.89346387883E+02 0.  0.
         23    2    1    2    0    0  0.68509271474E+02  0.35022236722E+02  0.19032093481E+03  0.24034178992E+03  0.12498816109E+03 0.  0.
          5    1    4    4  502    0  0.69439145440E+02  0.79773060295E+01  0.27560512729E+02  0.75280171313E+02  0.47000000000E+01 0.  1.
         -5    1    4    4    0  502 -0.92987396673E+00  0.27044930693E+02  0.16276042208E+03  0.16506161860E+03  0.47000000000E+01 0.  1.
        -11    1    3    3    0    0  0.19023890473E+02 -0.19521203450E+02  0.67020547670E+01  0.28069615796E+02  0.00000000000E+00 0. -1.
         11    1    3    3    0    0 -0.87533161946E+02 -0.15501033272E+02 -0.14798136440E+02  0.90118373903E+02  0.00000000000E+00 0.  1.
<mgrwt>
<rscale>  0 0.13895403E+03</rscale>
<asrwt>0</asrwt>
<pdfrwt beam="1">  1        1 0.41596510E-01 0.14677233E+03</pdfrwt>
<pdfrwt beam="2">  1       -1 0.13561918E-01 0.14677233E+03</pdfrwt>
<totfact> 0.36546888E+03</totfact>
</mgrwt>
</event>
<event>
 8    1  0.1224355E-005  0.1434622E+03  0.7546771E-02  0.1219192E+00
          4   -1    0    0  501    0  0.00000000000E+00  0.00000000000E+00  0.28557299948E+03  0.28557299948E+03  0.00000000000E+00 0. -1.
         -4   -1    0    0    0  501 -0.00000000000E+00 -0.00000000000E+00 -0.98815273203E+02  0.98815273203E+02  0.00000000000E+00 0.  1.
         23    2    1    2    0    0 -0.16444223632E+02 -0.68461060805E+02 -0.35100840085E+02  0.12018640294E+03  0.90859083971E+02 0.  0.
         23    2    1    2    0    0  0.16444223632E+02  0.68461060805E+02  0.22185856636E+03  0.26420186974E+03  0.12499630062E+03 0.  0.
          5    1    4    4  502    0  0.46995762842E+02  0.70115198720E+02  0.71592463825E+02  0.11078047523E+03  0.47000000000E+01 0. -1.
         -5    1    4    4    0  502 -0.30551539210E+02 -0.16541379157E+01  0.15026610254E+03  0.15342139451E+03  0.47000000000E+01 0. -1.
        -11    1    3    3    0    0  0.23833868073E+02 -0.35837448933E+00 -0.33415948146E+02  0.41046404107E+02  0.00000000000E+00 0.  1.
         11    1    3    3    0    0 -0.40278091705E+02 -0.68102686315E+02 -0.16848919386E+01  0.79139998835E+02  0.00000000000E+00 0. -1.
<mgrwt>
<rscale>  0 0.13573039E+03</rscale>
<asrwt>0</asrwt>
<pdfrwt beam="1">  1        4 0.43934307E-01 0.14346221E+03</pdfrwt>
<pdfrwt beam="2">  1       -4 0.15202350E-01 0.14346221E+03</pdfrwt>
<totfact> 0.31219233E+02</totfact>
</mgrwt>
</event>
<event>
 8    1  0.1224355E-005  0.1832489E+03  0.7546771E-02  0.1169911E+00
          2   -1    0    0  501    0  0.00000000000E+00  0.00000000000E+00  0.19367696720E+03  0.19367696720E+03  0.00000000000E+00 0. -1.
         -2   -1    0    0    0  501 -0.00000000000E+00 -0.00000000000E+00 -0.18277440248E+03  0.18277440248E+03  0.00000000000E+00 0.  1.
         23    2    1    2    0    0 -0.30223162847E+02  0.13054453588E+03 -0.68940277986E+02  0.17656381120E+03  0.92014684013E+02 0.  0.
         23    2    1    2    0    0  0.30223162847E+02 -0.13054453588E+03  0.79842842707E+02  0.19988755849E+03  0.12499936434E+03 0.  0.
          5    1    4    4  502    0  0.70815583662E+02 -0.79246727144E+02  0.81923871843E+02  0.13427025519E+03  0.47000000000E+01 0.  1.
         -5    1    4    4    0  502 -0.40592420815E+02 -0.51297808741E+02 -0.20810291355E+01  0.65617303293E+02  0.47000000000E+01 0.  1.
        -11    1    3    3    0    0  0.87962806752E+01  0.54157956376E+02 -0.72252775990E+02  0.90724431279E+02  0.00000000000E+00 0.  1.
         11    1    3    3    0    0 -0.39019443522E+02  0.76386579508E+02  0.33124980046E+01  0.85839379918E+02  0.00000000000E+00 0. -1.
<mgrwt>
<rscale>  0 0.17783890E+03</rscale>
<asrwt>0</asrwt>
<pdfrwt beam="1">  1        2 0.29796457E-01 0.18324889E+03</pdfrwt>
<pdfrwt beam="2">  1       -2 0.28119139E-01 0.18324889E+03</pdfrwt>
<totfact> 0.20026712E+03</totfact>
</mgrwt>
</event>
<event>
 8    1  0.1224355E-005  0.1261385E+03  0.7546771E-02  0.1247921E+00
         -1   -1    0    0    0  501 -0.00000000000E+00  0.00000000000E+00  0.42657573065E+02  0.42657573065E+02  0.00000000000E+00 0.  1.
          1   -1    0    0  501    0  0.00000000000E+00 -0.00000000000E+00 -0.28829040149E+03  0.28829040149E+03  0.00000000000E+00 0. -1.
         23    2    1    2    0    0 -0.41720155341E+01 -0.16438370213E+02 -0.83702737622E+02  0.12568652209E+03  0.92213490449E+02 0.  0.
         23    2    1    2    0    0  0.41720155341E+01  0.16438370213E+02 -0.16193009080E+03  0.20526145246E+03  0.12499313514E+03 0.  0.
          5    1    4    4  502    0 -0.70719259576E+00 -0.32553401478E+01 -0.17853364862E+03  0.17862656872E+03  0.47000000000E+01 0. -1.
         -5    1    4    4    0  502  0.48792081299E+01  0.19693710361E+02  0.16603557823E+02  0.26634883745E+02  0.47000000000E+01 0. -1.
        -11    1    3    3    0    0 -0.13071546320E+02 -0.36796745310E+02  0.36741291496E-01  0.39049547226E+02  0.00000000000E+00 0.  1.
         11    1    3    3    0    0  0.88995307862E+01  0.20358375098E+02 -0.83739478913E+02  0.86636974864E+02  0.00000000000E+00 0. -1.
<mgrwt>
<rscale>  0 0.11712244E+03</rscale>
<asrwt>0</asrwt>
<pdfrwt beam="2">  1        1 0.44352370E-01 0.12613845E+03</pdfrwt>
<pdfrwt beam="1">  1       -1 0.65627035E-02 0.12613845E+03</pdfrwt>
<totfact> 0.10099288E+04</totfact>
</mgrwt>
</event>
<event>
 8    1  0.3075890E-005  0.3182892E+03  0.7546771E-02  0.1077824E+00
          1   -1    0    0  501    0  0.00000000000E+00  0.00000000000E+00  0.17203853554E+03  0.17203853554E+03  0.00000000000E+00 0. -1.
         -1   -1    0    0    0  501 -0.00000000000E+00 -0.00000000000E+00 -0.57684203814E+03  0.57684203814E+03  0.00000000000E+00 0.  1.
         23    2    1    2    0    0 -0.11320774205E+03  0.26993966479E+03 -0.24657819709E+03  0.39343255984E+03  0.91131533374E+02 0.  0.
         23    2    1    2    0    0  0.11320774205E+03 -0.26993966479E+03 -0.15822530552E+03  0.35544801384E+03  0.12499851101E+03 0.  0.
          5    1    4    4  502    0  0.11705925227E+02 -0.15535310467E+03 -0.37177439417E+02  0.16023691153E+03  0.47000000000E+01 0. -1.
         -5    1    4    4    0  502  0.10150181683E+03 -0.11458656012E+03 -0.12104786610E+03  0.19521110231E+03  0.47000000000E+01 0. -1.
        -11    1    3    3    0    0 -0.94312293628E+02  0.10969806627E+03 -0.10476003141E+03  0.17861449732E+03  0.00000000000E+00 0.  1.
         11    1    3    3    0    0 -0.18895448426E+02  0.16024159852E+03 -0.14181816568E+03  0.21481806251E+03  0.00000000000E+00 0. -1.
<mgrwt>
<rscale>  0 0.31531943E+03</rscale>
<asrwt>0</asrwt>
<pdfrwt beam="1">  1        1 0.26467467E-01 0.31828924E+03</pdfrwt>
<pdfrwt beam="2">  1       -1 0.88744930E-01 0.31828924E+03</pdfrwt>
<totfact> 0.23332002E+02</totfact>
</mgrwt>
</event>
<event>
 8    1  0.1224355E-005  0.1837041E+03  0.7546771E-02  0.1169823E+00
         -1   -1    0    0    0  501 -0.00000000000E+00  0.00000000000E+00  0.58033742829E+02  0.58033742829E+02  0.00000000000E+00 0.  1.
          1   -1    0    0  501    0  0.00000000000E+00 -0.00000000000E+00 -0.54455509170E+03  0.54455509170E+03  0.00000000000E+00 0. -1.
         23    2    1    2    0    0 -0.11056613918E+03  0.76795673775E+02 -0.15721259690E+03  0.22550600865E+03  0.89524927651E+02 0.  0.
         23    2    1    2    0    0  0.11056613918E+03 -0.76795673775E+02 -0.32930875197E+03  0.37708282588E+03  0.12499902721E+03 0.  0.
          5    1    4    4  502    0  0.10287979746E+03 -0.57204670310E+01 -0.13435953166E+03  0.16938580287E+03  0.47000000000E+01 0.  1.
         -5    1    4    4    0  502  0.76863417194E+01 -0.71075206744E+02 -0.19494922031E+03  0.20769702300E+03  0.47000000000E+01 0.  1.
        -11    1    3    3    0    0 -0.79558654682E+02  0.23029423440E+01 -0.92828168649E+02  0.12227817456E+03  0.00000000000E+00 0. -1.
         11    1    3    3    0    0 -0.31007484497E+02  0.74492731431E+02 -0.64384428253E+02  0.10322783410E+03  0.00000000000E+00 0.  1.
<mgrwt>
<rscale>  0 0.17792889E+03</rscale>
<asrwt>0</asrwt>
<pdfrwt beam="2">  1        1 0.83777703E-01 0.18370412E+03</pdfrwt>
<pdfrwt beam="1">  1       -1 0.89282684E-02 0.18370412E+03</pdfrwt>
<totfact> 0.28829700E+03</totfact>
</mgrwt>
</event>
<event>
 8    1  0.1224355E-005  0.1349636E+03  0.7546771E-02  0.1232280E+00
          2   -1    0    0  501    0  0.00000000000E+00  0.00000000000E+00  0.11150999129E+03  0.11150999129E+03  0.00000000000E+00 0. -1.
         -2   -1    0    0    0  501 -0.00000000000E+00 -0.00000000000E+00 -0.13592754605E+03  0.13592754605E+03  0.00000000000E+00 0.  1.
         23    2    1    2    0    0  0.38836115086E+02  0.32894187684E+02 -0.37946207918E+02  0.11179760021E+03  0.92024547258E+02 0.  0.
         23    2    1    2    0    0 -0.38836115086E+02 -0.32894187684E+02  0.13528653155E+02  0.13563993713E+03  0.12499958668E+03 0.  0.
          5    1    4    4  502    0 -0.62172182350E+02 -0.15525866796E+02 -0.39177582128E+02  0.75255602711E+02  0.47000000000E+01 0.  1.
         -5    1    4    4    0  502  0.23336067264E+02 -0.17368320888E+02  0.52706235283E+02  0.60384334422E+02  0.47000000000E+01 0.  1.
        -11    1    3    3    0    0 -0.21384427530E+02 -0.37588112434E+01 -0.35062448286E+02  0.41240728443E+02  0.00000000000E+00 0.  1.
         11    1    3    3    0    0  0.60220542615E+02  0.36652998927E+02 -0.28837596319E+01  0.70556871762E+02  0.00000000000E+00 0. -1.
<mgrwt>
<rscale>  0 0.12680194E+03</rscale>
<asrwt>0</asrwt>
<pdfrwt beam="1">  1        2 0.17155383E-01 0.13496358E+03</pdfrwt>
<pdfrwt beam="2">  1       -2 0.20911930E-01 0.13496358E+03</pdfrwt>
<totfact> 0.61343092E+03</totfact>
</mgrwt>
</event>
<event>
 8    1  0.1224355E-005  0.1301757E+03  0.7546771E-02  0.1240644E+00
         -1   -1    0    0    0  501 -0.00000000000E+00  0.00000000000E+00  0.14284447631E+02  0.14284447631E+02  0.00000000000E+00 0.  1.
          1   -1    0    0  501    0  0.00000000000E+00 -0.00000000000E+00 -0.12556423896E+04  0.12556423896E+04  0.00000000000E+00 0. -1.
         23    2    1    2    0    0  0.35950759147E+02 -0.50996282985E+01 -0.23127612087E+03  0.25149127256E+03  0.91873569636E+02 0.  0.
         23    2    1    2    0    0 -0.35950759147E+02  0.50996282985E+01 -0.10100818211E+04  0.10184355647E+04  0.12500900278E+03 0.  0.
          5    1    4    4  502    0 -0.42911291597E+02 -0.54343903151E+02 -0.48713593662E+03  0.49205502690E+03  0.47000000000E+01 0.  1.
         -5    1    4    4    0  502  0.69605324501E+01  0.59443531449E+02 -0.52294588451E+03  0.52638053779E+03  0.47000000000E+01 0.  1.
        -11    1    3    3    0    0  0.62128659050E+02 -0.12293461015E+02 -0.20139737673E+03  0.21112082516E+03  0.00000000000E+00 0. -1.
         11    1    3    3    0    0 -0.26177899903E+02  0.71938327169E+01 -0.29878744131E+02  0.40370447401E+02  0.00000000000E+00 0.  1.
<mgrwt>
<rscale>  0 0.12149945E+03</rscale>
<asrwt>0</asrwt>
<pdfrwt beam="2">  1        1 0.19317582E+00 0.13017570E+03</pdfrwt>
<pdfrwt beam="1">  1       -1 0.21976066E-02 0.13017570E+03</pdfrwt>
<totfact> 0.60977488E+03</totfact>
</mgrwt>
</event>
<event>
 8    1  0.1224355E-005  0.1473149E+03  0.7546771E-02  0.1211571E+00
          2   -1    0    0  501    0  0.00000000000E+00  0.00000000000E+00  0.37387200198E+03  0.37387200198E+03  0.00000000000E+00 0. -1.
         -2   -1    0    0    0  501 -0.00000000000E+00 -0.00000000000E+00 -0.50659729608E+02  0.50659729608E+02  0.00000000000E+00 0.  1.
         23    2    1    2    0    0  0.75462650741E+02 -0.19604163703E+02  0.11637902712E+03  0.17059932642E+03  0.97371029200E+02 0.  0.
         23    2    1    2    0    0 -0.75462650741E+02  0.19604163703E+02  0.20683324525E+03  0.25393240517E+03  0.12499096034E+03 0.  0.
          5    1    4    4  502    0 -0.26115125606E+01 -0.26416900313E+02 -0.29239376566E+01  0.27116637539E+02  0.47000000000E+01 0. -1.
         -5    1    4    4    0  502 -0.72851138180E+02  0.46021064017E+02  0.20975718290E+03  0.22681576763E+03  0.47000000000E+01 0. -1.
        -11    1    3    3    0    0  0.55881137386E+02 -0.81873383848E+01  0.13166030614E+03  0.14326259190E+03  0.00000000000E+00 0. -1.
         11    1    3    3    0    0  0.19581513355E+02 -0.11416825318E+02 -0.15281279014E+02  0.27336734515E+02  0.00000000000E+00 0.  1.
<mgrwt>
<rscale>  0 0.14131438E+03</rscale>
<asrwt>0</asrwt>
<pdfrwt beam="1">  1        2 0.57518768E-01 0.14731488E+03</pdfrwt>
<pdfrwt beam="2">  1       -2 0.77938048E-02 0.14731488E+03</pdfrwt>
<totfact> 0.81088024E+03</totfact>
</mgrwt>
</event>
<event>
 8    1  0.1224355E-005  0.1268448E+03  0.7546771E-02  0.1246731E+00
          1   -1    0    0  501    0  0.00000000000E+00  0.00000000000E+00  0.88579518845E+03  0.88579518845E+03  0.00000000000E+00 0. -1.
         -1   -1    0    0    0  501 -0.00000000000E+00 -0.00000000000E+00 -0.18474676340E+02  0.18474676340E+02  0.00000000000E+00 0.  1.
         23    2    1    2    0    0 -0.16719330770E+02 -0.13699542434E+02  0.16099476912E+03  0.18664485240E+03  0.91922640083E+02 0.  0.
         23    2    1    2    0    0  0.16719330770E+02  0.13699542434E+02  0.70632574299E+03  0.71762501239E+03  0.12498955841E+03 0.  0.
          5    1    4    4  502    0  0.64092369655E+02 -0.73624161058E+01  0.24588840089E+03  0.25425426783E+03  0.47000000000E+01 0.  1.
         -5    1    4    4    0  502 -0.47373038885E+02  0.21061958540E+02  0.46043734210E+03  0.46337074456E+03  0.47000000000E+01 0.  1.
        -11    1    3    3    0    0  0.40132131351E+01  0.24244280618E+02  0.54087252794E+01  0.25162379289E+02  0.00000000000E+00 0.  1.
         11    1    3    3    0    0 -0.20732543905E+02 -0.37943823052E+02  0.15558604384E+03  0.16148247312E+03  0.00000000000E+00 0. -1.
<mgrwt>
<rscale>  0 0.11782346E+03</rscale>
<asrwt>0</asrwt>
<pdfrwt beam="1">  1        1 0.13627615E+00 0.12684480E+03</pdfrwt>
<pdfrwt beam="2">  1       -1 0.28422586E-02 0.12684480E+03</pdfrwt>
<totfact> 0.77120361E+03</totfact>
</mgrwt>
</event>
<event>
 8    1  0.1224355E-005  0.1281885E+03  0.7546771E-02  0.1243910E+00
         -2   -1    0    0    0  501 -0.00000000000E+00  0.00000000000E+00  0.27507389105E+03  0.27507389105E+03  0.00000000000E+00 0.  1.
          2   -1    0    0  501    0  0.00000000000E+00 -0.00000000000E+00 -0.53970082753E+02  0.53970082753E+02  0.00000000000E+00 0. -1.
         23    2    1    2    0    0 -0.10671802239E+02  0.26390081672E+02  0.16003332171E+03  0.18705141537E+03  0.92559408818E+02 0.  0.
         23    2    1    2    0    0  0.10671802239E+02 -0.26390081672E+02  0.61070486587E+02  0.14199255843E+03  0.12498783359E+03 0.  0.
          5    1    4    4  502    0 -0.31383876355E+02 -0.20038465566E+02  0.85033932456E+02  0.92948090170E+02  0.47000000000E+01 0.  1.
         -5    1    4    4    0  502  0.42055678594E+02 -0.63516161068E+01 -0.23963445870E+02  0.49044468262E+02  0.47000000000E+01 0.  1.
        -11    1    3    3    0    0  0.24694418321E+02 -0.60477074594E+01  0.65694948663E+01  0.26259233129E+02  0.00000000000E+00 0. -1.
         11    1    3    3    0    0 -0.35366220560E+02  0.32437789132E+02  0.15346382684E+03  0.16079218224E+03  0.00000000000E+00 0.  1.
<mgrwt>
<rscale>  0 0.11950828E+03</rscale>
<asrwt>0</asrwt>
<pdfrwt beam="2">  1        2 0.83030898E-02 0.12818846E+03</pdfrwt>
<pdfrwt beam="1">  1       -2 0.42319059E-01 0.12818846E+03</pdfrwt>
<totfact> 0.41137151E+03</totfact>
</mgrwt>
</event>
<event>
 8    1  0.1224355E-005  0.1301798E+03  0.7546771E-02  0.1241053E+00
         -2   -1    0    0    0  501 -0.00000000000E+00  0.00000000000E+00  0.71334487951E+02  0.71334487951E+02  0.00000000000E+00 0.  1.
          2   -1    0    0  501    0  0.00000000000E+00 -0.00000000000E+00 -0.24216548734E+03  0.24216548734E+03  0.00000000000E+00 0. -1.
         23    2    1    2    0    0  0.35851389702E+02  0.59619288491E+01  0.94750465635E+00  0.97966581053E+02  0.90970800255E+02 0.  0.
         23    2    1    2    0    0 -0.35851389702E+02 -0.59619288491E+01 -0.17177850404E+03  0.21553339424E+03  0.12500369131E+03 0.  0.
          5    1    4    4  502    0  0.10764675775E+01  0.47552029682E+02 -0.22879400582E+02  0.52989728064E+02  0.47000000000E+01 0. -1.
         -5    1    4    4    0  502 -0.36927857280E+02 -0.53513958531E+02 -0.14889910346E+03  0.16254366617E+03  0.47000000000E+01 0. -1.
        -11    1    3    3    0    0  0.20433128098E+01  0.45405399566E+02 -0.47803348328E+01  0.45702046323E+02  0.00000000000E+00 0.  1.
         11    1    3    3    0    0  0.33808076893E+02 -0.39443470717E+02  0.57278394892E+01  0.52264534730E+02  0.00000000000E+00 0. -1.
<mgrwt>
<rscale>  0 0.12124733E+03</rscale>
<asrwt>0</asrwt>
<pdfrwt beam="2">  1        2 0.37256229E-01 0.13017984E+03</pdfrwt>
<pdfrwt beam="1">  1       -2 0.10974537E-01 0.13017984E+03</pdfrwt>
<totfact> 0.74728389E+03</totfact>
</mgrwt>
</event>
<event>
 8    1  0.1224355E-005  0.1589622E+03  0.7546771E-02  0.1196956E+00
          2   -1    0    0  501    0  0.00000000000E+00  0.00000000000E+00  0.65395566904E+03  0.65395566904E+03  0.00000000000E+00 0. -1.
         -2   -1    0    0    0  501 -0.00000000000E+00 -0.00000000000E+00 -0.38420798627E+02  0.38420798627E+02  0.00000000000E+00 0.  1.
         23    2    1    2    0    0  0.80861936497E+02 -0.55737628096E+02  0.16070187317E+03  0.21056525443E+03  0.94166333552E+02 0.  0.
         23    2    1    2    0    0 -0.80861936497E+02  0.55737628096E+02  0.45483299725E+03  0.48181121324E+03  0.12499461531E+03 0.  0.
          5    1    4    4  502    0 -0.22380132802E+02  0.86656001559E+02  0.21388478139E+03  0.23190283022E+03  0.47000000000E+01 0.  1.
         -5    1    4    4    0  502 -0.58481803695E+02 -0.30918373462E+02  0.24094821585E+03  0.24990838302E+03  0.47000000000E+01 0.  1.
        -11    1    3    3    0    0  0.84179530871E+02 -0.11822408502E+02  0.13511690809E+03  0.15963252053E+03  0.00000000000E+00 0. -1.
         11    1    3    3    0    0 -0.33175943739E+01 -0.43915219595E+02  0.25584965085E+02  0.50932733903E+02  0.00000000000E+00 0.  1.
<mgrwt>
<rscale>  0 0.15289877E+03</rscale>
<asrwt>0</asrwt>
<pdfrwt beam="1">  1        2 0.10060856E+00 0.15896223E+03</pdfrwt>
<pdfrwt beam="2">  1       -2 0.59108926E-02 0.15896223E+03</pdfrwt>
<totfact> 0.67017014E+03</totfact>
</mgrwt>
</event>
<event>
 8    1  0.1224355E-005  0.1218407E+03  0.7546771E-02  0.1247940E+00
         -1   -1    0    0    0  501 -0.00000000000E+00  0.00000000000E+00  0.17720086609E+02  0.17720086609E+02  0.00000000000E+00 0.  1.
          1   -1    0    0  501    0  0.00000000000E+00 -0.00000000000E+00 -0.88908611385E+03  0.88908611385E+03  0.00000000000E+00 0. -1.
         23    2    1    2    0    0 -0.42519340992E+02 -0.21023372261E+02 -0.21033218481E+03  0.23463739440E+03  0.92548378409E+02 0.  0.
         23    2    1    2    0    0  0.42519340992E+02  0.21023372261E+02 -0.66103384244E+03  0.67216880606E+03  0.11222872384E+03 0.  0.
          5    1    4    4  502    0  0.24873470933E+02  0.13961874667E+02 -0.64800857457E+03  0.64865308618E+03  0.47000000000E+01 0. -1.
         -5    1    4    4    0  502  0.17645870059E+02  0.70614975943E+01 -0.13025267872E+02  0.23515719882E+02  0.47000000000E+01 0.  1.
        -11    1    3    3    0    0 -0.36193555985E+02 -0.49204936091E+02 -0.77378399267E+02  0.98582533461E+02  0.00000000000E+00 0.  1.
         11    1    3    3    0    0 -0.63257850068E+01  0.28181563830E+02 -0.13295378554E+03  0.13605486094E+03  0.00000000000E+00 0. -1.
<mgrwt>
<rscale>  0 0.11711110E+03</rscale>
<asrwt>0</asrwt>
<pdfrwt beam="2">  1        1 0.13678251E+00 0.12184073E+03</pdfrwt>
<pdfrwt beam="1">  1       -1 0.27261666E-02 0.12184073E+03</pdfrwt>
<totfact> 0.81264843E+03</totfact>
</mgrwt>
</event>
<event>
 8    1  0.1224355E-005  0.1349871E+03  0.7546771E-02  0.1231872E+00
         -1   -1    0    0    0  501 -0.00000000000E+00  0.00000000000E+00  0.16793893177E+03  0.16793893177E+03  0.00000000000E+00 0.  1.
          1   -1    0    0  501    0  0.00000000000E+00 -0.00000000000E+00 -0.96785290206E+02  0.96785290206E+02  0.00000000000E+00 0. -1.
         23    2    1    2    0    0 -0.37833918659E+02 -0.34135306800E+02  0.74734328782E+02  0.12968961210E+03  0.92938425943E+02 0.  0.
         23    2    1    2    0    0  0.37833918659E+02  0.34135306800E+02 -0.35806872199E+01  0.13503460987E+03  0.12499959988E+03 0.  0.
          5    1    4    4  502    0  0.52407688525E+02 -0.20092445299E+02 -0.38973473325E+02  0.68493020066E+02  0.47000000000E+01 0.  1.
         -5    1    4    4    0  502 -0.14573769866E+02  0.54227752099E+02  0.35392786105E+02  0.66541589808E+02  0.47000000000E+01 0.  1.
        -11    1    3    3    0    0  0.22540353178E+02 -0.36862015531E+02  0.18034441895E+02  0.46820047040E+02  0.00000000000E+00 0. -1.
         11    1    3    3    0    0 -0.60374271837E+02  0.27267087305E+01  0.56699886887E+02  0.82869565061E+02  0.00000000000E+00 0.  1.
<mgrwt>
<rscale>  0 0.12706821E+03</rscale>
<asrwt>0</asrwt>
<pdfrwt beam="2">  1        1 0.14890045E-01 0.13498713E+03</pdfrwt>
<pdfrwt beam="1">  1       -1 0.25836759E-01 0.13498713E+03</pdfrwt>
<totfact> 0.47343554E+03</totfact>
</mgrwt>
</event>
<event>
 8    1  0.1224355E-005  0.1320112E+03  0.7546771E-02  0.1236704E+00
         -1   -1    0    0    0  501 -0.00000000000E+00  0.00000000000E+00  0.47128528241E+02  0.47128528241E+02  0.00000000000E+00 0.  1.
          1   -1    0    0  501    0  0.00000000000E+00 -0.00000000000E+00 -0.35935975690E+03  0.35935975690E+03  0.00000000000E+00 0. -1.
         23    2    1    2    0    0  0.42012286940E+00 -0.42471246797E+02 -0.52838469850E+02  0.11543577331E+03  0.93431956819E+02 0.  0.
         23    2    1    2    0    0 -0.42012286940E+00  0.42471246797E+02 -0.25939275881E+03  0.29105251184E+03  0.12499191180E+03 0.  0.
          5    1    4    4  502    0  0.23531482063E+02  0.82051557160E+02 -0.17050005906E+03  0.19073161463E+03  0.47000000000E+01 0. -1.
         -5    1    4    4    0  502 -0.23951604932E+02 -0.39580310363E+02 -0.88892699748E+02  0.10032089720E+03  0.47000000000E+01 0. -1.
        -11    1    3    3    0    0 -0.19297483723E+02  0.16501594932E+02  0.97601924262E+01  0.27202148253E+02  0.00000000000E+00 0.  1.
         11    1    3    3    0    0  0.19717606593E+02 -0.58972841729E+02 -0.62598662276E+02  0.88233625054E+02  0.00000000000E+00 0. -1.
<mgrwt>
<rscale>  0 0.12395949E+03</rscale>
<asrwt>0</asrwt>
<pdfrwt beam="2">  1        1 0.55286114E-01 0.13201122E+03</pdfrwt>
<pdfrwt beam="1">  1       -1 0.72505431E-02 0.13201122E+03</pdfrwt>
<totfact> 0.66418263E+03</totfact>
</mgrwt>
</event>
<event>
 7    1  0.1224355E-005  0.1493935E+03  0.7546771E-02  0.1221676E+00
         -2   -1    0    0    0  501 -0.00000000000E+00  0.00000000000E+00  0.47514820366E+03  0.47514820366E+03  0.00000000000E+00 0.  1.
          2   -1    0    0  501    0  0.00000000000E+00 -0.00000000000E+00 -0.41531586512E+02  0.41531586512E+02  0.00000000000E+00 0. -1.
         23    2    1    2    0    0  0.10837440700E+02  0.26343722313E+02  0.30369244532E+03  0.31869318795E+03  0.92329869887E+02 0.  0.
          5    1    1    2  502    0  0.45564371774E+02  0.36695957020E+02  0.26788891839E+02  0.64516974222E+02  0.47000000000E+01 0. -1.
         -5    1    1    2    0  502 -0.56401812474E+02 -0.63039679333E+02  0.10313527999E+03  0.13346962800E+03  0.47000000000E+01 0.  1.
        -11    1    3    3    0    0 -0.19703803191E+02  0.40601637360E+02  0.25798206919E+03  0.26189975341E+03  0.00000000000E+00 0.  1.
         11    1    3    3    0    0  0.30541243891E+02 -0.14257915047E+02  0.45710376137E+02  0.56793434537E+02  0.00000000000E+00 0. -1.
<mgrwt>
<rscale>  0 0.13397391E+03</rscale>
<asrwt>0</asrwt>
<pdfrwt beam="2">  1        2 0.63894752E-02 0.14939345E+03</pdfrwt>
<pdfrwt beam="1">  1       -2 0.73099720E-01 0.14939345E+03</pdfrwt>
<totfact> 0.19139052E+03</totfact>
</mgrwt>
</event>
<event>
 8    1  0.1224355E-005  0.1367048E+03  0.7546771E-02  0.1230157E+00
          1   -1    0    0  501    0  0.00000000000E+00  0.00000000000E+00  0.28941003272E+03  0.28941003272E+03  0.00000000000E+00 0. -1.
         -1   -1    0    0    0  501 -0.00000000000E+00 -0.00000000000E+00 -0.51425604776E+02  0.51425604776E+02  0.00000000000E+00 0.  1.
         23    2    1    2    0    0  0.11403723767E+02 -0.54154554769E+02  0.84842283037E+02  0.13555357612E+03  0.90076624547E+02 0.  0.
         23    2    1    2    0    0 -0.11403723767E+02  0.54154554769E+02  0.15314214490E+03  0.20528206137E+03  0.12500178982E+03 0.  0.
          5    1    4    4  502    0 -0.26143774097E+02  0.88487384298E+02  0.13473060412E+03  0.16336443857E+03  0.47000000000E+01 0. -1.
         -5    1    4    4    0  502  0.14740050329E+02 -0.34332829529E+02  0.18411540786E+02  0.41917622801E+02  0.47000000000E+01 0. -1.
        -11    1    3    3    0    0  0.28664988138E+02 -0.15604054326E+01  0.73693685581E+02  0.79087772155E+02  0.00000000000E+00 0. -1.
         11    1    3    3    0    0 -0.17261264370E+02 -0.52594149336E+02  0.11148597457E+02  0.56465803964E+02  0.00000000000E+00 0.  1.
<mgrwt>
<rscale>  0 0.12819656E+03</rscale>
<asrwt>0</asrwt>
<pdfrwt beam="1">  1        1 0.44524620E-01 0.13670482E+03</pdfrwt>
<pdfrwt beam="2">  1       -1 0.79116316E-02 0.13670482E+03</pdfrwt>
<totfact> 0.76383645E+03</totfact>
</mgrwt>
</event>
<event>
 8    1  0.1529716E-005  0.1725437E+03  0.7546771E-02  0.1182236E+00
         -1   -1    0    0    0  501 -0.00000000000E+00  0.00000000000E+00  0.23782311221E+03  0.23782311221E+03  0.00000000000E+00 0.  1.
          1   -1    0    0  501    0  0.00000000000E+00 -0.00000000000E+00 -0.10755970404E+03  0.10755970404E+03  0.00000000000E+00 0. -1.
         23    2    1    2    0    0 -0.53915795292E+02  0.10601828089E+03  0.61479756161E+02  0.15963427547E+03  0.86928433919E+02 0.  0.
         23    2    1    2    0    0  0.53915795292E+02 -0.10601828089E+03  0.68783652017E+02  0.18574854078E+03  0.12499816299E+03 0.  0.
          5    1    4    4  502    0  0.18381011044E+02 -0.38214979454E+02  0.95448755940E+02  0.10455047218E+03  0.47000000000E+01 0. -1.
         -5    1    4    4    0  502  0.35534784248E+02 -0.67803301437E+02 -0.26665103923E+02  0.81198068600E+02  0.47000000000E+01 0. -1.
        -11    1    3    3    0    0  0.17051470295E+02  0.22665568190E+02 -0.86171648624E+01  0.29643484122E+02  0.00000000000E+00 0. -1.
         11    1    3    3    0    0 -0.70967265587E+02  0.83352712701E+02  0.70096921023E+02  0.12999079135E+03  0.00000000000E+00 0.  1.
<mgrwt>
<rscale>  0 0.16585943E+03</rscale>
<asrwt>0</asrwt>
<pdfrwt beam="2">  1        1 0.16547647E-01 0.17254370E+03</pdfrwt>
<pdfrwt beam="1">  1       -1 0.36588171E-01 0.17254370E+03</pdfrwt>
<totfact> 0.23213854E+03</totfact>
</mgrwt>
</event>
<event>
 8    1  0.1224355E-005  0.1474073E+03  0.7546771E-02  0.1213569E+00
          2   -1    0    0  501    0  0.00000000000E+00  0.00000000000E+00  0.20412837924E+03  0.20412837924E+03  0.00000000000E+00 0. -1.
         -2   -1    0    0    0  501 -0.00000000000E+00 -0.00000000000E+00 -0.10063580511E+03  0.10063580511E+03  0.00000000000E+00 0.  1.
         23    2    1    2    0    0  0.45892558990E+02 -0.63256684619E+02 -0.85137411574E+01  0.11963087953E+03  0.90174987825E+02 0.  0.
         23    2    1    2    0    0 -0.45892558990E+02  0.63256684619E+02  0.11200631529E+03  0.18513330482E+03  0.12498556225E+03 0.  0.
          5    1    4    4  502    0 -0.23805382231E+02  0.21790914640E+02 -0.24436070914E+02  0.40752321967E+02  0.47000000000E+01 0.  1.
         -5    1    4    4    0  502 -0.22087176758E+02  0.41465769979E+02  0.13644238621E+03  0.14438098286E+03  0.47000000000E+01 0.  1.
        -11    1    3    3    0    0  0.26770875545E+02 -0.10467206233E+02  0.37352343360E+02  0.47132151852E+02  0.00000000000E+00 0. -1.
         11    1    3    3    0    0  0.19121683445E+02 -0.52789478386E+02 -0.45866084517E+02  0.72498727678E+02  0.00000000000E+00 0.  1.
<mgrwt>
<rscale>  0 0.13982168E+03</rscale>
<asrwt>0</asrwt>
<pdfrwt beam="1">  1        2 0.31404366E-01 0.14740735E+03</pdfrwt>
<pdfrwt beam="2">  1       -2 0.15482432E-01 0.14740735E+03</pdfrwt>
<totfact> 0.51979807E+03</totfact>
</mgrwt>
</event>
<event>
 8    1  0.1224355E-005  0.1500712E+03  0.7546771E-02  0.1209640E+00
          2   -1    0    0  501    0  0.00000000000E+00  0.00000000000E+00  0.16511939327E+04  0.16511939327E+04  0.00000000000E+00 0. -1.
         -2   -1    0    0    0  501 -0.00000000000E+00 -0.00000000000E+00 -0.11861642393E+02  0.11861642393E+02  0.00000000000E+00 0.  1.
         23    2    1    2    0    0 -0.52900343112E+02 -0.64023508086E+02  0.55991657608E+03  0.57325759448E+03  0.90665547919E+02 0.  0.
         23    2    1    2    0    0  0.52900343112E+02  0.64023508086E+02  0.10794157142E+04  0.10897979806E+04  0.12499559401E+03 0.  0.
          5    1    4    4  502    0 -0.38320458760E+02  0.38792251338E+02  0.44235857616E+03  0.44573141715E+03  0.47000000000E+01 0.  1.
         -5    1    4    4    0  502  0.91220801872E+02  0.25231256748E+02  0.63705713808E+03  0.64406656348E+03  0.47000000000E+01 0.  1.
        -11    1    3    3    0    0  0.57592615990E+00 -0.69040783161E+02  0.29860786608E+03  0.30648591993E+03  0.00000000000E+00 0.  1.
         11    1    3    3    0    0 -0.53476269272E+02  0.50172750753E+01  0.26130871000E+03  0.26677167456E+03  0.00000000000E+00 0. -1.
<mgrwt>
<rscale>  0 0.14277713E+03</rscale>
<asrwt>0</asrwt>
<pdfrwt beam="1">  1        2 0.25402965E+00 0.15007116E+03</pdfrwt>
<pdfrwt beam="2">  1       -2 0.18248694E-02 0.15007116E+03</pdfrwt>
<totfact> 0.98446885E+03</totfact>
</mgrwt>
</event>
<event>
 8    1  0.1224355E-005  0.1394078E+03  0.7546771E-02  0.1225688E+00
         -1   -1    0    0    0  501 -0.00000000000E+00  0.00000000000E+00  0.47293480706E+02  0.47293480706E+02  0.00000000000E+00 0.  1.
          1   -1    0    0  501    0  0.00000000000E+00 -0.00000000000E+00 -0.33853398826E+03  0.33853398826E+03  0.00000000000E+00 0. -1.
         23    2    1    2    0    0 -0.19379026478E+02 -0.58604517541E+02 -0.93470298218E+02  0.14386136949E+03  0.90273810373E+02 0.  0.
         23    2    1    2    0    0  0.19379026478E+02  0.58604517541E+02 -0.19777020933E+03  0.24196609947E+03  0.12499800579E+03 0.  0.
          5    1    4    4  502    0  0.25547477903E+02 -0.86057450507E+01  0.53428802601E+01  0.27881335057E+02  0.47000000000E+01 0. -1.
         -5    1    4    4    0  502 -0.61684514252E+01  0.67210262592E+02 -0.20311308959E+03  0.21408476441E+03  0.47000000000E+01 0. -1.
        -11    1    3    3    0    0 -0.14251648265E+02 -0.74953940824E+02 -0.36896964771E+02  0.84750154764E+02  0.00000000000E+00 0.  1.
         11    1    3    3    0    0 -0.51273782132E+01  0.16349423283E+02 -0.56573333447E+02  0.59111214726E+02  0.00000000000E+00 0. -1.
<mgrwt>
<rscale>  0 0.13119854E+03</rscale>
<asrwt>0</asrwt>
<pdfrwt beam="2">  1        1 0.52082150E-01 0.13940781E+03</pdfrwt>
<pdfrwt beam="1">  1       -1 0.72759203E-02 0.13940781E+03</pdfrwt>
<totfact> 0.71423954E+03</totfact>
</mgrwt>
</event>
<event>
 8    1  0.1224355E-005  0.1275152E+03  0.7546771E-02  0.1245585E+00
         -1   -1    0    0    0  501 -0.00000000000E+00  0.00000000000E+00  0.22118957080E+02  0.22118957080E+02  0.00000000000E+00 0.  1.
          1   -1    0    0  501    0  0.00000000000E+00 -0.00000000000E+00 -0.57717990020E+03  0.57717990020E+03  0.00000000000E+00 0. -1.
         23    2    1    2    0    0  0.60752706342E+01  0.24347299571E+02 -0.18746410623E+03  0.21021330763E+03  0.91744992616E+02 0.  0.
         23    2    1    2    0    0 -0.60752706342E+01 -0.24347299571E+02 -0.36759683689E+03  0.38908554965E+03  0.12502172029E+03 0.  0.
          5    1    4    4  502    0 -0.41404502044E+02 -0.21551342551E+02 -0.34178875110E+03  0.34499338186E+03  0.47000000000E+01 0. -1.
         -5    1    4    4    0  502  0.35329231410E+02 -0.27959570200E+01 -0.25808085797E+02  0.44092167787E+02  0.47000000000E+01 0. -1.
        -11    1    3    3    0    0  0.41065100385E+02  0.39231858854E+02 -0.12031235362E+03  0.13304339012E+03  0.00000000000E+00 0.  1.
         11    1    3    3    0    0 -0.34989829751E+02 -0.14884559283E+02 -0.67151752605E+02  0.77169917513E+02  0.00000000000E+00 0. -1.
<mgrwt>
<rscale>  0 0.11850417E+03</rscale>
<asrwt>0</asrwt>
<pdfrwt beam="2">  1        1 0.88796909E-01 0.12751522E+03</pdfrwt>
<pdfrwt beam="1">  1       -1 0.34029164E-02 0.12751522E+03</pdfrwt>
<totfact> 0.11020822E+04</totfact>
</mgrwt>
</event>
<event>
 8    1  0.1224355E-005  0.1306344E+03  0.7546771E-02  0.1233746E+00
          1   -1    0    0  501    0  0.00000000000E+00  0.00000000000E+00  0.12577347745E+04  0.12577347745E+04  0.00000000000E+00 0. -1.
         -1   -1    0    0    0  501 -0.00000000000E+00 -0.00000000000E+00 -0.21887438039E+02  0.21887438039E+02  0.00000000000E+00 0.  1.
         23    2    1    2    0    0 -0.15595554383E+02  0.34461753738E+02  0.15848585205E+03  0.19436965809E+03  0.10597624686E+03 0.  0.
         23    2    1    2    0    0  0.15595554383E+02 -0.34461753738E+02  0.10773614844E+04  0.10852525544E+04  0.12503801445E+03 0.  0.
          5    1    4    4  502    0 -0.24681483226E+02  0.36034645383E+02  0.24316874991E+03  0.24710484054E+03  0.47000000000E+01 0.  1.
         -5    1    4    4    0  502  0.40277037609E+02 -0.70496399121E+02  0.83419273449E+03  0.83814771390E+03  0.47000000000E+01 0.  1.
        -11    1    3    3    0    0  0.46581982336E+01  0.60118765463E+02  0.42256727907E+02  0.73631486641E+02  0.00000000000E+00 0.  1.
         11    1    3    3    0    0 -0.20253752617E+02 -0.25657011725E+02  0.11622912414E+03  0.12073817145E+03  0.00000000000E+00 0. -1.
<mgrwt>
<rscale>  0 0.12585052E+03</rscale>
<asrwt>0</asrwt>
<pdfrwt beam="1">  1        1 0.19349760E+00 0.13063437E+03</pdfrwt>
<pdfrwt beam="2">  1       -1 0.33672991E-02 0.13063437E+03</pdfrwt>
<totfact> 0.32723689E+03</totfact>
</mgrwt>
</event>
<event>
 8    1  0.1224355E-005  0.1417110E+03  0.7546771E-02  0.1227281E+00
         -2   -1    0    0    0  501 -0.00000000000E+00  0.00000000000E+00  0.45992909714E+02  0.45992909714E+02  0.00000000000E+00 0. -1.
          2   -1    0    0  501    0  0.00000000000E+00 -0.00000000000E+00 -0.32664187878E+03  0.32664187878E+03  0.00000000000E+00 0.  1.
         23    2    1    2    0    0 -0.20610061342E+02  0.63501970559E+02 -0.89925178597E+02  0.13502675422E+03  0.75421560017E+02 0.  0.
         23    2    1    2    0    0  0.20610061342E+02 -0.63501970559E+02 -0.19072379047E+03  0.23760803428E+03  0.12499895523E+03 0.  0.
          5    1    4    4  502    0 -0.43905127939E+01 -0.93045700944E+02 -0.16886961357E+03  0.19291401051E+03  0.47000000000E+01 0.  1.
         -5    1    4    4    0  502  0.25000574136E+02  0.29543730385E+02 -0.21854176907E+02  0.44694023767E+02  0.47000000000E+01 0.  1.
        -11    1    3    3    0    0 -0.30896706402E+02  0.24701850517E+02 -0.34722137086E+01  0.39709497019E+02  0.00000000000E+00 0. -1.
         11    1    3    3    0    0  0.10286645060E+02  0.38800120042E+02 -0.86452964889E+02  0.95317257199E+02  0.00000000000E+00 0.  1.
<mgrwt>
<rscale>  0 0.13011816E+03</rscale>
<asrwt>0</asrwt>
<pdfrwt beam="2">  1        2 0.50252595E-01 0.14171102E+03</pdfrwt>
<pdfrwt beam="1">  1       -2 0.70758325E-02 0.14171102E+03</pdfrwt>
<totfact> 0.10834842E+04</totfact>
</mgrwt>
</event>
<event>
 8    1  0.1224355E-005  0.1265535E+03  0.7546771E-02  0.1246729E+00
         -2   -1    0    0    0  501 -0.00000000000E+00  0.00000000000E+00  0.32013246087E+02  0.32013246087E+02  0.00000000000E+00 0.  1.
          2   -1    0    0  501    0  0.00000000000E+00 -0.00000000000E+00 -0.38486588453E+03  0.38486588453E+03  0.00000000000E+00 0. -1.
         23    2    1    2    0    0 -0.19023286115E+02  0.53721358713E+01 -0.16315979444E+03  0.18884588179E+03  0.93010232161E+02 0.  0.
         23    2    1    2    0    0  0.19023286115E+02 -0.53721358713E+01 -0.18969284400E+03  0.22803324883E+03  0.12500016900E+03 0.  0.
          5    1    4    4  502    0  0.62318306740E+02 -0.30653682632E+02 -0.72635311936E+02  0.10060416569E+03  0.47000000000E+01 0. -1.
         -5    1    4    4    0  502 -0.43295020625E+02  0.25281546761E+02 -0.11705753207E+03  0.12742908314E+03  0.47000000000E+01 0. -1.
        -11    1    3    3    0    0 -0.23466494308E+02 -0.25866390143E+02 -0.15107259632E+03  0.15505700839E+03  0.00000000000E+00 0. -1.
         11    1    3    3    0    0  0.44432081927E+01  0.31238526014E+02 -0.12087198125E+02  0.33788873392E+02  0.00000000000E+00 0.  1.
<mgrwt>
<rscale>  0 0.11782476E+03</rscale>
<asrwt>0</asrwt>
<pdfrwt beam="2">  1        2 0.59210130E-01 0.12655350E+03</pdfrwt>
<pdfrwt beam="1">  1       -2 0.49251153E-02 0.12655350E+03</pdfrwt>
<totfact> 0.15615916E+04</totfact>
</mgrwt>
</event>
<event>
 8    1  0.1224355E-005  0.1817142E+03  0.7546771E-02  0.1172179E+00
         -1   -1    0    0    0  501 -0.00000000000E+00  0.00000000000E+00  0.84255387855E+02  0.84255387855E+02  0.00000000000E+00 0.  1.
          1   -1    0    0  501    0  0.00000000000E+00 -0.00000000000E+00 -0.34468375226E+03  0.34468375226E+03  0.00000000000E+00 0. -1.
         23    2    1    2    0    0 -0.10823680094E+03  0.75368497034E+02 -0.10638018094E+03  0.19071466305E+03  0.87519851357E+02 0.  0.
         23    2    1    2    0    0  0.10823680094E+03 -0.75368497034E+02 -0.15404818347E+03  0.23822447707E+03  0.12499777287E+03 0.  0.
          5    1    4    4  502    0  0.88353872551E+02 -0.73010753934E+02 -0.17475378231E+03  0.20904054969E+03  0.47000000000E+01 0. -1.
         -5    1    4    4    0  502  0.19882928389E+02 -0.23577430994E+01  0.20705598840E+02  0.29183927377E+02  0.47000000000E+01 0. -1.
        -11    1    3    3    0    0 -0.48842609774E+02  0.62105980794E+01 -0.83159349282E+02  0.96641861691E+02  0.00000000000E+00 0. -1.
         11    1    3    3    0    0 -0.59394191166E+02  0.69157898954E+02 -0.23220831656E+02  0.94072801355E+02  0.00000000000E+00 0.  1.
<mgrwt>
<rscale>  0 0.17555137E+03</rscale>
<asrwt>0</asrwt>
<pdfrwt beam="2">  1        1 0.53028269E-01 0.18171422E+03</pdfrwt>
<pdfrwt beam="1">  1       -1 0.12962367E-01 0.18171422E+03</pdfrwt>
<totfact> 0.29241541E+03</totfact>
</mgrwt>
</event>
<event>
 8    1  0.1224355E-005  0.1365446E+03  0.7546771E-02  0.1231996E+00
          2   -1    0    0  501    0  0.00000000000E+00  0.00000000000E+00  0.97269329222E+03  0.97269329222E+03  0.00000000000E+00 0. -1.
         -2   -1    0    0    0  501 -0.00000000000E+00 -0.00000000000E+00 -0.17287176312E+02  0.17287176312E+02  0.00000000000E+00 0.  1.
         23    2    1    2    0    0  0.36996549213E+02 -0.40623363386E+02  0.22750380245E+03  0.24938191449E+03  0.86106659680E+02 0.  0.
         23    2    1    2    0    0 -0.36996549213E+02  0.40623363386E+02  0.72790231346E+03  0.74059855404E+03  0.12500175198E+03 0.  0.
          5    1    4    4  502    0  0.32066022103E+02 -0.45486498781E+01  0.67193093348E+02  0.74739024498E+02  0.47000000000E+01 0.  1.
         -5    1    4    4    0  502 -0.69062571316E+02  0.45172013264E+02  0.66070922011E+03  0.66585952954E+03  0.47000000000E+01 0.  1.
        -11    1    3    3    0    0  0.29076240481E+02 -0.62146423708E+02  0.10987407904E+03  0.12953732661E+03  0.00000000000E+00 0. -1.
         11    1    3    3    0    0  0.79203087324E+01  0.21523060322E+02  0.11762972341E+03  0.11984458788E+03  0.00000000000E+00 0.  1.
<mgrwt>
<rscale>  0 0.12698693E+03</rscale>
<asrwt>0</asrwt>
<pdfrwt beam="1">  1        2 0.14964508E+00 0.13654465E+03</pdfrwt>
<pdfrwt beam="2">  1       -2 0.26595664E-02 0.13654465E+03</pdfrwt>
<totfact> 0.13280429E+04</totfact>
</mgrwt>
</event>
<event>
 8    1  0.1224355E-005  0.1395008E+03  0.7546771E-02  0.1225172E+00
         -1   -1    0    0    0  501 -0.00000000000E+00  0.00000000000E+00  0.30397463887E+02  0.30397463887E+02  0.00000000000E+00 0.  1.
          1   -1    0    0  501    0  0.00000000000E+00 -0.00000000000E+00 -0.57765709537E+03  0.57765709537E+03  0.00000000000E+00 0. -1.
         23    2    1    2    0    0  0.13088254597E+02 -0.60532779771E+02 -0.14434855252E+03  0.18167702650E+03  0.91293578666E+02 0.  0.
         23    2    1    2    0    0 -0.13088254597E+02  0.60532779771E+02 -0.40291107896E+03  0.42637753276E+03  0.12499977224E+03 0.  0.
          5    1    4    4  502    0  0.21323528611E+02  0.57153590116E+02 -0.37939829040E+03  0.38429985493E+03  0.47000000000E+01 0.  1.
         -5    1    4    4    0  502 -0.34411783208E+02  0.33791896546E+01 -0.23512788557E+02  0.42077677835E+02  0.47000000000E+01 0.  1.
        -11    1    3    3    0    0 -0.33181270328E+02 -0.33125000148E+01 -0.25864429061E+02  0.42201161685E+02  0.00000000000E+00 0.  1.
         11    1    3    3    0    0  0.46269524925E+02 -0.57220279756E+02 -0.11848412346E+03  0.13947586481E+03  0.00000000000E+00 0. -1.
<mgrwt>
<rscale>  0 0.13155093E+03</rscale>
<asrwt>0</asrwt>
<pdfrwt beam="2">  1        1 0.88870311E-01 0.13950076E+03</pdfrwt>
<pdfrwt beam="1">  1       -1 0.46765335E-02 0.13950076E+03</pdfrwt>
<totfact> 0.69443453E+03</totfact>
</mgrwt>
</event>
<event>
 8    1  0.1224355E-005  0.1548188E+03  0.7546771E-02  0.1203009E+00
         -1   -1    0    0    0  501 -0.00000000000E+00  0.00000000000E+00  0.19621919037E+02  0.19621919037E+02  0.00000000000E+00 0.  1.
          1   -1    0    0  501    0  0.00000000000E+00 -0.00000000000E+00 -0.10874435974E+04  0.10874435974E+04  0.00000000000E+00 0. -1.
         23    2    1    2    0    0 -0.74527196647E+02 -0.52804640953E+02 -0.35859970202E+03  0.38114219507E+03  0.91285231155E+02 0.  0.
         23    2    1    2    0    0  0.74527196647E+02  0.52804640953E+02 -0.70922197639E+03  0.72592332141E+03  0.12500489443E+03 0.  0.
          5    1    4    4  502    0  0.55436620218E+02  0.43649717729E+02 -0.69787138351E+03  0.70144499046E+03  0.47000000000E+01 0. -1.
         -5    1    4    4    0  502  0.19090576429E+02  0.91549232233E+01 -0.11350592881E+02  0.24478330956E+02  0.47000000000E+01 0. -1.
        -11    1    3    3    0    0  0.14265502422E+02  0.77261310348E+01 -0.19201007832E+02  0.25137151029E+02  0.00000000000E+00 0.  1.
         11    1    3    3    0    0 -0.88792699069E+02 -0.60530771987E+02 -0.33939869419E+03  0.35600504404E+03  0.00000000000E+00 0. -1.
<mgrwt>
<rscale>  0 0.14795444E+03</rscale>
<asrwt>0</asrwt>
<pdfrwt beam="2">  1        1 0.16729901E+00 0.15481879E+03</pdfrwt>
<pdfrwt beam="1">  1       -1 0.30187569E-02 0.15481879E+03</pdfrwt>
<totfact> 0.50584284E+03</totfact>
</mgrwt>
</event>
<event>
 8    1  0.1224355E-005  0.1301100E+03  0.7546771E-02  0.1241297E+00
          2   -1    0    0  501    0  0.00000000000E+00  0.00000000000E+00  0.11891597767E+04  0.11891597767E+04  0.00000000000E+00 0. -1.
         -2   -1    0    0    0  501 -0.00000000000E+00 -0.00000000000E+00 -0.12085799444E+02  0.12085799444E+02  0.00000000000E+00 0.  1.
         23    2    1    2    0    0 -0.37977705413E+00  0.36398260725E+02  0.32677120286E+03  0.34104594279E+03  0.90597673596E+02 0.  0.
         23    2    1    2    0    0  0.37977705413E+00 -0.36398260725E+02  0.85030277437E+03  0.86019963333E+03  0.12491446458E+03 0.  0.
          5    1    4    4  502    0 -0.36129481061E+02  0.14628009915E+02  0.10261479154E+03  0.10986902894E+03  0.47000000000E+01 0. -1.
         -5    1    4    4    0  502  0.36509258115E+02 -0.51026270640E+02  0.74768798283E+03  0.75033060439E+03  0.47000000000E+01 0. -1.
        -11    1    3    3    0    0  0.11958497223E+02  0.65108873833E+02  0.23166193736E+03  0.24093448140E+03  0.00000000000E+00 0. -1.
         11    1    3    3    0    0 -0.12338274277E+02 -0.28710613108E+02  0.95109265501E+02  0.10011146139E+03  0.00000000000E+00 0.  1.
<mgrwt>
<rscale>  0 0.12109776E+03</rscale>
<asrwt>0</asrwt>
<pdfrwt beam="1">  1        2 0.18294757E+00 0.13010996E+03</pdfrwt>
<pdfrwt beam="2">  1       -2 0.18593547E-02 0.13010996E+03</pdfrwt>
<totfact> 0.16716761E+04</totfact>
</mgrwt>
</event>
<event>
 8    1  0.1224355E-005  0.1260501E+03  0.7546771E-02  0.1249073E+00
          3   -1    0    0  501    0  0.00000000000E+00  0.00000000000E+00  0.13080250916E+03  0.13080250916E+03  0.00000000000E+00 0. -1.
         -3   -1    0    0    0  501 -0.00000000000E+00 -0.00000000000E+00 -0.90818651817E+02  0.90818651817E+02  0.00000000000E+00 0.  1.
         23    2    1    2    0    0  0.77423264655E+01 -0.14277613751E+02  0.13236574962E+02  0.92764470359E+02  0.90367284848E+02 0.  0.
         23    2    1    2    0    0 -0.77423264655E+01  0.14277613751E+02  0.26747282383E+02  0.12885669062E+03  0.12499934291E+03 0.  0.
          5    1    4    4  502    0 -0.47485761882E+02  0.24512697222E+02 -0.27809571525E+02  0.60425426561E+02  0.47000000000E+01 0. -1.
         -5    1    4    4    0  502  0.39743435417E+02 -0.10235083471E+02  0.54556853908E+02  0.68431264059E+02  0.47000000000E+01 0. -1.
        -11    1    3    3    0    0  0.21932803915E+02  0.19585054943E+02  0.38317668491E+02  0.48299751379E+02  0.00000000000E+00 0. -1.
         11    1    3    3    0    0 -0.14190477449E+02 -0.33862668694E+02 -0.25081093529E+02  0.44464718980E+02  0.00000000000E+00 0.  1.
<mgrwt>
<rscale>  0 0.11644910E+03</rscale>
<asrwt>0</asrwt>
<pdfrwt beam="1">  1        3 0.20123463E-01 0.12605011E+03</pdfrwt>
<pdfrwt beam="2">  1       -3 0.13972100E-01 0.12605011E+03</pdfrwt>
<totfact> 0.21049998E+03</totfact>
</mgrwt>
</event>
<event>
 8    1  0.1224355E-005  0.1786601E+03  0.7546771E-02  0.1174910E+00
         -1   -1    0    0    0  501 -0.00000000000E+00  0.00000000000E+00  0.25372983288E+02  0.25372983288E+02  0.00000000000E+00 0.  1.
          1   -1    0    0  501    0  0.00000000000E+00 -0.00000000000E+00 -0.11999457521E+04  0.11999457521E+04  0.00000000000E+00 0. -1.
         23    2    1    2    0    0 -0.10414257755E+03 -0.73815310641E+02 -0.38128145875E+03  0.41215791164E+03  0.90577131754E+02 0.  0.
         23    2    1    2    0    0  0.10414257755E+03  0.73815310641E+02 -0.79329131007E+03  0.81316082375E+03  0.12500018445E+03 0.  0.
          5    1    4    4  502    0  0.61312888447E+02 -0.27520133213E+02 -0.34757061424E+03  0.35403961629E+03  0.47000000000E+01 0. -1.
         -5    1    4    4    0  502  0.42829689105E+02  0.10133544385E+03 -0.44572069583E+03  0.45912120746E+03  0.47000000000E+01 0. -1.
        -11    1    3    3    0    0 -0.71888715362E+02 -0.67809078751E+02 -0.35935844805E+03  0.37269901092E+03  0.00000000000E+00 0. -1.
         11    1    3    3    0    0 -0.32253862190E+02 -0.60062318903E+01 -0.21923010698E+02  0.39458900717E+02  0.00000000000E+00 0.  1.
<mgrwt>
<rscale>  0 0.17284757E+03</rscale>
<asrwt>0</asrwt>
<pdfrwt beam="2">  1        1 0.18460702E+00 0.17866008E+03</pdfrwt>
<pdfrwt beam="1">  1       -1 0.39035363E-02 0.17866008E+03</pdfrwt>
<totfact> 0.29028094E+03</totfact>
</mgrwt>
</event>
<event>
 8    1  0.1224355E-005  0.1462046E+03  0.7546771E-02  0.1215417E+00
         -2   -1    0    0    0  501 -0.00000000000E+00  0.00000000000E+00  0.94804167010E+02  0.94804167010E+02  0.00000000000E+00 0.  1.
          2   -1    0    0  501    0  0.00000000000E+00 -0.00000000000E+00 -0.22679296237E+03  0.22679296237E+03  0.00000000000E+00 0. -1.
         23    2    1    2    0    0 -0.70188023811E+02 -0.28705643820E+02  0.97016936229E+01  0.11799952939E+03  0.89885446000E+02 0.  0.
         23    2    1    2    0    0  0.70188023811E+02  0.28705643820E+02 -0.14169048898E+03  0.20359759999E+03  0.12500166151E+03 0.  0.
          5    1    4    4  502    0  0.13429949363E+02 -0.48326393230E+02 -0.46952612003E+02  0.68865387506E+02  0.47000000000E+01 0. -1.
         -5    1    4    4    0  502  0.56758074447E+02  0.77032037050E+02 -0.94737876980E+02  0.13473221249E+03  0.47000000000E+01 0. -1.
        -11    1    3    3    0    0 -0.56478621527E+02  0.71175058980E+01 -0.28675898535E+02  0.63740103048E+02  0.00000000000E+00 0. -1.
         11    1    3    3    0    0 -0.13709402284E+02 -0.35823149718E+02  0.38377592158E+02  0.54259426338E+02  0.00000000000E+00 0.  1.
<mgrwt>
<rscale>  0 0.13845947E+03</rscale>
<asrwt>0</asrwt>
<pdfrwt beam="2">  1        2 0.34891225E-01 0.14620461E+03</pdfrwt>
<pdfrwt beam="1">  1       -2 0.14585256E-01 0.14620461E+03</pdfrwt>
<totfact> 0.51143738E+03</totfact>
</mgrwt>
</event>
<event>
 8    1  0.1224355E-005  0.1555884E+03  0.7546771E-02  0.1202062E+00
          2   -1    0    0  501    0  0.00000000000E+00  0.00000000000E+00  0.67871508989E+03  0.67871508989E+03  0.00000000000E+00 0. -1.
         -2   -1    0    0    0  501 -0.00000000000E+00 -0.00000000000E+00 -0.42340693286E+02  0.42340693286E+02  0.00000000000E+00 0.  1.
         23    2    1    2    0    0 -0.86508447729E+02 -0.33150625851E+02  0.10388260450E+03  0.16629884740E+03  0.91000195634E+02 0.  0.
         23    2    1    2    0    0  0.86508447729E+02  0.33150625851E+02  0.53249179210E+03  0.55475693578E+03  0.12500029445E+03 0.  0.
          5    1    4    4  502    0 -0.13607251992E+02  0.36915328478E+02  0.28458192517E+03  0.28732709743E+03  0.47000000000E+01 0.  1.
         -5    1    4    4    0  502  0.10011569972E+03 -0.37647026265E+01  0.24790986693E+03  0.26742983835E+03  0.47000000000E+01 0.  1.
        -11    1    3    3    0    0 -0.25688005789E+02  0.15380051587E+02 -0.70873978627E+01  0.30767691442E+02  0.00000000000E+00 0.  1.
         11    1    3    3    0    0 -0.60820441940E+02 -0.48530677438E+02  0.11097000236E+03  0.13553115596E+03  0.00000000000E+00 0. -1.
<mgrwt>
<rscale>  0 0.14871407E+03</rscale>
<asrwt>0</asrwt>
<pdfrwt beam="1">  1        2 0.10441770E+00 0.15558840E+03</pdfrwt>
<pdfrwt beam="2">  1       -2 0.65139533E-02 0.15558840E+03</pdfrwt>
<totfact> 0.55258343E+03</totfact>
</mgrwt>
</event>
<event>
 8    1  0.1224355E-005  0.1528737E+03  0.7546771E-02  0.1203232E+00
         -2   -1    0    0    0  501 -0.00000000000E+00  0.00000000000E+00  0.29402802536E+02  0.29402802536E+02  0.00000000000E+00 0.  1.
          2   -1    0    0  501    0  0.00000000000E+00 -0.00000000000E+00 -0.10923417716E+04  0.10923417716E+04  0.00000000000E+00 0. -1.
         23    2    1    2    0    0 -0.35462781788E+02  0.80546559558E+02 -0.17166622648E+03  0.21745618812E+03  0.10036206101E+03 0.  0.
         23    2    1    2    0    0  0.35462781788E+02 -0.80546559558E+02 -0.89127274260E+03  0.90428838603E+03  0.12500010502E+03 0.  0.
          5    1    4    4  502    0  0.60956133486E+02 -0.99349717524E+02 -0.59795501225E+03  0.60922762844E+03  0.47000000000E+01 0.  1.
         -5    1    4    4    0  502 -0.25493351697E+02  0.18803157966E+02 -0.29331773035E+03  0.29506075759E+03  0.47000000000E+01 0.  1.
        -11    1    3    3    0    0  0.31858102051E+02  0.43924454297E+02 -0.92716358547E+02  0.10742727537E+03  0.00000000000E+00 0. -1.
         11    1    3    3    0    0 -0.67320883840E+02  0.36622105261E+02 -0.78949867935E+02  0.11002891275E+03  0.00000000000E+00 0.  1.
<mgrwt>
<rscale>  0 0.14777697E+03</rscale>
<asrwt>0</asrwt>
<pdfrwt beam="2">  1        2 0.16805256E+00 0.15287375E+03</pdfrwt>
<pdfrwt beam="1">  1       -2 0.45235087E-02 0.15287375E+03</pdfrwt>
<totfact> 0.51695944E+03</totfact>
</mgrwt>
</event>
<event>
 8    1  0.1224355E-005  0.1625932E+03  0.7546771E-02  0.1192939E+00
          2   -1    0    0  501    0  0.00000000000E+00  0.00000000000E+00  0.35449137793E+03  0.35449137793E+03  0.00000000000E+00 0. -1.
         -2   -1    0    0    0  501 -0.00000000000E+00 -0.00000000000E+00 -0.96056152145E+02  0.96056152145E+02  0.00000000000E+00 0.  1.
         23    2    1    2    0    0  0.92724449257E+02 -0.47088926806E+02 -0.72803013710E+01  0.13903300177E+03  0.91989033445E+02 0.  0.
         23    2    1    2    0    0 -0.92724449257E+02  0.47088926806E+02  0.26571552716E+03  0.31151452831E+03  0.12498547699E+03 0.  0.
          5    1    4    4  502    0 -0.63696769203E+02  0.14347043539E+02  0.25881912712E+03  0.26696918666E+03  0.47000000000E+01 0.  1.
         -5    1    4    4    0  502 -0.29027680053E+02  0.32741883267E+02  0.68964000407E+01  0.44545341649E+02  0.47000000000E+01 0.  1.
        -11    1    3    3    0    0  0.21344357203E+02  0.47032705912E+01  0.34974603687E+02  0.41242274934E+02  0.00000000000E+00 0. -1.
         11    1    3    3    0    0  0.71380092053E+02 -0.51792197397E+02 -0.42254905058E+02  0.97790726831E+02  0.00000000000E+00 0.  1.
<mgrwt>
<rscale>  0 0.15629939E+03</rscale>
<asrwt>0</asrwt>
<pdfrwt beam="1">  1        2 0.54537135E-01 0.16259323E+03</pdfrwt>
<pdfrwt beam="2">  1       -2 0.14777870E-01 0.16259323E+03</pdfrwt>
<totfact> 0.31249494E+03</totfact>
</mgrwt>
</event>
<event>
 8    1  0.1224355E-005  0.1551197E+03  0.7546771E-02  0.1203295E+00
          1   -1    0    0  501    0  0.00000000000E+00  0.00000000000E+00  0.10841605765E+04  0.10841605765E+04  0.00000000000E+00 0. -1.
         -1   -1    0    0    0  501 -0.00000000000E+00 -0.00000000000E+00 -0.20623026322E+02  0.20623026322E+02  0.00000000000E+00 0.  1.
         23    2    1    2    0    0  0.32992997962E+02 -0.85711651829E+02  0.30614997892E+03  0.33167426406E+03  0.88571906799E+02 0.  0.
         23    2    1    2    0    0 -0.32992997962E+02  0.85711651829E+02  0.75738757129E+03  0.77310933879E+03  0.12500836536E+03 0.  0.
          5    1    4    4  502    0  0.43228881657E+02  0.56419178465E+02  0.41644739491E+03  0.42249542322E+03  0.47000000000E+01 0. -1.
         -5    1    4    4    0  502 -0.76221879619E+02  0.29292473364E+02  0.34094017638E+03  0.35061391558E+03  0.47000000000E+01 0. -1.
        -11    1    3    3    0    0  0.89708964532E+01 -0.35082732723E+02  0.22701027742E+02  0.42738879010E+02  0.00000000000E+00 0.  1.
         11    1    3    3    0    0  0.24022101509E+02 -0.50628919107E+02  0.28344895118E+03  0.28893538505E+03  0.00000000000E+00 0. -1.
<mgrwt>
<rscale>  0 0.14772602E+03</rscale>
<asrwt>0</asrwt>
<pdfrwt beam="1">  1        1 0.16679389E+00 0.15511968E+03</pdfrwt>
<pdfrwt beam="2">  1       -1 0.31727741E-02 0.15511968E+03</pdfrwt>
<totfact> 0.47290853E+03</totfact>
</mgrwt>
</event>
<event>
 7    1  0.1224355E-005  0.3446297E+03  0.7546771E-02  0.1102751E+00
         -1   -1    0    0    0  501 -0.00000000000E+00  0.00000000000E+00  0.25081036597E+03  0.25081036597E+03  0.00000000000E+00 0.  1.
          1   -1    0    0  501    0  0.00000000000E+00 -0.00000000000E+00 -0.22800873877E+03  0.22800873877E+03  0.00000000000E+00 0. -1.
         23    2    1    2    0    0  0.42015534738E+02 -0.79145505056E+02  0.46534458850E+02  0.13337321722E+03  0.87141511818E+02 0.  0.
          5    1    1    2  502    0  0.14476102851E+03  0.50348395525E+02 -0.30238973317E+02  0.15629204015E+03  0.47000000000E+01 0. -1.
         -5    1    1    2    0  502 -0.18677656325E+03  0.28797109531E+02  0.65061416580E+01  0.18915384737E+03  0.47000000000E+01 0.  1.
        -11    1    3    3    0    0 -0.21420705969E+01  0.16478695197E+02  0.17466244302E+02  0.24108205073E+02  0.00000000000E+00 0.  1.
         11    1    3    3    0    0  0.44157605335E+02 -0.95624200253E+02  0.29068214548E+02  0.10926501215E+03  0.00000000000E+00 0. -1.
<mgrwt>
<rscale>  0 0.26744527E+03</rscale>
<asrwt>0</asrwt>
<pdfrwt beam="2">  1        1 0.35078267E-01 0.34462968E+03</pdfrwt>
<pdfrwt beam="1">  1       -1 0.38586210E-01 0.34462968E+03</pdfrwt>
<totfact> 0.81949110E+02</totfact>
</mgrwt>
</event>
<event>
 8    1  0.1224355E-005  0.1476682E+03  0.7546771E-02  0.1213751E+00
         -1   -1    0    0    0  501 -0.00000000000E+00  0.00000000000E+00  0.24388768707E+02  0.24388768707E+02  0.00000000000E+00 0.  1.
          1   -1    0    0  501    0  0.00000000000E+00 -0.00000000000E+00 -0.72517143856E+03  0.72517143856E+03  0.00000000000E+00 0. -1.
         23    2    1    2    0    0  0.63389697608E+02 -0.46520172206E+02 -0.30309813719E+03  0.32534460279E+03  0.88307698499E+02 0.  0.
         23    2    1    2    0    0 -0.63389697608E+02  0.46520172206E+02 -0.39768453267E+03  0.42421560448E+03  0.12499404536E+03 0.  0.
          5    1    4    4  502    0  0.23289999650E+02 -0.21974384561E+02 -0.51731309007E+02  0.61020619402E+02  0.47000000000E+01 0.  1.
         -5    1    4    4    0  502 -0.86679697259E+02  0.68494556768E+02 -0.34595322366E+03  0.36319498507E+03  0.47000000000E+01 0.  1.
        -11    1    3    3    0    0  0.64226563209E+02  0.46495273177E+01 -0.20225827087E+03  0.21226181395E+03  0.00000000000E+00 0. -1.
         11    1    3    3    0    0 -0.83686560100E+00 -0.51169699524E+02 -0.10083986633E+03  0.11308278885E+03  0.00000000000E+00 0.  1.
<mgrwt>
<rscale>  0 0.13968701E+03</rscale>
<asrwt>0</asrwt>
<pdfrwt beam="2">  1        1 0.11156483E+00 0.14766818E+03</pdfrwt>
<pdfrwt beam="1">  1       -1 0.37521186E-02 0.14766818E+03</pdfrwt>
<totfact> 0.70124669E+03</totfact>
</mgrwt>
</event>
<event>
 8    1  0.3297538E-005  0.3591916E+03  0.7546771E-02  0.1059920E+00
          1   -1    0    0  501    0  0.00000000000E+00  0.00000000000E+00  0.87507647870E+03  0.87507647870E+03  0.00000000000E+00 0. -1.
         -1   -1    0    0    0  501 -0.00000000000E+00 -0.00000000000E+00 -0.14390145049E+03  0.14390145049E+03  0.00000000000E+00 0.  1.
         23    2    1    2    0    0  0.46395086647E+02  0.33352857249E+03  0.39255182921E+03  0.52533404474E+03  0.92114641704E+02 0.  0.
         23    2    1    2    0    0 -0.46395086647E+02 -0.33352857249E+03  0.33862319900E+03  0.49364388446E+03  0.12499920412E+03 0.  0.
          5    1    4    4  502    0  0.15029588854E+02 -0.85787536829E+01 -0.29647654456E+01  0.18175901354E+02  0.47000000000E+01 0.  1.
         -5    1    4    4    0  502 -0.61424675501E+02 -0.32494981881E+03  0.34158796444E+03  0.47546798310E+03  0.47000000000E+01 0.  1.
        -11    1    3    3    0    0  0.30485274295E+02  0.30599201193E+03  0.38484450362E+03  0.49261116033E+03  0.00000000000E+00 0. -1.
         11    1    3    3    0    0  0.15909812352E+02  0.27536560558E+02  0.77073255884E+01  0.32722884411E+02  0.00000000000E+00 0.  1.
<mgrwt>
<rscale>  0 0.35664465E+03</rscale>
<asrwt>0</asrwt>
<pdfrwt beam="1">  1        1 0.13462715E+00 0.35919161E+03</pdfrwt>
<pdfrwt beam="2">  1       -1 0.22138685E-01 0.35919161E+03</pdfrwt>
<totfact> 0.34032126E+02</totfact>
</mgrwt>
</event>
<event>
 8    1  0.1224355E-005  0.1499735E+03  0.7546771E-02  0.1209153E+00
         -1   -1    0    0    0  501 -0.00000000000E+00  0.00000000000E+00  0.14113413027E+02  0.14113413027E+02  0.00000000000E+00 0.  1.
          1   -1    0    0  501    0  0.00000000000E+00 -0.00000000000E+00 -0.23204351446E+04  0.23204351446E+04  0.00000000000E+00 0. -1.
         23    2    1    2    0    0 -0.28160331468E+02  0.77943577842E+02 -0.33251939090E+03  0.35505677322E+03  0.92886819797E+02 0.  0.
         23    2    1    2    0    0  0.28160331468E+02 -0.77943577842E+02 -0.19738023406E+04  0.19794917844E+04  0.12499535543E+03 0.  0.
          5    1    4    4  502    0 -0.10221696457E+02 -0.75628393089E+02 -0.17909342526E+04  0.17925656819E+04  0.47000000000E+01 0.  1.
         -5    1    4    4    0  502  0.38382027925E+02 -0.23151847524E+01 -0.18286808807E+03  0.18692610246E+03  0.47000000000E+01 0.  1.
        -11    1    3    3    0    0 -0.43750985633E+02  0.90442652595E+02 -0.23608537437E+03  0.25657421177E+03  0.00000000000E+00 0.  1.
         11    1    3    3    0    0  0.15590654165E+02 -0.12499074753E+02 -0.96434016527E+02  0.98482561454E+02  0.00000000000E+00 0. -1.
<mgrwt>
<rscale>  0 0.14314919E+03</rscale>
<asrwt>0</asrwt>
<pdfrwt beam="2">  1        1 0.35698996E+00 0.14997348E+03</pdfrwt>
<pdfrwt beam="1">  1       -1 0.21712947E-02 0.14997348E+03</pdfrwt>
<totfact> 0.12807714E+03</totfact>
</mgrwt>
</event>
<event>
 8    1  0.1224355E-005  0.1313725E+03  0.7546771E-02  0.1238563E+00
         -2   -1    0    0    0  501 -0.00000000000E+00  0.00000000000E+00  0.11936027965E+02  0.11936027965E+02  0.00000000000E+00 0.  1.
          2   -1    0    0  501    0  0.00000000000E+00 -0.00000000000E+00 -0.12722588812E+04  0.12722588812E+04  0.00000000000E+00 0. -1.
         23    2    1    2    0    0 -0.21564494360E+01 -0.40349559094E+02 -0.33783566316E+03  0.35240022147E+03  0.91761885307E+02 0.  0.
         23    2    1    2    0    0  0.21564494360E+01  0.40349559094E+02 -0.92248719011E+03  0.93179468773E+03  0.12500394784E+03 0.  0.
          5    1    4    4  502    0  0.19124516123E+02 -0.42365692567E+02 -0.31241655788E+03  0.31589047891E+03  0.47000000000E+01 0. -1.
         -5    1    4    4    0  502 -0.16968066687E+02  0.82715251660E+02 -0.61007063222E+03  0.61590420882E+03  0.47000000000E+01 0. -1.
        -11    1    3    3    0    0  0.29648593831E+02  0.16986015270E+02 -0.99140160356E+02  0.10486341224E+03  0.00000000000E+00 0.  1.
         11    1    3    3    0    0 -0.31805043267E+02 -0.57335574364E+02 -0.23869550280E+03  0.24753680923E+03  0.00000000000E+00 0. -1.
<mgrwt>
<rscale>  0 0.12279060E+03</rscale>
<asrwt>0</asrwt>
<pdfrwt beam="2">  1        2 0.19573211E+00 0.13137246E+03</pdfrwt>
<pdfrwt beam="1">  1       -2 0.18363122E-02 0.13137246E+03</pdfrwt>
<totfact> 0.15336738E+04</totfact>
</mgrwt>
</event>
<event>
 8    1  0.1224355E-005  0.1554422E+03  0.7546771E-02  0.1202216E+00
          2   -1    0    0  501    0  0.00000000000E+00  0.00000000000E+00  0.42882403516E+03  0.42882403516E+03  0.00000000000E+00 0.  1.
         -2   -1    0    0    0  501 -0.00000000000E+00 -0.00000000000E+00 -0.52029367723E+02  0.52029367723E+02  0.00000000000E+00 0. -1.
         23    2    1    2    0    0  0.82289668724E+02 -0.42028189294E+02  0.10175085782E+03  0.16492402764E+03  0.91152287694E+02 0.  0.
         23    2    1    2    0    0 -0.82289668724E+02  0.42028189294E+02  0.27504380962E+03  0.31592937524E+03  0.12499725860E+03 0.  0.
          5    1    4    4  502    0 -0.61710258907E+02  0.12968413869E+02  0.27270022313E+03  0.27993541667E+03  0.47000000000E+01 0.  1.
         -5    1    4    4    0  502 -0.20579409817E+02  0.29059775424E+02  0.23435864904E+01  0.35993958573E+02  0.47000000000E+01 0.  1.
        -11    1    3    3    0    0 -0.11489140169E+02 -0.12807067703E+02  0.52090111603E+02  0.54858008092E+02  0.00000000000E+00 0.  1.
         11    1    3    3    0    0  0.93778808893E+02 -0.29221121590E+02  0.49660746217E+02  0.11006601955E+03  0.00000000000E+00 0. -1.
<mgrwt>
<rscale>  0 0.14859049E+03</rscale>
<asrwt>0</asrwt>
<pdfrwt beam="1">  1        2 0.65972926E-01 0.15544219E+03</pdfrwt>
<pdfrwt beam="2">  1       -2 0.80045184E-02 0.15544219E+03</pdfrwt>
<totfact> 0.67384771E+03</totfact>
</mgrwt>
</event>
<event>
 8    1  0.1224355E-005  0.1430939E+03  0.7546771E-02  0.1219486E+00
          1   -1    0    0  501    0  0.00000000000E+00  0.00000000000E+00  0.57068249453E+02  0.57068249453E+02  0.00000000000E+00 0. -1.
         -1   -1    0    0    0  501 -0.00000000000E+00 -0.00000000000E+00 -0.29582715915E+03  0.29582715915E+03  0.00000000000E+00 0.  1.
         23    2    1    2    0    0  0.67866869588E+02  0.15654858258E+02 -0.12632855199E+03  0.17091612856E+03  0.91664788108E+02 0.  0.
         23    2    1    2    0    0 -0.67866869588E+02 -0.15654858258E+02 -0.11243035771E+03  0.18197928004E+03  0.12499954583E+03 0.  0.
          5    1    4    4  502    0 -0.78159166872E+01 -0.49066915235E+02  0.25618143004E+00  0.49907978854E+02  0.47000000000E+01 0. -1.
         -5    1    4    4    0  502 -0.60050952900E+02  0.33412056977E+02 -0.11268653914E+03  0.13207130119E+03  0.47000000000E+01 0. -1.
        -11    1    3    3    0    0  0.78803605259E+02 -0.52980479837E+01 -0.12419865818E+03  0.14718486406E+03  0.00000000000E+00 0.  1.
         11    1    3    3    0    0 -0.10936735672E+02  0.20952906242E+02 -0.21298938106E+01  0.23731264500E+02  0.00000000000E+00 0. -1.
<mgrwt>
<rscale>  0 0.13552110E+03</rscale>
<asrwt>0</asrwt>
<pdfrwt beam="1">  1        1 0.87797305E-02 0.14309393E+03</pdfrwt>
<pdfrwt beam="2">  1       -1 0.45511872E-01 0.14309393E+03</pdfrwt>
<totfact> 0.36055336E+03</totfact>
</mgrwt>
</event>
<event>
 8    1  0.1224355E-005  0.2964727E+03  0.7546771E-02  0.1088731E+00
          1   -1    0    0  501    0  0.00000000000E+00  0.00000000000E+00  0.69334156888E+03  0.69334156888E+03  0.00000000000E+00 0. -1.
         -1   -1    0    0    0  501 -0.00000000000E+00 -0.00000000000E+00 -0.12122835840E+03  0.12122835840E+03  0.00000000000E+00 0.  1.
         23    2    1    2    0    0 -0.65981953730E+01 -0.26874993011E+03  0.27291472222E+03  0.39336239500E+03  0.89339056827E+02 0.  0.
         23    2    1    2    0    0  0.65981953730E+01  0.26874993011E+03  0.29919848825E+03  0.42120753228E+03  0.12500395497E+03 0.  0.
          5    1    4    4  502    0  0.71571245741E+01  0.13181910406E+03  0.58988305569E+02  0.14466931541E+03  0.47000000000E+01 0.  1.
         -5    1    4    4    0  502 -0.55892920108E+00  0.13693082605E+03  0.24021018269E+03  0.27653821687E+03  0.47000000000E+01 0.  1.
        -11    1    3    3    0    0  0.26610325981E+01 -0.18912808233E+03  0.24269466959E+03  0.30769662863E+03  0.00000000000E+00 0. -1.
         11    1    3    3    0    0 -0.92592279711E+01 -0.79621847780E+02  0.30220052632E+02  0.85665766369E+02  0.00000000000E+00 0.  1.
<mgrwt>
<rscale>  0 0.29311981E+03</rscale>
<asrwt>0</asrwt>
<pdfrwt beam="1">  1        1 0.10666793E+00 0.29647268E+03</pdfrwt>
<pdfrwt beam="2">  1       -1 0.18650517E-01 0.29647268E+03</pdfrwt>
<totfact> 0.64814318E+02</totfact>
</mgrwt>
</event>
<event>
 8    1  0.1224355E-005  0.3214274E+03  0.7546771E-02  0.1076353E+00
          1   -1    0    0  501    0  0.00000000000E+00  0.00000000000E+00  0.76498678154E+03  0.76498678154E+03  0.00000000000E+00 0. -1.
         -1   -1    0    0    0  501 -0.00000000000E+00 -0.00000000000E+00 -0.13023723827E+03  0.13023723827E+03  0.00000000000E+00 0.  1.
         23    2    1    2    0    0  0.22023560423E+03 -0.19795644444E+03  0.31835752606E+03  0.44420351142E+03  0.90965762191E+02 0.  0.
         23    2    1    2    0    0 -0.22023560423E+03  0.19795644444E+03  0.31639201721E+03  0.45102050839E+03  0.12500046067E+03 0.  0.
          5    1    4    4  502    0 -0.92995886797E+02  0.90846665666E+02  0.22827476043E+03  0.26274095203E+03  0.47000000000E+01 0.  1.
         -5    1    4    4    0  502 -0.12723971743E+03  0.10710977878E+03  0.88117256782E+02  0.18827955636E+03  0.47000000000E+01 0.  1.
        -11    1    3    3    0    0  0.14777436761E+03 -0.14317119518E+03  0.27524953937E+03  0.34365326097E+03  0.00000000000E+00 0.  1.
         11    1    3    3    0    0  0.72461236614E+02 -0.54785249261E+02  0.43107986692E+02  0.10055025045E+03  0.00000000000E+00 0. -1.
<mgrwt>
<rscale>  0 0.31847581E+03</rscale>
<asrwt>0</asrwt>
<pdfrwt beam="1">  1        1 0.11769027E+00 0.32142743E+03</pdfrwt>
<pdfrwt beam="2">  1       -1 0.20036499E-01 0.32142743E+03</pdfrwt>
<totfact> 0.49715458E+02</totfact>
</mgrwt>
</event>
<event>
 8    1  0.1224355E-005  0.1347188E+03  0.7546771E-02  0.1232917E+00
         -2   -1    0    0    0  501 -0.00000000000E+00  0.00000000000E+00  0.62975589613E+02  0.62975589613E+02  0.00000000000E+00 0. -1.
          2   -1    0    0  501    0  0.00000000000E+00 -0.00000000000E+00 -0.31275423073E+03  0.31275423073E+03  0.00000000000E+00 0.  1.
         23    2    1    2    0    0 -0.31152381625E+01 -0.50142283402E+02 -0.15533313572E+02  0.10550761867E+03  0.91469232381E+02 0.  0.
         23    2    1    2    0    0  0.31152381625E+01  0.50142283402E+02 -0.23424532755E+03  0.27022220168E+03  0.12500084604E+03 0.  0.
          5    1    4    4  502    0  0.46503931474E+02  0.25775728445E+02 -0.32757479183E+02  0.62627040980E+02  0.47000000000E+01 0.  1.
         -5    1    4    4    0  502 -0.43388693312E+02  0.24366554957E+02 -0.20148784836E+03  0.20759516070E+03  0.47000000000E+01 0.  1.
        -11    1    3    3    0    0 -0.38759548379E+01  0.26899849995E+02 -0.64109237321E+01  0.27923554551E+02  0.00000000000E+00 0. -1.
         11    1    3    3    0    0  0.76071667540E+00 -0.77042133397E+02 -0.91223898396E+01  0.77584064115E+02  0.00000000000E+00 0.  1.
<mgrwt>
<rscale>  0 0.12638705E+03</rscale>
<asrwt>0</asrwt>
<pdfrwt beam="2">  1        2 0.48116035E-01 0.13471884E+03</pdfrwt>
<pdfrwt beam="1">  1       -2 0.96885523E-02 0.13471884E+03</pdfrwt>
<totfact> 0.69482754E+03</totfact>
</mgrwt>
</event>
<event>
 8    1  0.1224355E-005  0.2027531E+03  0.7546771E-02  0.1151534E+00
         -1   -1    0    0    0  501 -0.00000000000E+00  0.00000000000E+00  0.97201861153E+02  0.97201861153E+02  0.00000000000E+00 0.  1.
          1   -1    0    0  501    0  0.00000000000E+00 -0.00000000000E+00 -0.49430069043E+03  0.49430069043E+03  0.00000000000E+00 0. -1.
         23    2    1    2    0    0 -0.93277973228E+02  0.12956687598E+03 -0.51895157466E+02  0.19115972222E+03  0.91436187541E+02 0.  0.
         23    2    1    2    0    0  0.93277973228E+02 -0.12956687598E+03 -0.34520367181E+03  0.40034282935E+03  0.12498180006E+03 0.  0.
          5    1    4    4  502    0  0.91311076381E+02 -0.33241728465E+02 -0.23227039928E+03  0.25182206727E+03  0.47000000000E+01 0.  1.
         -5    1    4    4    0  502  0.19668968471E+01 -0.96325147515E+02 -0.11293327253E+03  0.14852076208E+03  0.47000000000E+01 0.  1.
        -11    1    3    3    0    0 -0.25608544197E+02  0.10514276464E+03 -0.11956543772E+02  0.10887496237E+03  0.00000000000E+00 0. -1.
         11    1    3    3    0    0 -0.67669429031E+02  0.24424111335E+02 -0.39938613694E+02  0.82284759851E+02  0.00000000000E+00 0.  1.
<mgrwt>
<rscale>  0 0.19788765E+03</rscale>
<asrwt>0</asrwt>
<pdfrwt beam="2">  1        1 0.76046261E-01 0.20275307E+03</pdfrwt>
<pdfrwt beam="1">  1       -1 0.14954132E-01 0.20275307E+03</pdfrwt>
<totfact> 0.14749332E+03</totfact>
</mgrwt>
</event>
<event>
 8    1  0.1224355E-005  0.1776344E+03  0.7546771E-02  0.1176208E+00
         -2   -1    0    0    0  501 -0.00000000000E+00  0.00000000000E+00  0.21464247293E+02  0.21464247293E+02  0.00000000000E+00 0.  1.
          2   -1    0    0  501    0  0.00000000000E+00 -0.00000000000E+00 -0.13658696332E+04  0.13658696332E+04  0.00000000000E+00 0. -1.
         23    2    1    2    0    0 -0.12619288210E+03  0.15149294089E+01 -0.46092694067E+03  0.48617454583E+03  0.89359419614E+02 0.  0.
         23    2    1    2    0    0  0.12619288210E+03 -0.15149294089E+01 -0.88347844523E+03  0.90115933466E+03  0.12500817874E+03 0.  0.
          5    1    4    4  502    0  0.12279394353E+03  0.15702008277E+02 -0.86938250176E+03  0.87816452331E+03  0.47000000000E+01 0. -1.
         -5    1    4    4    0  502  0.33989385641E+01 -0.17216937686E+02 -0.14095943468E+02  0.22994811348E+02  0.47000000000E+01 0. -1.
        -11    1    3    3    0    0 -0.44669715690E+02  0.25666650016E+02 -0.74983597883E+02  0.90976372616E+02  0.00000000000E+00 0.  1.
         11    1    3    3    0    0 -0.81523166406E+02 -0.24151720607E+02 -0.38594334279E+03  0.39519817322E+03  0.00000000000E+00 0. -1.
<mgrwt>
<rscale>  0 0.17158227E+03</rscale>
<asrwt>0</asrwt>
<pdfrwt beam="2">  1        2 0.21013378E+00 0.17763441E+03</pdfrwt>
<pdfrwt beam="1">  1       -2 0.33021920E-02 0.17763441E+03</pdfrwt>
<totfact> 0.58540459E+03</totfact>
</mgrwt>
</event>
<event>
 8    1  0.1224355E-005  0.1943258E+03  0.7546771E-02  0.1159961E+00
         -2   -1    0    0    0  501 -0.00000000000E+00  0.00000000000E+00  0.85831509621E+02  0.85831509621E+02  0.00000000000E+00 0.  1.
          2   -1    0    0  501    0  0.00000000000E+00 -0.00000000000E+00 -0.39799878237E+03  0.39799878237E+03  0.00000000000E+00 0. -1.
         23    2    1    2    0    0  0.13044034807E+03 -0.71560182161E+02 -0.18123649770E+03  0.24951128502E+03  0.85285808783E+02 0.  0.
         23    2    1    2    0    0 -0.13044034807E+03  0.71560182161E+02 -0.13093077505E+03  0.23431900697E+03  0.12500794013E+03 0.  0.
          5    1    4    4  502    0 -0.36430881987E+02  0.20733483863E+02 -0.11951340781E+03  0.12673843601E+03  0.47000000000E+01 0. -1.
         -5    1    4    4    0  502 -0.94009466088E+02  0.50826698298E+02 -0.11417367245E+02  0.10758057096E+03  0.47000000000E+01 0. -1.
        -11    1    3    3    0    0  0.11316823747E+02  0.11696518493E+02 -0.53835389284E+02  0.56241694355E+02  0.00000000000E+00 0. -1.
         11    1    3    3    0    0  0.11912352433E+03 -0.83256700654E+02 -0.12740110841E+03  0.19326959067E+03  0.00000000000E+00 0.  1.
<mgrwt>
<rscale>  0 0.18834684E+03</rscale>
<asrwt>0</asrwt>
<pdfrwt beam="2">  1        2 0.61230582E-01 0.19432583E+03</pdfrwt>
<pdfrwt beam="1">  1       -2 0.13204848E-01 0.19432583E+03</pdfrwt>
<totfact> 0.33389914E+03</totfact>
</mgrwt>
</event>
<event>
 8    1  0.1224355E-005  0.1344159E+03  0.7546771E-02  0.1235397E+00
         -2   -1    0    0    0  501 -0.00000000000E+00  0.00000000000E+00  0.38871933662E+02  0.38871933662E+02  0.00000000000E+00 0. -1.
          2   -1    0    0  501    0  0.00000000000E+00 -0.00000000000E+00 -0.45680817488E+03  0.45680817488E+03  0.00000000000E+00 0.  1.
         23    2    1    2    0    0 -0.48453528922E+02 -0.97504674520E+01 -0.67986585089E+02  0.12080361392E+03  0.86767051949E+02 0.  0.
         23    2    1    2    0    0  0.48453528922E+02  0.97504674520E+01 -0.34994965613E+03  0.37487649462E+03  0.12499923325E+03 0.  0.
          5    1    4    4  502    0  0.30702462583E+02 -0.52662514505E+02 -0.23469212895E+03  0.24252518845E+03  0.47000000000E+01 0. -1.
         -5    1    4    4    0  502  0.17751066338E+02  0.62412981957E+02 -0.11525752718E+03  0.13235130617E+03  0.47000000000E+01 0. -1.
        -11    1    3    3    0    0 -0.62737601327E+02  0.20199799643E+02 -0.52099761879E+02  0.84014425629E+02  0.00000000000E+00 0.  1.
         11    1    3    3    0    0  0.14284072405E+02 -0.29950267095E+02 -0.15886823210E+02  0.36789188293E+02  0.00000000000E+00 0. -1.
<mgrwt>
<rscale>  0 0.12479066E+03</rscale>
<asrwt>0</asrwt>
<pdfrwt beam="2">  1        2 0.70278186E-01 0.13441586E+03</pdfrwt>
<pdfrwt beam="1">  1       -2 0.59802970E-02 0.13441586E+03</pdfrwt>
<totfact> 0.97458211E+03</totfact>
</mgrwt>
</event>
<event>
 8    1  0.1224355E-005  0.1290816E+03  0.7546771E-02  0.1242087E+00
          4   -1    0    0  501    0  0.00000000000E+00  0.00000000000E+00  0.82455083724E+02  0.82455083724E+02  0.00000000000E+00 0. -1.
         -4   -1    0    0    0  501 -0.00000000000E+00 -0.00000000000E+00 -0.15768559492E+03  0.15768559492E+03  0.00000000000E+00 0.  1.
         23    2    1    2    0    0  0.71293000449E+01 -0.31405984965E+02 -0.40961020456E+02  0.10658745900E+03  0.92983430823E+02 0.  0.
         23    2    1    2    0    0 -0.71293000449E+01  0.31405984965E+02 -0.34269490737E+02  0.13355321965E+03  0.12499960669E+03 0.  0.
          5    1    4    4  502    0 -0.61998047633E+01  0.79089873897E+02 -0.31699234985E+02  0.85560371848E+02  0.47000000000E+01 0.  1.
         -5    1    4    4    0  502 -0.92949528160E+00 -0.47683888932E+02 -0.25702557526E+01  0.47992847798E+02  0.47000000000E+01 0.  1.
        -11    1    3    3    0    0  0.49453436277E+02 -0.11014270568E+02 -0.14647727850E+02  0.52740045951E+02  0.00000000000E+00 0.  1.
         11    1    3    3    0    0 -0.42324136232E+02 -0.20391714397E+02 -0.26313292606E+02  0.53847413045E+02  0.00000000000E+00 0. -1.
<mgrwt>
<rscale>  0 0.12061463E+03</rscale>
<asrwt>0</asrwt>
<pdfrwt beam="1">  1        4 0.12685398E-01 0.12908162E+03</pdfrwt>
<pdfrwt beam="2">  1       -4 0.24259322E-01 0.12908162E+03</pdfrwt>
<totfact> 0.13036143E+03</totfact>
</mgrwt>
</event>
<event>
 8    1  0.1224355E-005  0.1346330E+03  0.7546771E-02  0.1233296E+00
         -2   -1    0    0    0  501 -0.00000000000E+00  0.00000000000E+00  0.18516751173E+02  0.18516751173E+02  0.00000000000E+00 0.  1.
          2   -1    0    0  501    0  0.00000000000E+00 -0.00000000000E+00 -0.11010958638E+04  0.11010958638E+04  0.00000000000E+00 0. -1.
         23    2    1    2    0    0  0.46041722073E+02  0.19530558456E+02 -0.18596557299E+03  0.21294736282E+03  0.90896106140E+02 0.  0.
         23    2    1    2    0    0 -0.46041722073E+02 -0.19530558456E+02 -0.89661353965E+03  0.90666525216E+03  0.12499902842E+03 0.  0.
          5    1    4    4  502    0  0.23538030100E+02  0.30161668484E+02 -0.13960622436E+03  0.14483008315E+03  0.47000000000E+01 0. -1.
         -5    1    4    4    0  502 -0.69579752172E+02 -0.49692226940E+02 -0.75700731529E+03  0.76183516901E+03  0.47000000000E+01 0. -1.
        -11    1    3    3    0    0  0.48164333970E+02 -0.23708105657E+02 -0.64039260994E+02  0.83563773786E+02  0.00000000000E+00 0.  1.
         11    1    3    3    0    0 -0.21226118977E+01  0.43238664113E+02 -0.12192631199E+03  0.12938358904E+03  0.00000000000E+00 0. -1.
<mgrwt>
<rscale>  0 0.12614127E+03</rscale>
<asrwt>0</asrwt>
<pdfrwt beam="2">  1        2 0.16939939E+00 0.13463298E+03</pdfrwt>
<pdfrwt beam="1">  1       -2 0.28487305E-02 0.13463298E+03</pdfrwt>
<totfact> 0.10084717E+04</totfact>
</mgrwt>
</event>
<event>
 8    1  0.1224355E-005  0.1427387E+03  0.7546771E-02  0.1220052E+00
         -1   -1    0    0    0  501 -0.00000000000E+00  0.00000000000E+00  0.57662571105E+02  0.57662571105E+02  0.00000000000E+00 0.  1.
          1   -1    0    0  501    0  0.00000000000E+00 -0.00000000000E+00 -0.32408187627E+03  0.32408187627E+03  0.00000000000E+00 0. -1.
         23    2    1    2    0    0  0.46161658933E+02 -0.51185082150E+02 -0.56218633198E+02  0.12766048479E+03  0.91574304628E+02 0.  0.
         23    2    1    2    0    0 -0.46161658933E+02  0.51185082150E+02 -0.21020067196E+03  0.25408396258E+03  0.12499410449E+03 0.  0.
          5    1    4    4  502    0 -0.70064385164E+02 -0.44482938079E+01 -0.16175328558E+03  0.17639450326E+03  0.47000000000E+01 0. -1.
         -5    1    4    4    0  502  0.23902726231E+02  0.55633375958E+02 -0.48447386386E+02  0.77689459320E+02  0.47000000000E+01 0. -1.
        -11    1    3    3    0    0  0.64121533009E+02 -0.58291796385E+02 -0.63056485091E+02  0.10717100743E+03  0.00000000000E+00 0.  1.
         11    1    3    3    0    0 -0.17959874076E+02  0.71067142355E+01  0.68378518927E+01  0.20489477361E+02  0.00000000000E+00 0. -1.
<mgrwt>
<rscale>  0 0.13511916E+03</rscale>
<asrwt>0</asrwt>
<pdfrwt beam="2">  1        1 0.49858751E-01 0.14273870E+03</pdfrwt>
<pdfrwt beam="1">  1       -1 0.88711646E-02 0.14273870E+03</pdfrwt>
<totfact> 0.55978677E+03</totfact>
</mgrwt>
</event>
<event>
 7    1  0.1224355E-005  0.2042170E+03  0.7546771E-02  0.1151148E+00
         -2   -1    0    0    0  501 -0.00000000000E+00  0.00000000000E+00  0.12608015773E+03  0.12608015773E+03  0.00000000000E+00 0.  1.
          2   -1    0    0  501    0  0.00000000000E+00 -0.00000000000E+00 -0.10262289290E+04  0.10262289290E+04  0.00000000000E+00 0. -1.
         23    2    1    2    0    0  0.15053162907E+03  0.31996732754E+01  0.43482814969E+02  0.18683243539E+03  0.10171329538E+03 0.  0.
          5    1    1    2  502    0 -0.13163823941E+03 -0.38321668103E+01 -0.93487952510E+03  0.94412135238E+03  0.47000000000E+01 0. -1.
         -5    1    1    2    0  502 -0.18893389652E+02  0.63249353497E+00 -0.87520611708E+01  0.21355298999E+02  0.47000000000E+01 0.  1.
        -11    1    3    3    0    0  0.85101863845E+02 -0.41775493043E+01  0.75294645679E+02  0.11370603685E+03  0.00000000000E+00 0.  1.
         11    1    3    3    0    0  0.65429765220E+02  0.73772225797E+01 -0.31811830710E+02  0.73126398536E+02  0.00000000000E+00 0. -1.
<mgrwt>
<rscale>  0 0.19833934E+03</rscale>
<asrwt>0</asrwt>
<pdfrwt beam="2">  1        2 0.15788137E+00 0.20421703E+03</pdfrwt>
<pdfrwt beam="1">  1       -2 0.19396948E-01 0.20421703E+03</pdfrwt>
<totfact> 0.56653614E+02</totfact>
</mgrwt>
</event>
<event>
 7    1  0.1224355E-005  0.1616378E+03  0.7546771E-02  0.1204222E+00
         -1   -1    0    0    0  501 -0.00000000000E+00  0.00000000000E+00  0.57805908673E+02  0.57805908673E+02  0.00000000000E+00 0.  1.
          1   -1    0    0  501    0  0.00000000000E+00 -0.00000000000E+00 -0.82126091393E+03  0.82126091393E+03  0.00000000000E+00 0. -1.
         23    2    1    2    0    0  0.23702684708E+01 -0.56744884166E+02 -0.12882204268E+02  0.11128670503E+03  0.94832375689E+02 0.  0.
          5    1    1    2  502    0 -0.46550239059E+02  0.75128283384E+02 -0.25584265675E+03  0.27071892939E+03  0.47000000000E+01 0. -1.
         -5    1    1    2    0  502  0.44179970588E+02 -0.18383399218E+02 -0.49473014424E+03  0.49706118818E+03  0.47000000000E+01 0.  1.
        -11    1    3    3    0    0 -0.17130620021E+01  0.17231245685E+02 -0.30553822764E+02  0.35119602714E+02  0.00000000000E+00 0. -1.
         11    1    3    3    0    0  0.40833304729E+01 -0.73976129851E+02  0.17671618496E+02  0.76167102320E+02  0.00000000000E+00 0.  1.
<mgrwt>
<rscale>  0 0.14698929E+03</rscale>
<asrwt>0</asrwt>
<pdfrwt beam="2">  1        1 0.12634782E+00 0.16163780E+03</pdfrwt>
<pdfrwt beam="1">  1       -1 0.88932177E-02 0.16163780E+03</pdfrwt>
<totfact> 0.16099751E+03</totfact>
</mgrwt>
</event>
<event>
 7    1  0.1224355E-005  0.3984150E+03  0.7546771E-02  0.1044330E+00
          1   -1    0    0  501    0  0.00000000000E+00  0.00000000000E+00  0.11290507924E+03  0.11290507924E+03  0.00000000000E+00 0. -1.
         -1   -1    0    0    0  501 -0.00000000000E+00 -0.00000000000E+00 -0.35147780681E+03  0.35147780681E+03  0.00000000000E+00 0.  1.
         23    2    1    2    0    0  0.86635007100E+02  0.30316728977E+02 -0.21658654405E+03  0.25344038795E+03  0.94326935018E+02 0.  0.
          5    1    1    2  502    0 -0.12980558089E+03  0.14516154534E+02  0.24680966051E+02  0.13300920141E+03  0.47000000000E+01 0. -1.
         -5    1    1    2    0  502  0.43170573794E+02 -0.44832883511E+02 -0.46667149566E+02  0.77933296697E+02  0.47000000000E+01 0.  1.
        -11    1    3    3    0    0  0.10262018502E+03  0.42709917756E+02 -0.17751045469E+03  0.20943973112E+03  0.00000000000E+00 0. -1.
         11    1    3    3    0    0 -0.15985177925E+02 -0.12393188780E+02 -0.39076089361E+02  0.44000656826E+02  0.00000000000E+00 0.  1.
<mgrwt>
<rscale>  0 0.39841501E+03</rscale>
<asrwt>0</asrwt>
<pdfrwt beam="1">  1        1 0.17370013E-01 0.39841501E+03</pdfrwt>
<pdfrwt beam="2">  1       -1 0.54073508E-01 0.39841501E+03</pdfrwt>
<totfact> 0.10936352E+03</totfact>
</mgrwt>
</event>
<event>
 8    1  0.1224355E-005  0.1317374E+03  0.7546771E-02  0.1238122E+00
         -2   -1    0    0    0  501 -0.00000000000E+00  0.00000000000E+00  0.25313599124E+02  0.25313599124E+02  0.00000000000E+00 0.  1.
          2   -1    0    0  501    0  0.00000000000E+00 -0.00000000000E+00 -0.65134542260E+03  0.65134542260E+03  0.00000000000E+00 0. -1.
         23    2    1    2    0    0 -0.70870866571E+01  0.40899202798E+02 -0.13461677532E+03  0.16789238100E+03  0.91341139771E+02 0.  0.
         23    2    1    2    0    0  0.70870866571E+01 -0.40899202798E+02 -0.49141504816E+03  0.50876664073E+03  0.12502709134E+03 0.  0.
          5    1    4    4  502    0 -0.25760443869E+02 -0.73978391611E+02 -0.37789665963E+03  0.38595903702E+03  0.47000000000E+01 0. -1.
         -5    1    4    4    0  502  0.32847530526E+02  0.33079188813E+02 -0.11351838853E+03  0.12280760371E+03  0.47000000000E+01 0. -1.
        -11    1    3    3    0    0 -0.47735897766E+02  0.14805069559E+02 -0.85280922562E+02  0.98847062542E+02  0.00000000000E+00 0. -1.
         11    1    3    3    0    0  0.40648811109E+02  0.26094133239E+02 -0.49335852755E+02  0.69045318459E+02  0.00000000000E+00 0.  1.
<mgrwt>
<rscale>  0 0.12306651E+03</rscale>
<asrwt>0</asrwt>
<pdfrwt beam="2">  1        2 0.10020698E+00 0.13173741E+03</pdfrwt>
<pdfrwt beam="1">  1       -2 0.38944003E-02 0.13173741E+03</pdfrwt>
<totfact> 0.12453464E+04</totfact>
</mgrwt>
</event>
<event>
 7    1  0.1224355E-005  0.1656514E+03  0.7546771E-02  0.1197156E+00
         -2   -1    0    0    0  501 -0.00000000000E+00  0.00000000000E+00  0.43115981091E+03  0.43115981091E+03  0.00000000000E+00 0.  1.
          2   -1    0    0  501    0  0.00000000000E+00 -0.00000000000E+00 -0.51270867222E+02  0.51270867222E+02  0.00000000000E+00 0. -1.
         23    2    1    2    0    0  0.33651161256E+02  0.70732345073E+02  0.22879933189E+03  0.25822440288E+03  0.90527579643E+02 0.  0.
          5    1    1    2  502    0 -0.29753871396E+02 -0.76613279582E+02  0.10074474284E+02  0.82936557099E+02  0.47000000000E+01 0. -1.
         -5    1    1    2    0  502 -0.38972898606E+01  0.58809345092E+01  0.14101513752E+03  0.14126971816E+03  0.47000000000E+01 0.  1.
        -11    1    3    3    0    0  0.44564201829E+02  0.29013626273E+02  0.19855644408E+03  0.20555393472E+03  0.00000000000E+00 0.  1.
         11    1    3    3    0    0 -0.10913040573E+02  0.41718718800E+02  0.30242887810E+02  0.52670468158E+02  0.00000000000E+00 0. -1.
<mgrwt>
<rscale>  0 0.15273191E+03</rscale>
<asrwt>0</asrwt>
<pdfrwt beam="2">  1        2 0.78878260E-02 0.16565139E+03</pdfrwt>
<pdfrwt beam="1">  1       -2 0.66332276E-01 0.16565139E+03</pdfrwt>
<totfact> 0.18088148E+03</totfact>
</mgrwt>
</event>
<event>
 8    1  0.1224355E-005  0.1359470E+03  0.7546771E-02  0.1228098E+00
         -1   -1    0    0    0  501 -0.00000000000E+00  0.00000000000E+00  0.34113390045E+02  0.34113390045E+02  0.00000000000E+00 0.  1.
          1   -1    0    0  501    0  0.00000000000E+00 -0.00000000000E+00 -0.47748064806E+03  0.47748064806E+03  0.00000000000E+00 0. -1.
         23    2    1    2    0    0  0.27761633178E+02 -0.45671890111E+02 -0.14182155015E+03  0.18082011276E+03  0.98620136223E+02 0.  0.
         23    2    1    2    0    0 -0.27761633178E+02  0.45671890111E+02 -0.30154570786E+03  0.33077392534E+03  0.12499978373E+03 0.  0.
          5    1    4    4  502    0  0.39151486975E+02  0.18500897670E+02 -0.39099555092E+02  0.58531934492E+02  0.47000000000E+01 0.  1.
         -5    1    4    4    0  502 -0.66913120153E+02  0.27170992441E+02 -0.26244615277E+03  0.27224199085E+03  0.47000000000E+01 0.  1.
        -11    1    3    3    0    0  0.11413513870E+02 -0.58515429450E+02 -0.29364464283E+02  0.66457471703E+02  0.00000000000E+00 0.  1.
         11    1    3    3    0    0  0.16348119308E+02  0.12843539339E+02 -0.11245708587E+03  0.11436264106E+03  0.00000000000E+00 0. -1.
<mgrwt>
<rscale>  0 0.12956815E+03</rscale>
<asrwt>0</asrwt>
<pdfrwt beam="2">  1        1 0.73458553E-01 0.13594696E+03</pdfrwt>
<pdfrwt beam="1">  1       -1 0.52482144E-02 0.13594696E+03</pdfrwt>
<totfact> 0.75155478E+03</totfact>
</mgrwt>
</event>
<event>
 8    1  0.1224355E-005  0.1692558E+03  0.7546771E-02  0.1185075E+00
         -2   -1    0    0    0  501 -0.00000000000E+00  0.00000000000E+00  0.22861201352E+03  0.22861201352E+03  0.00000000000E+00 0.  1.
          2   -1    0    0  501    0  0.00000000000E+00 -0.00000000000E+00 -0.11509864425E+03  0.11509864425E+03  0.00000000000E+00 0. -1.
         23    2    1    2    0    0  0.43182131452E+02  0.10563577439E+03  0.92279999156E+02  0.17312818278E+03  0.91837661764E+02 0.  0.
         23    2    1    2    0    0 -0.43182131452E+02 -0.10563577439E+03  0.21233370113E+02  0.17058247499E+03  0.12499564576E+03 0.  0.
          5    1    4    4  502    0  0.33928553245E+02 -0.69210588060E+02  0.33720673799E+02  0.84264025932E+02  0.47000000000E+01 0. -1.
         -5    1    4    4    0  502 -0.77110684697E+02 -0.36425186334E+02 -0.12487303686E+02  0.86318449056E+02  0.47000000000E+01 0. -1.
        -11    1    3    3    0    0  0.57409279874E+02  0.35556206844E+02  0.17710059512E+02  0.69812000893E+02  0.00000000000E+00 0. -1.
         11    1    3    3    0    0 -0.14227148422E+02  0.70079567550E+02  0.74569939644E+02  0.10331618188E+03  0.00000000000E+00 0.  1.
<mgrwt>
<rscale>  0 0.16325096E+03</rscale>
<asrwt>0</asrwt>
<pdfrwt beam="2">  1        2 0.17707484E-01 0.16925580E+03</pdfrwt>
<pdfrwt beam="1">  1       -2 0.35171079E-01 0.16925580E+03</pdfrwt>
<totfact> 0.23809385E+03</totfact>
</mgrwt>
</event>
<event>
 7    1  0.1224355E-005  0.1525545E+03  0.7546771E-02  0.1218024E+00
          1   -1    0    0  501    0  0.00000000000E+00  0.00000000000E+00  0.14273989543E+03  0.14273989543E+03  0.00000000000E+00 0. -1.
         -1   -1    0    0    0  501 -0.00000000000E+00 -0.00000000000E+00 -0.11120920142E+03  0.11120920142E+03  0.00000000000E+00 0.  1.
         23    2    1    2    0    0 -0.19124709272E+02 -0.21399195768E+02  0.25669403401E+02  0.10128203950E+03  0.93677388791E+02 0.  0.
          5    1    1    2  502    0  0.26353846955E+02  0.25786746931E+01  0.75431389098E+02  0.80082203227E+02  0.47000000000E+01 0. -1.
         -5    1    1    2    0  502 -0.72291376826E+01  0.18820521075E+02 -0.69570098480E+02  0.72584854120E+02  0.47000000000E+01 0.  1.
        -11    1    3    3    0    0  0.30831867459E+02  0.13097017229E+02 -0.39535915660E+01  0.33730798947E+02  0.00000000000E+00 0. -1.
         11    1    3    3    0    0 -0.49956576732E+02 -0.34496212997E+02  0.29622994967E+02  0.67551240556E+02  0.00000000000E+00 0.  1.
<mgrwt>
<rscale>  0 0.13656763E+03</rscale>
<asrwt>0</asrwt>
<pdfrwt beam="1">  1        1 0.21959984E-01 0.15255450E+03</pdfrwt>
<pdfrwt beam="2">  1       -1 0.17109108E-01 0.15255450E+03</pdfrwt>
<totfact> 0.56456669E+03</totfact>
</mgrwt>
</event>
<event>
 8    1  0.1224355E-005  0.1408016E+03  0.7546771E-02  0.1227088E+00
         -2   -1    0    0    0  501 -0.00000000000E+00  0.00000000000E+00  0.35655531063E+02  0.35655531063E+02  0.00000000000E+00 0.  1.
          2   -1    0    0  501    0  0.00000000000E+00 -0.00000000000E+00 -0.42539337819E+03  0.42539337819E+03  0.00000000000E+00 0. -1.
         23    2    1    2    0    0  0.47508381567E+02 -0.44094008288E+02 -0.13354140339E+03  0.16871058618E+03  0.80178722759E+02 0.  0.
         23    2    1    2    0    0 -0.47508381567E+02  0.44094008288E+02 -0.25619644373E+03  0.29233832307E+03  0.12499499778E+03 0.  0.
          5    1    4    4  502    0 -0.64940388460E+02 -0.27516426328E+01 -0.22256640151E+03  0.23191101456E+03  0.47000000000E+01 0. -1.
         -5    1    4    4    0  502  0.17432006893E+02  0.46845650920E+02 -0.33630042217E+02  0.60427308512E+02  0.47000000000E+01 0. -1.
        -11    1    3    3    0    0  0.49143387768E+02  0.59378123590E+01 -0.88343421892E+02  0.10126643258E+03  0.00000000000E+00 0. -1.
         11    1    3    3    0    0 -0.16350062006E+01 -0.50031820647E+02 -0.45197981502E+02  0.67444153597E+02  0.00000000000E+00 0.  1.
<mgrwt>
<rscale>  0 0.13024829E+03</rscale>
<asrwt>0</asrwt>
<pdfrwt beam="2">  1        2 0.65445136E-01 0.14080155E+03</pdfrwt>
<pdfrwt beam="1">  1       -2 0.54854663E-02 0.14080155E+03</pdfrwt>
<totfact> 0.12033734E+04</totfact>
</mgrwt>
</event>
<event>
 8    1  0.1224355E-005  0.1959330E+03  0.7546771E-02  0.1160016E+00
          1   -1    0    0  501    0  0.00000000000E+00  0.00000000000E+00  0.33048595591E+03  0.33048595591E+03  0.00000000000E+00 0. -1.
         -1   -1    0    0    0  501 -0.00000000000E+00 -0.00000000000E+00 -0.10665839251E+03  0.10665839251E+03  0.00000000000E+00 0.  1.
         23    2    1    2    0    0  0.13125451318E+03 -0.74407558524E+02  0.15930254158E+03  0.23086007095E+03  0.71797218691E+02 0.  0.
         23    2    1    2    0    0 -0.13125451318E+03  0.74407558524E+02  0.64525021819E+02  0.20628427747E+03  0.12500197077E+03 0.  0.
          5    1    4    4  502    0 -0.71784938644E+02  0.37676720926E+02 -0.31770687454E+02  0.87201372106E+02  0.47000000000E+01 0.  1.
         -5    1    4    4    0  502 -0.59469574534E+02  0.36730837598E+02  0.96295709273E+02  0.11908290537E+03  0.47000000000E+01 0.  1.
        -11    1    3    3    0    0  0.35255779717E+02 -0.43666832354E+02  0.21443328577E+02  0.60079768572E+02  0.00000000000E+00 0.  1.
         11    1    3    3    0    0  0.95998733461E+02 -0.30740726170E+02  0.13785921300E+03  0.17078030238E+03  0.00000000000E+00 0. -1.
<mgrwt>
<rscale>  0 0.18828609E+03</rscale>
<asrwt>0</asrwt>
<pdfrwt beam="1">  1        1 0.50843993E-01 0.19593296E+03</pdfrwt>
<pdfrwt beam="2">  1       -1 0.16408984E-01 0.19593296E+03</pdfrwt>
<totfact> 0.21310564E+03</totfact>
</mgrwt>
</event>
<event>
 8    1  0.1224355E-005  0.2363557E+03  0.7546771E-02  0.1125048E+00
         -2   -1    0    0    0  501 -0.00000000000E+00  0.00000000000E+00  0.92419878104E+02  0.92419878104E+02  0.00000000000E+00 0.  1.
          2   -1    0    0  501    0  0.00000000000E+00 -0.00000000000E+00 -0.60524771861E+03  0.60524771861E+03  0.00000000000E+00 0. -1.
         23    2    1    2    0    0  0.11300764676E+03  0.16573690601E+03 -0.15761236301E+03  0.27100372931E+03  0.91443502156E+02 0.  0.
         23    2    1    2    0    0 -0.11300764676E+03 -0.16573690601E+03 -0.35521547750E+03  0.42666386741E+03  0.12499828021E+03 0.  0.
          5    1    4    4  502    0 -0.19146937531E+02 -0.80082122324E+02 -0.51063197210E+02  0.97001503297E+02  0.47000000000E+01 0. -1.
         -5    1    4    4    0  502 -0.93860709228E+02 -0.85654783686E+02 -0.30415228029E+03  0.32966236411E+03  0.47000000000E+01 0. -1.
        -11    1    3    3    0    0  0.32896003254E+02  0.11500792872E+03 -0.56192847269E+02  0.13216129079E+03  0.00000000000E+00 0.  1.
         11    1    3    3    0    0  0.80111643506E+02  0.50728977292E+02 -0.10141951574E+03  0.13884243852E+03  0.00000000000E+00 0. -1.
<mgrwt>
<rscale>  0 0.23227669E+03</rscale>
<asrwt>0</asrwt>
<pdfrwt beam="2">  1        2 0.93115032E-01 0.23635571E+03</pdfrwt>
<pdfrwt beam="1">  1       -2 0.14218443E-01 0.23635571E+03</pdfrwt>
<totfact> 0.18627529E+03</totfact>
</mgrwt>
</event>
<event>
 8    1  0.1224355E-005  0.2013773E+03  0.7546771E-02  0.1152764E+00
         -1   -1    0    0    0  501 -0.00000000000E+00  0.00000000000E+00  0.64548336541E+02  0.64548336541E+02  0.00000000000E+00 0.  1.
          1   -1    0    0  501    0  0.00000000000E+00 -0.00000000000E+00 -0.64432867238E+03  0.64432867238E+03  0.00000000000E+00 0. -1.
         23    2    1    2    0    0 -0.13439846768E+03  0.82897963270E+02 -0.15731139379E+03  0.24086758405E+03  0.91297853208E+02 0.  0.
         23    2    1    2    0    0  0.13439846768E+03 -0.82897963270E+02 -0.42246894205E+03  0.46800942488E+03  0.12497117405E+03 0.  0.
          5    1    4    4  502    0  0.50550319143E+02  0.13589388820E+02 -0.44112695451E+02  0.68615057778E+02  0.47000000000E+01 0. -1.
         -5    1    4    4    0  502  0.83848148537E+02 -0.96487352090E+02 -0.37835624660E+03  0.39939436710E+03  0.47000000000E+01 0. -1.
        -11    1    3    3    0    0 -0.88662459973E+02  0.45306629396E+02 -0.35990791889E+02  0.10587284627E+03  0.00000000000E+00 0.  1.
         11    1    3    3    0    0 -0.45736007706E+02  0.37591333874E+02 -0.12132060190E+03  0.13499473778E+03  0.00000000000E+00 0. -1.
<mgrwt>
<rscale>  0 0.19645586E+03</rscale>
<asrwt>0</asrwt>
<pdfrwt beam="2">  1        1 0.99127490E-01 0.20137729E+03</pdfrwt>
<pdfrwt beam="1">  1       -1 0.99305131E-02 0.20137729E+03</pdfrwt>
<totfact> 0.19475343E+03</totfact>
</mgrwt>
</event>
<event>
 8    1  0.1224355E-005  0.1346643E+03  0.7546771E-02  0.1233699E+00
          2   -1    0    0  501    0  0.00000000000E+00  0.00000000000E+00  0.35530532592E+03  0.35530532592E+03  0.00000000000E+00 0.  1.
         -2   -1    0    0    0  501 -0.00000000000E+00 -0.00000000000E+00 -0.40448652606E+02  0.40448652606E+02  0.00000000000E+00 0. -1.
         23    2    1    2    0    0  0.44445667401E+02 -0.23136521145E+02  0.16369145551E+03  0.19330547624E+03  0.89785291544E+02 0.  0.
         23    2    1    2    0    0 -0.44445667401E+02  0.23136521145E+02  0.15116521781E+03  0.20244850228E+03  0.12499502807E+03 0.  0.
          5    1    4    4  502    0 -0.63950995150E+02 -0.34779233500E+02  0.90096902990E+02  0.11592612644E+03  0.47000000000E+01 0.  1.
         -5    1    4    4    0  502  0.19505327749E+02  0.57915754645E+02  0.61068314817E+02  0.86522375842E+02  0.47000000000E+01 0.  1.
        -11    1    3    3    0    0  0.11654622496E+02  0.31162250902E+02  0.90664559363E+02  0.96576282965E+02  0.00000000000E+00 0.  1.
         11    1    3    3    0    0  0.32791044905E+02 -0.54298772046E+02  0.73026896147E+02  0.96729193280E+02  0.00000000000E+00 0. -1.
<mgrwt>
<rscale>  0 0.12588083E+03</rscale>
<asrwt>0</asrwt>
<pdfrwt beam="1">  1        2 0.54662356E-01 0.13466430E+03</pdfrwt>
<pdfrwt beam="2">  1       -2 0.62228699E-02 0.13466430E+03</pdfrwt>
<totfact> 0.12008747E+04</totfact>
</mgrwt>
</event>
<event>
 7    1  0.1224355E-005  0.4956468E+03  0.7546771E-02  0.1014921E+00
          2   -1    0    0  501    0  0.00000000000E+00  0.00000000000E+00  0.10206504542E+04  0.10206504542E+04  0.00000000000E+00 0. -1.
         -2   -1    0    0    0  501 -0.00000000000E+00 -0.00000000000E+00 -0.60173818930E+02  0.60173818930E+02  0.00000000000E+00 0.  1.
         23    2    1    2    0    0  0.11008991418E+03  0.11404242727E+03  0.28956731962E+03  0.34459443098E+03  0.98846471102E+02 0.  0.
          5    1    1    2  502    0 -0.15995990443E+03 -0.74893773878E+02  0.64293789770E+03  0.66677393372E+03  0.47000000000E+01 0. -1.
         -5    1    1    2    0  502  0.49869990250E+02 -0.39148653389E+02  0.27971417904E+02  0.69455908383E+02  0.47000000000E+01 0.  1.
        -11    1    3    3    0    0 -0.12250470953E+02  0.25791006711E+01  0.61749233152E+02  0.63005504471E+02  0.00000000000E+00 0. -1.
         11    1    3    3    0    0  0.12234038513E+03  0.11146332660E+03  0.22781808647E+03  0.28158892651E+03  0.00000000000E+00 0.  1.
<mgrwt>
<rscale>  0 0.49564679E+03</rscale>
<asrwt>0</asrwt>
<pdfrwt beam="1">  1        2 0.15702313E+00 0.49564679E+03</pdfrwt>
<pdfrwt beam="2">  1       -2 0.92575114E-02 0.49564679E+03</pdfrwt>
<totfact> 0.19132226E+03</totfact>
</mgrwt>
</event>
<event>
 8    1  0.1224355E-005  0.2158635E+03  0.7546771E-02  0.1140609E+00
          2   -1    0    0  501    0  0.00000000000E+00  0.00000000000E+00  0.87453475777E+03  0.87453475777E+03  0.00000000000E+00 0.  1.
         -2   -1    0    0    0  501 -0.00000000000E+00 -0.00000000000E+00 -0.13008494148E+03  0.13008494148E+03  0.00000000000E+00 0. -1.
         23    2    1    2    0    0  0.15247021636E+03 -0.87885789305E+02 -0.30477274442E+02  0.20018881731E+03  0.90419132271E+02 0.  0.
         23    2    1    2    0    0 -0.15247021636E+03  0.87885789305E+02  0.77492709073E+03  0.80443088194E+03  0.12500387607E+03 0.  0.
          5    1    4    4  502    0 -0.32610994829E+02 -0.49626618970E+01  0.37866581348E+03  0.38012891668E+03  0.47000000000E+01 0. -1.
         -5    1    4    4    0  502 -0.11985922153E+03  0.92848451202E+02  0.39626127725E+03  0.42430196526E+03  0.47000000000E+01 0. -1.
        -11    1    3    3    0    0  0.84943575718E+02  0.25584360384E+01 -0.13478900000E+02  0.86044392008E+02  0.00000000000E+00 0. -1.
         11    1    3    3    0    0  0.67526640642E+02 -0.90444225343E+02 -0.16998374442E+02  0.11414442530E+03  0.00000000000E+00 0.  1.
<mgrwt>
<rscale>  0 0.21121332E+03</rscale>
<asrwt>0</asrwt>
<pdfrwt beam="1">  1        2 0.13454381E+00 0.21586349E+03</pdfrwt>
<pdfrwt beam="2">  1       -2 0.20013068E-01 0.21586349E+03</pdfrwt>
<totfact> 0.66755789E+02</totfact>
</mgrwt>
</event>
<event>
 8    1  0.1224355E-005  0.1264213E+03  0.7546771E-02  0.1247536E+00
          1   -1    0    0  501    0  0.00000000000E+00  0.00000000000E+00  0.55598620840E+02  0.55598620840E+02  0.00000000000E+00 0. -1.
         -1   -1    0    0    0  501 -0.00000000000E+00 -0.00000000000E+00 -0.25454653244E+03  0.25454653244E+03  0.00000000000E+00 0.  1.
         23    2    1    2    0    0  0.33586957162E+01  0.18618576469E+02 -0.14493410634E+03  0.17266851931E+03  0.91927091511E+02 0.  0.
         23    2    1    2    0    0 -0.33586957162E+01 -0.18618576469E+02 -0.54013805258E+02  0.13747663397E+03  0.12499760598E+03 0.  0.
          5    1    4    4  502    0  0.10396444242E+02 -0.55056412532E+02 -0.74407435708E+02  0.93262270519E+02  0.47000000000E+01 0. -1.
         -5    1    4    4    0  502 -0.13755139958E+02  0.36437836063E+02  0.20393630450E+02  0.44214363448E+02  0.47000000000E+01 0. -1.
        -11    1    3    3    0    0  0.28684133985E+02 -0.28118155959E+02 -0.71560212035E+02  0.82062623547E+02  0.00000000000E+00 0.  1.
         11    1    3    3    0    0 -0.25325438269E+02  0.46736732428E+02 -0.73373894305E+02  0.90605895763E+02  0.00000000000E+00 0. -1.
<mgrwt>
<rscale>  0 0.11734861E+03</rscale>
<asrwt>0</asrwt>
<pdfrwt beam="1">  1        1 0.85536340E-02 0.12642126E+03</pdfrwt>
<pdfrwt beam="2">  1       -1 0.39161005E-01 0.12642126E+03</pdfrwt>
<totfact> 0.48331416E+03</totfact>
</mgrwt>
</event>
<event>
 8    1  0.1224355E-005  0.1693852E+03  0.7546771E-02  0.1184567E+00
         -2   -1    0    0    0  501 -0.00000000000E+00  0.00000000000E+00  0.52863384163E+03  0.52863384163E+03  0.00000000000E+00 0. -1.
          2   -1    0    0  501    0  0.00000000000E+00 -0.00000000000E+00 -0.52658432797E+02  0.52658432797E+02  0.00000000000E+00 0.  1.
         23    2    1    2    0    0  0.85523581765E+02  0.75842220640E+02  0.31341283393E+03  0.34652017851E+03  0.93713948664E+02 0.  0.
         23    2    1    2    0    0 -0.85523581765E+02 -0.75842220640E+02  0.16256257490E+03  0.23477209592E+03  0.12500008317E+03 0.  0.
          5    1    4    4  502    0 -0.48499513927E+02  0.18642482418E+02  0.10685736360E+03  0.11891312441E+03  0.47000000000E+01 0.  1.
         -5    1    4    4    0  502 -0.37024067838E+02 -0.94484703058E+02  0.55705211302E+02  0.11585897150E+03  0.47000000000E+01 0.  1.
        -11    1    3    3    0    0  0.74101241597E+01  0.52478217772E+02  0.58745114905E+02  0.79119288456E+02  0.00000000000E+00 0.  1.
         11    1    3    3    0    0  0.78113457605E+02  0.23364002868E+02  0.25466771903E+03  0.26740089006E+03  0.00000000000E+00 0. -1.
<mgrwt>
<rscale>  0 0.16371355E+03</rscale>
<asrwt>0</asrwt>
<pdfrwt beam="2">  1        2 0.81012977E-02 0.16938520E+03</pdfrwt>
<pdfrwt beam="1">  1       -2 0.81328280E-01 0.16938520E+03</pdfrwt>
<totfact> 0.11282740E+03</totfact>
</mgrwt>
</event>
<event>
 8    1  0.1224355E-005  0.1906320E+03  0.7546771E-02  0.1162640E+00
          2   -1    0    0  501    0  0.00000000000E+00  0.00000000000E+00  0.74692655378E+03  0.74692655378E+03  0.00000000000E+00 0. -1.
         -2   -1    0    0    0  501 -0.00000000000E+00 -0.00000000000E+00 -0.45462711465E+02  0.45462711465E+02  0.00000000000E+00 0.  1.
         23    2    1    2    0    0  0.11786824632E+03 -0.82592200438E+02  0.25418681036E+03  0.30618219171E+03  0.91772571600E+02 0.  0.
         23    2    1    2    0    0 -0.11786824632E+03  0.82592200438E+02  0.44727703195E+03  0.48620707353E+03  0.12500471981E+03 0.  0.
          5    1    4    4  502    0 -0.15128882126E+02 -0.67215608900E+01 -0.14413510529E+01  0.17269335483E+02  0.47000000000E+01 0. -1.
         -5    1    4    4    0  502 -0.10273936419E+03  0.89313761328E+02  0.44871838301E+03  0.46893773805E+03  0.47000000000E+01 0. -1.
        -11    1    3    3    0    0  0.39456327255E+02 -0.74521419094E+02  0.17599670838E+03  0.19515400336E+03  0.00000000000E+00 0. -1.
         11    1    3    3    0    0  0.78411919063E+02 -0.80707813442E+01  0.78190101975E+02  0.11102818836E+03  0.00000000000E+00 0.  1.
<mgrwt>
<rscale>  0 0.18543930E+03</rscale>
<asrwt>0</asrwt>
<pdfrwt beam="1">  1        2 0.11491177E+00 0.19063204E+03</pdfrwt>
<pdfrwt beam="2">  1       -2 0.69942638E-02 0.19063204E+03</pdfrwt>
<totfact> 0.44501484E+03</totfact>
</mgrwt>
</event>
<event>
 8    1  0.1224355E-005  0.1380594E+03  0.7546771E-02  0.1227640E+00
         -2   -1    0    0    0  501 -0.00000000000E+00  0.00000000000E+00  0.20525329721E+02  0.20525329721E+02  0.00000000000E+00 0.  1.
          2   -1    0    0  501    0  0.00000000000E+00 -0.00000000000E+00 -0.73920750051E+03  0.73920750051E+03  0.00000000000E+00 0. -1.
         23    2    1    2    0    0 -0.36614214591E+02  0.45768079232E+02 -0.30167857659E+03  0.32046936006E+03  0.90858843131E+02 0.  0.
         23    2    1    2    0    0  0.36614214591E+02 -0.45768079232E+02 -0.41700359420E+03  0.43926347017E+03  0.12500032347E+03 0.  0.
          5    1    4    4  502    0  0.36731904185E+02  0.11384605686E+02 -0.32678171447E+02  0.50683280486E+02  0.47000000000E+01 0.  1.
         -5    1    4    4    0  502 -0.11768959423E+00 -0.57152684918E+02 -0.38432542275E+03  0.38858018969E+03  0.47000000000E+01 0.  1.
        -11    1    3    3    0    0 -0.32386558654E+01 -0.26802415526E+02 -0.99097811807E+02  0.10270946731E+03  0.00000000000E+00 0. -1.
         11    1    3    3    0    0 -0.33375558725E+02  0.72570494758E+02 -0.20258076478E+03  0.21775989275E+03  0.00000000000E+00 0.  1.
<mgrwt>
<rscale>  0 0.12987612E+03</rscale>
<asrwt>0</asrwt>
<pdfrwt beam="2">  1        2 0.11372422E+00 0.13805940E+03</pdfrwt>
<pdfrwt beam="1">  1       -2 0.31577432E-02 0.13805940E+03</pdfrwt>
<totfact> 0.14663625E+04</totfact>
</mgrwt>
</event>
<event>
 7    1  0.1224355E-005  0.1535834E+03  0.7546771E-02  0.1198244E+00
          2   -1    0    0  501    0  0.00000000000E+00  0.00000000000E+00  0.31192813410E+03  0.31192813410E+03  0.00000000000E+00 0. -1.
         -2   -1    0    0    0  501 -0.00000000000E+00 -0.00000000000E+00 -0.12769489177E+03  0.12769489177E+03  0.00000000000E+00 0.  1.
         23    2    1    2    0    0  0.76677954876E+02  0.32345039069E+01  0.23572594510E+03  0.27763730498E+03  0.12500312452E+03 0.  0.
          5    1    3    3  502    0  0.69142112898E+02 -0.30704047332E+02  0.55286717542E+02  0.93819408627E+02  0.47000000000E+01 0. -1.
         -5    1    3    3    0  502  0.75358419785E+01  0.33938551239E+02  0.18043922756E+03  0.18381789635E+03  0.47000000000E+01 0. -1.
        -11    1    1    2    0    0  0.26553467428E+02 -0.10461437400E+02 -0.51066730199E+02  0.58500762714E+02  0.00000000000E+00 0.  1.
         11    1    1    2    0    0 -0.10323142230E+03  0.72269334935E+01 -0.42597257463E+00  0.10348495819E+03  0.00000000000E+00 0. -1.
<mgrwt>
<rscale>  0 0.15182835E+03</rscale>
<asrwt>0</asrwt>
<pdfrwt beam="1">  1        2 0.47988944E-01 0.15358345E+03</pdfrwt>
<pdfrwt beam="2">  1       -2 0.19645368E-01 0.15358345E+03</pdfrwt>
<totfact> 0.22250251E+03</totfact>
</mgrwt>
</event>
<event>
 8    1  0.1224355E-005  0.1298550E+03  0.7546771E-02  0.1243058E+00
         -1   -1    0    0    0  501 -0.00000000000E+00  0.00000000000E+00  0.23200143544E+03  0.23200143544E+03  0.00000000000E+00 0.  1.
          1   -1    0    0  501    0  0.00000000000E+00 -0.00000000000E+00 -0.56502043785E+02  0.56502043785E+02  0.00000000000E+00 0. -1.
         23    2    1    2    0    0  0.33985497729E+02  0.86500464312E+01  0.10223517866E+03  0.13940629851E+03  0.88046845193E+02 0.  0.
         23    2    1    2    0    0 -0.33985497729E+02 -0.86500464312E+01  0.73264212993E+02  0.14909718072E+03  0.12502994455E+03 0.  0.
          5    1    4    4  502    0 -0.29781471814E+02  0.16268278417E+02 -0.28234440085E+02  0.44394442817E+02  0.47000000000E+01 0.  1.
         -5    1    4    4    0  502 -0.42040259148E+01 -0.24918324848E+02  0.10149865308E+03  0.10470273790E+03  0.47000000000E+01 0.  1.
        -11    1    3    3    0    0 -0.24132367545E+02  0.70894926932E-01  0.66262087608E+02  0.70519787603E+02  0.00000000000E+00 0.  1.
         11    1    3    3    0    0  0.58117865274E+02  0.85791515043E+01  0.35973091051E+02  0.68886510903E+02  0.00000000000E+00 0. -1.
<mgrwt>
<rscale>  0 0.12002347E+03</rscale>
<asrwt>0</asrwt>
<pdfrwt beam="2">  1        1 0.86926222E-02 0.12985501E+03</pdfrwt>
<pdfrwt beam="1">  1       -1 0.35692528E-01 0.12985501E+03</pdfrwt>
<totfact> 0.55643603E+03</totfact>
</mgrwt>
</event>
<event>
 8    1  0.1224355E-005  0.1267995E+03  0.7546771E-02  0.1246939E+00
         -1   -1    0    0    0  501 -0.00000000000E+00  0.00000000000E+00  0.33202734073E+02  0.33202734073E+02  0.00000000000E+00 0.  1.
          1   -1    0    0  501    0  0.00000000000E+00 -0.00000000000E+00 -0.41567261534E+03  0.41567261534E+03  0.00000000000E+00 0. -1.
         23    2    1    2    0    0  0.41822763500E+01  0.20861685615E+02 -0.90608520802E+02  0.13065973738E+03  0.91702571221E+02 0.  0.
         23    2    1    2    0    0 -0.41822763500E+01 -0.20861685615E+02 -0.29186136047E+03  0.31821561203E+03  0.12500168257E+03 0.  0.
          5    1    4    4  502    0  0.26617325729E+02  0.42505392310E+02 -0.76681305359E+02  0.91745860920E+02  0.47000000000E+01 0.  1.
         -5    1    4    4    0  502 -0.30799602079E+02 -0.63367077925E+02 -0.21518005511E+03  0.22646975111E+03  0.47000000000E+01 0.  1.
        -11    1    3    3    0    0  0.43259750091E+02  0.12929568223E+02 -0.75595741634E+02  0.88052801577E+02  0.00000000000E+00 0. -1.
         11    1    3    3    0    0 -0.39077473741E+02  0.79321173918E+01 -0.15012779168E+02  0.42606935805E+02  0.00000000000E+00 0.  1.
<mgrwt>
<rscale>  0 0.11770099E+03</rscale>
<asrwt>0</asrwt>
<pdfrwt beam="2">  1        1 0.63949634E-01 0.12679953E+03</pdfrwt>
<pdfrwt beam="1">  1       -1 0.51081128E-02 0.12679953E+03</pdfrwt>
<totfact> 0.92938989E+03</totfact>
</mgrwt>
</event>
<event>
 8    1  0.1224355E-005  0.2134097E+03  0.7546771E-02  0.1142416E+00
          4   -1    0    0  501    0  0.00000000000E+00  0.00000000000E+00  0.62809424972E+02  0.62809424972E+02  0.00000000000E+00 0. -1.
         -4   -1    0    0    0  501 -0.00000000000E+00 -0.00000000000E+00 -0.67877557988E+03  0.67877557988E+03  0.00000000000E+00 0.  1.
         23    2    1    2    0    0  0.98139676609E+02  0.14243251750E+03 -0.34327979328E+03  0.39531699837E+03  0.92282688296E+02 0.  0.
         23    2    1    2    0    0 -0.98139676609E+02 -0.14243251750E+03 -0.27268636162E+03  0.34626800648E+03  0.12500104931E+03 0.  0.
          5    1    4    4  502    0 -0.12769319994E+03 -0.11199382303E+03 -0.20520212109E+03  0.26641728587E+03  0.47000000000E+01 0.  1.
         -5    1    4    4    0  502  0.29553523331E+02 -0.30438694466E+02 -0.67484240529E+02  0.79850720609E+02  0.47000000000E+01 0.  1.
        -11    1    3    3    0    0  0.29200617235E+02  0.58330579464E+02 -0.22666905345E+03  0.23586859125E+03  0.00000000000E+00 0.  1.
         11    1    3    3    0    0  0.68939059375E+02  0.84101938033E+02 -0.11661073983E+03  0.15944840712E+03  0.00000000000E+00 0. -1.
<mgrwt>
<rscale>  0 0.20892996E+03</rscale>
<asrwt>0</asrwt>
<pdfrwt beam="1">  1        4 0.96629886E-02 0.21340965E+03</pdfrwt>
<pdfrwt beam="2">  1       -4 0.10442701E+00 0.21340965E+03</pdfrwt>
<totfact> 0.11138280E+02</totfact>
</mgrwt>
</event>
<event>
 8    1  0.1224355E-005  0.1270655E+03  0.7546771E-02  0.1247620E+00
         -2   -1    0    0    0  501 -0.00000000000E+00  0.00000000000E+00  0.12990142267E+02  0.12990142267E+02  0.00000000000E+00 0. -1.
          2   -1    0    0  501    0  0.00000000000E+00 -0.00000000000E+00 -0.94408476695E+03  0.94408476695E+03  0.00000000000E+00 0.  1.
         23    2    1    2    0    0  0.40029607294E+01  0.22466586373E+02 -0.32758420784E+03  0.34033310099E+03  0.89411605532E+02 0.  0.
         23    2    1    2    0    0 -0.40029607294E+01 -0.22466586373E+02 -0.60351041684E+03  0.61674180822E+03  0.12499945433E+03 0.  0.
          5    1    4    4  502    0  0.38495171026E+01 -0.59679430720E+02 -0.53407504650E+03  0.53743343636E+03  0.47000000000E+01 0.  1.
         -5    1    4    4    0  502 -0.78524778320E+01  0.37212844347E+02 -0.69435370340E+02  0.79308371858E+02  0.47000000000E+01 0.  1.
        -11    1    3    3    0    0  0.32618455183E+02 -0.20919185234E+02 -0.17150335943E+03  0.17582655722E+03  0.00000000000E+00 0.  1.
         11    1    3    3    0    0 -0.28615494454E+02  0.43385771607E+02 -0.15608084841E+03  0.16450654377E+03  0.00000000000E+00 0. -1.
<mgrwt>
<rscale>  0 0.11729921E+03</rscale>
<asrwt>0</asrwt>
<pdfrwt beam="2">  1        2 0.14524380E+00 0.12706547E+03</pdfrwt>
<pdfrwt beam="1">  1       -2 0.19984836E-02 0.12706547E+03</pdfrwt>
<totfact> 0.20855227E+04</totfact>
</mgrwt>
</event>
<event>
 7    1  0.1224355E-005  0.1837276E+03  0.7546771E-02  0.1171171E+00
          2   -1    0    0  501    0  0.00000000000E+00  0.00000000000E+00  0.16465650241E+04  0.16465650241E+04  0.00000000000E+00 0. -1.
         -2   -1    0    0    0  501 -0.00000000000E+00 -0.00000000000E+00 -0.25770369195E+02  0.25770369195E+02  0.00000000000E+00 0.  1.
         23    2    1    2    0    0 -0.80603902923E+02  0.99917671402E+02  0.29656681715E+03  0.33542283416E+03  0.89866959557E+02 0.  0.
          5    1    1    2  502    0  0.35939034798E+02  0.26367857097E+02  0.48282075795E+03  0.48489674408E+03  0.47000000000E+01 0. -1.
         -5    1    1    2    0  502  0.44664868125E+02 -0.12628552850E+03  0.84140707985E+03  0.85201581510E+03  0.47000000000E+01 0.  1.
        -11    1    3    3    0    0  0.12782696717E+02  0.48003296666E+02  0.86705732742E+02  0.99927963637E+02  0.00000000000E+00 0.  1.
         11    1    3    3    0    0 -0.93386599639E+02  0.51914374736E+02  0.20986108440E+03  0.23549487052E+03  0.00000000000E+00 0. -1.
<mgrwt>
<rscale>  0 0.17656385E+03</rscale>
<asrwt>0</asrwt>
<pdfrwt beam="1">  1        2 0.25331761E+00 0.18372758E+03</pdfrwt>
<pdfrwt beam="2">  1       -2 0.39646735E-02 0.18372758E+03</pdfrwt>
<totfact> 0.31709428E+03</totfact>
</mgrwt>
</event>
<event>
 8    1  0.1224355E-005  0.1752937E+03  0.7546771E-02  0.1178464E+00
          1   -1    0    0  501    0  0.00000000000E+00  0.00000000000E+00  0.88974122948E+03  0.88974122948E+03  0.00000000000E+00 0. -1.
         -1   -1    0    0    0  501 -0.00000000000E+00 -0.00000000000E+00 -0.32982276854E+02  0.32982276854E+02  0.00000000000E+00 0.  1.
         23    2    1    2    0    0 -0.10946889222E+03  0.55859200747E+02  0.26952474799E+03  0.30988429678E+03  0.90999994180E+02 0.  0.
         23    2    1    2    0    0  0.10946889222E+03 -0.55859200747E+02  0.58723420463E+03  0.61283920955E+03  0.12499678795E+03 0.  0.
          5    1    4    4  502    0  0.18924860995E+02  0.27614051157E+02  0.42328299403E+02  0.54170666558E+02  0.47000000000E+01 0. -1.
         -5    1    4    4    0  502  0.90544031225E+02 -0.83473251903E+02  0.54490590523E+03  0.55866854299E+03  0.47000000000E+01 0. -1.
        -11    1    3    3    0    0 -0.10167639562E+03  0.87937358707E+01  0.15238693306E+03  0.18340446173E+03  0.00000000000E+00 0. -1.
         11    1    3    3    0    0 -0.77924966040E+01  0.47065464876E+02  0.11713781493E+03  0.12647983505E+03  0.00000000000E+00 0.  1.
<mgrwt>
<rscale>  0 0.16941084E+03</rscale>
<asrwt>0</asrwt>
<pdfrwt beam="1">  1        1 0.13688325E+00 0.17529371E+03</pdfrwt>
<pdfrwt beam="2">  1       -1 0.50741971E-02 0.17529371E+03</pdfrwt>
<totfact> 0.33102869E+03</totfact>
</mgrwt>
</event>
<event>
 8    1  0.1224355E-005  0.1858409E+03  0.7546771E-02  0.1167258E+00
          2   -1    0    0  501    0  0.00000000000E+00  0.00000000000E+00  0.36728652457E+03  0.36728652457E+03  0.00000000000E+00 0. -1.
         -2   -1    0    0    0  501 -0.00000000000E+00 -0.00000000000E+00 -0.84416942925E+02  0.84416942925E+02  0.00000000000E+00 0.  1.
         23    2    1    2    0    0  0.77331497207E+02 -0.11371883955E+03  0.14764182371E+03  0.22187004638E+03  0.92282579312E+02 0.  0.
         23    2    1    2    0    0 -0.77331497207E+02  0.11371883955E+03  0.13522775793E+03  0.22983342111E+03  0.12499888006E+03 0.  0.
          5    1    4    4  502    0 -0.33592611131E+02  0.20338737853E+02 -0.19294110257E+02  0.44005459555E+02  0.47000000000E+01 0.  1.
         -5    1    4    4    0  502 -0.43738886075E+02  0.93380101694E+02  0.15452186819E+03  0.18582796155E+03  0.47000000000E+01 0.  1.
        -11    1    3    3    0    0 -0.84553809053E+01 -0.60106397352E+02  0.33417286664E+02  0.69289158726E+02  0.00000000000E+00 0.  1.
         11    1    3    3    0    0  0.85786878112E+02 -0.53612442195E+02  0.11422453705E+03  0.15258088765E+03  0.00000000000E+00 0. -1.
<mgrwt>
<rscale>  0 0.18056382E+03</rscale>
<asrwt>0</asrwt>
<pdfrwt beam="1">  1        2 0.56505619E-01 0.18584094E+03</pdfrwt>
<pdfrwt beam="2">  1       -2 0.12987222E-01 0.18584094E+03</pdfrwt>
<totfact> 0.37336967E+03</totfact>
</mgrwt>
</event>
<event>
 8    1  0.1224355E-005  0.1447154E+03  0.7546771E-02  0.1217190E+00
          2   -1    0    0  501    0  0.00000000000E+00  0.00000000000E+00  0.30627260991E+03  0.30627260991E+03  0.00000000000E+00 0. -1.
         -2   -1    0    0    0  501 -0.00000000000E+00 -0.00000000000E+00 -0.72463741951E+02  0.72463741951E+02  0.00000000000E+00 0.  1.
         23    2    1    2    0    0  0.41690170535E+02 -0.59874362713E+02  0.16961258105E+02  0.11803455710E+03  0.91222051960E+02 0.  0.
         23    2    1    2    0    0 -0.41690170535E+02  0.59874362713E+02  0.21684760985E+03  0.26070179476E+03  0.12497811913E+03 0.  0.
          5    1    4    4  502    0 -0.60628151006E+02  0.36836173564E+02  0.21917816749E+03  0.23042099618E+03  0.47000000000E+01 0.  1.
         -5    1    4    4    0  502  0.18937980470E+02  0.23038189149E+02 -0.23305576376E+01  0.30280798577E+02  0.47000000000E+01 0.  1.
        -11    1    3    3    0    0  0.80138123631E+00 -0.72590178985E+02  0.18244933957E+01  0.72617525937E+02  0.00000000000E+00 0.  1.
         11    1    3    3    0    0  0.40888789299E+02  0.12715816272E+02  0.15136764709E+02  0.45417031163E+02  0.00000000000E+00 0. -1.
<mgrwt>
<rscale>  0 0.13716888E+03</rscale>
<asrwt>0</asrwt>
<pdfrwt beam="1">  1        2 0.47118862E-01 0.14471538E+03</pdfrwt>
<pdfrwt beam="2">  1       -2 0.11148268E-01 0.14471538E+03</pdfrwt>
<totfact> 0.57185465E+03</totfact>
</mgrwt>
</event>
<event>
 8    1  0.1224355E-005  0.2893906E+03  0.7546771E-02  0.1092550E+00
         -2   -1    0    0    0  501 -0.00000000000E+00  0.00000000000E+00  0.27459087988E+02  0.27459087988E+02  0.00000000000E+00 0.  1.
          2   -1    0    0  501    0  0.00000000000E+00 -0.00000000000E+00 -0.37652073332E+04  0.37652073332E+04  0.00000000000E+00 0. -1.
         23    2    1    2    0    0  0.20592833305E+03 -0.16035905342E+03 -0.92642732379E+03  0.96649016184E+03  0.87830190088E+02 0.  0.
         23    2    1    2    0    0 -0.20592833305E+03  0.16035905342E+03 -0.28113209214E+04  0.28261762594E+04  0.12500168534E+03 0.  0.
          5    1    4    4  502    0 -0.12605309771E+03  0.10793892402E+03 -0.23000579371E+04  0.23060418033E+04  0.47000000000E+01 0.  1.
         -5    1    4    4    0  502 -0.79875235348E+02  0.52420129407E+02 -0.51126298434E+03  0.52013445603E+03  0.47000000000E+01 0.  1.
        -11    1    3    3    0    0  0.20223556257E+03 -0.12062920291E+03 -0.79087204072E+03  0.82518435040E+03  0.00000000000E+00 0. -1.
         11    1    3    3    0    0  0.36927704860E+01 -0.39729850513E+02 -0.13555528308E+03  0.14130581144E+03  0.00000000000E+00 0.  1.
<mgrwt>
<rscale>  0 0.28582322E+03</rscale>
<asrwt>0</asrwt>
<pdfrwt beam="2">  1        2 0.57926269E+00 0.28939061E+03</pdfrwt>
<pdfrwt beam="1">  1       -2 0.42244749E-02 0.28939061E+03</pdfrwt>
<totfact> 0.16769524E+02</totfact>
</mgrwt>
</event>
<event>
 8    1  0.1224355E-005  0.1488697E+03  0.7546771E-02  0.1210981E+00
          1   -1    0    0  501    0  0.00000000000E+00  0.00000000000E+00  0.14573862907E+03  0.14573862907E+03  0.00000000000E+00 0. -1.
         -1   -1    0    0    0  501 -0.00000000000E+00 -0.00000000000E+00 -0.23823437991E+03  0.23823437991E+03  0.00000000000E+00 0.  1.
         23    2    1    2    0    0  0.70939287601E+02  0.38835672763E+02 -0.17516211913E+03  0.21369111593E+03  0.91877815855E+02 0.  0.
         23    2    1    2    0    0 -0.70939287601E+02 -0.38835672763E+02  0.82666368289E+02  0.17028189304E+03  0.12498640985E+03 0.  0.
          5    1    4    4  502    0 -0.16697451136E+02 -0.73852772628E+02  0.72161046487E+02  0.10470121074E+03  0.47000000000E+01 0. -1.
         -5    1    4    4    0  502 -0.54241836465E+02  0.35017099865E+02  0.10505321802E+02  0.65580682309E+02  0.47000000000E+01 0. -1.
        -11    1    3    3    0    0  0.51592585712E+02  0.96937292575E+01 -0.17050495244E+03  0.17840320091E+03  0.00000000000E+00 0.  1.
         11    1    3    3    0    0  0.19346701889E+02  0.29141943506E+02 -0.46571666894E+01  0.35287915025E+02  0.00000000000E+00 0. -1.
<mgrwt>
<rscale>  0 0.14175927E+03</rscale>
<asrwt>0</asrwt>
<pdfrwt beam="1">  1        1 0.22421328E-01 0.14886972E+03</pdfrwt>
<pdfrwt beam="2">  1       -1 0.36651443E-01 0.14886972E+03</pdfrwt>
<totfact> 0.15606152E+03</totfact>
</mgrwt>
</event>
<event>
 8    1  0.1224355E-005  0.1410477E+03  0.7546771E-02  0.1222750E+00
          1   -1    0    0  501    0  0.00000000000E+00  0.00000000000E+00  0.26077568990E+02  0.26077568990E+02  0.00000000000E+00 0. -1.
         -1   -1    0    0    0  501 -0.00000000000E+00 -0.00000000000E+00 -0.61570600177E+03  0.61570600177E+03  0.00000000000E+00 0.  1.
         23    2    1    2    0    0 -0.62533704887E+02  0.18992985874E+02 -0.27113536731E+03  0.29345570762E+03  0.91272488569E+02 0.  0.
         23    2    1    2    0    0  0.62533704887E+02 -0.18992985874E+02 -0.31849306547E+03  0.34832786314E+03  0.12499307872E+03 0.  0.
          5    1    4    4  502    0  0.58569745068E+02 -0.10260937757E+02 -0.45231609984E+02  0.74857801348E+02  0.47000000000E+01 0.  1.
         -5    1    4    4    0  502  0.39639598197E+01 -0.87320481165E+01 -0.27326145549E+03  0.27347006179E+03  0.47000000000E+01 0.  1.
        -11    1    3    3    0    0 -0.39079089897E+02  0.52958412106E+02 -0.12090790130E+03  0.13766077610E+03  0.00000000000E+00 0.  1.
         11    1    3    3    0    0 -0.23454614990E+02 -0.33965426232E+02 -0.15022746601E+03  0.15579493152E+03  0.00000000000E+00 0. -1.
<mgrwt>
<rscale>  0 0.13322293E+03</rscale>
<asrwt>0</asrwt>
<pdfrwt beam="1">  1        1 0.40119340E-02 0.14104775E+03</pdfrwt>
<pdfrwt beam="2">  1       -1 0.94723993E-01 0.14104775E+03</pdfrwt>
<totfact> 0.24936712E+03</totfact>
</mgrwt>
</event>
<event>
 8    1  0.1224355E-005  0.1366075E+03  0.7546771E-02  0.1229730E+00
          1   -1    0    0  501    0  0.00000000000E+00  0.00000000000E+00  0.58270145532E+03  0.58270145532E+03  0.00000000000E+00 0. -1.
         -1   -1    0    0    0  501 -0.00000000000E+00 -0.00000000000E+00 -0.25574870494E+02  0.25574870494E+02  0.00000000000E+00 0.  1.
         23    2    1    2    0    0 -0.24295693613E+02 -0.49465262813E+02  0.26694586153E+03  0.28754828881E+03  0.91579650877E+02 0.  0.
         23    2    1    2    0    0  0.24295693613E+02  0.49465262813E+02  0.29018072329E+03  0.32072803700E+03  0.12499811437E+03 0.  0.
          5    1    4    4  502    0  0.35467047449E+02 -0.34725013346E+02  0.83860530914E+02  0.97562373135E+02  0.47000000000E+01 0.  1.
         -5    1    4    4    0  502 -0.11171353836E+02  0.84190276159E+02  0.20632019238E+03  0.22316566387E+03  0.47000000000E+01 0.  1.
        -11    1    3    3    0    0 -0.48105657144E+02 -0.31226778082E+02  0.24149717569E+03  0.24821392343E+03  0.00000000000E+00 0. -1.
         11    1    3    3    0    0  0.23809963531E+02 -0.18238484730E+02  0.25448685840E+02  0.39334365377E+02  0.00000000000E+00 0.  1.
<mgrwt>
<rscale>  0 0.12847923E+03</rscale>
<asrwt>0</asrwt>
<pdfrwt beam="1">  1        1 0.89646368E-01 0.13660755E+03</pdfrwt>
<pdfrwt beam="2">  1       -1 0.39345959E-02 0.13660755E+03</pdfrwt>
<totfact> 0.88396903E+03</totfact>
</mgrwt>
</event>
<event>
 8    1  0.1224355E-005  0.1656271E+03  0.7546771E-02  0.1190131E+00
          1   -1    0    0  501    0  0.00000000000E+00  0.00000000000E+00  0.25971211226E+03  0.25971211226E+03  0.00000000000E+00 0. -1.
         -1   -1    0    0    0  501 -0.00000000000E+00 -0.00000000000E+00 -0.91981007101E+02  0.91981007101E+02  0.00000000000E+00 0.  1.
         23    2    1    2    0    0  0.80747395323E+02  0.72949677239E+02  0.49702631478E+02  0.14831401546E+03  0.87663551976E+02 0.  0.
         23    2    1    2    0    0 -0.80747395323E+02 -0.72949677239E+02  0.11802847368E+03  0.20337910390E+03  0.12486209210E+03 0.  0.
          5    1    4    4  502    0 -0.10274842476E+03 -0.50834754646E+02  0.43948262434E+02  0.12286151082E+03  0.47000000000E+01 0.  1.
         -5    1    4    4    0  502  0.22001029433E+02 -0.22114922593E+02  0.74080211250E+02  0.80517593085E+02  0.47000000000E+01 0.  1.
        -11    1    3    3    0    0  0.25117797472E+02 -0.19505718623E+02  0.99354930335E+01  0.33318025611E+02  0.00000000000E+00 0. -1.
         11    1    3    3    0    0  0.55629597851E+02  0.92455395861E+02  0.39767138444E+02  0.11499598985E+03  0.00000000000E+00 0.  1.
<mgrwt>
<rscale>  0 0.15873663E+03</rscale>
<asrwt>0</asrwt>
<pdfrwt beam="1">  1        1 0.39955709E-01 0.16562711E+03</pdfrwt>
<pdfrwt beam="2">  1       -1 0.14150924E-01 0.16562711E+03</pdfrwt>
<totfact> 0.36154368E+03</totfact>
</mgrwt>
</event>
<event>
 8    1  0.1224355E-005  0.1294040E+03  0.7546771E-02  0.1242355E+00
         -3   -1    0    0    0  501 -0.00000000000E+00  0.00000000000E+00  0.56762665632E+02  0.56762665632E+02  0.00000000000E+00 0.  1.
          3   -1    0    0  501    0  0.00000000000E+00 -0.00000000000E+00 -0.26166091655E+03  0.26166091655E+03  0.00000000000E+00 0. -1.
         23    2    1    2    0    0 -0.20803709046E+02 -0.26236981724E+02 -0.31615933131E+02  0.10215486991E+03  0.91185945734E+02 0.  0.
         23    2    1    2    0    0  0.20803709046E+02  0.26236981724E+02 -0.17328231778E+03  0.21626871227E+03  0.12499688287E+03 0.  0.
          5    1    4    4  502    0  0.46262329380E+02 -0.13758959321E+02 -0.15944525390E+03  0.16665650625E+03  0.47000000000E+01 0. -1.
         -5    1    4    4    0  502 -0.25458620334E+02  0.39995941044E+02 -0.13837063880E+02  0.49612206020E+02  0.47000000000E+01 0. -1.
        -11    1    3    3    0    0  0.14924707546E+02 -0.51291925516E+02 -0.15308028903E+02  0.55569274491E+02  0.00000000000E+00 0.  1.
         11    1    3    3    0    0 -0.35728416592E+02  0.25054943793E+02 -0.16307904228E+02  0.46585595424E+02  0.00000000000E+00 0. -1.
<mgrwt>
<rscale>  0 0.12045076E+03</rscale>
<asrwt>0</asrwt>
<pdfrwt beam="2">  1        3 0.40255525E-01 0.12940400E+03</pdfrwt>
<pdfrwt beam="1">  1       -3 0.87327179E-02 0.12940400E+03</pdfrwt>
<totfact> 0.12938528E+03</totfact>
</mgrwt>
</event>
<event>
 8    1  0.1224355E-005  0.1451615E+03  0.7546771E-02  0.1217584E+00
         -2   -1    0    0    0  501 -0.00000000000E+00  0.00000000000E+00  0.36947864401E+02  0.36947864401E+02  0.00000000000E+00 0.  1.
          2   -1    0    0  501    0  0.00000000000E+00 -0.00000000000E+00 -0.47490372465E+03  0.47490372465E+03  0.00000000000E+00 0. -1.
         23    2    1    2    0    0 -0.74326093304E+01 -0.73422553717E+02 -0.14523411896E+03  0.18511334424E+03  0.87908394544E+02 0.  0.
         23    2    1    2    0    0  0.74326093304E+01  0.73422553717E+02 -0.29272174129E+03  0.32673824481E+03  0.12500299085E+03 0.  0.
          5    1    4    4  502    0  0.61307879631E+02  0.46457285109E+02 -0.11020266936E+03  0.13447547649E+03  0.47000000000E+01 0. -1.
         -5    1    4    4    0  502 -0.53875270300E+02  0.26965268607E+02 -0.18251907194E+03  0.19226276832E+03  0.47000000000E+01 0. -1.
        -11    1    3    3    0    0 -0.11248851508E+02  0.60887220488E+01  0.60613709225E+01  0.14154483880E+02  0.00000000000E+00 0.  1.
         11    1    3    3    0    0  0.38162421779E+01 -0.79511275765E+02 -0.15129548988E+03  0.17095886036E+03  0.00000000000E+00 0. -1.
<mgrwt>
<rscale>  0 0.13688420E+03</rscale>
<asrwt>0</asrwt>
<pdfrwt beam="2">  1        2 0.73062113E-01 0.14516151E+03</pdfrwt>
<pdfrwt beam="1">  1       -2 0.56842867E-02 0.14516151E+03</pdfrwt>
<totfact> 0.10142358E+04</totfact>
</mgrwt>
</event>
<event>
 8    1  0.1224355E-005  0.1870492E+03  0.7546771E-02  0.1166346E+00
         -2   -1    0    0    0  501 -0.00000000000E+00  0.00000000000E+00  0.58626267084E+02  0.58626267084E+02  0.00000000000E+00 0.  1.
          2   -1    0    0  501    0  0.00000000000E+00 -0.00000000000E+00 -0.69661191173E+03  0.69661191173E+03  0.00000000000E+00 0. -1.
         23    2    1    2    0    0  0.30381440787E+02 -0.13579963237E+03 -0.12060063578E+03  0.20507942817E+03  0.90268967048E+02 0.  0.
         23    2    1    2    0    0 -0.30381440787E+02  0.13579963237E+03 -0.51738500886E+03  0.55015875064E+03  0.12499132537E+03 0.  0.
          5    1    4    4  502    0  0.22979223263E+02 -0.14374277249E+02 -0.82645411565E+02  0.87103493621E+02  0.47000000000E+01 0. -1.
         -5    1    4    4    0  502 -0.53360664050E+02  0.15017390962E+03 -0.43473959730E+03  0.46305525702E+03  0.47000000000E+01 0. -1.
        -11    1    3    3    0    0 -0.23099167821E+02 -0.19147757393E+02 -0.15650316169E+01  0.30044258872E+02  0.00000000000E+00 0.  1.
         11    1    3    3    0    0  0.53480608608E+02 -0.11665187498E+03 -0.11903560417E+03  0.17503516930E+03  0.00000000000E+00 0. -1.
<mgrwt>
<rscale>  0 0.18151363E+03</rscale>
<asrwt>0</asrwt>
<pdfrwt beam="2">  1        2 0.10717106E+00 0.18704920E+03</pdfrwt>
<pdfrwt beam="1">  1       -2 0.90194261E-02 0.18704920E+03</pdfrwt>
<totfact> 0.32587758E+03</totfact>
</mgrwt>
</event>
<event>
 8    1  0.1224355E-005  0.1290382E+03  0.7546771E-02  0.1242863E+00
         -1   -1    0    0    0  501 -0.00000000000E+00  0.00000000000E+00  0.95129050413E+02  0.95129050413E+02  0.00000000000E+00 0.  1.
          1   -1    0    0  501    0  0.00000000000E+00 -0.00000000000E+00 -0.13438310951E+03  0.13438310951E+03  0.00000000000E+00 0. -1.
         23    2    1    2    0    0 -0.75105299282E+00  0.32023490243E+02 -0.13063136556E+02  0.97842807570E+02  0.91523229011E+02 0.  0.
         23    2    1    2    0    0  0.75105299282E+00 -0.32023490243E+02 -0.26190922540E+02  0.13166935235E+03  0.12499914367E+03 0.  0.
          5    1    4    4  502    0  0.31279854806E+02  0.21747740180E+02 -0.51888710785E+02  0.64543952672E+02  0.47000000000E+01 0. -1.
         -5    1    4    4    0  502 -0.30528801813E+02 -0.53771230423E+02  0.25697788245E+02  0.67125399679E+02  0.47000000000E+01 0. -1.
        -11    1    3    3    0    0  0.29851650717E+02  0.40722675808E+02  0.17780232295E+02  0.53531243550E+02  0.00000000000E+00 0.  1.
         11    1    3    3    0    0 -0.30602703710E+02 -0.86991855652E+01 -0.30843368851E+02  0.44311564020E+02  0.00000000000E+00 0. -1.
<mgrwt>
<rscale>  0 0.12014190E+03</rscale>
<asrwt>0</asrwt>
<pdfrwt beam="2">  1        1 0.20674324E-01 0.12903819E+03</pdfrwt>
<pdfrwt beam="1">  1       -1 0.14635239E-01 0.12903819E+03</pdfrwt>
<totfact> 0.77050096E+03</totfact>
</mgrwt>
</event>
<event>
 8    1  0.1224355E-005  0.2109562E+03  0.7546771E-02  0.1143474E+00
         -1   -1    0    0    0  501 -0.00000000000E+00  0.00000000000E+00  0.78034239035E+02  0.78034239035E+02  0.00000000000E+00 0.  1.
          1   -1    0    0  501    0  0.00000000000E+00 -0.00000000000E+00 -0.71089697837E+03  0.71089697837E+03  0.00000000000E+00 0. -1.
         23    2    1    2    0    0 -0.12866541069E+03  0.11101121287E+03 -0.11294443858E+03  0.22784515371E+03  0.10138387728E+03 0.  0.
         23    2    1    2    0    0  0.12866541069E+03 -0.11101121287E+03 -0.51991830075E+03  0.56108606369E+03  0.12499701647E+03 0.  0.
          5    1    4    4  502    0  0.11492001559E+03 -0.76986613201E+02 -0.22718188231E+03  0.26602113872E+03  0.47000000000E+01 0. -1.
         -5    1    4    4    0  502  0.13745395101E+02 -0.34024599664E+02 -0.29273641844E+03  0.29506492498E+03  0.47000000000E+01 0. -1.
        -11    1    3    3    0    0 -0.81182303727E+02  0.11270742250E+02 -0.74846617353E+02  0.11099374847E+03  0.00000000000E+00 0.  1.
         11    1    3    3    0    0 -0.47483106962E+02  0.99740470615E+02 -0.38097821230E+02  0.11685140525E+03  0.00000000000E+00 0. -1.
<mgrwt>
<rscale>  0 0.20760863E+03</rscale>
<asrwt>0</asrwt>
<pdfrwt beam="2">  1        1 0.10936876E+00 0.21095623E+03</pdfrwt>
<pdfrwt beam="1">  1       -1 0.12005268E-01 0.21095623E+03</pdfrwt>
<totfact> 0.12610310E+03</totfact>
</mgrwt>
</event>
<event>
 7    1  0.1224355E-005  0.1376199E+03  0.7546771E-02  0.1247387E+00
         -1   -1    0    0    0  501 -0.00000000000E+00  0.00000000000E+00  0.15457345774E+02  0.15457345774E+02  0.00000000000E+00 0.  1.
          1   -1    0    0  501    0  0.00000000000E+00 -0.00000000000E+00 -0.75022768202E+03  0.75022768202E+03  0.00000000000E+00 0. -1.
         23    2    1    2    0    0 -0.35160286060E+02 -0.45570165647E+02 -0.55172044916E+03  0.56862526266E+03  0.12500539827E+03 0.  0.
          5    1    3    3  502    0  0.20326363908E+02  0.31155461198E+02 -0.23661032867E+03  0.23956285494E+03  0.47000000000E+01 0.  1.
         -5    1    3    3    0  502 -0.55486649968E+02 -0.76725626845E+02 -0.31511012049E+03  0.32906240772E+03  0.47000000000E+01 0.  1.
        -11    1    1    2    0    0  0.18542922135E+02 -0.48951024778E+00 -0.22240153168E+02  0.28960386643E+02  0.00000000000E+00 0.  1.
         11    1    1    2    0    0  0.16617363925E+02  0.46059675894E+02 -0.16080973392E+03  0.16809937849E+03  0.00000000000E+00 0. -1.
<mgrwt>
<rscale>  0 0.11743670E+03</rscale>
<asrwt>0</asrwt>
<pdfrwt beam="2">  1        1 0.11541965E+00 0.13761989E+03</pdfrwt>
<pdfrwt beam="1">  1       -1 0.23780531E-02 0.13761989E+03</pdfrwt>
<totfact> 0.12919275E+04</totfact>
</mgrwt>
</event>
<event>
 8    1  0.1224355E-005  0.1471153E+03  0.7546771E-02  0.1213562E+00
         -1   -1    0    0    0  501 -0.00000000000E+00  0.00000000000E+00  0.11114074210E+03  0.11114074210E+03  0.00000000000E+00 0.  1.
          1   -1    0    0  501    0  0.00000000000E+00 -0.00000000000E+00 -0.17388618224E+03  0.17388618224E+03  0.00000000000E+00 0. -1.
         23    2    1    2    0    0 -0.75686254301E+02 -0.16982724343E+02  0.10817857891E+02  0.12054448930E+03  0.91635832705E+02 0.  0.
         23    2    1    2    0    0  0.75686254301E+02  0.16982724343E+02 -0.73563298038E+02  0.16448243504E+03  0.12500436233E+03 0.  0.
          5    1    4    4  502    0  0.25811715351E+02 -0.54115124718E+02 -0.30460902837E+02  0.67414004289E+02  0.47000000000E+01 0.  1.
         -5    1    4    4    0  502  0.49874538950E+02  0.71097849061E+02 -0.43102395201E+02  0.97068430752E+02  0.47000000000E+01 0.  1.
        -11    1    3    3    0    0 -0.33583327273E+02 -0.54260104140E+02  0.49028469211E+01  0.64000286561E+02  0.00000000000E+00 0.  1.
         11    1    3    3    0    0 -0.42102927028E+02  0.37277379797E+02  0.59150109700E+01  0.56544202741E+02  0.00000000000E+00 0. -1.
<mgrwt>
<rscale>  0 0.13982707E+03</rscale>
<asrwt>0</asrwt>
<pdfrwt beam="2">  1        1 0.26751720E-01 0.14711530E+03</pdfrwt>
<pdfrwt beam="1">  1       -1 0.17098576E-01 0.14711530E+03</pdfrwt>
<totfact> 0.43965479E+03</totfact>
</mgrwt>
</event>
<event>
 7    1  0.1224355E-005  0.4346323E+03  0.7546771E-02  0.1032407E+00
          2   -1    0    0  501    0  0.00000000000E+00  0.00000000000E+00  0.12726618849E+04  0.12726618849E+04  0.00000000000E+00 0. -1.
         -2   -1    0    0    0  501 -0.00000000000E+00 -0.00000000000E+00 -0.37108288317E+02  0.37108288317E+02  0.00000000000E+00 0.  1.
         23    2    1    2    0    0  0.33760582366E+02 -0.97750611928E+02  0.16642518563E+03  0.21579046232E+03  0.90405874599E+02 0.  0.
          5    1    1    2  502    0 -0.64852705011E+02  0.77125237190E+02  0.10437452159E+04  0.10486087647E+04  0.47000000000E+01 0. -1.
         -5    1    1    2    0  502  0.31092122645E+02  0.20625374738E+02  0.25383195059E+02  0.45370946266E+02  0.47000000000E+01 0.  1.
        -11    1    3    3    0    0 -0.64835219260E+01  0.12867511373E+02  0.42478004425E+02  0.44855208900E+02  0.00000000000E+00 0. -1.
         11    1    3    3    0    0  0.40244104292E+02 -0.11061812330E+03  0.12394718121E+03  0.17093525342E+03  0.00000000000E+00 0.  1.
<mgrwt>
<rscale>  0 0.43463228E+03</rscale>
<asrwt>0</asrwt>
<pdfrwt beam="1">  1        2 0.19579410E+00 0.43463228E+03</pdfrwt>
<pdfrwt beam="2">  1       -2 0.57089684E-02 0.43463228E+03</pdfrwt>
<totfact> 0.29073114E+03</totfact>
</mgrwt>
</event>
<event>
 8    1  0.1224355E-005  0.1613227E+03  0.7546771E-02  0.1194693E+00
         -3   -1    0    0    0  501 -0.00000000000E+00  0.00000000000E+00  0.19331008427E+03  0.19331008427E+03  0.00000000000E+00 0.  1.
          3   -1    0    0  501    0  0.00000000000E+00 -0.00000000000E+00 -0.16340692771E+03  0.16340692771E+03  0.00000000000E+00 0. -1.
         23    2    1    2    0    0  0.78055476523E+02  0.65625268251E+02  0.11100395739E+03  0.17615576166E+03  0.91157229903E+02 0.  0.
         23    2    1    2    0    0 -0.78055476523E+02 -0.65625268251E+02 -0.81100800821E+02  0.18056125032E+03  0.12500276787E+03 0.  0.
          5    1    4    4  502    0  0.16237561338E+01  0.32500527417E+02 -0.58940887378E+01  0.33402861380E+02  0.47000000000E+01 0.  1.
         -5    1    4    4    0  502 -0.79679232657E+02 -0.98125795668E+02 -0.75206712083E+02  0.14715838894E+03  0.47000000000E+01 0.  1.
        -11    1    3    3    0    0  0.30742927078E+02  0.28953457412E+02 -0.79654829694E+01  0.42975332231E+02  0.00000000000E+00 0. -1.
         11    1    3    3    0    0  0.47312549445E+02  0.36671810840E+02  0.11896944036E+03  0.13318042943E+03  0.00000000000E+00 0.  1.
<mgrwt>
<rscale>  0 0.15480249E+03</rscale>
<asrwt>0</asrwt>
<pdfrwt beam="2">  1        3 0.25139527E-01 0.16132274E+03</pdfrwt>
<pdfrwt beam="1">  1       -3 0.29740013E-01 0.16132274E+03</pdfrwt>
<totfact> 0.38600504E+02</totfact>
</mgrwt>
</event>
<event>
 7    1  0.1224355E-005  0.9989339E+03  0.7546771E-02  0.9825719E-01
         -2   -1    0    0    0  501 -0.00000000000E+00  0.00000000000E+00  0.17611320436E+04  0.17611320436E+04  0.00000000000E+00 0.  1.
          2   -1    0    0  501    0  0.00000000000E+00 -0.00000000000E+00 -0.19808816286E+03  0.19808816286E+03  0.00000000000E+00 0. -1.
         23    2    1    2    0    0  0.14953368446E+03 -0.95378171281E+01  0.34559276988E+03  0.38440080921E+03  0.76670247084E+02 0.  0.
          5    1    1    2  502    0  0.47640130808E+02 -0.34918387612E+03  0.73777794361E+02  0.36008917555E+03  0.47000000000E+01 0. -1.
         -5    1    1    2    0  502 -0.19717381527E+03  0.35872169325E+03  0.11436733166E+04  0.12147302217E+04  0.47000000000E+01 0.  1.
        -11    1    3    3    0    0  0.12102245176E+03 -0.38089140153E+02  0.27978186213E+03  0.30720531702E+03  0.00000000000E+00 0. -1.
         11    1    3    3    0    0  0.28511232693E+02  0.28551323024E+02  0.65810907751E+02  0.77195492195E+02  0.00000000000E+00 0.  1.
<mgrwt>
<rscale>  0 0.64000395E+03</rscale>
<asrwt>0</asrwt>
<pdfrwt beam="2">  1        2 0.30475103E-01 0.99893390E+03</pdfrwt>
<pdfrwt beam="1">  1       -2 0.27094338E+00 0.99893390E+03</pdfrwt>
<totfact> 0.84238758E+00</totfact>
</mgrwt>
</event>
<event>
 8    1  0.1224355E-005  0.1170280E+03  0.7546771E-02  0.1258025E+00
          2   -1    0    0  501    0  0.00000000000E+00  0.00000000000E+00  0.20664920007E+03  0.20664920007E+03  0.00000000000E+00 0. -1.
         -2   -1    0    0    0  501 -0.00000000000E+00 -0.00000000000E+00 -0.65325083113E+02  0.65325083113E+02  0.00000000000E+00 0.  1.
         23    2    1    2    0    0 -0.35580712529E+02 -0.15072435977E+02  0.10762099110E+02  0.96640320631E+02  0.87922484974E+02 0.  0.
         23    2    1    2    0    0  0.35580712529E+02  0.15072435977E+02  0.13056201785E+03  0.17533396255E+03  0.11046443993E+03 0.  0.
          5    1    4    4  502    0  0.40701458206E+02  0.27648240021E+02  0.14606183111E+03  0.15419851615E+03  0.47000000000E+01 0. -1.
         -5    1    4    4    0  502 -0.51207456763E+01 -0.12575804044E+02 -0.15499813259E+02  0.21135446404E+02  0.47000000000E+01 0.  1.
        -11    1    3    3    0    0 -0.19380433593E+02 -0.46009816033E+02  0.28483566900E+02  0.57478847944E+02  0.00000000000E+00 0. -1.
         11    1    3    3    0    0 -0.16200278937E+02  0.30937380056E+02 -0.17721467790E+02  0.39161472687E+02  0.00000000000E+00 0.  1.
<mgrwt>
<rscale>  0 0.11138573E+03</rscale>
<asrwt>0</asrwt>
<pdfrwt beam="1">  1        2 0.31792184E-01 0.11702802E+03</pdfrwt>
<pdfrwt beam="2">  1       -2 0.10050013E-01 0.11702802E+03</pdfrwt>
<totfact> 0.10086794E+04</totfact>
</mgrwt>
</event>
<event>
 8    1  0.1224355E-005  0.1421628E+03  0.7546771E-02  0.1222144E+00
          2   -1    0    0  501    0  0.00000000000E+00  0.00000000000E+00  0.33192280647E+03  0.33192280647E+03  0.00000000000E+00 0.  1.
         -2   -1    0    0    0  501 -0.00000000000E+00 -0.00000000000E+00 -0.51519145786E+02  0.51519145786E+02  0.00000000000E+00 0. -1.
         23    2    1    2    0    0  0.67184209336E+02 -0.85103905680E+01  0.76365989010E+02  0.13476216641E+03  0.87993934371E+02 0.  0.
         23    2    1    2    0    0 -0.67184209336E+02  0.85103905680E+01  0.20403767167E+03  0.24867978584E+03  0.12499647873E+03 0.  0.
          5    1    4    4  502    0 -0.73480126608E+02  0.46507387177E+01  0.21913896507E+03  0.23122485677E+03  0.47000000000E+01 0.  1.
         -5    1    4    4    0  502  0.62959172714E+01  0.38596518503E+01 -0.15101293397E+02  0.17454929074E+02  0.47000000000E+01 0.  1.
        -11    1    3    3    0    0  0.56082943894E+02  0.30647008495E+02  0.67792341243E+02  0.93168327541E+02  0.00000000000E+00 0. -1.
         11    1    3    3    0    0  0.11101265443E+02 -0.39157399063E+02  0.85736477661E+01  0.41593838868E+02  0.00000000000E+00 0.  1.
<mgrwt>
<rscale>  0 0.13364596E+03</rscale>
<asrwt>0</asrwt>
<pdfrwt beam="1">  1        2 0.51065046E-01 0.14216281E+03</pdfrwt>
<pdfrwt beam="2">  1       -2 0.79260226E-02 0.14216281E+03</pdfrwt>
<totfact> 0.89471259E+03</totfact>
</mgrwt>
</event>
<event>
 8    1  0.1224355E-005  0.1396845E+03  0.7546771E-02  0.1224332E+00
         -2   -1    0    0    0  501 -0.00000000000E+00  0.00000000000E+00  0.78135015187E+02  0.78135015187E+02  0.00000000000E+00 0.  1.
          2   -1    0    0  501    0  0.00000000000E+00 -0.00000000000E+00 -0.20309732433E+03  0.20309732433E+03  0.00000000000E+00 0. -1.
         23    2    1    2    0    0 -0.62268485287E+02  0.28372866247E+01 -0.47361169990E+02  0.12143963203E+03  0.92839050774E+02 0.  0.
         23    2    1    2    0    0  0.62268485287E+02 -0.28372866247E+01 -0.77601139155E+02  0.15979270749E+03  0.12500543234E+03 0.  0.
          5    1    4    4  502    0  0.65123367088E+02 -0.56081952693E+02 -0.45124506888E+02  0.97183071986E+02  0.47000000000E+01 0.  1.
         -5    1    4    4    0  502 -0.28548818009E+01  0.53244666069E+02 -0.32476632267E+02  0.62609635507E+02  0.47000000000E+01 0.  1.
        -11    1    3    3    0    0 -0.34724298950E+02  0.47732909125E+02 -0.22162328592E+02  0.63050585721E+02  0.00000000000E+00 0. -1.
         11    1    3    3    0    0 -0.27544186337E+02 -0.44895622500E+02 -0.25198841399E+02  0.58389046306E+02  0.00000000000E+00 0.  1.
<mgrwt>
<rscale>  0 0.13212791E+03</rscale>
<asrwt>0</asrwt>
<pdfrwt beam="2">  1        2 0.31245742E-01 0.13968455E+03</pdfrwt>
<pdfrwt beam="1">  1       -2 0.12020772E-01 0.13968455E+03</pdfrwt>
<totfact> 0.78473415E+03</totfact>
</mgrwt>
</event>
<event>
 8    1  0.1224355E-005  0.2243800E+03  0.7546771E-02  0.1134045E+00
          2   -1    0    0  501    0  0.00000000000E+00  0.00000000000E+00  0.24810747508E+04  0.24810747508E+04  0.00000000000E+00 0. -1.
         -2   -1    0    0    0  501 -0.00000000000E+00 -0.00000000000E+00 -0.22594537057E+02  0.22594537057E+02  0.00000000000E+00 0.  1.
         23    2    1    2    0    0  0.14021064065E+03  0.12272549292E+03  0.66852532722E+03  0.69970562950E+03  0.89113884749E+02 0.  0.
         23    2    1    2    0    0 -0.14021064065E+03 -0.12272549292E+03  0.17899548865E+04  0.18039636583E+04  0.12500325805E+03 0.  0.
          5    1    4    4  502    0 -0.69100592529E+02 -0.12460131050E+03  0.90692198804E+03  0.91805771107E+03  0.47000000000E+01 0. -1.
         -5    1    4    4    0  502 -0.71110048118E+02  0.18758175765E+01  0.88303289846E+03  0.88590594726E+03  0.47000000000E+01 0. -1.
        -11    1    3    3    0    0  0.59715635490E+02  0.38310793739E+02  0.40988758872E+03  0.41598258308E+03  0.00000000000E+00 0. -1.
         11    1    3    3    0    0  0.80495005157E+02  0.84414699184E+02  0.25863773850E+03  0.28372304642E+03  0.00000000000E+00 0.  1.
<mgrwt>
<rscale>  0 0.21978248E+03</rscale>
<asrwt>0</asrwt>
<pdfrwt beam="1">  1        2 0.38170359E+00 0.22438000E+03</pdfrwt>
<pdfrwt beam="2">  1       -2 0.34760846E-02 0.22438000E+03</pdfrwt>
<totfact> 0.14032239E+03</totfact>
</mgrwt>
</event>
<event>
 8    1  0.1224355E-005  0.1258205E+03  0.7546771E-02  0.1246098E+00
         -2   -1    0    0    0  501 -0.00000000000E+00  0.00000000000E+00  0.89618130771E+01  0.89618130771E+01  0.00000000000E+00 0.  1.
          2   -1    0    0  501    0  0.00000000000E+00 -0.00000000000E+00 -0.14696735301E+04  0.14696735301E+04  0.00000000000E+00 0. -1.
         23    2    1    2    0    0 -0.14373663639E+02 -0.79981225178E-01 -0.48128925233E+03  0.49116424903E+03  0.96934857052E+02 0.  0.
         23    2    1    2    0    0  0.14373663639E+02  0.79981225178E-01 -0.97942246465E+03  0.98747109411E+03  0.12499675528E+03 0.  0.
          5    1    4    4  502    0 -0.14767063011E+02  0.16638610397E+02 -0.90954171791E+03  0.90982588231E+03  0.47000000000E+01 0. -1.
         -5    1    4    4    0  502  0.29140726650E+02 -0.16558629171E+02 -0.69880746748E+02  0.77645211802E+02  0.47000000000E+01 0. -1.
        -11    1    3    3    0    0  0.41172662054E+02 -0.16639267557E+01 -0.16760604942E+03  0.17259705836E+03  0.00000000000E+00 0.  1.
         11    1    3    3    0    0 -0.55546325693E+02  0.15839455305E+01 -0.31368320291E+03  0.31856719067E+03  0.00000000000E+00 0. -1.
<mgrwt>
<rscale>  0 0.11819913E+03</rscale>
<asrwt>0</asrwt>
<pdfrwt beam="2">  1        2 0.22610372E+00 0.12582050E+03</pdfrwt>
<pdfrwt beam="1">  1       -2 0.13787398E-02 0.12582050E+03</pdfrwt>
<totfact> 0.18169536E+04</totfact>
</mgrwt>
</event>
<event>
 8    1  0.1224355E-005  0.1506989E+03  0.7546771E-02  0.1208713E+00
          1   -1    0    0  501    0  0.00000000000E+00  0.00000000000E+00  0.34033449123E+03  0.34033449123E+03  0.00000000000E+00 0. -1.
         -1   -1    0    0    0  501 -0.00000000000E+00 -0.00000000000E+00 -0.56483985831E+02  0.56483985831E+02  0.00000000000E+00 0.  1.
         23    2    1    2    0    0  0.58852520371E+02 -0.60108552321E+02  0.10062178126E+03  0.15957825974E+03  0.90905560339E+02 0.  0.
         23    2    1    2    0    0 -0.58852520371E+02  0.60108552321E+02  0.18322872414E+03  0.23724021732E+03  0.12503398798E+03 0.  0.
          5    1    4    4  502    0 -0.84995608407E+02  0.25335320360E+01  0.84994070753E+02  0.12031938454E+03  0.47000000000E+01 0.  1.
         -5    1    4    4    0  502  0.26143088036E+02  0.57575020285E+02  0.98234653385E+02  0.11692083278E+03  0.47000000000E+01 0.  1.
        -11    1    3    3    0    0  0.31546837874E+02 -0.61274925806E+02  0.11074025527E+03  0.13043474863E+03  0.00000000000E+00 0. -1.
         11    1    3    3    0    0  0.27305682497E+02  0.11663734849E+01 -0.10118474006E+02  0.29143511112E+02  0.00000000000E+00 0.  1.
<mgrwt>
<rscale>  0 0.14348695E+03</rscale>
<asrwt>0</asrwt>
<pdfrwt beam="1">  1        1 0.52359151E-01 0.15069889E+03</pdfrwt>
<pdfrwt beam="2">  1       -1 0.86898442E-02 0.15069889E+03</pdfrwt>
<totfact> 0.54513634E+03</totfact>
</mgrwt>
</event>
<event>
 8    1  0.1224355E-005  0.1293168E+03  0.7546771E-02  0.1242236E+00
          1   -1    0    0  501    0  0.00000000000E+00  0.00000000000E+00  0.44466298210E+03  0.44466298210E+03  0.00000000000E+00 0. -1.
         -1   -1    0    0    0  501 -0.00000000000E+00 -0.00000000000E+00 -0.32136275395E+02  0.32136275395E+02  0.00000000000E+00 0.  1.
         23    2    1    2    0    0 -0.19546059910E+02 -0.26753251414E+02  0.10578153781E+03  0.14390974940E+03  0.91774164727E+02 0.  0.
         23    2    1    2    0    0  0.19546059910E+02  0.26753251414E+02  0.30674516889E+03  0.33288950810E+03  0.12500016416E+03 0.  0.
          5    1    4    4  502    0  0.19329022857E+02 -0.48881379924E+02  0.10849238722E+03  0.12064695816E+03  0.47000000000E+01 0. -1.
         -5    1    4    4    0  502  0.21703705370E+00  0.75634631338E+02  0.19825278167E+03  0.21224254994E+03  0.47000000000E+01 0. -1.
        -11    1    3    3    0    0 -0.41653722798E+02  0.91119832429E+01  0.88758907515E+02  0.98469307527E+02  0.00000000000E+00 0. -1.
         11    1    3    3    0    0  0.22107662888E+02 -0.35865234657E+02  0.17022630296E+02  0.45440441872E+02  0.00000000000E+00 0.  1.
<mgrwt>
<rscale>  0 0.12052367E+03</rscale>
<asrwt>0</asrwt>
<pdfrwt beam="1">  1        1 0.68409685E-01 0.12931677E+03</pdfrwt>
<pdfrwt beam="2">  1       -1 0.49440427E-02 0.12931677E+03</pdfrwt>
<totfact> 0.89658266E+03</totfact>
</mgrwt>
</event>
<event>
 8    1  0.1224355E-005  0.1416127E+03  0.7546771E-02  0.1221975E+00
          1   -1    0    0  501    0  0.00000000000E+00  0.00000000000E+00  0.10200255461E+03  0.10200255461E+03  0.00000000000E+00 0. -1.
         -1   -1    0    0    0  501 -0.00000000000E+00 -0.00000000000E+00 -0.19895260713E+03  0.19895260713E+03  0.00000000000E+00 0.  1.
         23    2    1    2    0    0 -0.24655108258E+02 -0.61812724448E+02 -0.11154744828E+03  0.15859209605E+03  0.90994134128E+02 0.  0.
         23    2    1    2    0    0  0.24655108258E+02  0.61812724448E+02  0.14597395760E+02  0.14236306569E+03  0.12500188496E+03 0.  0.
          5    1    4    4  502    0  0.30422407650E+02 -0.32564377362E+02  0.16283577946E+02  0.47678155071E+02  0.47000000000E+01 0. -1.
         -5    1    4    4    0  502 -0.57672993919E+01  0.94377101811E+02 -0.16861821860E+01  0.94684910618E+02  0.47000000000E+01 0. -1.
        -11    1    3    3    0    0 -0.17751688071E+02  0.15438520692E+02 -0.99534888968E+00  0.23546997047E+02  0.00000000000E+00 0. -1.
         11    1    3    3    0    0 -0.69034201878E+01 -0.77251245140E+02 -0.11055209939E+03  0.13504509901E+03  0.00000000000E+00 0.  1.
<mgrwt>
<rscale>  0 0.13376391E+03</rscale>
<asrwt>0</asrwt>
<pdfrwt beam="1">  1        1 0.15692701E-01 0.14161271E+03</pdfrwt>
<pdfrwt beam="2">  1       -1 0.30608093E-01 0.14161271E+03</pdfrwt>
<totfact> 0.33439353E+03</totfact>
</mgrwt>
</event>
<event>
 8    1  0.1224355E-005  0.1498264E+03  0.7546771E-02  0.1209259E+00
         -1   -1    0    0    0  501 -0.00000000000E+00  0.00000000000E+00  0.75902826922E+02  0.75902826922E+02  0.00000000000E+00 0.  1.
          1   -1    0    0  501    0  0.00000000000E+00 -0.00000000000E+00 -0.24851671579E+03  0.24851671579E+03  0.00000000000E+00 0. -1.
         23    2    1    2    0    0  0.62742246548E+02  0.53731717014E+02 -0.70956249652E+02  0.14336095683E+03  0.93241019215E+02 0.  0.
         23    2    1    2    0    0 -0.62742246548E+02 -0.53731717014E+02 -0.10165763922E+03  0.18105858588E+03  0.12499699594E+03 0.  0.
          5    1    4    4  502    0  0.16109438502E+02 -0.55119090595E+02 -0.74311674416E+01  0.58094237291E+02  0.47000000000E+01 0.  1.
         -5    1    4    4    0  502 -0.78851685050E+02  0.13873735811E+01 -0.94226471774E+02  0.12296434859E+03  0.47000000000E+01 0.  1.
        -11    1    3    3    0    0  0.35478926391E+02  0.32143064174E+02 -0.91286562593E+02  0.10307845217E+03  0.00000000000E+00 0. -1.
         11    1    3    3    0    0  0.27263320157E+02  0.21588652840E+02  0.20330312941E+02  0.40282504660E+02  0.00000000000E+00 0.  1.
<mgrwt>
<rscale>  0 0.14306854E+03</rscale>
<asrwt>0</asrwt>
<pdfrwt beam="2">  1        1 0.38233341E-01 0.14982635E+03</pdfrwt>
<pdfrwt beam="1">  1       -1 0.11677358E-01 0.14982635E+03</pdfrwt>
<totfact> 0.51226119E+03</totfact>
</mgrwt>
</event>
<event>
 8    1  0.1224355E-005  0.1262705E+03  0.7546771E-02  0.1246023E+00
          3   -1    0    0  501    0  0.00000000000E+00  0.00000000000E+00  0.12152117164E+03  0.12152117164E+03  0.00000000000E+00 0. -1.
         -3   -1    0    0    0  501 -0.00000000000E+00 -0.00000000000E+00 -0.10307714375E+03  0.10307714375E+03  0.00000000000E+00 0.  1.
         23    2    1    2    0    0  0.14097081367E+02 -0.10849702817E+02  0.78939527870E+00  0.97099577871E+02  0.95452926218E+02 0.  0.
         23    2    1    2    0    0 -0.14097081367E+02  0.10849702817E+02  0.17654632615E+02  0.12749873752E+03  0.12501119254E+03 0.  0.
          5    1    4    4  502    0  0.27731487827E+02 -0.45979523965E+02  0.17848903246E+02  0.56778740636E+02  0.47000000000E+01 0.  1.
         -5    1    4    4    0  502 -0.41828569194E+02  0.56829226782E+02 -0.19427063113E+00  0.70719996879E+02  0.47000000000E+01 0.  1.
        -11    1    3    3    0    0 -0.39451536574E+02  0.79504882327E+01  0.24843540825E+01  0.40321284905E+02  0.00000000000E+00 0.  1.
         11    1    3    3    0    0  0.53548617941E+02 -0.18800191050E+02 -0.16949588038E+01  0.56778292967E+02  0.00000000000E+00 0. -1.
<mgrwt>
<rscale>  0 0.11824348E+03</rscale>
<asrwt>0</asrwt>
<pdfrwt beam="1">  1        3 0.18695565E-01 0.12627051E+03</pdfrwt>
<pdfrwt beam="2">  1       -3 0.15858022E-01 0.12627051E+03</pdfrwt>
<totfact> 0.19300679E+03</totfact>
</mgrwt>
</event>
<event>
 8    1  0.1224355E-005  0.1320305E+03  0.7546771E-02  0.1238421E+00
          1   -1    0    0  501    0  0.00000000000E+00  0.00000000000E+00  0.42182706437E+03  0.42182706437E+03  0.00000000000E+00 0. -1.
         -1   -1    0    0    0  501 -0.00000000000E+00 -0.00000000000E+00 -0.31785844995E+02  0.31785844995E+02  0.00000000000E+00 0.  1.
         23    2    1    2    0    0  0.42239415507E+02  0.48275354987E+01  0.15259717606E+03  0.18192976943E+03  0.89471054212E+02 0.  0.
         23    2    1    2    0    0 -0.42239415507E+02 -0.48275354987E+01  0.23744404332E+03  0.27168313994E+03  0.12499832598E+03 0.  0.
          5    1    4    4  502    0  0.23351238497E+02  0.35929439620E+02  0.14429163526E+03  0.15059339619E+03  0.47000000000E+01 0.  1.
         -5    1    4    4    0  502 -0.65590654004E+02 -0.40756975119E+02  0.93152408060E+02  0.12108974375E+03  0.47000000000E+01 0.  1.
        -11    1    3    3    0    0 -0.12778812244E+02 -0.30880636865E+02  0.48859119730E+02  0.59195653188E+02  0.00000000000E+00 0.  1.
         11    1    3    3    0    0  0.55018227751E+02  0.35708172364E+02  0.10373805633E+03  0.12273411624E+03  0.00000000000E+00 0. -1.
<mgrwt>
<rscale>  0 0.12287921E+03</rscale>
<asrwt>0</asrwt>
<pdfrwt beam="1">  1        1 0.64896468E-01 0.13203051E+03</pdfrwt>
<pdfrwt beam="2">  1       -1 0.48901303E-02 0.13203051E+03</pdfrwt>
<totfact> 0.97586766E+03</totfact>
</mgrwt>
</event>
<event>
 8    1  0.1224355E-005  0.1719966E+03  0.7546771E-02  0.1181793E+00
          1   -1    0    0  501    0  0.00000000000E+00  0.00000000000E+00  0.73905400461E+03  0.73905400461E+03  0.00000000000E+00 0. -1.
         -1   -1    0    0    0  501 -0.00000000000E+00 -0.00000000000E+00 -0.52378067969E+02  0.52378067969E+02  0.00000000000E+00 0.  1.
         23    2    1    2    0    0 -0.11104613983E+03  0.40337505361E+02  0.10096992029E+03  0.18099421294E+03  0.92766485340E+02 0.  0.
         23    2    1    2    0    0  0.11104613983E+03 -0.40337505361E+02  0.58570601635E+03  0.61043785964E+03  0.12499793356E+03 0.  0.
          5    1    4    4  502    0  0.98455839058E+02  0.19384753864E+02  0.25424421240E+03  0.27337068326E+03  0.47000000000E+01 0.  1.
         -5    1    4    4    0  502  0.12590300770E+02 -0.59722259225E+02  0.33146180395E+03  0.33706717638E+03  0.47000000000E+01 0.  1.
        -11    1    3    3    0    0  0.18200362589E+01 -0.11918256437E+02 -0.89432127965E+01  0.15011276549E+02  0.00000000000E+00 0.  1.
         11    1    3    3    0    0 -0.11286617609E+03  0.52255761799E+02  0.10991313309E+03  0.16598293639E+03  0.00000000000E+00 0. -1.
<mgrwt>
<rscale>  0 0.16627116E+03</rscale>
<asrwt>0</asrwt>
<pdfrwt beam="1">  1        1 0.11370061E+00 0.17199664E+03</pdfrwt>
<pdfrwt beam="2">  1       -1 0.80581648E-02 0.17199664E+03</pdfrwt>
<totfact> 0.21935866E+03</totfact>
</mgrwt>
</event>
<event>
 8    1  0.1224355E-005  0.1114077E+03  0.7546771E-02  0.1268105E+00
          1   -1    0    0  501    0  0.00000000000E+00  0.00000000000E+00  0.18833218707E+03  0.18833218707E+03  0.00000000000E+00 0. -1.
         -1   -1    0    0    0  501 -0.00000000000E+00 -0.00000000000E+00 -0.55882008373E+02  0.55882008373E+02  0.00000000000E+00 0.  1.
         23    2    1    2    0    0  0.15661084990E+01 -0.13288930134E+02  0.41436418678E+02  0.10035603380E+03  0.90417411861E+02 0.  0.
         23    2    1    2    0    0 -0.15661084990E+01  0.13288930134E+02  0.91013760023E+02  0.14385816165E+03  0.11060116545E+03 0.  0.
          5    1    4    4  502    0 -0.23045747555E+02 -0.43648888879E+02  0.49363256868E+02  0.69965370787E+02  0.47000000000E+01 0. -1.
         -5    1    4    4    0  502  0.21479639056E+02  0.56937819012E+02  0.41650503154E+02  0.73892790859E+02  0.47000000000E+01 0.  1.
        -11    1    3    3    0    0  0.28663593260E+02 -0.11782103029E+02 -0.17414845403E+02  0.35548507293E+02  0.00000000000E+00 0.  1.
         11    1    3    3    0    0 -0.27097484761E+02 -0.15068271042E+01  0.58851264081E+02  0.64807526509E+02  0.00000000000E+00 0. -1.
<mgrwt>
<rscale>  0 0.10602918E+03</rscale>
<asrwt>0</asrwt>
<pdfrwt beam="1">  1        1 0.28974182E-01 0.11140766E+03</pdfrwt>
<pdfrwt beam="2">  1       -1 0.85972321E-02 0.11140766E+03</pdfrwt>
<totfact> 0.11275566E+04</totfact>
</mgrwt>
</event>
<event>
 8    1  0.1224355E-005  0.1276417E+03  0.7546771E-02  0.1247371E+00
          1   -1    0    0  501    0  0.00000000000E+00  0.00000000000E+00  0.25733524182E+03  0.25733524182E+03  0.00000000000E+00 0. -1.
         -1   -1    0    0    0  501 -0.00000000000E+00 -0.00000000000E+00 -0.50162723076E+02  0.50162723076E+02  0.00000000000E+00 0.  1.
         23    2    1    2    0    0  0.20158817843E+02 -0.16177438303E+02  0.47527104962E+02  0.10309871375E+03  0.87763498238E+02 0.  0.
         23    2    1    2    0    0 -0.20158817843E+02  0.16177438303E+02  0.15964541378E+03  0.20439925115E+03  0.12499723310E+03 0.  0.
          5    1    4    4  502    0 -0.46905717776E+02 -0.39914166995E+02  0.55542011017E+02  0.83067996694E+02  0.47000000000E+01 0.  1.
         -5    1    4    4    0  502  0.26746899934E+02  0.56091605297E+02  0.10410340277E+03  0.12133125446E+03  0.47000000000E+01 0.  1.
        -11    1    3    3    0    0  0.34642316614E+02  0.23692762590E+02  0.37430881903E+01  0.42136063043E+02  0.00000000000E+00 0.  1.
         11    1    3    3    0    0 -0.14483498772E+02 -0.39870200893E+02  0.43784016772E+02  0.60962650702E+02  0.00000000000E+00 0. -1.
<mgrwt>
<rscale>  0 0.11744605E+03</rscale>
<asrwt>0</asrwt>
<pdfrwt beam="1">  1        1 0.39590036E-01 0.12764167E+03</pdfrwt>
<pdfrwt beam="2">  1       -1 0.77173422E-02 0.12764167E+03</pdfrwt>
<totfact> 0.91219009E+03</totfact>
</mgrwt>
</event>
<event>
 8    1  0.1224355E-005  0.1468267E+03  0.7546771E-02  0.1214217E+00
          3   -1    0    0  501    0  0.00000000000E+00  0.00000000000E+00  0.39611376128E+02  0.39611376128E+02  0.00000000000E+00 0. -1.
         -3   -1    0    0    0  501 -0.00000000000E+00 -0.00000000000E+00 -0.46711451256E+03  0.46711451256E+03  0.00000000000E+00 0.  1.
         23    2    1    2    0    0 -0.76369803391E+02 -0.94508586654E+01 -0.24563230795E+03  0.27298443666E+03  0.90904380247E+02 0.  0.
         23    2    1    2    0    0  0.76369803391E+02  0.94508586654E+01 -0.18187082847E+03  0.23374145202E+03  0.12504560186E+03 0.  0.
          5    1    4    4  502    0  0.34201784763E+02 -0.57778519459E+02 -0.85368055011E+02  0.10871023047E+03  0.47000000000E+01 0. -1.
         -5    1    4    4    0  502  0.42168018628E+02  0.67229378124E+02 -0.96502773462E+02  0.12503122156E+03  0.47000000000E+01 0. -1.
        -11    1    3    3    0    0 -0.75216794664E+02  0.61260361901E+01 -0.24604631166E+03  0.25735944125E+03  0.00000000000E+00 0.  1.
         11    1    3    3    0    0 -0.11530087274E+01 -0.15576894855E+02  0.41400370709E+00  0.15624995409E+02  0.00000000000E+00 0. -1.
<mgrwt>
<rscale>  0 0.13934244E+03</rscale>
<asrwt>0</asrwt>
<pdfrwt beam="1">  1        3 0.60940580E-02 0.14682666E+03</pdfrwt>
<pdfrwt beam="2">  1       -3 0.71863769E-01 0.14682666E+03</pdfrwt>
<totfact> 0.73070837E+02</totfact>
</mgrwt>
</event>
<event>
 8    1  0.1224355E-005  0.1357124E+03  0.7546771E-02  0.1230340E+00
         -2   -1    0    0    0  501 -0.00000000000E+00  0.00000000000E+00  0.21837488140E+02  0.21837488140E+02  0.00000000000E+00 0.  1.
          2   -1    0    0  501    0  0.00000000000E+00 -0.00000000000E+00 -0.75273461007E+03  0.75273461007E+03  0.00000000000E+00 0. -1.
         23    2    1    2    0    0  0.32797629969E+02  0.41340999965E+02 -0.20619494757E+03  0.23260325539E+03  0.93825131000E+02 0.  0.
         23    2    1    2    0    0 -0.32797629969E+02 -0.41340999965E+02 -0.52470217436E+03  0.54196884282E+03  0.12503236378E+03 0.  0.
          5    1    4    4  502    0 -0.29249130691E+02 -0.52154820308E+02 -0.52616143822E+03  0.52956924571E+03  0.47000000000E+01 0. -1.
         -5    1    4    4    0  502 -0.35484992780E+01  0.10813820342E+02  0.14592638570E+01  0.12399597111E+02  0.47000000000E+01 0. -1.
        -11    1    3    3    0    0 -0.25333006400E+02  0.41505478197E+01 -0.15934499197E+02  0.30214177551E+02  0.00000000000E+00 0.  1.
         11    1    3    3    0    0  0.58130636369E+02  0.37190452146E+02 -0.19026044837E+03  0.20238907784E+03  0.00000000000E+00 0. -1.
<mgrwt>
<rscale>  0 0.12807528E+03</rscale>
<asrwt>0</asrwt>
<pdfrwt beam="2">  1        2 0.11580532E+00 0.13571240E+03</pdfrwt>
<pdfrwt beam="1">  1       -2 0.33596137E-02 0.13571240E+03</pdfrwt>
<totfact> 0.13076632E+04</totfact>
</mgrwt>
</event>
<event>
 7    1  0.1224355E-005  0.1723836E+03  0.7546771E-02  0.1190325E+00
         -3   -1    0    0    0  501 -0.00000000000E+00  0.00000000000E+00  0.41220013043E+02  0.41220013043E+02  0.00000000000E+00 0.  1.
          3   -1    0    0  501    0  0.00000000000E+00 -0.00000000000E+00 -0.74009517898E+03  0.74009517898E+03  0.00000000000E+00 0. -1.
         23    2    1    2    0    0  0.33737194758E+02  0.76697516373E+02 -0.10219360606E+03  0.16023146568E+03  0.90608399984E+02 0.  0.
          5    1    1    2  502    0  0.18611158103E+02 -0.10792632025E+03 -0.42230524571E+03  0.43630067197E+03  0.47000000000E+01 0. -1.
         -5    1    1    2    0  502 -0.52348352861E+02  0.31228803875E+02 -0.17437631418E+03  0.18478305437E+03  0.47000000000E+01 0.  1.
        -11    1    3    3    0    0  0.51169539981E+02  0.66195457198E+02 -0.11019933942E+03  0.13836204242E+03  0.00000000000E+00 0.  1.
         11    1    3    3    0    0 -0.17432345223E+02  0.10502059175E+02  0.80057333628E+01  0.21869423256E+02  0.00000000000E+00 0. -1.
<mgrwt>
<rscale>  0 0.15856655E+03</rscale>
<asrwt>0</asrwt>
<pdfrwt beam="2">  1        3 0.11386081E+00 0.17238362E+03</pdfrwt>
<pdfrwt beam="1">  1       -3 0.63415400E-02 0.17238362E+03</pdfrwt>
<totfact> 0.25105836E+02</totfact>
</mgrwt>
</event>
<event>
 8    1  0.1224355E-005  0.1278633E+03  0.7546771E-02  0.1240433E+00
          1   -1    0    0  501    0  0.00000000000E+00  0.00000000000E+00  0.24149428546E+03  0.24149428546E+03  0.00000000000E+00 0. -1.
         -1   -1    0    0    0  501 -0.00000000000E+00 -0.00000000000E+00 -0.56283833748E+02  0.56283833748E+02  0.00000000000E+00 0.  1.
         23    2    1    2    0    0 -0.17188458522E+02  0.31764917991E+02  0.94181100877E+02  0.14082155219E+03  0.98265846948E+02 0.  0.
         23    2    1    2    0    0  0.17188458522E+02 -0.31764917991E+02  0.91029350837E+02  0.15695656702E+03  0.12265630068E+03 0.  0.
          5    1    4    4  502    0  0.30708380607E+02 -0.23308715292E+02  0.11858018322E+03  0.12477840638E+03  0.47000000000E+01 0. -1.
         -5    1    4    4    0  502 -0.13519922086E+02 -0.84562026986E+01 -0.27550832380E+02  0.32178160639E+02  0.47000000000E+01 0.  1.
        -11    1    3    3    0    0  0.18225204291E+02  0.56848124340E+02  0.66416379401E+02  0.89302870980E+02  0.00000000000E+00 0. -1.
         11    1    3    3    0    0 -0.35413662813E+02 -0.25083206350E+02  0.27764721477E+02  0.51518681207E+02  0.00000000000E+00 0.  1.
<mgrwt>
<rscale>  0 0.12162948E+03</rscale>
<asrwt>0</asrwt>
<pdfrwt beam="1">  1        1 0.37152966E-01 0.12786329E+03</pdfrwt>
<pdfrwt beam="2">  1       -1 0.86590515E-02 0.12786329E+03</pdfrwt>
<totfact> 0.82949743E+03</totfact>
</mgrwt>
</event>
<event>
 8    1  0.1640612E-005  0.3159919E+03  0.7546771E-02  0.1078918E+00
          3   -1    0    0  501    0  0.00000000000E+00  0.00000000000E+00  0.16727357600E+04  0.16727357600E+04  0.00000000000E+00 0. -1.
         -3   -1    0    0    0  501 -0.00000000000E+00 -0.00000000000E+00 -0.63745051062E+02  0.63745051062E+02  0.00000000000E+00 0.  1.
         23    2    1    2    0    0  0.25899095091E+03 -0.13095731134E+03  0.51858153940E+03  0.60120859360E+03  0.91097914150E+02 0.  0.
         23    2    1    2    0    0 -0.25899095091E+03  0.13095731134E+03  0.10904091695E+04  0.11352722175E+04  0.12499888272E+03 0.  0.
          5    1    4    4  502    0 -0.38941492662E+01  0.38719272066E+02  0.22321072204E+03  0.22662626251E+03  0.47000000000E+01 0. -1.
         -5    1    4    4    0  502 -0.25509680165E+03  0.92238039275E+02  0.86719844750E+03  0.90864595495E+03  0.47000000000E+01 0. -1.
        -11    1    3    3    0    0  0.15413801737E+03 -0.10421244285E+03  0.24992869984E+03  0.31158163721E+03  0.00000000000E+00 0.  1.
         11    1    3    3    0    0  0.10485293354E+03 -0.26744868496E+02  0.26865283956E+03  0.28962695639E+03  0.00000000000E+00 0. -1.
<mgrwt>
<rscale>  0 0.31299635E+03</rscale>
<asrwt>0</asrwt>
<pdfrwt beam="1">  1        3 0.25734393E+00 0.31599185E+03</pdfrwt>
<pdfrwt beam="2">  1       -3 0.98069322E-02 0.31599185E+03</pdfrwt>
<totfact> 0.14314260E+01</totfact>
</mgrwt>
</event>
<event>
 8    1  0.1224355E-005  0.1488262E+03  0.7546771E-02  0.1210767E+00
          1   -1    0    0  501    0  0.00000000000E+00  0.00000000000E+00  0.22053924942E+03  0.22053924942E+03  0.00000000000E+00 0. -1.
         -1   -1    0    0    0  501 -0.00000000000E+00 -0.00000000000E+00 -0.16961937004E+03  0.16961937004E+03  0.00000000000E+00 0.  1.
         23    2    1    2    0    0  0.80263673914E+02 -0.88710378506E+01 -0.11418227087E+03  0.16787962091E+03  0.92871004477E+02 0.  0.
         23    2    1    2    0    0 -0.80263673914E+02  0.88710378506E+01  0.16510215025E+03  0.22227899855E+03  0.12501312138E+03 0.  0.
          5    1    4    4  502    0 -0.60606665399E+02 -0.44309607337E+02  0.40799692613E+02  0.85575779929E+02  0.47000000000E+01 0. -1.
         -5    1    4    4    0  502 -0.19657008516E+02  0.53180645187E+02  0.12430245764E+03  0.13670321862E+03  0.47000000000E+01 0. -1.
        -11    1    3    3    0    0  0.46649875388E+02  0.22999049349E+02 -0.87784289869E+01  0.52746828911E+02  0.00000000000E+00 0. -1.
         11    1    3    3    0    0  0.33613798526E+02 -0.31870087200E+02 -0.10540384188E+03  0.11513279200E+03  0.00000000000E+00 0.  1.
<mgrwt>
<rscale>  0 0.14192100E+03</rscale>
<asrwt>0</asrwt>
<pdfrwt beam="1">  1        1 0.33929115E-01 0.14882618E+03</pdfrwt>
<pdfrwt beam="2">  1       -1 0.26095288E-01 0.14882618E+03</pdfrwt>
<totfact> 0.16498003E+03</totfact>
</mgrwt>
</event>
<event>
 8    1  0.1224355E-005  0.1675461E+03  0.7546771E-02  0.1187178E+00
          2   -1    0    0  501    0  0.00000000000E+00  0.00000000000E+00  0.12241888561E+04  0.12241888561E+04  0.00000000000E+00 0. -1.
         -2   -1    0    0    0  501 -0.00000000000E+00 -0.00000000000E+00 -0.88062603606E+02  0.88062603606E+02  0.00000000000E+00 0.  1.
         23    2    1    2    0    0 -0.10816434550E+03 -0.27092428842E+02 -0.18712823718E+02  0.14532173081E+03  0.91294634769E+02 0.  0.
         23    2    1    2    0    0  0.10816434550E+03  0.27092428842E+02  0.11548390762E+04  0.11669297289E+04  0.12505268846E+03 0.  0.
          5    1    4    4  502    0 -0.25033230009E+02  0.12034858453E+02  0.33591513041E+03  0.33709429728E+03  0.47000000000E+01 0.  1.
         -5    1    4    4    0  502  0.13319757551E+03  0.15057570389E+02  0.81892394581E+03  0.82983543162E+03  0.47000000000E+01 0.  1.
        -11    1    3    3    0    0 -0.28136041557E+02  0.26613944044E+02  0.17322372865E+02  0.42426447574E+02  0.00000000000E+00 0.  1.
         11    1    3    3    0    0 -0.80028303939E+02 -0.53706372885E+02 -0.36035196583E+02  0.10289528324E+03  0.00000000000E+00 0. -1.
<mgrwt>
<rscale>  0 0.16135251E+03</rscale>
<asrwt>0</asrwt>
<pdfrwt beam="1">  1        2 0.18833673E+00 0.16754611E+03</pdfrwt>
<pdfrwt beam="2">  1       -2 0.13548094E-01 0.16754611E+03</pdfrwt>
<totfact> 0.79363619E+02</totfact>
</mgrwt>
</event>
<event>
 8    1  0.1224355E-005  0.1290038E+03  0.7546771E-02  0.1243711E+00
          2   -1    0    0  501    0  0.00000000000E+00  0.00000000000E+00  0.55880520681E+03  0.55880520681E+03  0.00000000000E+00 0. -1.
         -2   -1    0    0    0  501 -0.00000000000E+00 -0.00000000000E+00 -0.24055629048E+02  0.24055629048E+02  0.00000000000E+00 0.  1.
         23    2    1    2    0    0 -0.19737988681E+02  0.25045701040E+02  0.15721349176E+03  0.18389281306E+03  0.89908894815E+02 0.  0.
         23    2    1    2    0    0  0.19737988681E+02 -0.25045701040E+02  0.37753608600E+03  0.39896802280E+03  0.12500044657E+03 0.  0.
          5    1    4    4  502    0  0.21458296114E+02  0.49555848524E+02  0.16280339523E+03  0.17159043124E+03  0.47000000000E+01 0. -1.
         -5    1    4    4    0  502 -0.17203074339E+01 -0.74601549564E+02  0.21473269078E+03  0.22737759156E+03  0.47000000000E+01 0. -1.
        -11    1    3    3    0    0  0.28718835325E+02  0.18773230030E+02  0.23647736892E+02  0.41670386707E+02  0.00000000000E+00 0.  1.
         11    1    3    3    0    0 -0.48456824005E+02  0.62724710098E+01  0.13356575486E+03  0.14222242635E+03  0.00000000000E+00 0. -1.
<mgrwt>
<rscale>  0 0.11962860E+03</rscale>
<asrwt>0</asrwt>
<pdfrwt beam="1">  1        2 0.85970022E-01 0.12900383E+03</pdfrwt>
<pdfrwt beam="2">  1       -2 0.37008664E-02 0.12900383E+03</pdfrwt>
<totfact> 0.15963284E+04</totfact>
</mgrwt>
</event>
<event>
 8    1  0.1224355E-005  0.1521534E+03  0.7546771E-02  0.1206836E+00
          2   -1    0    0  501    0  0.00000000000E+00  0.00000000000E+00  0.25788885303E+03  0.25788885303E+03  0.00000000000E+00 0. -1.
         -2   -1    0    0    0  501 -0.00000000000E+00 -0.00000000000E+00 -0.84020759109E+02  0.84020759109E+02  0.00000000000E+00 0.  1.
         23    2    1    2    0    0 -0.13610732199E+02 -0.85678051432E+02  0.22491747905E+02  0.12728093258E+03  0.90380177844E+02 0.  0.
         23    2    1    2    0    0  0.13610732199E+02  0.85678051432E+02  0.15137634602E+03  0.21462867956E+03  0.12499876570E+03 0.  0.
          5    1    4    4  502    0  0.54848156330E+02 -0.13754675974E+01  0.64698190786E+02  0.84959743731E+02  0.47000000000E+01 0.  1.
         -5    1    4    4    0  502 -0.41237424130E+02  0.87053519030E+02  0.86678155232E+02  0.12966893583E+03  0.47000000000E+01 0.  1.
        -11    1    3    3    0    0  0.38757818945E+01 -0.45698440368E+02 -0.33135711658E+02  0.56580425276E+02  0.00000000000E+00 0.  1.
         11    1    3    3    0    0 -0.17486514094E+02 -0.39979611064E+02  0.55627459563E+02  0.70700507307E+02  0.00000000000E+00 0. -1.
<mgrwt>
<rscale>  0 0.14493724E+03</rscale>
<asrwt>0</asrwt>
<pdfrwt beam="1">  1        2 0.39675208E-01 0.15215345E+03</pdfrwt>
<pdfrwt beam="2">  1       -2 0.12926271E-01 0.15215345E+03</pdfrwt>
<totfact> 0.54342667E+03</totfact>
</mgrwt>
</event>
<event>
 8    1  0.1224355E-005  0.1287417E+03  0.7546771E-02  0.1236161E+00
          2   -1    0    0  501    0  0.00000000000E+00  0.00000000000E+00  0.14973248050E+04  0.14973248050E+04  0.00000000000E+00 0. -1.
         -2   -1    0    0    0  501 -0.00000000000E+00 -0.00000000000E+00 -0.13917515043E+02  0.13917515043E+02  0.00000000000E+00 0.  1.
         23    2    1    2    0    0  0.30653087405E+02 -0.63832650212E+01  0.28877241534E+03  0.30969044209E+03  0.10741649884E+03 0.  0.
         23    2    1    2    0    0 -0.30653087405E+02  0.63832650212E+01  0.11946348746E+04  0.12015518779E+04  0.12487623439E+03 0.  0.
          5    1    4    4  502    0 -0.46798936300E+02 -0.50523297721E+02  0.68781715745E+03  0.69127221565E+03  0.47000000000E+01 0.  1.
         -5    1    4    4    0  502  0.16145848895E+02  0.56906562742E+02  0.50681771713E+03  0.51027966226E+03  0.47000000000E+01 0.  1.
        -11    1    3    3    0    0  0.25226921333E+02  0.45831274602E+02  0.19835956489E+03  0.20514243899E+03  0.00000000000E+00 0. -1.
         11    1    3    3    0    0  0.54261660723E+01 -0.52214539623E+02  0.90412850451E+02  0.10454800310E+03  0.00000000000E+00 0.  1.
<mgrwt>
<rscale>  0 0.12430375E+03</rscale>
<asrwt>0</asrwt>
<pdfrwt beam="1">  1        2 0.23035754E+00 0.12874172E+03</pdfrwt>
<pdfrwt beam="2">  1       -2 0.21411573E-02 0.12874172E+03</pdfrwt>
<totfact> 0.93196076E+03</totfact>
</mgrwt>
</event>
<event>
 8    1  0.1224355E-005  0.1155281E+03  0.7546771E-02  0.1260924E+00
          2   -1    0    0  501    0  0.00000000000E+00  0.00000000000E+00  0.46038669437E+03  0.46038669437E+03  0.00000000000E+00 0. -1.
         -2   -1    0    0    0  501 -0.00000000000E+00 -0.00000000000E+00 -0.28647196829E+02  0.28647196829E+02  0.00000000000E+00 0.  1.
         23    2    1    2    0    0 -0.18166455137E+02 -0.15140406052E+02  0.98600828049E+02  0.13643198428E+03  0.91281493494E+02 0.  0.
         23    2    1    2    0    0  0.18166455137E+02  0.15140406052E+02  0.33313866950E+03  0.35260190692E+03  0.11308173887E+03 0.  0.
          5    1    4    4  502    0  0.35667110849E+02 -0.12848827497E+01  0.32476043525E+03  0.32674948205E+03  0.47000000000E+01 0. -1.
         -5    1    4    4    0  502 -0.17500655712E+02  0.16425288802E+02  0.83782342478E+01  0.25852424871E+02  0.47000000000E+01 0.  1.
        -11    1    3    3    0    0 -0.11259396708E+02 -0.51770129103E+02  0.37683425907E+02  0.65015081862E+02  0.00000000000E+00 0.  1.
         11    1    3    3    0    0 -0.69070584297E+01  0.36629723050E+02  0.60917402143E+02  0.71416902416E+02  0.00000000000E+00 0. -1.
<mgrwt>
<rscale>  0 0.10980898E+03</rscale>
<asrwt>0</asrwt>
<pdfrwt beam="1">  1        2 0.70828717E-01 0.11552806E+03</pdfrwt>
<pdfrwt beam="2">  1       -2 0.44072614E-02 0.11552806E+03</pdfrwt>
<totfact> 0.15098801E+04</totfact>
</mgrwt>
</event>
<event>
 8    1  0.1224355E-005  0.1297184E+03  0.7546771E-02  0.1241350E+00
         -1   -1    0    0    0  501 -0.00000000000E+00  0.00000000000E+00  0.36937942796E+02  0.36937942796E+02  0.00000000000E+00 0.  1.
          1   -1    0    0  501    0  0.00000000000E+00 -0.00000000000E+00 -0.50671227816E+03  0.50671227816E+03  0.00000000000E+00 0. -1.
         23    2    1    2    0    0  0.25799064997E+02  0.23169672644E+02 -0.63392206441E+02  0.11706693969E+03  0.92106845813E+02 0.  0.
         23    2    1    2    0    0 -0.25799064997E+02 -0.23169672644E+02 -0.40638212892E+03  0.42658328127E+03  0.12499774263E+03 0.  0.
          5    1    4    4  502    0  0.28177613915E+02 -0.94790284253E+01 -0.33293657498E+03  0.33429430576E+03  0.47000000000E+01 0. -1.
         -5    1    4    4    0  502 -0.53976678912E+02 -0.13690644219E+02 -0.73445553946E+02  0.92288975506E+02  0.47000000000E+01 0. -1.
        -11    1    3    3    0    0  0.12508861181E+02  0.28018030418E+02 -0.85489442588E+02  0.90829105635E+02  0.00000000000E+00 0. -1.
         11    1    3    3    0    0  0.13290203816E+02 -0.48483577736E+01  0.22097236146E+02  0.26237834055E+02  0.00000000000E+00 0.  1.
<mgrwt>
<rscale>  0 0.12106532E+03</rscale>
<asrwt>0</asrwt>
<pdfrwt beam="2">  1        1 0.77955729E-01 0.12971839E+03</pdfrwt>
<pdfrwt beam="1">  1       -1 0.56827609E-02 0.12971839E+03</pdfrwt>
<totfact> 0.61653821E+03</totfact>
</mgrwt>
</event>
<event>
 8    1  0.1224355E-005  0.1527741E+03  0.7546771E-02  0.1206615E+00
          2   -1    0    0  501    0  0.00000000000E+00  0.00000000000E+00  0.28705894232E+03  0.28705894232E+03  0.00000000000E+00 0. -1.
         -2   -1    0    0    0  501 -0.00000000000E+00 -0.00000000000E+00 -0.12535420242E+03  0.12535420242E+03  0.00000000000E+00 0.  1.
         23    2    1    2    0    0 -0.46262172805E+02  0.74666152513E+02 -0.64013123772E+02  0.13985400501E+03  0.88012724865E+02 0.  0.
         23    2    1    2    0    0  0.46262172805E+02 -0.74666152513E+02  0.22571786368E+03  0.27255913973E+03  0.12499883081E+03 0.  0.
          5    1    4    4  502    0  0.63852354003E+02 -0.53371709464E+02  0.22961149491E+03  0.24427278006E+03  0.47000000000E+01 0.  1.
         -5    1    4    4    0  502 -0.17590181198E+02 -0.21294443049E+02 -0.38936312326E+01  0.28286359672E+02  0.47000000000E+01 0.  1.
        -11    1    3    3    0    0 -0.35762581798E+02  0.79243577766E+02 -0.13406402137E+02  0.87967258069E+02  0.00000000000E+00 0. -1.
         11    1    3    3    0    0 -0.10499591007E+02 -0.45774252531E+01 -0.50606721635E+02  0.51886746939E+02  0.00000000000E+00 0.  1.
<mgrwt>
<rscale>  0 0.14510877E+03</rscale>
<asrwt>0</asrwt>
<pdfrwt beam="1">  1        2 0.44162914E-01 0.15277412E+03</pdfrwt>
<pdfrwt beam="2">  1       -2 0.19285262E-01 0.15277412E+03</pdfrwt>
<totfact> 0.25073338E+03</totfact>
</mgrwt>
</event>
<event>
 8    1  0.1224355E-005  0.1314500E+03  0.7546771E-02  0.1238161E+00
          2   -1    0    0  501    0  0.00000000000E+00  0.00000000000E+00  0.96453912437E+02  0.96453912437E+02  0.00000000000E+00 0. -1.
         -2   -1    0    0    0  501 -0.00000000000E+00 -0.00000000000E+00 -0.21179348911E+03  0.21179348911E+03  0.00000000000E+00 0.  1.
         23    2    1    2    0    0  0.38029027710E+02  0.14277275782E+02 -0.14191887689E+03  0.17413715936E+03  0.92372804972E+02 0.  0.
         23    2    1    2    0    0 -0.38029027710E+02 -0.14277275782E+02  0.26579300219E+02  0.13411024219E+03  0.12501620018E+03 0.  0.
          5    1    4    4  502    0 -0.77081806190E+02 -0.15888615881E+02  0.44853299517E+02  0.90708111201E+02  0.47000000000E+01 0.  1.
         -5    1    4    4    0  502  0.39052778480E+02  0.16113400990E+01 -0.18273999299E+02  0.43402130988E+02  0.47000000000E+01 0.  1.
        -11    1    3    3    0    0  0.98833883122E+00  0.49429403611E+02 -0.77612375946E+02  0.92021321741E+02  0.00000000000E+00 0. -1.
         11    1    3    3    0    0  0.37040688879E+02 -0.35152127829E+02 -0.64306500947E+02  0.82115837617E+02  0.00000000000E+00 0.  1.
<mgrwt>
<rscale>  0 0.12304209E+03</rscale>
<asrwt>0</asrwt>
<pdfrwt beam="1">  1        2 0.14839064E-01 0.13144998E+03</pdfrwt>
<pdfrwt beam="2">  1       -2 0.32583614E-01 0.13144998E+03</pdfrwt>
<totfact> 0.33221096E+03</totfact>
</mgrwt>
</event>
<event>
 8    1  0.1224355E-005  0.1327444E+03  0.7546771E-02  0.1235739E+00
         -1   -1    0    0    0  501 -0.00000000000E+00  0.00000000000E+00  0.13047936765E+03  0.13047936765E+03  0.00000000000E+00 0.  1.
          1   -1    0    0  501    0  0.00000000000E+00 -0.00000000000E+00 -0.16621606639E+03  0.16621606639E+03  0.00000000000E+00 0. -1.
         23    2    1    2    0    0  0.44576587417E+02 -0.32604903081E+01  0.72084481553E+02  0.12567939334E+03  0.92743918864E+02 0.  0.
         23    2    1    2    0    0 -0.44576587417E+02  0.32604903081E+01 -0.10782118029E+03  0.17101604071E+03  0.12499350510E+03 0.  0.
          5    1    4    4  502    0 -0.85267798307E+02 -0.12481168008E+02 -0.54979190022E+02  0.10232877561E+03  0.47000000000E+01 0.  1.
         -5    1    4    4    0  502  0.40691210891E+02  0.15741658316E+02 -0.52841990268E+02  0.68687265092E+02  0.47000000000E+01 0.  1.
        -11    1    3    3    0    0 -0.68797495897E+01 -0.15225782497E+02 -0.15892597072E+02  0.23059272511E+02  0.00000000000E+00 0. -1.
         11    1    3    3    0    0  0.51456337006E+02  0.11965292189E+02  0.87977078625E+02  0.10262012083E+03  0.00000000000E+00 0.  1.
<mgrwt>
<rscale>  0 0.12457216E+03</rscale>
<asrwt>0</asrwt>
<pdfrwt beam="2">  1        1 0.25571702E-01 0.13274441E+03</pdfrwt>
<pdfrwt beam="1">  1       -1 0.20073749E-01 0.13274441E+03</pdfrwt>
<totfact> 0.35818433E+03</totfact>
</mgrwt>
</event>
<event>
 8    1  0.1224355E-005  0.1752151E+03  0.7546771E-02  0.1179558E+00
          2   -1    0    0  501    0  0.00000000000E+00  0.00000000000E+00  0.96666415688E+03  0.96666415688E+03  0.00000000000E+00 0. -1.
         -2   -1    0    0    0  501 -0.00000000000E+00 -0.00000000000E+00 -0.30478819564E+02  0.30478819564E+02  0.00000000000E+00 0.  1.
         23    2    1    2    0    0  0.12264031013E+03 -0.58792031046E+01  0.27303899263E+03  0.31123963088E+03  0.85115249137E+02 0.  0.
         23    2    1    2    0    0 -0.12264031013E+03  0.58792031046E+01  0.66314634469E+03  0.68590334557E+03  0.12500045716E+03 0.  0.
          5    1    4    4  502    0 -0.11236078885E+03 -0.44211613075E+02  0.40252676552E+03  0.42027312615E+03  0.47000000000E+01 0.  1.
         -5    1    4    4    0  502 -0.10279521273E+02  0.50090816180E+02  0.26061957916E+03  0.26563021942E+03  0.47000000000E+01 0.  1.
        -11    1    3    3    0    0  0.73746845472E+02  0.26381063102E+02  0.21481500254E+03  0.22864829548E+03  0.00000000000E+00 0.  1.
         11    1    3    3    0    0  0.48893464653E+02 -0.32260266207E+02  0.58223990089E+02  0.82591335401E+02  0.00000000000E+00 0. -1.
<mgrwt>
<rscale>  0 0.16837009E+03</rscale>
<asrwt>0</asrwt>
<pdfrwt beam="1">  1        2 0.14871754E+00 0.17521508E+03</pdfrwt>
<pdfrwt beam="2">  1       -2 0.46890499E-02 0.17521508E+03</pdfrwt>
<totfact> 0.58455256E+03</totfact>
</mgrwt>
</event>
<event>
 8    1  0.1224355E-005  0.1370532E+03  0.7546771E-02  0.1230728E+00
          1   -1    0    0  501    0  0.00000000000E+00  0.00000000000E+00  0.32849465758E+03  0.32849465758E+03  0.00000000000E+00 0. -1.
         -1   -1    0    0    0  501 -0.00000000000E+00 -0.00000000000E+00 -0.44106417589E+02  0.44106417589E+02  0.00000000000E+00 0.  1.
         23    2    1    2    0    0  0.16473281182E+02 -0.53730863260E+02  0.12274443527E+03  0.16067582500E+03  0.87132942631E+02 0.  0.
         23    2    1    2    0    0 -0.16473281182E+02  0.53730863260E+02  0.16164380472E+03  0.21192525017E+03  0.12500086957E+03 0.  0.
          5    1    4    4  502    0  0.22561354271E+02 -0.24680895326E+02  0.97713476008E+02  0.10338362875E+03  0.47000000000E+01 0.  1.
         -5    1    4    4    0  502 -0.39034635453E+02  0.78411758586E+02  0.63930328716E+02  0.10854162141E+03  0.47000000000E+01 0.  1.
        -11    1    3    3    0    0  0.13117231336E+02 -0.18736370310E+02 -0.88065209229E+01  0.24508532006E+02  0.00000000000E+00 0.  1.
         11    1    3    3    0    0  0.33560498455E+01 -0.34994492950E+02  0.13155095619E+03  0.13616729300E+03  0.00000000000E+00 0. -1.
<mgrwt>
<rscale>  0 0.12781908E+03</rscale>
<asrwt>0</asrwt>
<pdfrwt beam="1">  1        1 0.50537638E-01 0.13705325E+03</pdfrwt>
<pdfrwt beam="2">  1       -1 0.67856029E-02 0.13705325E+03</pdfrwt>
<totfact> 0.82239574E+03</totfact>
</mgrwt>
</event>
<event>
 7    1  0.1224355E-005  0.1958276E+03  0.7546771E-02  0.1164425E+00
         -2   -1    0    0    0  501 -0.00000000000E+00  0.00000000000E+00  0.13978925995E+03  0.13978925995E+03  0.00000000000E+00 0.  1.
          2   -1    0    0  501    0  0.00000000000E+00 -0.00000000000E+00 -0.26458477496E+03  0.26458477496E+03  0.00000000000E+00 0. -1.
         23    2    1    2    0    0  0.34415591991E+01 -0.12327731932E+03  0.30865676648E+02  0.15421635451E+03  0.87297492597E+02 0.  0.
          5    1    1    2  502    0  0.72049639070E-02 -0.28939824624E+02 -0.68840866755E+02  0.74824250325E+02  0.47000000000E+01 0. -1.
         -5    1    1    2    0  502 -0.34487641630E+01  0.15221714395E+03 -0.86820324911E+02  0.17533343008E+03  0.47000000000E+01 0.  1.
        -11    1    3    3    0    0  0.31481111007E+02 -0.67807333158E+02  0.49101963621E+02  0.89442146731E+02  0.00000000000E+00 0.  1.
         11    1    3    3    0    0 -0.28039551808E+02 -0.55469986164E+02 -0.18236286973E+02  0.64774207777E+02  0.00000000000E+00 0. -1.
<mgrwt>
<rscale>  0 0.18353491E+03</rscale>
<asrwt>0</asrwt>
<pdfrwt beam="2">  1        2 0.40705350E-01 0.19582762E+03</pdfrwt>
<pdfrwt beam="1">  1       -2 0.21506040E-01 0.19582762E+03</pdfrwt>
<totfact> 0.22923421E+03</totfact>
</mgrwt>
</event>
<event>
 7    1  0.1224355E-005  0.1331339E+03  0.7546771E-02  0.1240800E+00
         -2   -1    0    0    0  501 -0.00000000000E+00  0.00000000000E+00  0.42373052390E+02  0.42373052390E+02  0.00000000000E+00 0.  1.
          2   -1    0    0  501    0  0.00000000000E+00 -0.00000000000E+00 -0.53272722097E+03  0.53272722097E+03  0.00000000000E+00 0. -1.
         23    2    1    2    0    0  0.20388393802E+02 -0.84440782118E+01 -0.31461127688E+02  0.97284978367E+02  0.89373236496E+02 0.  0.
          5    1    1    2  502    0  0.29631742022E+01  0.65904093848E+02 -0.17247750825E+03  0.18472333594E+03  0.47000000000E+01 0. -1.
         -5    1    1    2    0  502 -0.23351568004E+02 -0.57460015636E+02 -0.28641553263E+03  0.29309195905E+03  0.47000000000E+01 0.  1.
        -11    1    3    3    0    0  0.49698660357E+02 -0.15519176861E+02  0.21774110303E+01  0.52110870368E+02  0.00000000000E+00 0.  1.
         11    1    3    3    0    0 -0.29310266555E+02  0.70750986492E+01 -0.33638538718E+02  0.45174107999E+02  0.00000000000E+00 0. -1.
<mgrwt>
<rscale>  0 0.12140348E+03</rscale>
<asrwt>0</asrwt>
<pdfrwt beam="2">  1        2 0.81958031E-01 0.13313389E+03</pdfrwt>
<pdfrwt beam="1">  1       -2 0.65189313E-02 0.13313389E+03</pdfrwt>
<totfact> 0.72193786E+03</totfact>
</mgrwt>
</event>
<event>
 7    1  0.1224355E-005  0.1673535E+03  0.7546771E-02  0.1188798E+00
          1   -1    0    0  501    0  0.00000000000E+00  0.00000000000E+00  0.68277668715E+03  0.68277668715E+03  0.00000000000E+00 0. -1.
         -1   -1    0    0    0  501 -0.00000000000E+00 -0.00000000000E+00 -0.69488295620E+02  0.69488295620E+02  0.00000000000E+00 0.  1.
         23    2    1    2    0    0 -0.16021151097E+02 -0.10491375275E+03  0.26404996417E+02  0.14198691567E+03  0.90551022016E+02 0.  0.
          5    1    1    2  502    0  0.54459146313E+02  0.11301891238E+03  0.48492896204E+03  0.50091642157E+03  0.47000000000E+01 0. -1.
         -5    1    1    2    0  502 -0.38437995216E+02 -0.81051596345E+01  0.10195443308E+03  0.10936164553E+03  0.47000000000E+01 0.  1.
        -11    1    3    3    0    0 -0.40879730514E+02 -0.77214160067E+02 -0.12370822817E+02  0.88239538411E+02  0.00000000000E+00 0.  1.
         11    1    3    3    0    0  0.24858579417E+02 -0.27699592684E+02  0.38775819234E+02  0.53747377264E+02  0.00000000000E+00 0. -1.
<mgrwt>
<rscale>  0 0.15991070E+03</rscale>
<asrwt>0</asrwt>
<pdfrwt beam="1">  1        1 0.10504256E+00 0.16735352E+03</pdfrwt>
<pdfrwt beam="2">  1       -1 0.10690508E-01 0.16735352E+03</pdfrwt>
<totfact> 0.15963257E+03</totfact>
</mgrwt>
</event>
<event>
 8    1  0.1224355E-005  0.1789108E+03  0.7546771E-02  0.1174539E+00
         -2   -1    0    0    0  501 -0.00000000000E+00  0.00000000000E+00  0.29218399767E+02  0.29218399767E+02  0.00000000000E+00 0. -1.
          2   -1    0    0  501    0  0.00000000000E+00 -0.00000000000E+00 -0.98277632196E+03  0.98277632196E+03  0.00000000000E+00 0.  1.
         23    2    1    2    0    0 -0.12679808425E+03  0.17503614551E+02 -0.38149444960E+03  0.41260695559E+03  0.91226936969E+02 0.  0.
         23    2    1    2    0    0  0.12679808425E+03 -0.17503614551E+02 -0.57206347259E+03  0.59938776614E+03  0.12499978733E+03 0.  0.
          5    1    4    4  502    0  0.21155514040E+02  0.47325914640E+02 -0.22129415965E+03  0.22733344028E+03  0.47000000000E+01 0. -1.
         -5    1    4    4    0  502  0.10564257021E+03 -0.64829529190E+02 -0.35076931293E+03  0.37205432586E+03  0.47000000000E+01 0. -1.
        -11    1    3    3    0    0 -0.15707744617E+02  0.25447174871E+02 -0.17921821419E+03  0.18169606558E+03  0.00000000000E+00 0.  1.
         11    1    3    3    0    0 -0.11109033963E+03 -0.79435603199E+01 -0.20227623541E+03  0.23091089000E+03  0.00000000000E+00 0. -1.
<mgrwt>
<rscale>  0 0.17321233E+03</rscale>
<asrwt>0</asrwt>
<pdfrwt beam="2">  1        2 0.15119632E+00 0.17891081E+03</pdfrwt>
<pdfrwt beam="1">  1       -2 0.44951394E-02 0.17891081E+03</pdfrwt>
<totfact> 0.60941376E+03</totfact>
</mgrwt>
</event>
<event>
 7    1  0.1224355E-005  0.3471693E+03  0.7546771E-02  0.1103874E+00
          2   -1    0    0  501    0  0.00000000000E+00  0.00000000000E+00  0.32717788956E+03  0.32717788956E+03  0.00000000000E+00 0. -1.
         -2   -1    0    0    0  501 -0.00000000000E+00 -0.00000000000E+00 -0.17883322096E+03  0.17883322096E+03  0.00000000000E+00 0.  1.
         23    2    1    2    0    0 -0.45949742868E+02 -0.60449558928E+02 -0.19550296003E+02  0.12037495204E+03  0.91336668211E+02 0.  0.
          5    1    1    2  502    0 -0.10231702541E+03  0.83049996285E+02  0.19274899208E+03  0.23353873238E+03  0.47000000000E+01 0. -1.
         -5    1    1    2    0  502  0.14826676828E+03 -0.22600437357E+02 -0.24854027477E+02  0.15209742610E+03  0.47000000000E+01 0.  1.
        -11    1    3    3    0    0  0.19672797077E+02 -0.59834335343E+01 -0.27930177081E+02  0.34683068109E+02  0.00000000000E+00 0. -1.
         11    1    3    3    0    0 -0.65622539945E+02 -0.54466125394E+02  0.83798810779E+01  0.85691883928E+02  0.00000000000E+00 0.  1.
<mgrwt>
<rscale>  0 0.26551487E+03</rscale>
<asrwt>0</asrwt>
<pdfrwt beam="1">  1        2 0.50335060E-01 0.34716931E+03</pdfrwt>
<pdfrwt beam="2">  1       -2 0.27512803E-01 0.34716931E+03</pdfrwt>
<totfact> 0.11949063E+03</totfact>
</mgrwt>
</event>
<event>
 8    1  0.1224355E-005  0.1505264E+03  0.7546771E-02  0.1208811E+00
         -2   -1    0    0    0  501 -0.00000000000E+00  0.00000000000E+00  0.25060567982E+03  0.25060567982E+03  0.00000000000E+00 0.  1.
          2   -1    0    0  501    0  0.00000000000E+00 -0.00000000000E+00 -0.75747767445E+02  0.75747767445E+02  0.00000000000E+00 0. -1.
         23    2    1    2    0    0 -0.51606205858E+02 -0.66114953690E+02  0.65175716740E+02  0.14010529386E+03  0.91363185854E+02 0.  0.
         23    2    1    2    0    0  0.51606205858E+02  0.66114953690E+02  0.10968219564E+03  0.18624815341E+03  0.12499521201E+03 0.  0.
          5    1    4    4  502    0  0.80143199703E+02  0.83928199810E+02  0.90502529490E+02  0.14724018822E+03  0.47000000000E+01 0. -1.
         -5    1    4    4    0  502 -0.28536993845E+02 -0.17813246120E+02  0.19179666146E+02  0.39007965193E+02  0.47000000000E+01 0. -1.
        -11    1    3    3    0    0 -0.21438725756E+02 -0.48259281691E+01  0.68274448006E+02  0.71723837009E+02  0.00000000000E+00 0.  1.
         11    1    3    3    0    0 -0.30167480101E+02 -0.61289025521E+02 -0.30987312665E+01  0.68381456846E+02  0.00000000000E+00 0. -1.
<mgrwt>
<rscale>  0 0.14341174E+03</rscale>
<asrwt>0</asrwt>
<pdfrwt beam="2">  1        2 0.11653503E-01 0.15052638E+03</pdfrwt>
<pdfrwt beam="1">  1       -2 0.38554720E-01 0.15052638E+03</pdfrwt>
<totfact> 0.32687646E+03</totfact>
</mgrwt>
</event>
<event>
 8    1  0.1224355E-005  0.2114265E+03  0.7546771E-02  0.1144131E+00
          4   -1    0    0  501    0  0.00000000000E+00  0.00000000000E+00  0.94189602429E+02  0.94189602429E+02  0.00000000000E+00 0. -1.
         -4   -1    0    0    0  501 -0.00000000000E+00 -0.00000000000E+00 -0.45957243332E+03  0.45957243332E+03  0.00000000000E+00 0.  1.
         23    2    1    2    0    0  0.92932311086E+02 -0.14297189248E+03 -0.23875411397E+03  0.30731532955E+03  0.91442924047E+02 0.  0.
         23    2    1    2    0    0 -0.92932311086E+02  0.14297189248E+03 -0.12662871692E+03  0.24644670619E+03  0.12499508216E+03 0.  0.
          5    1    4    4  502    0 -0.10129360446E+02  0.12030540941E+03 -0.98805961364E+02  0.15607915773E+03  0.47000000000E+01 0. -1.
         -5    1    4    4    0  502 -0.82802950639E+02  0.22666483072E+02 -0.27822755555E+02  0.90367548468E+02  0.47000000000E+01 0. -1.
        -11    1    3    3    0    0  0.23514555048E+02  0.66205993483E+01 -0.56324813259E+02  0.61394227933E+02  0.00000000000E+00 0.  1.
         11    1    3    3    0    0  0.69417756038E+02 -0.14959249183E+03 -0.18242930071E+03  0.24592110162E+03  0.00000000000E+00 0. -1.
<mgrwt>
<rscale>  0 0.20679275E+03</rscale>
<asrwt>0</asrwt>
<pdfrwt beam="1">  1        4 0.14490708E-01 0.21142646E+03</pdfrwt>
<pdfrwt beam="2">  1       -4 0.70703453E-01 0.21142646E+03</pdfrwt>
<totfact> 0.13381416E+02</totfact>
</mgrwt>
</event>
<event>
 8    1  0.1224355E-005  0.1434114E+03  0.7546771E-02  0.1219429E+00
         -2   -1    0    0    0  501 -0.00000000000E+00  0.00000000000E+00  0.63196504952E+02  0.63196504952E+02  0.00000000000E+00 0. -1.
          2   -1    0    0  501    0  0.00000000000E+00 -0.00000000000E+00 -0.31060944890E+03  0.31060944890E+03  0.00000000000E+00 0.  1.
         23    2    1    2    0    0 -0.67773536655E+02 -0.18639775376E+02 -0.39278212095E+02  0.12104740171E+03  0.90382531605E+02 0.  0.
         23    2    1    2    0    0  0.67773536655E+02  0.18639775376E+02 -0.20813473185E+03  0.25275855214E+03  0.12500450223E+03 0.  0.
          5    1    4    4  502    0  0.17532688561E+02  0.48279302370E+02 -0.19312991576E+02  0.55076018820E+02  0.47000000000E+01 0. -1.
         -5    1    4    4    0  502  0.50240848094E+02 -0.29639526994E+02 -0.18882174028E+03  0.19768253332E+03  0.47000000000E+01 0. -1.
        -11    1    3    3    0    0  0.46899672900E+01 -0.35979658215E+02  0.10996586634E+01  0.36300700374E+02  0.00000000000E+00 0. -1.
         11    1    3    3    0    0 -0.72463503945E+02  0.17339882840E+02 -0.40377870758E+02  0.84746701339E+02  0.00000000000E+00 0.  1.
<mgrwt>
<rscale>  0 0.13556162E+03</rscale>
<asrwt>0</asrwt>
<pdfrwt beam="2">  1        2 0.47786069E-01 0.14341136E+03</pdfrwt>
<pdfrwt beam="1">  1       -2 0.97225392E-02 0.14341136E+03</pdfrwt>
<totfact> 0.69886497E+03</totfact>
</mgrwt>
</event>
<event>
 8    1  0.1224355E-005  0.1428601E+03  0.7546771E-02  0.1220282E+00
          1   -1    0    0  501    0  0.00000000000E+00  0.00000000000E+00  0.11424066116E+04  0.11424066116E+04  0.00000000000E+00 0. -1.
         -1   -1    0    0    0  501 -0.00000000000E+00 -0.00000000000E+00 -0.19822944292E+02  0.19822944292E+02  0.00000000000E+00 0.  1.
         23    2    1    2    0    0 -0.55929332143E+02  0.40693968528E+02  0.21286060012E+03  0.24135764951E+03  0.90331559412E+02 0.  0.
         23    2    1    2    0    0  0.55929332143E+02 -0.40693968528E+02  0.90972306718E+03  0.92087190638E+03  0.12499967887E+03 0.  0.
          5    1    4    4  502    0  0.67814141534E+02 -0.77914755824E+02  0.64275888020E+03  0.65102268397E+03  0.47000000000E+01 0.  1.
         -5    1    4    4    0  502 -0.11884809391E+02  0.37220787297E+02  0.26696418699E+03  0.26984922241E+03  0.47000000000E+01 0.  1.
        -11    1    3    3    0    0  0.11131910600E+02 -0.18647245345E+02  0.64604303775E+02  0.68156843082E+02  0.00000000000E+00 0.  1.
         11    1    3    3    0    0 -0.67061242743E+02  0.59341213873E+02  0.14825629635E+03  0.17320080643E+03  0.00000000000E+00 0. -1.
<mgrwt>
<rscale>  0 0.13495571E+03</rscale>
<asrwt>0</asrwt>
<pdfrwt beam="1">  1        1 0.17575481E+00 0.14286010E+03</pdfrwt>
<pdfrwt beam="2">  1       -1 0.30496846E-02 0.14286010E+03</pdfrwt>
<totfact> 0.45464976E+03</totfact>
</mgrwt>
</event>
<event>
 8    1  0.1224355E-005  0.1345172E+03  0.7546771E-02  0.1237265E+00
          1   -1    0    0  501    0  0.00000000000E+00  0.00000000000E+00  0.53942950186E+03  0.53942950186E+03  0.00000000000E+00 0. -1.
         -1   -1    0    0    0  501 -0.00000000000E+00 -0.00000000000E+00 -0.47613511797E+02  0.47613511797E+02  0.00000000000E+00 0.  1.
         23    2    1    2    0    0 -0.72076490276E+01 -0.49154756927E+02  0.22057190457E+02  0.98403872937E+02  0.82028423276E+02 0.  0.
         23    2    1    2    0    0  0.72076490276E+01  0.49154756927E+02  0.46975879961E+03  0.48863914072E+03  0.12500695862E+03 0.  0.
          5    1    4    4  502    0 -0.84187140342E+00 -0.34871644463E+02  0.26175768202E+03  0.26411344993E+03  0.47000000000E+01 0. -1.
         -5    1    4    4    0  502  0.80495204311E+01  0.84026401390E+02  0.20800111758E+03  0.22452569079E+03  0.47000000000E+01 0. -1.
        -11    1    3    3    0    0 -0.44588687613E+02 -0.25438933949E+02  0.79899380833E+01  0.51953147490E+02  0.00000000000E+00 0. -1.
         11    1    3    3    0    0  0.37381038586E+02 -0.23715822977E+02  0.14067252374E+02  0.46450725447E+02  0.00000000000E+00 0.  1.
<mgrwt>
<rscale>  0 0.12360556E+03</rscale>
<asrwt>0</asrwt>
<pdfrwt beam="1">  1        1 0.82989150E-01 0.13451721E+03</pdfrwt>
<pdfrwt beam="2">  1       -1 0.73251560E-02 0.13451721E+03</pdfrwt>
<totfact> 0.38942505E+03</totfact>
</mgrwt>
</event>
<event>
 8    1  0.1224355E-005  0.1363314E+03  0.7546771E-02  0.1230451E+00
         -2   -1    0    0    0  501 -0.00000000000E+00  0.00000000000E+00  0.30880807347E+02  0.30880807347E+02  0.00000000000E+00 0.  1.
          2   -1    0    0  501    0  0.00000000000E+00 -0.00000000000E+00 -0.52805399220E+03  0.52805399220E+03  0.00000000000E+00 0. -1.
         23    2    1    2    0    0  0.52491056044E+02  0.14137152278E+02 -0.13273734941E+03  0.16983363454E+03  0.90934533889E+02 0.  0.
         23    2    1    2    0    0 -0.52491056044E+02 -0.14137152278E+02 -0.36443583544E+03  0.38910116500E+03  0.12502427130E+03 0.  0.
          5    1    4    4  502    0 -0.50017213936E+02  0.28958641665E+02 -0.67411798332E+02  0.88919993091E+02  0.47000000000E+01 0.  1.
         -5    1    4    4    0  502 -0.24738421076E+01 -0.43095793943E+02 -0.29702403711E+03  0.30018117191E+03  0.47000000000E+01 0.  1.
        -11    1    3    3    0    0  0.25499949024E+01  0.10955221521E+02  0.12144322959E+02  0.16553064149E+02  0.00000000000E+00 0.  1.
         11    1    3    3    0    0  0.49941061141E+02  0.31819307573E+01 -0.14488167237E+03  0.15328057039E+03  0.00000000000E+00 0. -1.
<mgrwt>
<rscale>  0 0.12800193E+03</rscale>
<asrwt>0</asrwt>
<pdfrwt beam="2">  1        2 0.81239078E-01 0.13633136E+03</pdfrwt>
<pdfrwt beam="1">  1       -2 0.47508933E-02 0.13633136E+03</pdfrwt>
<totfact> 0.11772425E+04</totfact>
</mgrwt>
</event>
<event>
 8    1  0.1224355E-005  0.1360342E+03  0.7546771E-02  0.1230014E+00
         -1   -1    0    0    0  501 -0.00000000000E+00  0.00000000000E+00  0.12191599638E+03  0.12191599638E+03  0.00000000000E+00 0.  1.
          1   -1    0    0  501    0  0.00000000000E+00 -0.00000000000E+00 -0.12194771562E+03  0.12194771562E+03  0.00000000000E+00 0. -1.
         23    2    1    2    0    0 -0.41570701470E+02 -0.33943888538E+02  0.51696635272E+01  0.10773005931E+03  0.93266979516E+02 0.  0.
         23    2    1    2    0    0  0.41570701470E+02  0.33943888538E+02 -0.52013827715E+01  0.13613365269E+03  0.12500002489E+03 0.  0.
          5    1    4    4  502    0  0.38807070301E+02 -0.28950314198E+02 -0.40949262180E+02  0.63584915433E+02  0.47000000000E+01 0. -1.
         -5    1    4    4    0  502  0.27636311691E+01  0.62894202737E+02  0.35747879408E+02  0.72548737255E+02  0.47000000000E+01 0. -1.
        -11    1    3    3    0    0 -0.29096204580E+02  0.14924288885E+02  0.35986943272E+02  0.48624927822E+02  0.00000000000E+00 0.  1.
         11    1    3    3    0    0 -0.12474496890E+02 -0.48868177423E+02 -0.30817279745E+02  0.59105131488E+02  0.00000000000E+00 0. -1.
<mgrwt>
<rscale>  0 0.12829073E+03</rscale>
<asrwt>0</asrwt>
<pdfrwt beam="2">  1        1 0.18761187E-01 0.13603425E+03</pdfrwt>
<pdfrwt beam="1">  1       -1 0.18756307E-01 0.13603425E+03</pdfrwt>
<totfact> 0.59147452E+03</totfact>
</mgrwt>
</event>
<event>
 8    1  0.1224355E-005  0.1684182E+03  0.7546771E-02  0.1186243E+00
          1   -1    0    0  501    0  0.00000000000E+00  0.00000000000E+00  0.33728858221E+02  0.33728858221E+02  0.00000000000E+00 0. -1.
         -1   -1    0    0    0  501 -0.00000000000E+00 -0.00000000000E+00 -0.98676295625E+03  0.98676295625E+03  0.00000000000E+00 0.  1.
         23    2    1    2    0    0 -0.78881082407E+02  0.80737896216E+02 -0.71112379483E+03  0.72572868744E+03  0.90797814663E+02 0.  0.
         23    2    1    2    0    0  0.78881082407E+02 -0.80737896216E+02 -0.24191030319E+03  0.29476312703E+03  0.12499549279E+03 0.  0.
          5    1    4    4  502    0 -0.25857097584E+02 -0.45829696367E+02 -0.11455822700E+03  0.12615319235E+03  0.47000000000E+01 0.  1.
         -5    1    4    4    0  502  0.10473817999E+03 -0.34908199849E+02 -0.12735207619E+03  0.16860993468E+03  0.47000000000E+01 0.  1.
        -11    1    3    3    0    0  0.14569782341E+02 -0.71344290068E+01 -0.97513490866E+02  0.98853727980E+02  0.00000000000E+00 0.  1.
         11    1    3    3    0    0 -0.93450864748E+02  0.87872325223E+02 -0.61361030396E+03  0.62687495946E+03  0.00000000000E+00 0. -1.
<mgrwt>
<rscale>  0 0.16219247E+03</rscale>
<asrwt>0</asrwt>
<pdfrwt beam="1">  1        1 0.51890557E-02 0.16841825E+03</pdfrwt>
<pdfrwt beam="2">  1       -1 0.15180967E+00 0.16841825E+03</pdfrwt>
<totfact> 0.57638192E+02</totfact>
</mgrwt>
</event>
<event>
 7    1  0.1224355E-005  0.3100977E+03  0.7546771E-02  0.1094303E+00
         -2   -1    0    0    0  501 -0.00000000000E+00  0.00000000000E+00  0.63092616063E+02  0.63092616063E+02  0.00000000000E+00 0.  1.
          2   -1    0    0  501    0  0.00000000000E+00 -0.00000000000E+00 -0.11261630091E+04  0.11261630091E+04  0.00000000000E+00 0. -1.
         23    2    1    2    0    0  0.19070017957E+03 -0.30005551089E+02 -0.32855979876E+03  0.39196871519E+03  0.91766228798E+02 0.  0.
          5    1    1    2  502    0 -0.98617228221E+02 -0.83962483303E+02 -0.53029323026E+03  0.54590114157E+03  0.47000000000E+01 0. -1.
         -5    1    1    2    0  502 -0.92082951348E+02  0.11396803439E+03 -0.20421736406E+03  0.25138576844E+03  0.47000000000E+01 0.  1.
        -11    1    3    3    0    0  0.70815376445E+02  0.32828509500E+02 -0.10967408775E+03  0.13461401896E+03  0.00000000000E+00 0.  1.
         11    1    3    3    0    0  0.11988480312E+03 -0.62834060589E+02 -0.21888571101E+03  0.25735469623E+03  0.00000000000E+00 0. -1.
<mgrwt>
<rscale>  0 0.28255248E+03</rscale>
<asrwt>0</asrwt>
<pdfrwt beam="2">  1        2 0.17325584E+00 0.31009773E+03</pdfrwt>
<pdfrwt beam="1">  1       -2 0.97065567E-02 0.31009773E+03</pdfrwt>
<totfact> 0.15340585E+03</totfact>
</mgrwt>
</event>
<event>
 8    1  0.1224355E-005  0.1510065E+03  0.7546771E-02  0.1207834E+00
          1   -1    0    0  501    0  0.00000000000E+00  0.00000000000E+00  0.38252981389E+02  0.38252981389E+02  0.00000000000E+00 0. -1.
         -1   -1    0    0    0  501 -0.00000000000E+00 -0.00000000000E+00 -0.51310117173E+03  0.51310117173E+03  0.00000000000E+00 0.  1.
         23    2    1    2    0    0  0.77739848290E+02 -0.33675376064E+02 -0.17126993048E+03  0.21229260022E+03  0.92505373116E+02 0.  0.
         23    2    1    2    0    0 -0.77739848290E+02  0.33675376064E+02 -0.30357825987E+03  0.33906155291E+03  0.12500184731E+03 0.  0.
          5    1    4    4  502    0 -0.15099113920E+02  0.39160312921E+01  0.91612517855E+01  0.18690561161E+02  0.47000000000E+01 0. -1.
         -5    1    4    4    0  502 -0.62640734370E+02  0.29759344772E+02 -0.31273951165E+03  0.32037099175E+03  0.47000000000E+01 0. -1.
        -11    1    3    3    0    0 -0.10884226693E+02 -0.25712131378E+02 -0.80406622964E+02  0.85116420902E+02  0.00000000000E+00 0.  1.
         11    1    3    3    0    0  0.88624074983E+02 -0.79632446864E+01 -0.90863307514E+02  0.12717617931E+03  0.00000000000E+00 0. -1.
<mgrwt>
<rscale>  0 0.14416318E+03</rscale>
<asrwt>0</asrwt>
<pdfrwt beam="1">  1        1 0.58850741E-02 0.15100655E+03</pdfrwt>
<pdfrwt beam="2">  1       -1 0.78938641E-01 0.15100655E+03</pdfrwt>
<totfact> 0.21698867E+03</totfact>
</mgrwt>
</event>
<event>
 8    1  0.1535404E-005  0.2764913E+03  0.7546771E-02  0.1099936E+00
          2   -1    0    0  501    0  0.00000000000E+00  0.00000000000E+00  0.19448062574E+03  0.19448062574E+03  0.00000000000E+00 0. -1.
         -2   -1    0    0    0  501 -0.00000000000E+00 -0.00000000000E+00 -0.38665320313E+03  0.38665320313E+03  0.00000000000E+00 0.  1.
         23    2    1    2    0    0  0.21762345437E+03  0.11603076280E+03 -0.15276058649E+03  0.30184767337E+03  0.83385342398E+02 0.  0.
         23    2    1    2    0    0 -0.21762345437E+03 -0.11603076280E+03 -0.39411990903E+02  0.27928615549E+03  0.12499738324E+03 0.  0.
          5    1    4    4  502    0 -0.31021002419E+02 -0.19767662654E+02  0.40190611421E+02  0.54684900332E+02  0.47000000000E+01 0.  1.
         -5    1    4    4    0  502 -0.18660245195E+03 -0.96263100143E+02 -0.79602602323E+02  0.22460125516E+03  0.47000000000E+01 0.  1.
        -11    1    3    3    0    0  0.10610459600E+03  0.64359888956E+02 -0.12439022082E+03  0.17570801813E+03  0.00000000000E+00 0. -1.
         11    1    3    3    0    0  0.11151885838E+03  0.51670873842E+02 -0.28370365666E+02  0.12613965524E+03  0.00000000000E+00 0.  1.
<mgrwt>
<rscale>  0 0.27236155E+03</rscale>
<asrwt>0</asrwt>
<pdfrwt beam="1">  1        2 0.29920097E-01 0.27649132E+03</pdfrwt>
<pdfrwt beam="2">  1       -2 0.59485107E-01 0.27649132E+03</pdfrwt>
<totfact> 0.47525333E+02</totfact>
</mgrwt>
</event>
<event>
 8    1  0.1224355E-005  0.1332629E+03  0.7546771E-02  0.1234919E+00
         -2   -1    0    0    0  501 -0.00000000000E+00  0.00000000000E+00  0.75864460376E+02  0.75864460376E+02  0.00000000000E+00 0.  1.
          2   -1    0    0  501    0  0.00000000000E+00 -0.00000000000E+00 -0.22795748045E+03  0.22795748045E+03  0.00000000000E+00 0. -1.
         23    2    1    2    0    0  0.44240967126E+02 -0.13029755060E+02 -0.25389894817E+01  0.10350864449E+03  0.92631286980E+02 0.  0.
         23    2    1    2    0    0 -0.44240967126E+02  0.13029755060E+02 -0.14955403059E+03  0.20031329633E+03  0.12502788062E+03 0.  0.
          5    1    4    4  502    0 -0.61888320286E+02 -0.39575363088E+02 -0.10857332869E+03  0.13117404947E+03  0.47000000000E+01 0.  1.
         -5    1    4    4    0  502  0.17647353160E+02  0.52605118148E+02 -0.40980701904E+02  0.69139246868E+02  0.47000000000E+01 0.  1.
        -11    1    3    3    0    0  0.27186564907E+02  0.35901692037E+02  0.16990498617E+02  0.48132295248E+02  0.00000000000E+00 0.  1.
         11    1    3    3    0    0  0.17054402219E+02 -0.48931447097E+02 -0.19529488098E+02  0.55376349243E+02  0.00000000000E+00 0. -1.
<mgrwt>
<rscale>  0 0.12509602E+03</rscale>
<asrwt>0</asrwt>
<pdfrwt beam="2">  1        2 0.35070381E-01 0.13326293E+03</pdfrwt>
<pdfrwt beam="1">  1       -2 0.11671456E-01 0.13326293E+03</pdfrwt>
<totfact> 0.72413610E+03</totfact>
</mgrwt>
</event>
<event>
 8    1  0.1224355E-005  0.1257998E+03  0.7546771E-02  0.1249601E+00
         -2   -1    0    0    0  501 -0.00000000000E+00  0.00000000000E+00  0.77544076402E+02  0.77544076402E+02  0.00000000000E+00 0.  1.
          2   -1    0    0  501    0  0.00000000000E+00 -0.00000000000E+00 -0.17200625428E+03  0.17200625428E+03  0.00000000000E+00 0. -1.
         23    2    1    2    0    0  0.16822741206E+01  0.14079975671E+02  0.13746385360E+01  0.91403946811E+02  0.90286854527E+02 0.  0.
         23    2    1    2    0    0 -0.16822741206E+01 -0.14079975671E+02 -0.95836816417E+02  0.15814638388E+03  0.12499803035E+03 0.  0.
          5    1    4    4  502    0 -0.47009310056E+02 -0.44745606587E+02 -0.75263972531E+02  0.99492713813E+02  0.47000000000E+01 0. -1.
         -5    1    4    4    0  502  0.45327035935E+02  0.30665630916E+02 -0.20572843886E+02  0.58653670062E+02  0.47000000000E+01 0. -1.
        -11    1    3    3    0    0 -0.26920534145E+02  0.27946394398E+02  0.29670663564E+02  0.48847358115E+02  0.00000000000E+00 0.  1.
         11    1    3    3    0    0  0.28602808266E+02 -0.13866418727E+02 -0.28296025028E+02  0.42556588696E+02  0.00000000000E+00 0. -1.
<mgrwt>
<rscale>  0 0.11614188E+03</rscale>
<asrwt>0</asrwt>
<pdfrwt beam="2">  1        2 0.26462500E-01 0.12579977E+03</pdfrwt>
<pdfrwt beam="1">  1       -2 0.11929858E-01 0.12579977E+03</pdfrwt>
<totfact> 0.94400514E+03</totfact>
</mgrwt>
</event>
<event>
 8    1  0.1224355E-005  0.1488897E+03  0.7546771E-02  0.1212302E+00
          1   -1    0    0  501    0  0.00000000000E+00  0.00000000000E+00  0.13824582498E+03  0.13824582498E+03  0.00000000000E+00 0. -1.
         -1   -1    0    0    0  501 -0.00000000000E+00 -0.00000000000E+00 -0.13542822736E+03  0.13542822736E+03  0.00000000000E+00 0.  1.
         23    2    1    2    0    0 -0.73141006563E+02  0.34553897442E+02 -0.26621685662E+02  0.12190175973E+03  0.87222395110E+02 0.  0.
         23    2    1    2    0    0  0.73141006563E+02 -0.34553897442E+02  0.29439283287E+02  0.15177229261E+03  0.12499831492E+03 0.  0.
          5    1    4    4  502    0 -0.43242784114E+01  0.23338745739E+02 -0.29706642819E+02  0.38314110508E+02  0.47000000000E+01 0. -1.
         -5    1    4    4    0  502  0.77465284974E+02 -0.57892643181E+02  0.59145926106E+02  0.11345818210E+03  0.47000000000E+01 0. -1.
        -11    1    3    3    0    0 -0.43232945720E+02  0.51829689677E+02 -0.46583935441E+02  0.82008946883E+02  0.00000000000E+00 0.  1.
         11    1    3    3    0    0 -0.29908060842E+02 -0.17275792235E+02  0.19962249780E+02  0.39892812848E+02  0.00000000000E+00 0. -1.
<mgrwt>
<rscale>  0 0.14076615E+03</rscale>
<asrwt>0</asrwt>
<pdfrwt beam="1">  1        1 0.21268588E-01 0.14888975E+03</pdfrwt>
<pdfrwt beam="2">  1       -1 0.20835112E-01 0.14888975E+03</pdfrwt>
<totfact> 0.42823450E+03</totfact>
</mgrwt>
</event>
<event>
 8    1  0.1224355E-005  0.1321917E+03  0.7546771E-02  0.1238096E+00
         -4   -1    0    0    0  501 -0.00000000000E+00  0.00000000000E+00  0.34529677552E+02  0.34529677552E+02  0.00000000000E+00 0.  1.
          4   -1    0    0  501    0  0.00000000000E+00 -0.00000000000E+00 -0.39542187122E+03  0.39542187122E+03  0.00000000000E+00 0. -1.
         23    2    1    2    0    0 -0.31505481033E+01  0.42857315640E+02 -0.18416053008E+03  0.20925104056E+03  0.89578020078E+02 0.  0.
         23    2    1    2    0    0  0.31505481033E+01 -0.42857315640E+02 -0.17673166359E+03  0.22070050821E+03  0.12501183125E+03 0.  0.
          5    1    4    4  502    0  0.29789108090E+02 -0.65955748859E+02 -0.47575205442E+02  0.86735471066E+02  0.47000000000E+01 0.  1.
         -5    1    4    4    0  502 -0.26638559987E+02  0.23098433219E+02 -0.12915645815E+03  0.13396503715E+03  0.47000000000E+01 0.  1.
        -11    1    3    3    0    0 -0.26907521462E+02 -0.53013469645E+01 -0.13946523266E+02  0.30767263480E+02  0.00000000000E+00 0.  1.
         11    1    3    3    0    0  0.23756973358E+02  0.48158662604E+02 -0.17021400681E+03  0.17848377708E+03  0.00000000000E+00 0. -1.
<mgrwt>
<rscale>  0 0.12308287E+03</rscale>
<asrwt>0</asrwt>
<pdfrwt beam="2">  1        4 0.60834133E-01 0.13219165E+03</pdfrwt>
<pdfrwt beam="1">  1       -4 0.53122582E-02 0.13219165E+03</pdfrwt>
<totfact> 0.91756202E+02</totfact>
</mgrwt>
</event>
<event>
 7    1  0.1224355E-005  0.1792602E+03  0.7546771E-02  0.1184718E+00
         -1   -1    0    0    0  501 -0.00000000000E+00  0.00000000000E+00  0.89611931500E+02  0.89611931500E+02  0.00000000000E+00 0.  1.
          1   -1    0    0  501    0  0.00000000000E+00 -0.00000000000E+00 -0.50473338145E+03  0.50473338145E+03  0.00000000000E+00 0. -1.
         23    2    1    2    0    0  0.19141924716E+02 -0.82142442147E+02  0.18010845982E+02  0.12558331022E+03  0.91285174861E+02 0.  0.
          5    1    1    2  502    0 -0.20322727644E+01  0.11888350279E+03 -0.39635554766E+03  0.41383236646E+03  0.47000000000E+01 0. -1.
         -5    1    1    2    0  502 -0.17109651952E+02 -0.36741060645E+02 -0.36776748269E+02  0.54929636267E+02  0.47000000000E+01 0.  1.
        -11    1    3    3    0    0  0.39653660909E+02 -0.39530740286E+02  0.44370975314E+02  0.71441414469E+02  0.00000000000E+00 0.  1.
         11    1    3    3    0    0 -0.20511736193E+02 -0.42611701861E+02 -0.26360129332E+02  0.54141895752E+02  0.00000000000E+00 0. -1.
<mgrwt>
<rscale>  0 0.16357529E+03</rscale>
<asrwt>0</asrwt>
<pdfrwt beam="2">  1        1 0.77651290E-01 0.17926023E+03</pdfrwt>
<pdfrwt beam="1">  1       -1 0.13786451E-01 0.17926023E+03</pdfrwt>
<totfact> 0.16275067E+03</totfact>
</mgrwt>
</event>
<event>
 8    1  0.1224355E-005  0.1289773E+03  0.7546771E-02  0.1242933E+00
          1   -1    0    0  501    0  0.00000000000E+00  0.00000000000E+00  0.14433327992E+03  0.14433327992E+03  0.00000000000E+00 0. -1.
         -1   -1    0    0    0  501 -0.00000000000E+00 -0.00000000000E+00 -0.88503930149E+02  0.88503930149E+02  0.00000000000E+00 0.  1.
         23    2    1    2    0    0  0.11378891405E+02  0.29928157674E+02  0.20538779614E+02  0.99119012829E+02  0.91529030612E+02 0.  0.
         23    2    1    2    0    0 -0.11378891405E+02 -0.29928157674E+02  0.35290570154E+02  0.13371819724E+03  0.12493981807E+03 0.  0.
          5    1    4    4  502    0 -0.36553726913E+02  0.39445588138E+02  0.65489200287E+01  0.54379295034E+02  0.47000000000E+01 0. -1.
         -5    1    4    4    0  502  0.25174835508E+02 -0.69373745812E+02  0.28741650125E+02  0.79338902203E+02  0.47000000000E+01 0. -1.
        -11    1    3    3    0    0  0.51097661669E+02  0.15799654671E+02  0.19565658134E+02  0.56950988525E+02  0.00000000000E+00 0. -1.
         11    1    3    3    0    0 -0.39718770263E+02  0.14128503003E+02  0.97312147971E+00  0.42168024304E+02  0.00000000000E+00 0.  1.
<mgrwt>
<rscale>  0 0.12009962E+03</rscale>
<asrwt>0</asrwt>
<pdfrwt beam="1">  1        1 0.22205120E-01 0.12897725E+03</pdfrwt>
<pdfrwt beam="2">  1       -1 0.13615989E-01 0.12897725E+03</pdfrwt>
<totfact> 0.78776131E+03</totfact>
</mgrwt>
</event>
<event>
 8    1  0.1224355E-005  0.1299927E+03  0.7546771E-02  0.1240663E+00
          1   -1    0    0  501    0  0.00000000000E+00  0.00000000000E+00  0.11658588046E+03  0.11658588046E+03  0.00000000000E+00 0. -1.
         -1   -1    0    0    0  501 -0.00000000000E+00 -0.00000000000E+00 -0.11311501944E+03  0.11311501944E+03  0.00000000000E+00 0.  1.
         23    2    1    2    0    0  0.12333712440E+02 -0.33499313722E+02 -0.61064048311E+01  0.99355852094E+02  0.92520120423E+02 0.  0.
         23    2    1    2    0    0 -0.12333712440E+02  0.33499313722E+02  0.95772658579E+01  0.13034504781E+03  0.12499513184E+03 0.  0.
          5    1    4    4  502    0  0.21343984845E+02 -0.25209557106E+02 -0.35633948201E+02  0.48815527478E+02  0.47000000000E+01 0.  1.
         -5    1    4    4    0  502 -0.33677697285E+02  0.58708870828E+02  0.45211214059E+02  0.81529520328E+02  0.47000000000E+01 0.  1.
        -11    1    3    3    0    0  0.46571827547E+02  0.57888312342E+01 -0.53779377081E+01  0.47237357061E+02  0.00000000000E+00 0.  1.
         11    1    3    3    0    0 -0.34238115107E+02 -0.39288144956E+02 -0.72846712298E+00  0.52118495033E+02  0.00000000000E+00 0. -1.
<mgrwt>
<rscale>  0 0.12148767E+03</rscale>
<asrwt>0</asrwt>
<pdfrwt beam="1">  1        1 0.17936289E-01 0.12999272E+03</pdfrwt>
<pdfrwt beam="2">  1       -1 0.17402311E-01 0.12999272E+03</pdfrwt>
<totfact> 0.70345870E+03</totfact>
</mgrwt>
</event>
<event>
 8    1  0.1224355E-005  0.1287671E+03  0.7546771E-02  0.1245574E+00
         -1   -1    0    0    0  501 -0.00000000000E+00  0.00000000000E+00  0.17085496521E+02  0.17085496521E+02  0.00000000000E+00 0.  1.
          1   -1    0    0  501    0  0.00000000000E+00 -0.00000000000E+00 -0.10359863566E+04  0.10359863566E+04  0.00000000000E+00 0. -1.
         23    2    1    2    0    0  0.18849560946E+02 -0.24508126083E+02 -0.16152488076E+03  0.18608018854E+03  0.87060871067E+02 0.  0.
         23    2    1    2    0    0 -0.18849560946E+02  0.24508126083E+02 -0.85737597933E+03  0.86699166459E+03  0.12500008938E+03 0.  0.
          5    1    4    4  502    0  0.87220346757E+01 -0.35534298733E+02 -0.97683150459E+02  0.10441670441E+03  0.47000000000E+01 0.  1.
         -5    1    4    4    0  502 -0.27571595622E+02  0.60042424816E+02 -0.75969282887E+03  0.76257496018E+03  0.47000000000E+01 0.  1.
        -11    1    3    3    0    0  0.27484482225E+02 -0.45551725098E+02 -0.52629872891E+02  0.74834884533E+02  0.00000000000E+00 0.  1.
         11    1    3    3    0    0 -0.86349212786E+01  0.21043599014E+02 -0.10889500787E+03  0.11124530401E+03  0.00000000000E+00 0. -1.
<mgrwt>
<rscale>  0 0.11851074E+03</rscale>
<asrwt>0</asrwt>
<pdfrwt beam="2">  1        1 0.15938257E+00 0.12876714E+03</pdfrwt>
<pdfrwt beam="1">  1       -1 0.26285370E-02 0.12876714E+03</pdfrwt>
<totfact> 0.66832076E+03</totfact>
</mgrwt>
</event>
<event>
 8    1  0.1224355E-005  0.1883644E+03  0.7546771E-02  0.1160754E+00
         -2   -1    0    0    0  501 -0.00000000000E+00  0.00000000000E+00  0.37087330913E+02  0.37087330913E+02  0.00000000000E+00 0.  1.
          2   -1    0    0  501    0  0.00000000000E+00 -0.00000000000E+00 -0.10474015890E+04  0.10474015890E+04  0.00000000000E+00 0. -1.
         23    2    1    2    0    0 -0.61349418610E+02 -0.12685369948E+03 -0.32640636867E+03  0.37511513763E+03  0.11964379104E+03 0.  0.
         23    2    1    2    0    0  0.61349418610E+02  0.12685369948E+03 -0.68390788942E+03  0.70937378229E+03  0.12500219818E+03 0.  0.
          5    1    4    4  502    0  0.59158937186E+02  0.34648975980E+02 -0.48771116231E+03  0.49252878010E+03  0.47000000000E+01 0. -1.
         -5    1    4    4    0  502  0.21904814239E+01  0.92204723500E+02 -0.19619672711E+03  0.21684500219E+03  0.47000000000E+01 0. -1.
        -11    1    3    3    0    0 -0.48742247743E+02 -0.62619567951E+02 -0.56572933145E+02  0.97455188523E+02  0.00000000000E+00 0.  1.
         11    1    3    3    0    0 -0.12607170867E+02 -0.64234131529E+02 -0.26983343552E+03  0.27765994911E+03  0.00000000000E+00 0. -1.
<mgrwt>
<rscale>  0 0.18748011E+03</rscale>
<asrwt>0</asrwt>
<pdfrwt beam="2">  1        2 0.16113870E+00 0.18836444E+03</pdfrwt>
<pdfrwt beam="1">  1       -2 0.57057433E-02 0.18836444E+03</pdfrwt>
<totfact> 0.38903315E+03</totfact>
</mgrwt>
</event>
<event>
 8    1  0.1224355E-005  0.1448260E+03  0.7546771E-02  0.1218493E+00
          2   -1    0    0  501    0  0.00000000000E+00  0.00000000000E+00  0.56930031495E+03  0.56930031495E+03  0.00000000000E+00 0. -1.
         -2   -1    0    0    0  501 -0.00000000000E+00 -0.00000000000E+00 -0.29362173702E+02  0.29362173702E+02  0.00000000000E+00 0.  1.
         23    2    1    2    0    0 -0.55856252097E+02 -0.47271882494E+02  0.25303906562E+03  0.27728161760E+03  0.86612787492E+02 0.  0.
         23    2    1    2    0    0  0.55856252097E+02  0.47271882494E+02  0.28689907563E+03  0.32138087106E+03  0.12498013005E+03 0.  0.
          5    1    4    4  502    0  0.56638080900E+01 -0.26962829086E+02  0.90143249398E+01  0.29367004078E+02  0.47000000000E+01 0. -1.
         -5    1    4    4    0  502  0.50192444007E+02  0.74234711581E+02  0.27788475069E+03  0.29201386698E+03  0.47000000000E+01 0. -1.
        -11    1    3    3    0    0 -0.59159526788E+01 -0.22075252569E+02  0.55074085516E+01  0.23508441485E+02  0.00000000000E+00 0.  1.
         11    1    3    3    0    0 -0.49940299418E+02 -0.25196629925E+02  0.24753165707E+03  0.25377317611E+03  0.00000000000E+00 0. -1.
<mgrwt>
<rscale>  0 0.13623059E+03</rscale>
<asrwt>0</asrwt>
<pdfrwt beam="1">  1        2 0.87584655E-01 0.14482605E+03</pdfrwt>
<pdfrwt beam="2">  1       -2 0.45172579E-02 0.14482605E+03</pdfrwt>
<totfact> 0.11721936E+04</totfact>
</mgrwt>
</event>
<event>
 8    1  0.1224355E-005  0.1299185E+03  0.7546771E-02  0.1241760E+00
         -1   -1    0    0    0  501 -0.00000000000E+00  0.00000000000E+00  0.44100650692E+02  0.44100650692E+02  0.00000000000E+00 0.  1.
          1   -1    0    0  501    0  0.00000000000E+00 -0.00000000000E+00 -0.43181842350E+03  0.43181842350E+03  0.00000000000E+00 0. -1.
         23    2    1    2    0    0  0.14748255769E+02  0.32172777669E+02 -0.40617465946E+02  0.10530144048E+03  0.90476605572E+02 0.  0.
         23    2    1    2    0    0 -0.14748255769E+02 -0.32172777669E+02 -0.34710030686E+03  0.37061763371E+03  0.12500483480E+03 0.  0.
          5    1    4    4  502    0 -0.64289017629E+01 -0.36624112624E+02 -0.18408186452E+02  0.41756529212E+02  0.47000000000E+01 0. -1.
         -5    1    4    4    0  502 -0.83193540058E+01  0.44513349553E+01 -0.32869212041E+03  0.32886110450E+03  0.47000000000E+01 0. -1.
        -11    1    3    3    0    0 -0.33560672807E+02  0.32475312620E+02 -0.30972911004E+02  0.56038253944E+02  0.00000000000E+00 0.  1.
         11    1    3    3    0    0  0.48308928576E+02 -0.30253495100E+00 -0.96445549414E+01  0.49263186535E+02  0.00000000000E+00 0. -1.
<mgrwt>
<rscale>  0 0.12081384E+03</rscale>
<asrwt>0</asrwt>
<pdfrwt beam="2">  1        1 0.66433602E-01 0.12991846E+03</pdfrwt>
<pdfrwt beam="1">  1       -1 0.67847157E-02 0.12991846E+03</pdfrwt>
<totfact> 0.58170351E+03</totfact>
</mgrwt>
</event>
<event>
 8    1  0.1224355E-005  0.1405786E+03  0.7546771E-02  0.1222881E+00
         -1   -1    0    0    0  501 -0.00000000000E+00  0.00000000000E+00  0.14594001484E+03  0.14594001484E+03  0.00000000000E+00 0.  1.
          1   -1    0    0  501    0  0.00000000000E+00 -0.00000000000E+00 -0.11704574593E+03  0.11704574593E+03  0.00000000000E+00 0. -1.
         23    2    1    2    0    0  0.51029087186E+02  0.39164197309E+02  0.44553249951E+02  0.12153774491E+03  0.92998006788E+02 0.  0.
         23    2    1    2    0    0 -0.51029087186E+02 -0.39164197309E+02 -0.15658981035E+02  0.14144801586E+03  0.12499814164E+03 0.  0.
          5    1    4    4  502    0  0.23686352578E+02  0.29934637079E+02 -0.61712234992E+00  0.38465525285E+02  0.47000000000E+01 0. -1.
         -5    1    4    4    0  502 -0.74715439764E+02 -0.69098834388E+02 -0.15041858685E+02  0.10298249058E+03  0.47000000000E+01 0. -1.
        -11    1    3    3    0    0 -0.10334083880E+02 -0.34748957361E+01 -0.20008924797E+02  0.22786514906E+02  0.00000000000E+00 0. -1.
         11    1    3    3    0    0  0.61363171066E+02  0.42639093045E+02  0.64562174748E+02  0.98751230004E+02  0.00000000000E+00 0.  1.
<mgrwt>
<rscale>  0 0.13313218E+03</rscale>
<asrwt>0</asrwt>
<pdfrwt beam="2">  1        1 0.18007038E-01 0.14057858E+03</pdfrwt>
<pdfrwt beam="1">  1       -1 0.22452310E-01 0.14057858E+03</pdfrwt>
<totfact> 0.46753694E+03</totfact>
</mgrwt>
</event>
<event>
 8    1  0.1224355E-005  0.1327746E+03  0.7546771E-02  0.1236331E+00
         -4   -1    0    0    0  501 -0.00000000000E+00  0.00000000000E+00  0.18064311344E+03  0.18064311344E+03  0.00000000000E+00 0. -1.
          4   -1    0    0  501    0  0.00000000000E+00 -0.00000000000E+00 -0.90464276507E+02  0.90464276507E+02  0.00000000000E+00 0.  1.
         23    2    1    2    0    0  0.31743441313E+02  0.31572249391E+02  0.93760427369E+02  0.13828451860E+03  0.91253149790E+02 0.  0.
         23    2    1    2    0    0 -0.31743441313E+02 -0.31572249391E+02 -0.35815904369E+01  0.13282287134E+03  0.12499853745E+03 0.  0.
          5    1    4    4  502    0  0.47549194715E+02 -0.18139540010E+02 -0.97403342083E+01  0.52028193706E+02  0.47000000000E+01 0. -1.
         -5    1    4    4    0  502 -0.79292636028E+02 -0.13432709381E+02  0.61587437714E+01  0.80794677637E+02  0.47000000000E+01 0. -1.
        -11    1    3    3    0    0  0.98550947191E+01  0.31011268515E+02 -0.85607942956E+01  0.33646825494E+02  0.00000000000E+00 0.  1.
         11    1    3    3    0    0  0.21888346594E+02  0.56098087625E+00  0.10232122166E+03  0.10463769311E+03  0.00000000000E+00 0. -1.
<mgrwt>
<rscale>  0 0.12419585E+03</rscale>
<asrwt>0</asrwt>
<pdfrwt beam="2">  1        4 0.13917581E-01 0.13277457E+03</pdfrwt>
<pdfrwt beam="1">  1       -4 0.27791248E-01 0.13277457E+03</pdfrwt>
<totfact> 0.86887719E+02</totfact>
</mgrwt>
</event>
<event>
 8    1  0.1224355E-005  0.1586026E+03  0.7546771E-02  0.1197832E+00
         -2   -1    0    0    0  501 -0.00000000000E+00  0.00000000000E+00  0.34902545822E+02  0.34902545822E+02  0.00000000000E+00 0.  1.
          2   -1    0    0  501    0  0.00000000000E+00 -0.00000000000E+00 -0.70232893747E+03  0.70232893747E+03  0.00000000000E+00 0. -1.
         23    2    1    2    0    0 -0.82010266479E+02 -0.52954848219E+02 -0.17991161837E+03  0.22456645373E+03  0.92368836505E+02 0.  0.
         23    2    1    2    0    0  0.82010266479E+02  0.52954848219E+02 -0.48751477328E+03  0.51266502957E+03  0.12499951447E+03 0.  0.
          5    1    4    4  502    0  0.94159770550E+02  0.10130262339E+02 -0.42696012971E+03  0.43736223770E+03  0.47000000000E+01 0. -1.
         -5    1    4    4    0  502 -0.12149504071E+02  0.42824585880E+02 -0.60554643569E+02  0.75302791865E+02  0.47000000000E+01 0. -1.
        -11    1    3    3    0    0 -0.82508750711E+02 -0.71365396500E+02 -0.17372704826E+03  0.20513849238E+03  0.00000000000E+00 0.  1.
         11    1    3    3    0    0  0.49848423120E+00  0.18410548281E+02 -0.61845701156E+01  0.19427961346E+02  0.00000000000E+00 0. -1.
<mgrwt>
<rscale>  0 0.15216968E+03</rscale>
<asrwt>0</asrwt>
<pdfrwt beam="2">  1        2 0.10805061E+00 0.15860258E+03</pdfrwt>
<pdfrwt beam="1">  1       -2 0.53696221E-02 0.15860258E+03</pdfrwt>
<totfact> 0.71239631E+03</totfact>
</mgrwt>
</event>
<event>
 8    1  0.1224355E-005  0.1516277E+03  0.7546771E-02  0.1207820E+00
         -1   -1    0    0    0  501 -0.00000000000E+00  0.00000000000E+00  0.18216741152E+02  0.18216741152E+02  0.00000000000E+00 0.  1.
          1   -1    0    0  501    0  0.00000000000E+00 -0.00000000000E+00 -0.10680620397E+04  0.10680620397E+04  0.00000000000E+00 0. -1.
         23    2    1    2    0    0  0.45871310380E+02 -0.72407347880E+02 -0.38929714490E+03  0.40855109405E+03  0.89525014802E+02 0.  0.
         23    2    1    2    0    0 -0.45871310380E+02  0.72407347880E+02 -0.66054815366E+03  0.67772768681E+03  0.12507578916E+03 0.  0.
          5    1    4    4  502    0 -0.70100649703E+02  0.94935406807E+02 -0.52510294016E+03  0.53822116302E+03  0.47000000000E+01 0. -1.
         -5    1    4    4    0  502  0.24229339323E+02 -0.22528058927E+02 -0.13544521350E+03  0.13950652380E+03  0.47000000000E+01 0. -1.
        -11    1    3    3    0    0  0.15535713301E+02 -0.18964180123E+01 -0.46607738619E+01  0.16330266441E+02  0.00000000000E+00 0.  1.
         11    1    3    3    0    0  0.30335597079E+02 -0.70510929867E+02 -0.38463637104E+03  0.39222082761E+03  0.00000000000E+00 0. -1.
<mgrwt>
<rscale>  0 0.14417464E+03</rscale>
<asrwt>0</asrwt>
<pdfrwt beam="2">  1        1 0.16431723E+00 0.15162768E+03</pdfrwt>
<pdfrwt beam="1">  1       -1 0.28025757E-02 0.15162768E+03</pdfrwt>
<totfact> 0.58156488E+03</totfact>
</mgrwt>
</event>
<event>
 8    1  0.1224355E-005  0.1776208E+03  0.7546771E-02  0.1175812E+00
         -2   -1    0    0    0  501 -0.00000000000E+00  0.00000000000E+00  0.40348445273E+02  0.40348445273E+02  0.00000000000E+00 0.  1.
          2   -1    0    0  501    0  0.00000000000E+00 -0.00000000000E+00 -0.71744329657E+03  0.71744329657E+03  0.00000000000E+00 0. -1.
         23    2    1    2    0    0 -0.11905192519E+03  0.41852927684E+02 -0.24342572381E+03  0.28915749976E+03  0.91820194986E+02 0.  0.
         23    2    1    2    0    0  0.11905192519E+03 -0.41852927684E+02 -0.43366912748E+03  0.46863424208E+03  0.12499644904E+03 0.  0.
          5    1    4    4  502    0  0.14326273637E+03 -0.45693356594E+02 -0.34201296502E+03  0.37364027180E+03  0.47000000000E+01 0.  1.
         -5    1    4    4    0  502 -0.24210811184E+02  0.38404289101E+01 -0.91656162461E+02  0.94993970280E+02  0.47000000000E+01 0.  1.
        -11    1    3    3    0    0 -0.75692491091E+02  0.60823967019E+02 -0.10572448578E+03  0.14354990444E+03  0.00000000000E+00 0.  1.
         11    1    3    3    0    0 -0.43359434094E+02 -0.18971039336E+02 -0.13770123804E+03  0.14560759532E+03  0.00000000000E+00 0. -1.
<mgrwt>
<rscale>  0 0.17196736E+03</rscale>
<asrwt>0</asrwt>
<pdfrwt beam="2">  1        2 0.11037588E+00 0.17762078E+03</pdfrwt>
<pdfrwt beam="1">  1       -2 0.62074536E-02 0.17762078E+03</pdfrwt>
<totfact> 0.55990746E+03</totfact>
</mgrwt>
</event>
<event>
 8    1  0.1224355E-005  0.1186564E+03  0.7546771E-02  0.1254606E+00
          2   -1    0    0  501    0  0.00000000000E+00  0.00000000000E+00  0.66066118354E+03  0.66066118354E+03  0.00000000000E+00 0. -1.
         -2   -1    0    0    0  501 -0.00000000000E+00 -0.00000000000E+00 -0.73305485209E+02  0.73305485209E+02  0.00000000000E+00 0.  1.
         23    2    1    2    0    0  0.26764425664E+02  0.24417016140E+02 -0.31767709855E+02  0.10357540588E+03  0.91685070515E+02 0.  0.
         23    2    1    2    0    0 -0.26764425664E+02 -0.24417016140E+02  0.61912340819E+03  0.63039126287E+03  0.11299037383E+03 0.  0.
          5    1    4    4  502    0 -0.50310205779E+02 -0.55728313008E+02  0.47687544122E+03  0.48277224249E+03  0.47000000000E+01 0. -1.
         -5    1    4    4    0  502  0.23545780115E+02  0.31311296868E+02  0.14224796697E+03  0.14761902038E+03  0.47000000000E+01 0.  1.
        -11    1    3    3    0    0 -0.19365642265E+02  0.30033947764E+02 -0.42855501108E+02  0.55800180053E+02  0.00000000000E+00 0.  1.
         11    1    3    3    0    0  0.46130067929E+02 -0.56169316242E+01  0.11087791253E+02  0.47775225827E+02  0.00000000000E+00 0. -1.
<mgrwt>
<rscale>  0 0.11328421E+03</rscale>
<asrwt>0</asrwt>
<pdfrwt beam="1">  1        2 0.10164018E+00 0.11865644E+03</pdfrwt>
<pdfrwt beam="2">  1       -2 0.11277767E-01 0.11865644E+03</pdfrwt>
<totfact> 0.24058667E+03</totfact>
</mgrwt>
</event>
<event>
 8    1  0.1224355E-005  0.1266527E+03  0.7546771E-02  0.1246890E+00
          2   -1    0    0  501    0  0.00000000000E+00  0.00000000000E+00  0.27217227928E+03  0.27217227928E+03  0.00000000000E+00 0. -1.
         -2   -1    0    0    0  501 -0.00000000000E+00 -0.00000000000E+00 -0.45701767136E+02  0.45701767136E+02  0.00000000000E+00 0.  1.
         23    2    1    2    0    0 -0.19317051511E+02 -0.65343622431E+01  0.76881372022E+02  0.12186938588E+03  0.92333934619E+02 0.  0.
         23    2    1    2    0    0  0.19317051511E+02  0.65343622431E+01  0.14958914012E+03  0.19600466053E+03  0.12500027896E+03 0.  0.
          5    1    4    4  502    0 -0.33376081262E+02 -0.42689553218E+02  0.64114019393E+02  0.84077691673E+02  0.47000000000E+01 0. -1.
         -5    1    4    4    0  502  0.52693132773E+02  0.49223915461E+02  0.85475120727E+02  0.11192696886E+03  0.47000000000E+01 0. -1.
        -11    1    3    3    0    0 -0.43853238022E+02  0.17976111250E+02  0.12941903568E+02  0.49129827281E+02  0.00000000000E+00 0.  1.
         11    1    3    3    0    0  0.24536186511E+02 -0.24510473493E+02  0.63939468455E+02  0.72739558602E+02  0.00000000000E+00 0. -1.
<mgrwt>
<rscale>  0 0.11772986E+03</rscale>
<asrwt>0</asrwt>
<pdfrwt beam="1">  1        2 0.41872658E-01 0.12665274E+03</pdfrwt>
<pdfrwt beam="2">  1       -2 0.70310412E-02 0.12665274E+03</pdfrwt>
<totfact> 0.13155280E+04</totfact>
</mgrwt>
</event>
<event>
 8    1  0.1224355E-005  0.1347434E+03  0.7546771E-02  0.1230681E+00
         -2   -1    0    0    0  501 -0.00000000000E+00  0.00000000000E+00  0.10032429934E+03  0.10032429934E+03  0.00000000000E+00 0. -1.
          2   -1    0    0  501    0  0.00000000000E+00 -0.00000000000E+00 -0.15268891594E+03  0.15268891594E+03  0.00000000000E+00 0.  1.
         23    2    1    2    0    0  0.26405916263E+02  0.42798366684E+02 -0.22107430295E+01  0.10923837978E+03  0.96949283795E+02 0.  0.
         23    2    1    2    0    0 -0.26405916263E+02 -0.42798366684E+02 -0.50153873565E+02  0.14377483550E+03  0.12500727853E+03 0.  0.
          5    1    4    4  502    0  0.29121880296E+02  0.26537478300E+02 -0.36242023696E+02  0.53739147259E+02  0.47000000000E+01 0.  1.
         -5    1    4    4    0  502 -0.55527796559E+02 -0.69335844984E+02 -0.13911849868E+02  0.90035688241E+02  0.47000000000E+01 0.  1.
        -11    1    3    3    0    0  0.47818085752E+02  0.51855506929E+02 -0.26745524450E+02  0.75437961279E+02  0.00000000000E+00 0.  1.
         11    1    3    3    0    0 -0.21412169489E+02 -0.90571402458E+01  0.24534781421E+02  0.33800418504E+02  0.00000000000E+00 0. -1.
<mgrwt>
<rscale>  0 0.12785045E+03</rscale>
<asrwt>0</asrwt>
<pdfrwt beam="2">  1        2 0.23490602E-01 0.13474343E+03</pdfrwt>
<pdfrwt beam="1">  1       -2 0.15434508E-01 0.13474343E+03</pdfrwt>
<totfact> 0.71383002E+03</totfact>
</mgrwt>
</event>
<event>
 8    1  0.1224355E-005  0.1290869E+03  0.7546771E-02  0.1247080E+00
         -2   -1    0    0    0  501 -0.00000000000E+00  0.00000000000E+00  0.19823048266E+02  0.19823048266E+02  0.00000000000E+00 0.  1.
          2   -1    0    0  501    0  0.00000000000E+00 -0.00000000000E+00 -0.63663103960E+03  0.63663103960E+03  0.00000000000E+00 0. -1.
         23    2    1    2    0    0 -0.20274825284E+02 -0.24769793278E+02 -0.17714160320E+03  0.19822930044E+03  0.83012630194E+02 0.  0.
         23    2    1    2    0    0  0.20274825284E+02  0.24769793278E+02 -0.43966638814E+03  0.45822478742E+03  0.12505523481E+03 0.  0.
          5    1    4    4  502    0  0.67372403926E+01  0.72890458283E+02 -0.19231532012E+03  0.20582925368E+03  0.47000000000E+01 0.  1.
         -5    1    4    4    0  502  0.13537584892E+02 -0.48120665005E+02 -0.24735106802E+03  0.25239553375E+03  0.47000000000E+01 0.  1.
        -11    1    3    3    0    0  0.24350014961E+02  0.93004448323E+01 -0.25236854022E+02  0.36281128753E+02  0.00000000000E+00 0.  1.
         11    1    3    3    0    0 -0.44624840246E+02 -0.34070238111E+02 -0.15190474917E+03  0.16194817169E+03  0.00000000000E+00 0. -1.
<mgrwt>
<rscale>  0 0.11761773E+03</rscale>
<asrwt>0</asrwt>
<pdfrwt beam="2">  1        2 0.97943234E-01 0.12908688E+03</pdfrwt>
<pdfrwt beam="1">  1       -2 0.30496998E-02 0.12908688E+03</pdfrwt>
<totfact> 0.18314068E+04</totfact>
</mgrwt>
</event>
<event>
 8    1  0.1224355E-005  0.2685440E+03  0.7546771E-02  0.1104147E+00
         -1   -1    0    0    0  501 -0.00000000000E+00  0.00000000000E+00  0.18751462951E+03  0.18751462951E+03  0.00000000000E+00 0.  1.
          1   -1    0    0  501    0  0.00000000000E+00 -0.00000000000E+00 -0.39202784298E+03  0.39202784298E+03  0.00000000000E+00 0. -1.
         23    2    1    2    0    0  0.55557702887E+02 -0.23107414590E+03 -0.23987895498E+02  0.25596056035E+03  0.91969941106E+02 0.  0.
         23    2    1    2    0    0 -0.55557702887E+02  0.23107414590E+03 -0.18052531797E+03  0.32358191214E+03  0.12503577161E+03 0.  0.
          5    1    4    4  502    0 -0.44882331561E+01  0.77818078694E+02  0.41249917887E+01  0.78197846298E+02  0.47000000000E+01 0. -1.
         -5    1    4    4    0  502 -0.51069469731E+02  0.15325606721E+03 -0.18465030976E+03  0.24538406584E+03  0.47000000000E+01 0. -1.
        -11    1    3    3    0    0  0.75235283045E+00 -0.13289139344E+03 -0.47422383515E+02  0.14110127903E+03  0.00000000000E+00 0. -1.
         11    1    3    3    0    0  0.54805350057E+02 -0.98182752462E+02  0.23434488017E+02  0.11485928132E+03  0.00000000000E+00 0.  1.
<mgrwt>
<rscale>  0 0.26504884E+03</rscale>
<asrwt>0</asrwt>
<pdfrwt beam="2">  1        1 0.60311976E-01 0.26854397E+03</pdfrwt>
<pdfrwt beam="1">  1       -1 0.28848404E-01 0.26854397E+03</pdfrwt>
<totfact> 0.68198883E+02</totfact>
</mgrwt>
</event>
<event>
 8    1  0.1224355E-005  0.1272144E+03  0.7546771E-02  0.1248379E+00
         -1   -1    0    0    0  501 -0.00000000000E+00  0.00000000000E+00  0.32178458099E+02  0.32178458099E+02  0.00000000000E+00 0.  1.
          1   -1    0    0  501    0  0.00000000000E+00 -0.00000000000E+00 -0.37329225603E+03  0.37329225603E+03  0.00000000000E+00 0. -1.
         23    2    1    2    0    0  0.27828095211E+01 -0.23475502480E+02 -0.11952535149E+03  0.14996152138E+03  0.87425997268E+02 0.  0.
         23    2    1    2    0    0 -0.27828095211E+01  0.23475502480E+02 -0.22158844644E+03  0.25550919275E+03  0.12499865896E+03 0.  0.
          5    1    4    4  502    0  0.28248536561E+01  0.20945200845E+02  0.99594161392E+01  0.23831936691E+02  0.47000000000E+01 0. -1.
         -5    1    4    4    0  502 -0.56076631773E+01  0.25303016358E+01 -0.23154786258E+03  0.23167725606E+03  0.47000000000E+01 0. -1.
        -11    1    3    3    0    0 -0.32342254656E+02 -0.13079618197E+02 -0.10484712138E+03  0.11049894438E+03  0.00000000000E+00 0. -1.
         11    1    3    3    0    0  0.35125064178E+02 -0.10395884283E+02 -0.14678230111E+02  0.39462576990E+02  0.00000000000E+00 0.  1.
<mgrwt>
<rscale>  0 0.11685390E+03</rscale>
<asrwt>0</asrwt>
<pdfrwt beam="2">  1        1 0.57429578E-01 0.12721442E+03</pdfrwt>
<pdfrwt beam="1">  1       -1 0.49505320E-02 0.12721442E+03</pdfrwt>
<totfact> 0.11144528E+04</totfact>
</mgrwt>
</event>
<event>
 8    1  0.1224355E-005  0.1295353E+03  0.7546771E-02  0.1244651E+00
          1   -1    0    0  501    0  0.00000000000E+00  0.00000000000E+00  0.53524715669E+02  0.53524715669E+02  0.00000000000E+00 0. -1.
         -1   -1    0    0    0  501 -0.00000000000E+00 -0.00000000000E+00 -0.35853081797E+03  0.35853081797E+03  0.00000000000E+00 0.  1.
         23    2    1    2    0    0  0.15587037124E+02 -0.17079112276E+02 -0.25831422859E+03  0.27436194872E+03  0.89518637215E+02 0.  0.
         23    2    1    2    0    0 -0.15587037124E+02  0.17079112276E+02 -0.46691873709E+02  0.13769358492E+03  0.12745485654E+03 0.  0.
          5    1    4    4  502    0 -0.68450294344E+02  0.25871842534E+02 -0.39875585691E+02  0.83468241662E+02  0.47000000000E+01 0. -1.
         -5    1    4    4    0  502  0.52863257220E+02 -0.87927302585E+01 -0.68162880182E+01  0.54225343260E+02  0.47000000000E+01 0.  1.
        -11    1    3    3    0    0  0.43215033669E+02  0.15651745811E+02 -0.17156056375E+03  0.17761065091E+03  0.00000000000E+00 0. -1.
         11    1    3    3    0    0 -0.27627996545E+02 -0.32730858087E+02 -0.86753664837E+02  0.96751297804E+02  0.00000000000E+00 0.  1.
<mgrwt>
<rscale>  0 0.11906268E+03</rscale>
<asrwt>0</asrwt>
<pdfrwt beam="1">  1        1 0.82345718E-02 0.12953529E+03</pdfrwt>
<pdfrwt beam="2">  1       -1 0.55158586E-01 0.12953529E+03</pdfrwt>
<totfact> 0.27499756E+03</totfact>
</mgrwt>
</event>
<event>
 8    1  0.1224355E-005  0.1359823E+03  0.7546771E-02  0.1230647E+00
          1   -1    0    0  501    0  0.00000000000E+00  0.00000000000E+00  0.36401125134E+03  0.36401125134E+03  0.00000000000E+00 0. -1.
         -1   -1    0    0    0  501 -0.00000000000E+00 -0.00000000000E+00 -0.44081751365E+02  0.44081751365E+02  0.00000000000E+00 0.  1.
         23    2    1    2    0    0 -0.28243698817E+02  0.45478087117E+02  0.82907194293E+02  0.13483348322E+03  0.91872206901E+02 0.  0.
         23    2    1    2    0    0  0.28243698817E+02 -0.45478087117E+02  0.23702230568E+03  0.27325951949E+03  0.12500091467E+03 0.  0.
          5    1    4    4  502    0  0.13488314125E+02  0.20285929748E+01 -0.12312829574E+02  0.18966960208E+02  0.47000000000E+01 0. -1.
         -5    1    4    4    0  502  0.14755384692E+02 -0.47506680092E+02  0.24933513526E+03  0.25429255928E+03  0.47000000000E+01 0. -1.
        -11    1    3    3    0    0  0.48131473951E+01  0.35454922390E+02 -0.87914773398E+01  0.36844375192E+02  0.00000000000E+00 0.  1.
         11    1    3    3    0    0 -0.33056846212E+02  0.10023164727E+02  0.91698671633E+02  0.97989108027E+02  0.00000000000E+00 0. -1.
<mgrwt>
<rscale>  0 0.12787266E+03</rscale>
<asrwt>0</asrwt>
<pdfrwt beam="1">  1        1 0.56001729E-01 0.13598232E+03</pdfrwt>
<pdfrwt beam="2">  1       -1 0.67818082E-02 0.13598232E+03</pdfrwt>
<totfact> 0.72381993E+03</totfact>
</mgrwt>
</event>
<event>
 8    1  0.1224355E-005  0.2671836E+03  0.7546771E-02  0.1105060E+00
         -1   -1    0    0    0  501 -0.00000000000E+00  0.00000000000E+00  0.23313598277E+03  0.23313598277E+03  0.00000000000E+00 0.  1.
          1   -1    0    0  501    0  0.00000000000E+00 -0.00000000000E+00 -0.29109790235E+03  0.29109790235E+03  0.00000000000E+00 0. -1.
         23    2    1    2    0    0 -0.27248589367E+00 -0.23613686308E+03 -0.11173979550E+02  0.25298455038E+03  0.90086805693E+02 0.  0.
         23    2    1    2    0    0  0.27248589367E+00  0.23613686308E+03 -0.46787940032E+02  0.27124933473E+03  0.12500559150E+03 0.  0.
          5    1    4    4  502    0 -0.31249388644E+02  0.56435481958E+01 -0.17961710011E+02  0.36784330269E+02  0.47000000000E+01 0. -1.
         -5    1    4    4    0  502  0.31521874538E+02  0.23049331488E+03 -0.28826230021E+02  0.23446500446E+03  0.47000000000E+01 0. -1.
        -11    1    3    3    0    0  0.30820272387E+02 -0.58072601592E+02 -0.27971298656E+02  0.71447251831E+02  0.00000000000E+00 0. -1.
         11    1    3    3    0    0 -0.31092758281E+02 -0.17806426149E+03  0.16797319106E+02  0.18153729855E+03  0.00000000000E+00 0.  1.
<mgrwt>
<rscale>  0 0.26349651E+03</rscale>
<asrwt>0</asrwt>
<pdfrwt beam="2">  1        1 0.44784293E-01 0.26718363E+03</pdfrwt>
<pdfrwt beam="1">  1       -1 0.35867074E-01 0.26718363E+03</pdfrwt>
<totfact> 0.68423988E+02</totfact>
</mgrwt>
</event>
<event>
 8    1  0.1224355E-005  0.1805546E+03  0.7546771E-02  0.1173326E+00
         -2   -1    0    0    0  501 -0.00000000000E+00  0.00000000000E+00  0.19267688811E+02  0.19267688811E+02  0.00000000000E+00 0.  1.
          2   -1    0    0  501    0  0.00000000000E+00 -0.00000000000E+00 -0.16600977580E+04  0.16600977580E+04  0.00000000000E+00 0. -1.
         23    2    1    2    0    0 -0.12342652211E+03  0.41735882924E+02 -0.49398556037E+03  0.51839504416E+03  0.87952815053E+02 0.  0.
         23    2    1    2    0    0  0.12342652211E+03 -0.41735882924E+02 -0.11468445088E+04  0.11609704026E+04  0.12499583245E+03 0.  0.
          5    1    4    4  502    0 -0.22827371551E+02 -0.21887451201E+02 -0.16308624565E+03  0.16619074261E+03  0.47000000000E+01 0.  1.
         -5    1    4    4    0  502  0.14625389366E+03 -0.19848431724E+02 -0.98375826313E+03  0.99477965999E+03  0.47000000000E+01 0.  1.
        -11    1    3    3    0    0 -0.86478150599E+02 -0.85195847645E+01 -0.36384954004E+03  0.37408226587E+03  0.00000000000E+00 0. -1.
         11    1    3    3    0    0 -0.36948371508E+02  0.50255467689E+02 -0.13013602034E+03  0.14431277829E+03  0.00000000000E+00 0.  1.
<mgrwt>
<rscale>  0 0.17440910E+03</rscale>
<asrwt>0</asrwt>
<pdfrwt beam="2">  1        2 0.25539968E+00 0.18055456E+03</pdfrwt>
<pdfrwt beam="1">  1       -2 0.29642596E-02 0.18055456E+03</pdfrwt>
<totfact> 0.48080082E+03</totfact>
</mgrwt>
</event>
<event>
 7    1  0.1224355E-005  0.1925818E+03  0.7546771E-02  0.1162739E+00
         -1   -1    0    0    0  501 -0.00000000000E+00  0.00000000000E+00  0.22613404871E+02  0.22613404871E+02  0.00000000000E+00 0.  1.
          1   -1    0    0  501    0  0.00000000000E+00 -0.00000000000E+00 -0.17247305938E+04  0.17247305938E+04  0.00000000000E+00 0. -1.
         23    2    1    2    0    0 -0.11462062674E+03 -0.80914142225E+02 -0.42825953448E+03  0.45901132147E+03  0.87178999106E+02 0.  0.
          5    1    1    2  502    0  0.92203070900E+02  0.11203901953E+03 -0.81322166844E+03  0.82607851940E+03  0.47000000000E+01 0. -1.
         -5    1    1    2    0  502  0.22417555842E+02 -0.31124877309E+02 -0.46063598604E+03  0.46225415783E+03  0.47000000000E+01 0.  1.
        -11    1    3    3    0    0 -0.32093608059E+02  0.17649809373E+02 -0.96248610626E+02  0.10298208823E+03  0.00000000000E+00 0. -1.
         11    1    3    3    0    0 -0.82527018683E+02 -0.98563951599E+02 -0.33201092385E+03  0.35602923324E+03  0.00000000000E+00 0.  1.
<mgrwt>
<rscale>  0 0.18533281E+03</rscale>
<asrwt>0</asrwt>
<pdfrwt beam="2">  1        1 0.26534313E+00 0.19258184E+03</pdfrwt>
<pdfrwt beam="1">  1       -1 0.34789858E-02 0.19258184E+03</pdfrwt>
<totfact> 0.15470812E+03</totfact>
</mgrwt>
</event>
<event>
 8    1  0.1224355E-005  0.1511267E+03  0.7546771E-02  0.1207936E+00
          2   -1    0    0  501    0  0.00000000000E+00  0.00000000000E+00  0.98827318516E+03  0.98827318516E+03  0.00000000000E+00 0.  1.
         -2   -1    0    0    0  501 -0.00000000000E+00 -0.00000000000E+00 -0.19620486416E+02  0.19620486416E+02  0.00000000000E+00 0. -1.
         23    2    1    2    0    0  0.42562156640E+02  0.73499417546E+02  0.37194475637E+03  0.39234543219E+03  0.91533244293E+02 0.  0.
         23    2    1    2    0    0 -0.42562156640E+02 -0.73499417546E+02  0.59670794237E+03  0.61554823939E+03  0.12500225983E+03 0.  0.
          5    1    4    4  502    0  0.78069716702E+01 -0.31504584650E+01  0.40559469349E+03  0.40570927963E+03  0.47000000000E+01 0. -1.
         -5    1    4    4    0  502 -0.50369128310E+02 -0.70348959081E+02  0.19111324889E+03  0.20983895975E+03  0.47000000000E+01 0. -1.
        -11    1    3    3    0    0  0.37740539404E+02  0.57671857196E+02  0.36919434489E+03  0.37557270365E+03  0.00000000000E+00 0.  1.
         11    1    3    3    0    0  0.48216172355E+01  0.15827560349E+02  0.27504114801E+01  0.16772728540E+02  0.00000000000E+00 0. -1.
<mgrwt>
<rscale>  0 0.14408496E+03</rscale>
<asrwt>0</asrwt>
<pdfrwt beam="1">  1        2 0.15204199E+00 0.15112666E+03</pdfrwt>
<pdfrwt beam="2">  1       -2 0.30185371E-02 0.15112666E+03</pdfrwt>
<totfact> 0.10854583E+04</totfact>
</mgrwt>
</event>
<event>
 8    1  0.1224355E-005  0.1429662E+03  0.7546771E-02  0.1225444E+00
          2   -1    0    0  501    0  0.00000000000E+00  0.00000000000E+00  0.38959200477E+03  0.38959200477E+03  0.00000000000E+00 0.  1.
         -2   -1    0    0    0  501 -0.00000000000E+00 -0.00000000000E+00 -0.44850681556E+02  0.44850681556E+02  0.00000000000E+00 0. -1.
         23    2    1    2    0    0 -0.34996256222E+01 -0.69298991321E+02  0.66699225672E+02  0.12179795180E+03  0.74641521830E+02 0.  0.
         23    2    1    2    0    0  0.34996256222E+01  0.69298991321E+02  0.27804209754E+03  0.31264473452E+03  0.12499889776E+03 0.  0.
          5    1    4    4  502    0 -0.40282608774E+02  0.24497798759E+02  0.22645662758E+03  0.23136016271E+03  0.47000000000E+01 0. -1.
         -5    1    4    4    0  502  0.43782234396E+02  0.44801192562E+02  0.51585469965E+02  0.81284571815E+02  0.47000000000E+01 0. -1.
        -11    1    3    3    0    0 -0.14926169201E+02 -0.59955224375E+02  0.80576662993E+02  0.10153825917E+03  0.00000000000E+00 0.  1.
         11    1    3    3    0    0  0.11426543579E+02 -0.93437669462E+01 -0.13877437322E+02  0.20259692631E+02  0.00000000000E+00 0. -1.
<mgrwt>
<rscale>  0 0.13136532E+03</rscale>
<asrwt>0</asrwt>
<pdfrwt beam="1">  1        2 0.59937229E-01 0.14296616E+03</pdfrwt>
<pdfrwt beam="2">  1       -2 0.69001051E-02 0.14296616E+03</pdfrwt>
<totfact> 0.93395571E+03</totfact>
</mgrwt>
</event>
<event>
 8    1  0.1224355E-005  0.1342220E+03  0.7546771E-02  0.1234051E+00
         -3   -1    0    0    0  501 -0.00000000000E+00  0.00000000000E+00  0.40869681483E+02  0.40869681483E+02  0.00000000000E+00 0.  1.
          3   -1    0    0  501    0  0.00000000000E+00 -0.00000000000E+00 -0.34450863274E+03  0.34450863274E+03  0.00000000000E+00 0. -1.
         23    2    1    2    0    0 -0.26314006049E+00  0.48884780484E+02 -0.13122899180E+03  0.16688177117E+03  0.90767209148E+02 0.  0.
         23    2    1    2    0    0  0.26314006049E+00 -0.48884780484E+02 -0.17240995946E+03  0.21849654305E+03  0.12500301675E+03 0.  0.
          5    1    4    4  502    0  0.22189708733E+02 -0.65157458734E+02 -0.17740027351E+03  0.19034396403E+03  0.47000000000E+01 0.  1.
         -5    1    4    4    0  502 -0.21926568672E+02  0.16272678250E+02  0.49903140460E+01  0.28152579019E+02  0.47000000000E+01 0.  1.
        -11    1    3    3    0    0 -0.14844183040E+02  0.33725276639E+00  0.92796248206E+01  0.17509281720E+02  0.00000000000E+00 0.  1.
         11    1    3    3    0    0  0.14581042980E+02  0.48547527718E+02 -0.14050861662E+03  0.14937248945E+03  0.00000000000E+00 0. -1.
<mgrwt>
<rscale>  0 0.12565410E+03</rscale>
<asrwt>0</asrwt>
<pdfrwt beam="2">  1        3 0.53001326E-01 0.13422200E+03</pdfrwt>
<pdfrwt beam="1">  1       -3 0.62876436E-02 0.13422200E+03</pdfrwt>
<totfact> 0.12886735E+03</totfact>
</mgrwt>
</event>
<event>
 8    1  0.1224355E-005  0.1622605E+03  0.7546771E-02  0.1191595E+00
          2   -1    0    0  501    0  0.00000000000E+00  0.00000000000E+00  0.23251144622E+03  0.23251144622E+03  0.00000000000E+00 0. -1.
         -2   -1    0    0    0  501 -0.00000000000E+00 -0.00000000000E+00 -0.10106040397E+03  0.10106040397E+03  0.00000000000E+00 0.  1.
         23    2    1    2    0    0 -0.41268616749E+02 -0.94874719746E+02  0.70558270533E+02  0.16026173658E+03  0.10000521735E+03 0.  0.
         23    2    1    2    0    0  0.41268616749E+02  0.94874719746E+02  0.60892771724E+02  0.17331011361E+03  0.12499661858E+03 0.  0.
          5    1    4    4  502    0  0.56382302724E+02  0.48654257512E+02  0.89632190405E+02  0.11662855736E+03  0.47000000000E+01 0. -1.
         -5    1    4    4    0  502 -0.15113685976E+02  0.46220462235E+02 -0.28739418681E+02  0.56681556251E+02  0.47000000000E+01 0. -1.
        -11    1    3    3    0    0  0.21265860931E+02 -0.16600393288E+02 -0.12866169763E+02  0.29888931444E+02  0.00000000000E+00 0.  1.
         11    1    3    3    0    0 -0.62534477680E+02 -0.78274326458E+02  0.83424440296E+02  0.13037280514E+03  0.00000000000E+00 0. -1.
<mgrwt>
<rscale>  0 0.15745988E+03</rscale>
<asrwt>0</asrwt>
<pdfrwt beam="1">  1        2 0.35770992E-01 0.16226049E+03</pdfrwt>
<pdfrwt beam="2">  1       -2 0.15547755E-01 0.16226049E+03</pdfrwt>
<totfact> 0.45106035E+03</totfact>
</mgrwt>
</event>
<event>
 8    1  0.1224355E-005  0.1341928E+03  0.7546771E-02  0.1233706E+00
          2   -1    0    0  501    0  0.00000000000E+00  0.00000000000E+00  0.81854829658E+03  0.81854829658E+03  0.00000000000E+00 0. -1.
         -2   -1    0    0    0  501 -0.00000000000E+00 -0.00000000000E+00 -0.23095829624E+02  0.23095829624E+02  0.00000000000E+00 0.  1.
         23    2    1    2    0    0 -0.19327586665E+02  0.44829971401E+02  0.15048948030E+03  0.18286876662E+03  0.91709433438E+02 0.  0.
         23    2    1    2    0    0  0.19327586665E+02 -0.44829971401E+02  0.64496298666E+03  0.65877535958E+03  0.12499775318E+03 0.  0.
          5    1    4    4  502    0  0.61339186682E+02 -0.78224749139E+01  0.17901377490E+03  0.18945107163E+03  0.47000000000E+01 0.  1.
         -5    1    4    4    0  502 -0.42011600017E+02 -0.37007496487E+02  0.46594921175E+03  0.46932428796E+03  0.47000000000E+01 0.  1.
        -11    1    3    3    0    0  0.19509823567E+02  0.51663569892E+02  0.12291245115E+03  0.13474875998E+03  0.00000000000E+00 0. -1.
         11    1    3    3    0    0 -0.38837410232E+02 -0.68335984910E+01  0.27577029155E+02  0.48120006639E+02  0.00000000000E+00 0.  1.
<mgrwt>
<rscale>  0 0.12587641E+03</rscale>
<asrwt>0</asrwt>
<pdfrwt beam="1">  1        2 0.12593048E+00 0.13419285E+03</pdfrwt>
<pdfrwt beam="2">  1       -2 0.35532052E-02 0.13419285E+03</pdfrwt>
<totfact> 0.10846641E+04</totfact>
</mgrwt>
</event>
<event>
 8    1  0.1224355E-005  0.1329455E+03  0.7546771E-02  0.1229702E+00
          2   -1    0    0  501    0  0.00000000000E+00  0.00000000000E+00  0.35738274445E+03  0.35738274445E+03  0.00000000000E+00 0. -1.
         -2   -1    0    0    0  501 -0.00000000000E+00 -0.00000000000E+00 -0.46053433822E+02  0.46053433822E+02  0.00000000000E+00 0.  1.
         23    2    1    2    0    0  0.72702232940E+02 -0.54119748404E+01  0.97051941246E+02  0.15126697580E+03  0.90264691442E+02 0.  0.
         23    2    1    2    0    0 -0.72702232940E+02  0.54119748404E+01  0.21427736938E+03  0.25216920247E+03  0.11117378963E+03 0.  0.
          5    1    4    4  502    0  0.28611241112E+02 -0.70448839632E+01  0.36799509869E+02  0.47376443879E+02  0.47000000000E+01 0. -1.
         -5    1    4    4    0  502 -0.10131347405E+03  0.12456858804E+02  0.17747785951E+03  0.20479275859E+03  0.47000000000E+01 0.  1.
        -11    1    3    3    0    0 -0.61341657463E+01 -0.26862563041E+02  0.49719645179E+02  0.56844246844E+02  0.00000000000E+00 0.  1.
         11    1    3    3    0    0  0.78836398687E+02  0.21450588201E+02  0.47332296067E+02  0.94422728953E+02  0.00000000000E+00 0. -1.
<mgrwt>
<rscale>  0 0.12849804E+03</rscale>
<asrwt>0</asrwt>
<pdfrwt beam="1">  1        2 0.54981959E-01 0.13294554E+03</pdfrwt>
<pdfrwt beam="2">  1       -2 0.70851439E-02 0.13294554E+03</pdfrwt>
<totfact> 0.97824633E+03</totfact>
</mgrwt>
</event>
<event>
 8    1  0.1224355E-005  0.3050732E+03  0.7546771E-02  0.1084371E+00
          1   -1    0    0  501    0  0.00000000000E+00  0.00000000000E+00  0.68780315590E+02  0.68780315590E+02  0.00000000000E+00 0. -1.
         -1   -1    0    0    0  501 -0.00000000000E+00 -0.00000000000E+00 -0.15053913888E+04  0.15053913888E+04  0.00000000000E+00 0.  1.
         23    2    1    2    0    0  0.11867247201E+03 -0.25171843537E+03 -0.99844168864E+03  0.10402596719E+04  0.88368846770E+02 0.  0.
         23    2    1    2    0    0 -0.11867247201E+03  0.25171843537E+03 -0.43816938461E+03  0.53391203251E+03  0.12499729012E+03 0.  0.
          5    1    4    4  502    0 -0.43831345345E+02  0.21158678794E+03 -0.27363840715E+03  0.34869789723E+03  0.47000000000E+01 0.  1.
         -5    1    4    4    0  502 -0.74841126666E+02  0.40131647434E+02 -0.16453097745E+03  0.18521413528E+03  0.47000000000E+01 0.  1.
        -11    1    3    3    0    0  0.39990778472E+02 -0.15994426665E+03 -0.67846855223E+03  0.69821272343E+03  0.00000000000E+00 0. -1.
         11    1    3    3    0    0  0.78681693539E+02 -0.91774168721E+02 -0.31997313641E+03  0.34204694849E+03  0.00000000000E+00 0.  1.
<mgrwt>
<rscale>  0 0.30174676E+03</rscale>
<asrwt>0</asrwt>
<pdfrwt beam="1">  1        1 0.10581589E-01 0.30507319E+03</pdfrwt>
<pdfrwt beam="2">  1       -1 0.23159864E+00 0.30507319E+03</pdfrwt>
<totfact> 0.61491575E+01</totfact>
</mgrwt>
</event>
<event>
 8    1  0.1224355E-005  0.1376456E+03  0.7546771E-02  0.1227632E+00
          2   -1    0    0  501    0  0.00000000000E+00  0.00000000000E+00  0.70365834776E+03  0.70365834776E+03  0.00000000000E+00 0. -1.
         -2   -1    0    0    0  501 -0.00000000000E+00 -0.00000000000E+00 -0.36721054725E+02  0.36721054725E+02  0.00000000000E+00 0.  1.
         23    2    1    2    0    0 -0.44040385583E+02 -0.37174836548E+02  0.74411594040E+02  0.13207601643E+03  0.92657783017E+02 0.  0.
         23    2    1    2    0    0  0.44040385583E+02  0.37174836548E+02  0.59252569899E+03  0.60830338605E+03  0.12499912593E+03 0.  0.
          5    1    4    4  502    0 -0.24322041074E+02 -0.24793096966E+02  0.28650573896E+03  0.28864145198E+03  0.47000000000E+01 0.  1.
         -5    1    4    4    0  502  0.68362426658E+02  0.61967933513E+02  0.30601996003E+03  0.31966193408E+03  0.47000000000E+01 0.  1.
        -11    1    3    3    0    0 -0.54692925503E+02  0.12713072917E+02  0.26493939712E+02  0.62087576572E+02  0.00000000000E+00 0.  1.
         11    1    3    3    0    0  0.10652539920E+02 -0.49887909465E+02  0.47917654328E+02  0.69988439858E+02  0.00000000000E+00 0. -1.
<mgrwt>
<rscale>  0 0.12988139E+03</rscale>
<asrwt>0</asrwt>
<pdfrwt beam="1">  1        2 0.10825512E+00 0.13764558E+03</pdfrwt>
<pdfrwt beam="2">  1       -2 0.56493936E-02 0.13764558E+03</pdfrwt>
<totfact> 0.65343550E+03</totfact>
</mgrwt>
</event>
<event>
 8    1  0.1224355E-005  0.1468611E+03  0.7546771E-02  0.1215614E+00
         -1   -1    0    0    0  501 -0.00000000000E+00  0.00000000000E+00  0.53666308691E+02  0.53666308691E+02  0.00000000000E+00 0.  1.
          1   -1    0    0  501    0  0.00000000000E+00 -0.00000000000E+00 -0.32086474867E+03  0.32086474867E+03  0.00000000000E+00 0. -1.
         23    2    1    2    0    0 -0.71082746105E+02 -0.29806287485E+02 -0.11446127093E+03  0.16264238115E+03  0.86081298996E+02 0.  0.
         23    2    1    2    0    0  0.71082746105E+02  0.29806287485E+02 -0.15273716905E+03  0.21188867621E+03  0.12500798666E+03 0.  0.
          5    1    4    4  502    0 -0.22189771547E+02 -0.86628210300E+01 -0.89470504222E+02  0.92706480654E+02  0.47000000000E+01 0.  1.
         -5    1    4    4    0  502  0.93272517652E+02  0.38469108515E+02 -0.63266664833E+02  0.11918219556E+03  0.47000000000E+01 0.  1.
        -11    1    3    3    0    0 -0.90044635416E+01  0.15767610191E+02 -0.72909925395E+02  0.75136909145E+02  0.00000000000E+00 0. -1.
         11    1    3    3    0    0 -0.62078282563E+02 -0.45573897677E+02 -0.41551345532E+02  0.87505472006E+02  0.00000000000E+00 0.  1.
<mgrwt>
<rscale>  0 0.13831518E+03</rscale>
<asrwt>0</asrwt>
<pdfrwt beam="2">  1        1 0.49363808E-01 0.14686105E+03</pdfrwt>
<pdfrwt beam="1">  1       -1 0.82563551E-02 0.14686105E+03</pdfrwt>
<totfact> 0.63304870E+03</totfact>
</mgrwt>
</event>
<event>
 8    1  0.1224355E-005  0.1392636E+03  0.7546771E-02  0.1224457E+00
         -1   -1    0    0    0  501 -0.00000000000E+00  0.00000000000E+00  0.34477269533E+02  0.34477269533E+02  0.00000000000E+00 0.  1.
          1   -1    0    0  501    0  0.00000000000E+00 -0.00000000000E+00 -0.11571626433E+04  0.11571626433E+04  0.00000000000E+00 0. -1.
         23    2    1    2    0    0  0.82415062689E+00 -0.61351990237E+02 -0.76169739519E+02  0.13589878688E+03  0.94349907930E+02 0.  0.
         23    2    1    2    0    0 -0.82415062689E+00  0.61351990237E+02 -0.10465156342E+04  0.10557411259E+04  0.12501842414E+03 0.  0.
          5    1    4    4  502    0  0.46465486623E+02  0.42257921686E+02 -0.25847290614E+03  0.26603591224E+03  0.47000000000E+01 0. -1.
         -5    1    4    4    0  502 -0.47289637250E+02  0.19094068551E+02 -0.78804272808E+03  0.78970521368E+03  0.47000000000E+01 0. -1.
        -11    1    3    3    0    0  0.43517776271E+02 -0.87936800861E+01 -0.36066508911E+02  0.57200688161E+02  0.00000000000E+00 0.  1.
         11    1    3    3    0    0 -0.42693625645E+02 -0.52558310150E+02 -0.40103230608E+02  0.78698098717E+02  0.00000000000E+00 0. -1.
<mgrwt>
<rscale>  0 0.13204165E+03</rscale>
<asrwt>0</asrwt>
<pdfrwt beam="2">  1        1 0.17802503E+00 0.13926361E+03</pdfrwt>
<pdfrwt beam="1">  1       -1 0.53041951E-02 0.13926361E+03</pdfrwt>
<totfact> 0.19667911E+03</totfact>
</mgrwt>
</event>
<event>
 8    1  0.1224355E-005  0.1434593E+03  0.7546771E-02  0.1214987E+00
          1   -1    0    0  501    0  0.00000000000E+00  0.00000000000E+00  0.12553727350E+04  0.12553727350E+04  0.00000000000E+00 0. -1.
         -1   -1    0    0    0  501 -0.00000000000E+00 -0.00000000000E+00 -0.15133084064E+02  0.15133084064E+02  0.00000000000E+00 0.  1.
         23    2    1    2    0    0 -0.57017583956E+02  0.41279113505E+02  0.44320770197E+03  0.46066601660E+03  0.10404394110E+03 0.  0.
         23    2    1    2    0    0  0.57017583956E+02 -0.41279113505E+02  0.79703194894E+03  0.80983980243E+03  0.12500243149E+03 0.  0.
          5    1    4    4  502    0  0.83806740658E+02 -0.50826470361E+02  0.40376842489E+03  0.41552127600E+03  0.47000000000E+01 0. -1.
         -5    1    4    4    0  502 -0.26789156702E+02  0.95473568561E+01  0.39326352404E+03  0.39431852643E+03  0.47000000000E+01 0. -1.
        -11    1    3    3    0    0 -0.20174796066E+01 -0.27480974195E+02  0.44413228758E+02  0.52266710776E+02  0.00000000000E+00 0.  1.
         11    1    3    3    0    0 -0.55000104349E+02  0.68760087700E+02  0.39879447321E+03  0.40839930583E+03  0.00000000000E+00 0. -1.
<mgrwt>
<rscale>  0 0.13877472E+03</rscale>
<asrwt>0</asrwt>
<pdfrwt beam="1">  1        1 0.19313419E+00 0.14345933E+03</pdfrwt>
<pdfrwt beam="2">  1       -1 0.23281678E-02 0.14345933E+03</pdfrwt>
<totfact> 0.56326715E+03</totfact>
</mgrwt>
</event>
<event>
 8    1  0.1224355E-005  0.1522010E+03  0.7546771E-02  0.1207536E+00
          2   -1    0    0  501    0  0.00000000000E+00  0.00000000000E+00  0.57138318657E+03  0.57138318657E+03  0.00000000000E+00 0. -1.
         -2   -1    0    0    0  501 -0.00000000000E+00 -0.00000000000E+00 -0.37202442781E+02  0.37202442781E+02  0.00000000000E+00 0.  1.
         23    2    1    2    0    0  0.85637905446E+02  0.14325416596E+02  0.14285865147E+03  0.18870692227E+03  0.87536505544E+02 0.  0.
         23    2    1    2    0    0 -0.85637905446E+02 -0.14325416596E+02  0.39132209232E+03  0.41987870708E+03  0.12500432118E+03 0.  0.
          5    1    4    4  502    0 -0.50143854528E+02 -0.32964472743E+02  0.56251611635E+02  0.82385656651E+02  0.47000000000E+01 0.  1.
         -5    1    4    4    0  502 -0.35494050918E+02  0.18639056147E+02  0.33507048068E+03  0.33749305043E+03  0.47000000000E+01 0.  1.
        -11    1    3    3    0    0 -0.12264159592E+02  0.57867086237E+01 -0.19501469115E+01  0.13700316791E+02  0.00000000000E+00 0.  1.
         11    1    3    3    0    0  0.97902065038E+02  0.85387079721E+01  0.14480879839E+03  0.17500660548E+03  0.00000000000E+00 0. -1.
<mgrwt>
<rscale>  0 0.14439419E+03</rscale>
<asrwt>0</asrwt>
<pdfrwt beam="1">  1        2 0.87905099E-01 0.15220101E+03</pdfrwt>
<pdfrwt beam="2">  1       -2 0.57234531E-02 0.15220101E+03</pdfrwt>
<totfact> 0.81993836E+03</totfact>
</mgrwt>
</event>
<event>
 7    1  0.1224355E-005  0.1619565E+03  0.7546771E-02  0.1201012E+00
         -1   -1    0    0    0  501 -0.00000000000E+00  0.00000000000E+00  0.78168730130E+02  0.78168730130E+02  0.00000000000E+00 0.  1.
          1   -1    0    0  501    0  0.00000000000E+00 -0.00000000000E+00 -0.33181952011E+03  0.33181952011E+03  0.00000000000E+00 0. -1.
         23    2    1    2    0    0  0.70927488181E+02  0.25086636968E+02 -0.11062040666E+02  0.11830483462E+03  0.90629008694E+02 0.  0.
          5    1    1    2  502    0 -0.10221024039E+03 -0.36623140469E+02 -0.10901259349E+03  0.15392863020E+03  0.47000000000E+01 0. -1.
         -5    1    1    2    0  502  0.31282752208E+02  0.11536503501E+02 -0.13357615583E+03  0.13775478541E+03  0.47000000000E+01 0.  1.
        -11    1    3    3    0    0 -0.43830070210E+01 -0.23408648218E+02 -0.15842617320E+02  0.28603567706E+02  0.00000000000E+00 0. -1.
         11    1    3    3    0    0  0.75310495202E+02  0.48495285186E+02  0.47805766548E+01  0.89701266914E+02  0.00000000000E+00 0.  1.
<mgrwt>
<rscale>  0 0.14956250E+03</rscale>
<asrwt>0</asrwt>
<pdfrwt beam="2">  1        1 0.51049156E-01 0.16195652E+03</pdfrwt>
<pdfrwt beam="1">  1       -1 0.12025959E-01 0.16195652E+03</pdfrwt>
<totfact> 0.34308249E+03</totfact>
</mgrwt>
</event>
<event>
 8    1  0.1224355E-005  0.1620329E+03  0.7546771E-02  0.1194373E+00
         -2   -1    0    0    0  501 -0.00000000000E+00  0.00000000000E+00  0.10078221057E+03  0.10078221057E+03  0.00000000000E+00 0.  1.
          2   -1    0    0  501    0  0.00000000000E+00 -0.00000000000E+00 -0.23298406818E+03  0.23298406818E+03  0.00000000000E+00 0. -1.
         23    2    1    2    0    0 -0.56330490123E+02  0.86353776140E+02 -0.99507305471E+02  0.16846778449E+03  0.88597922087E+02 0.  0.
         23    2    1    2    0    0  0.56330490123E+02 -0.86353776140E+02 -0.32694552144E+02  0.16529849426E+03  0.12499823877E+03 0.  0.
          5    1    4    4  502    0  0.12230591831E+02  0.63336531203E+01 -0.57734165512E+02  0.59540124334E+02  0.47000000000E+01 0. -1.
         -5    1    4    4    0  502  0.44099898293E+02 -0.92687429260E+02  0.25039613368E+02  0.10575836993E+03  0.47000000000E+01 0. -1.
        -11    1    3    3    0    0 -0.39478682923E+02  0.87829472183E+02 -0.36093401044E+02  0.10283635635E+03  0.00000000000E+00 0.  1.
         11    1    3    3    0    0 -0.16851807201E+02 -0.14756960426E+01 -0.63413904427E+02  0.65631428138E+02  0.00000000000E+00 0. -1.
<mgrwt>
<rscale>  0 0.15507408E+03</rscale>
<asrwt>0</asrwt>
<pdfrwt beam="2">  1        2 0.35843702E-01 0.16203289E+03</pdfrwt>
<pdfrwt beam="1">  1       -2 0.15504956E-01 0.16203289E+03</pdfrwt>
<totfact> 0.45209108E+03</totfact>
</mgrwt>
</event>
<event>
 8    1  0.1224355E-005  0.1488542E+03  0.7546771E-02  0.1206799E+00
         -1   -1    0    0    0  501 -0.00000000000E+00  0.00000000000E+00  0.60225102120E+02  0.60225102120E+02  0.00000000000E+00 0.  1.
          1   -1    0    0  501    0  0.00000000000E+00 -0.00000000000E+00 -0.36749787359E+03  0.36749787359E+03  0.00000000000E+00 0. -1.
         23    2    1    2    0    0 -0.11000141867E+02  0.97244708552E+02 -0.79803762653E+02  0.15587792957E+03  0.91387920041E+02 0.  0.
         23    2    1    2    0    0  0.11000141867E+02 -0.97244708552E+02 -0.22746900882E+03  0.27184504615E+03  0.11216078940E+03 0.  0.
          5    1    4    4  502    0  0.21085692731E+02 -0.11400165683E+03 -0.22278876241E+03  0.25119296736E+03  0.47000000000E+01 0. -1.
         -5    1    4    4    0  502 -0.10085550864E+02  0.16756948273E+02 -0.46802464095E+01  0.20652078784E+02  0.47000000000E+01 0.  1.
        -11    1    3    3    0    0 -0.28643777813E+02 -0.52242073104E+01 -0.24812958268E+02  0.38254950627E+02  0.00000000000E+00 0. -1.
         11    1    3    3    0    0  0.17643635946E+02  0.10246891586E+03 -0.54990804385E+02  0.11762297894E+03  0.00000000000E+00 0.  1.
<mgrwt>
<rscale>  0 0.14496603E+03</rscale>
<asrwt>0</asrwt>
<pdfrwt beam="2">  1        1 0.56538135E-01 0.14885422E+03</pdfrwt>
<pdfrwt beam="1">  1       -1 0.92654003E-02 0.14885422E+03</pdfrwt>
<totfact> 0.44883101E+03</totfact>
</mgrwt>
</event>
<event>
 7    1  0.1224355E-005  0.1472016E+03  0.7546771E-02  0.1221109E+00
          1   -1    0    0  501    0  0.00000000000E+00  0.00000000000E+00  0.22839642431E+03  0.22839642431E+03  0.00000000000E+00 0. -1.
         -1   -1    0    0    0  501 -0.00000000000E+00 -0.00000000000E+00 -0.69011695369E+02  0.69011695369E+02  0.00000000000E+00 0.  1.
         23    2    1    2    0    0  0.48447764472E+02 -0.15030174014E+02  0.48609745620E+02  0.11318164203E+03  0.88736039529E+02 0.  0.
          5    1    1    2  502    0  0.36485702435E+02 -0.18124876389E+01 -0.74814036030E+01  0.37583945954E+02  0.47000000000E+01 0. -1.
         -5    1    1    2    0  502 -0.84933466906E+02  0.16842661653E+02  0.11825638692E+03  0.14664253169E+03  0.47000000000E+01 0.  1.
        -11    1    3    3    0    0  0.61798258149E+01  0.23104163993E+02 -0.14674884317E+02  0.28059666260E+02  0.00000000000E+00 0.  1.
         11    1    3    3    0    0  0.42267938657E+02 -0.38134338007E+02  0.63284629937E+02  0.85121975775E+02  0.00000000000E+00 0. -1.
<mgrwt>
<rscale>  0 0.13437212E+03</rscale>
<asrwt>0</asrwt>
<pdfrwt beam="1">  1        1 0.35137911E-01 0.14720156E+03</pdfrwt>
<pdfrwt beam="2">  1       -1 0.10617184E-01 0.14720156E+03</pdfrwt>
<totfact> 0.65788045E+03</totfact>
</mgrwt>
</event>
<event>
 8    1  0.1224355E-005  0.1476380E+03  0.7546771E-02  0.1211200E+00
         -1   -1    0    0    0  501 -0.00000000000E+00  0.00000000000E+00  0.25423036529E+02  0.25423036529E+02  0.00000000000E+00 0.  1.
          1   -1    0    0  501    0  0.00000000000E+00 -0.00000000000E+00 -0.79460401684E+03  0.79460401684E+03  0.00000000000E+00 0. -1.
         23    2    1    2    0    0  0.29771252403E+02 -0.72705486155E+02 -0.23897375811E+03  0.26964838758E+03  0.97104998180E+02 0.  0.
         23    2    1    2    0    0 -0.29771252403E+02  0.72705486155E+02 -0.53020722220E+03  0.55037866579E+03  0.12499824838E+03 0.  0.
          5    1    4    4  502    0  0.21978533722E+02  0.24975977933E+02 -0.29462768947E+02  0.44687807871E+02  0.47000000000E+01 0.  1.
         -5    1    4    4    0  502 -0.51749786126E+02  0.47729508222E+02 -0.50074445325E+03  0.50569085792E+03  0.47000000000E+01 0.  1.
        -11    1    3    3    0    0  0.31584281881E+01  0.22256702428E+02 -0.22684865336E+02  0.31936493028E+02  0.00000000000E+00 0.  1.
         11    1    3    3    0    0  0.26612824215E+02 -0.94962188583E+02 -0.21628889278E+03  0.23771189455E+03  0.00000000000E+00 0. -1.
<mgrwt>
<rscale>  0 0.14159419E+03</rscale>
<asrwt>0</asrwt>
<pdfrwt beam="2">  1        1 0.12224677E+00 0.14763799E+03</pdfrwt>
<pdfrwt beam="1">  1       -1 0.39112366E-02 0.14763799E+03</pdfrwt>
<totfact> 0.57628927E+03</totfact>
</mgrwt>
</event>
<event>
 8    1  0.1224355E-005  0.1896204E+03  0.7546771E-02  0.1164424E+00
          2   -1    0    0  501    0  0.00000000000E+00  0.00000000000E+00  0.89408418061E+03  0.89408418061E+03  0.00000000000E+00 0. -1.
         -2   -1    0    0    0  501 -0.00000000000E+00 -0.00000000000E+00 -0.35448684476E+02  0.35448684476E+02  0.00000000000E+00 0.  1.
         23    2    1    2    0    0  0.14205861791E+03 -0.12265857378E+02  0.39863140937E+03  0.43197920141E+03  0.85836633949E+02 0.  0.
         23    2    1    2    0    0 -0.14205861791E+03  0.12265857378E+02  0.46000408677E+03  0.49755366368E+03  0.12499914490E+03 0.  0.
          5    1    4    4  502    0  0.72465174552E+01  0.25695573368E+02  0.23074246675E+02  0.35598951748E+02  0.47000000000E+01 0.  1.
         -5    1    4    4    0  502 -0.14930513537E+03 -0.13429715991E+02  0.43692984009E+03  0.46195471194E+03  0.47000000000E+01 0.  1.
        -11    1    3    3    0    0  0.29307018383E+02 -0.15675253238E+02  0.24714761734E+02  0.41417802188E+02  0.00000000000E+00 0.  1.
         11    1    3    3    0    0  0.11275159953E+03  0.34093958601E+01  0.37391664764E+03  0.39056139922E+03  0.00000000000E+00 0. -1.
<mgrwt>
<rscale>  0 0.18353624E+03</rscale>
<asrwt>0</asrwt>
<pdfrwt beam="1">  1        2 0.13755140E+00 0.18962038E+03</pdfrwt>
<pdfrwt beam="2">  1       -2 0.54536444E-02 0.18962038E+03</pdfrwt>
<totfact> 0.51801434E+03</totfact>
</mgrwt>
</event>
<event>
 8    1  0.1224355E-005  0.1680298E+03  0.7546771E-02  0.1186398E+00
         -2   -1    0    0    0  501 -0.00000000000E+00  0.00000000000E+00  0.21924660641E+02  0.21924660641E+02  0.00000000000E+00 0. -1.
          2   -1    0    0  501    0  0.00000000000E+00 -0.00000000000E+00 -0.14468766349E+04  0.14468766349E+04  0.00000000000E+00 0.  1.
         23    2    1    2    0    0  0.89668999763E+02 -0.67590282969E+02 -0.32420998490E+03  0.35530817522E+03  0.92319061928E+02 0.  0.
         23    2    1    2    0    0 -0.89668999763E+02  0.67590282969E+02 -0.11007419894E+04  0.11134931203E+04  0.12500010403E+03 0.  0.
          5    1    4    4  502    0 -0.11813092841E+03  0.56280607350E+02 -0.98542106859E+03  0.99408208687E+03  0.47000000000E+01 0. -1.
         -5    1    4    4    0  502  0.28461928645E+02  0.11309675618E+02 -0.11532092077E+03  0.11941103346E+03  0.47000000000E+01 0. -1.
        -11    1    3    3    0    0  0.51133755602E+02 -0.61053247066E+02 -0.10059227981E+03  0.12830029889E+03  0.00000000000E+00 0. -1.
         11    1    3    3    0    0  0.38535244162E+02 -0.65370359025E+01 -0.22361770510E+03  0.22700787633E+03  0.00000000000E+00 0.  1.
<mgrwt>
<rscale>  0 0.16205286E+03</rscale>
<asrwt>0</asrwt>
<pdfrwt beam="2">  1        2 0.22259649E+00 0.16802976E+03</pdfrwt>
<pdfrwt beam="1">  1       -2 0.33730234E-02 0.16802976E+03</pdfrwt>
<totfact> 0.51278945E+03</totfact>
</mgrwt>
</event>
<event>
 8    1  0.1224355E-005  0.1350558E+03  0.7546771E-02  0.1234144E+00
         -1   -1    0    0    0  501 -0.00000000000E+00  0.00000000000E+00  0.22850608187E+03  0.22850608187E+03  0.00000000000E+00 0.  1.
          1   -1    0    0  501    0  0.00000000000E+00 -0.00000000000E+00 -0.61098539862E+02  0.61098539862E+02  0.00000000000E+00 0. -1.
         23    2    1    2    0    0 -0.23568545076E+02 -0.45422034008E+02  0.64975889824E+02  0.12009856759E+03  0.87081353844E+02 0.  0.
         23    2    1    2    0    0  0.23568545076E+02  0.45422034008E+02  0.10243165218E+03  0.16950605414E+03  0.12498568531E+03 0.  0.
          5    1    4    4  502    0  0.33138937457E+02 -0.37441508393E+02  0.27382139716E+02  0.57200763124E+02  0.47000000000E+01 0.  1.
         -5    1    4    4    0  502 -0.95703923811E+01  0.82863542402E+02  0.75049512465E+02  0.11230529102E+03  0.47000000000E+01 0.  1.
        -11    1    3    3    0    0 -0.63620649858E+01  0.19762029048E+02 -0.65875714768E+01  0.21780949496E+02  0.00000000000E+00 0. -1.
         11    1    3    3    0    0 -0.17206480090E+02 -0.65184063056E+02  0.71563461301E+02  0.98317618090E+02  0.00000000000E+00 0.  1.
<mgrwt>
<rscale>  0 0.12559416E+03</rscale>
<asrwt>0</asrwt>
<pdfrwt beam="2">  1        1 0.93997755E-02 0.13505576E+03</pdfrwt>
<pdfrwt beam="1">  1       -1 0.35154781E-01 0.13505576E+03</pdfrwt>
<totfact> 0.51602795E+03</totfact>
</mgrwt>
</event>
<event>
 8    1  0.1224355E-005  0.1363152E+03  0.7546771E-02  0.1230361E+00
         -1   -1    0    0    0  501 -0.00000000000E+00  0.00000000000E+00  0.28370684276E+03  0.28370684276E+03  0.00000000000E+00 0.  1.
          1   -1    0    0  501    0  0.00000000000E+00 -0.00000000000E+00 -0.51966525433E+02  0.51966525433E+02  0.00000000000E+00 0. -1.
         23    2    1    2    0    0 -0.53878972689E+02  0.73051745246E+01  0.11045232190E+03  0.15321074184E+03  0.91200365830E+02 0.  0.
         23    2    1    2    0    0  0.53878972689E+02 -0.73051745246E+01  0.12128799542E+03  0.18246262636E+03  0.12500209162E+03 0.  0.
          5    1    4    4  502    0  0.18552802632E+02 -0.49044462546E+02  0.11592280871E+03  0.12731752971E+03  0.47000000000E+01 0.  1.
         -5    1    4    4    0  502  0.35326170057E+02  0.41739288021E+02  0.53651867107E+01  0.55145096644E+02  0.47000000000E+01 0.  1.
        -11    1    3    3    0    0  0.12926703269E+02 -0.21702191710E+02  0.58582527034E+02  0.63796530126E+02  0.00000000000E+00 0.  1.
         11    1    3    3    0    0 -0.66805675959E+02  0.29007366234E+02  0.51869794870E+02  0.89414211712E+02  0.00000000000E+00 0. -1.
<mgrwt>
<rscale>  0 0.12806105E+03</rscale>
<asrwt>0</asrwt>
<pdfrwt beam="2">  1        1 0.79948502E-02 0.13631519E+03</pdfrwt>
<pdfrwt beam="1">  1       -1 0.43647206E-01 0.13631519E+03</pdfrwt>
<totfact> 0.43919369E+03</totfact>
</mgrwt>
</event>
<event>
 8    1  0.1224355E-005  0.1289084E+03  0.7546771E-02  0.1243557E+00
          1   -1    0    0  501    0  0.00000000000E+00  0.00000000000E+00  0.10984023936E+03  0.10984023936E+03  0.00000000000E+00 0. -1.
         -1   -1    0    0    0  501 -0.00000000000E+00 -0.00000000000E+00 -0.11534672336E+03  0.11534672336E+03  0.00000000000E+00 0.  1.
         23    2    1    2    0    0 -0.31369320342E+02  0.27156318207E+01 -0.81522016886E+01  0.96251399909E+02  0.90589539557E+02 0.  0.
         23    2    1    2    0    0  0.31369320342E+02 -0.27156318207E+01  0.26457176831E+01  0.12893556281E+03  0.12500388242E+03 0.  0.
          5    1    4    4  502    0 -0.41009880328E+02  0.76332321375E+01 -0.26986063430E+02  0.49904049303E+02  0.47000000000E+01 0. -1.
         -5    1    4    4    0  502  0.72379200670E+02 -0.10348863958E+02  0.29631781113E+02  0.79031513504E+02  0.47000000000E+01 0. -1.
        -11    1    3    3    0    0 -0.46533950778E+01  0.43451041509E+02 -0.16720245509E+02  0.46789034013E+02  0.00000000000E+00 0.  1.
         11    1    3    3    0    0 -0.26715925264E+02 -0.40735409688E+02  0.85680438208E+01  0.49462365897E+02  0.00000000000E+00 0. -1.
<mgrwt>
<rscale>  0 0.11972143E+03</rscale>
<asrwt>0</asrwt>
<pdfrwt beam="1">  1        1 0.16898498E-01 0.12890842E+03</pdfrwt>
<pdfrwt beam="2">  1       -1 0.17745650E-01 0.12890842E+03</pdfrwt>
<totfact> 0.73564023E+03</totfact>
</mgrwt>
</event>
<event>
 8    1  0.1224355E-005  0.1337202E+03  0.7546771E-02  0.1234740E+00
         -1   -1    0    0    0  501 -0.00000000000E+00  0.00000000000E+00  0.33769583079E+02  0.33769583079E+02  0.00000000000E+00 0.  1.
          1   -1    0    0  501    0  0.00000000000E+00 -0.00000000000E+00 -0.43285061596E+03  0.43285061596E+03  0.00000000000E+00 0. -1.
         23    2    1    2    0    0 -0.29551918623E+02 -0.37224971436E+02 -0.12645769549E+03  0.16296812215E+03  0.91148481588E+02 0.  0.
         23    2    1    2    0    0  0.29551918623E+02  0.37224971436E+02 -0.27262333739E+03  0.30365207689E+03  0.12498834072E+03 0.  0.
          5    1    4    4  502    0  0.76364319219E+01  0.77504304401E+02 -0.22138299987E+03  0.23472910967E+03  0.47000000000E+01 0.  1.
         -5    1    4    4    0  502  0.21915486701E+02 -0.40279332965E+02 -0.51240337520E+02  0.68922967222E+02  0.47000000000E+01 0.  1.
        -11    1    3    3    0    0 -0.77686906519E+01 -0.25752632210E+02 -0.13442623916E+03  0.13709108065E+03  0.00000000000E+00 0. -1.
         11    1    3    3    0    0 -0.21783227971E+02 -0.11472339225E+02  0.79685436740E+01  0.25877041493E+02  0.00000000000E+00 0.  1.
<mgrwt>
<rscale>  0 0.12521089E+03</rscale>
<asrwt>0</asrwt>
<pdfrwt beam="2">  1        1 0.66592400E-01 0.13372023E+03</pdfrwt>
<pdfrwt beam="1">  1       -1 0.51953206E-02 0.13372023E+03</pdfrwt>
<totfact> 0.86429883E+03</totfact>
</mgrwt>
</event>
<event>
 8    1  0.1224355E-005  0.1174946E+03  0.7546771E-02  0.1257878E+00
         -2   -1    0    0    0  501 -0.00000000000E+00  0.00000000000E+00  0.35857156150E+02  0.35857156150E+02  0.00000000000E+00 0.  1.
          2   -1    0    0  501    0  0.00000000000E+00 -0.00000000000E+00 -0.66339558542E+03  0.66339558542E+03  0.00000000000E+00 0. -1.
         23    2    1    2    0    0  0.10806771419E+02 -0.28940980018E+02 -0.45534583095E+02  0.10550746115E+03  0.90022549778E+02 0.  0.
         23    2    1    2    0    0 -0.10806771419E+02  0.28940980018E+02 -0.58200384617E+03  0.59374528041E+03  0.11336055056E+03 0.  0.
          5    1    4    4  502    0 -0.38120836743E+02  0.60521542354E+02 -0.43452433116E+03  0.44039702503E+03  0.47000000000E+01 0. -1.
         -5    1    4    4    0  502  0.27314065324E+02 -0.31580562337E+02 -0.14747951501E+03  0.15334825539E+03  0.47000000000E+01 0.  1.
        -11    1    3    3    0    0 -0.23567488726E+02  0.15341557133E+02 -0.40387711575E+02  0.49213383814E+02  0.00000000000E+00 0. -1.
         11    1    3    3    0    0  0.34374260145E+02 -0.44282537150E+02 -0.51468715191E+01  0.56294077339E+02  0.00000000000E+00 0.  1.
<mgrwt>
<rscale>  0 0.11146667E+03</rscale>
<asrwt>0</asrwt>
<pdfrwt beam="2">  1        2 0.10206086E+00 0.11749460E+03</pdfrwt>
<pdfrwt beam="1">  1       -2 0.55164854E-02 0.11749460E+03</pdfrwt>
<totfact> 0.71950104E+03</totfact>
</mgrwt>
</event>
<event>
 8    1  0.1224355E-005  0.1491454E+03  0.7546771E-02  0.1211193E+00
         -1   -1    0    0    0  501 -0.00000000000E+00  0.00000000000E+00  0.23759642068E+02  0.23759642068E+02  0.00000000000E+00 0.  1.
          1   -1    0    0  501    0  0.00000000000E+00 -0.00000000000E+00 -0.12014142590E+04  0.12014142590E+04  0.00000000000E+00 0. -1.
         23    2    1    2    0    0  0.54820395647E+02  0.60086739670E+02 -0.18353916652E+03  0.21993269020E+03  0.89822438773E+02 0.  0.
         23    2    1    2    0    0 -0.54820395647E+02 -0.60086739670E+02 -0.99411545044E+03  0.10052412109E+04  0.12501468403E+03 0.  0.
          5    1    4    4  502    0 -0.30511421982E+02 -0.67069505890E+02 -0.95832381193E+03  0.96116381746E+03  0.47000000000E+01 0.  1.
         -5    1    4    4    0  502 -0.24308973665E+02  0.69827662193E+01 -0.35791638513E+02  0.44077393436E+02  0.47000000000E+01 0.  1.
        -11    1    3    3    0    0  0.55241656453E+02  0.27516918179E+02 -0.17598904522E+03  0.18649655609E+03  0.00000000000E+00 0.  1.
         11    1    3    3    0    0 -0.42126080561E+00  0.32569821492E+02 -0.75501212979E+01  0.33436134111E+02  0.00000000000E+00 0. -1.
<mgrwt>
<rscale>  0 0.14159964E+03</rscale>
<asrwt>0</asrwt>
<pdfrwt beam="2">  1        1 0.18483295E+00 0.14914544E+03</pdfrwt>
<pdfrwt beam="1">  1       -1 0.36553298E-02 0.14914544E+03</pdfrwt>
<totfact> 0.31790373E+03</totfact>
</mgrwt>
</event>
<event>
 8    1  0.1224355E-005  0.1475288E+03  0.7546771E-02  0.1213009E+00
          1   -1    0    0  501    0  0.00000000000E+00  0.00000000000E+00  0.48200549501E+02  0.48200549501E+02  0.00000000000E+00 0. -1.
         -1   -1    0    0    0  501 -0.00000000000E+00 -0.00000000000E+00 -0.42529051904E+03  0.42529051904E+03  0.00000000000E+00 0.  1.
         23    2    1    2    0    0 -0.64422075125E+01  0.78100321868E+02 -0.25490783547E+03  0.28193636060E+03  0.91481935568E+02 0.  0.
         23    2    1    2    0    0  0.64422075125E+01 -0.78100321868E+02 -0.12218213407E+03  0.19155470793E+03  0.12499427960E+03 0.  0.
          5    1    4    4  502    0  0.86648196017E+01  0.33950606770E+02 -0.28637363887E+02  0.45496279070E+02  0.47000000000E+01 0. -1.
         -5    1    4    4    0  502 -0.22226120892E+01 -0.11205092864E+03 -0.93544770181E+02  0.14605842886E+03  0.47000000000E+01 0. -1.
        -11    1    3    3    0    0 -0.38670981464E+02  0.77365839510E+02 -0.16279171961E+03  0.18434224123E+03  0.00000000000E+00 0. -1.
         11    1    3    3    0    0  0.32228773952E+02  0.73448235832E+00 -0.92116115861E+02  0.97594119372E+02  0.00000000000E+00 0.  1.
<mgrwt>
<rscale>  0 0.14023820E+03</rscale>
<asrwt>0</asrwt>
<pdfrwt beam="1">  1        1 0.74154688E-02 0.14752875E+03</pdfrwt>
<pdfrwt beam="2">  1       -1 0.65429313E-01 0.14752875E+03</pdfrwt>
<totfact> 0.23025836E+03</totfact>
</mgrwt>
</event>
<event>
 7    1  0.1224355E-005  0.1612504E+03  0.7546771E-02  0.1205330E+00
          3   -1    0    0  501    0  0.00000000000E+00  0.00000000000E+00  0.13399294399E+04  0.13399294399E+04  0.00000000000E+00 0. -1.
         -3   -1    0    0    0  501 -0.00000000000E+00 -0.00000000000E+00 -0.15183036661E+02  0.15183036661E+02  0.00000000000E+00 0.  1.
         23    2    1    2    0    0  0.54735498441E+01  0.60346737778E+02  0.33173195921E+03  0.34909091882E+03  0.90259006924E+02 0.  0.
          5    1    1    2  502    0  0.45738455138E+01 -0.10989292248E+03  0.64622424791E+03  0.65553431875E+03  0.47000000000E+01 0. -1.
         -5    1    1    2    0  502 -0.10047395358E+02  0.49546184706E+02  0.34679019614E+03  0.35048723902E+03  0.47000000000E+01 0.  1.
        -11    1    3    3    0    0 -0.40507505031E+02  0.36860164389E+02  0.20634188816E+03  0.21348654405E+03  0.00000000000E+00 0.  1.
         11    1    3    3    0    0  0.45981054875E+02  0.23486573389E+02  0.12539007105E+03  0.13560437477E+03  0.00000000000E+00 0. -1.
<mgrwt>
<rscale>  0 0.14611517E+03</rscale>
<asrwt>0</asrwt>
<pdfrwt beam="1">  1        3 0.20614290E+00 0.16125039E+03</pdfrwt>
<pdfrwt beam="2">  1       -3 0.23358528E-02 0.16125039E+03</pdfrwt>
<totfact> 0.26586678E+02</totfact>
</mgrwt>
</event>
<event>
 7    1  0.1224355E-005  0.2682973E+03  0.7546771E-02  0.1119243E+00
         -1   -1    0    0    0  501 -0.00000000000E+00  0.00000000000E+00  0.78274280904E+02  0.78274280904E+02  0.00000000000E+00 0.  1.
          1   -1    0    0  501    0  0.00000000000E+00 -0.00000000000E+00 -0.12564723070E+04  0.12564723070E+04  0.00000000000E+00 0. -1.
         23    2    1    2    0    0 -0.69258276820E+02  0.12690003780E+03 -0.59080752328E+02  0.18391779678E+03  0.97133373131E+02 0.  0.
          5    1    1    2  502    0 -0.49328640913E+02 -0.13129001289E+03 -0.75195620092E+03  0.76493829842E+03  0.47000000000E+01 0. -1.
         -5    1    1    2    0  502  0.11858691773E+03  0.43899750914E+01 -0.36716107284E+03  0.38589049269E+03  0.47000000000E+01 0.  1.
        -11    1    3    3    0    0 -0.53789550512E+02  0.14235944633E+03 -0.49381346595E+02  0.15999389080E+03  0.00000000000E+00 0.  1.
         11    1    3    3    0    0 -0.15468726308E+02 -0.15459408529E+02 -0.96994057333E+01  0.23923905978E+02  0.00000000000E+00 0. -1.
<mgrwt>
<rscale>  0 0.24082724E+03</rscale>
<asrwt>0</asrwt>
<pdfrwt beam="2">  1        1 0.19330342E+00 0.26829729E+03</pdfrwt>
<pdfrwt beam="1">  1       -1 0.12042198E-01 0.26829729E+03</pdfrwt>
<totfact> 0.47832849E+02</totfact>
</mgrwt>
</event>
<event>
 8    1  0.1224355E-005  0.1535287E+03  0.7546771E-02  0.1204819E+00
          4   -1    0    0  501    0  0.00000000000E+00  0.00000000000E+00  0.13781311102E+03  0.13781311102E+03  0.00000000000E+00 0. -1.
         -4   -1    0    0    0  501 -0.00000000000E+00 -0.00000000000E+00 -0.14325358990E+03  0.14325358990E+03  0.00000000000E+00 0.  1.
         23    2    1    2    0    0  0.78918497863E+02 -0.41412624231E+02  0.19159494668E+01  0.12736183136E+03  0.90962797205E+02 0.  0.
         23    2    1    2    0    0 -0.78918497863E+02  0.41412624231E+02 -0.73564283465E+01  0.15370486955E+03  0.12501173999E+03 0.  0.
          5    1    4    4  502    0 -0.31377976783E+02  0.76531095747E+02 -0.32905509377E+02  0.89142854961E+02  0.47000000000E+01 0.  1.
         -5    1    4    4    0  502 -0.47540521080E+02 -0.35118471516E+02  0.25549081031E+02  0.64562014588E+02  0.47000000000E+01 0.  1.
        -11    1    3    3    0    0 -0.91950385109E+01 -0.19797432932E+02 -0.24553269886E+02  0.32853464749E+02  0.00000000000E+00 0.  1.
         11    1    3    3    0    0  0.88113536374E+02 -0.21615191300E+02  0.26469219352E+02  0.94508366616E+02  0.00000000000E+00 0. -1.
<mgrwt>
<rscale>  0 0.14651759E+03</rscale>
<asrwt>0</asrwt>
<pdfrwt beam="1">  1        4 0.21202017E-01 0.15352873E+03</pdfrwt>
<pdfrwt beam="2">  1       -4 0.22039014E-01 0.15352873E+03</pdfrwt>
<totfact> 0.65067778E+02</totfact>
</mgrwt>
</event>
<event>
 8    1  0.1224355E-005  0.1422079E+03  0.7546771E-02  0.1220386E+00
         -1   -1    0    0    0  501 -0.00000000000E+00  0.00000000000E+00  0.11532992370E+03  0.11532992370E+03  0.00000000000E+00 0.  1.
          1   -1    0    0  501    0  0.00000000000E+00 -0.00000000000E+00 -0.15734157778E+03  0.15734157778E+03  0.00000000000E+00 0. -1.
         23    2    1    2    0    0  0.66624093786E+02  0.12624691529E+02  0.21230951128E+02  0.11703500372E+03  0.92996161749E+02 0.  0.
         23    2    1    2    0    0 -0.66624093786E+02 -0.12624691529E+02 -0.63242605208E+02  0.15563649776E+03  0.12499975845E+03 0.  0.
          5    1    4    4  502    0 -0.97959006939E+02 -0.13507374739E+02 -0.72394911839E+02  0.12264391331E+03  0.47000000000E+01 0.  1.
         -5    1    4    4    0  502  0.31334913153E+02  0.88268320940E+00  0.91523066319E+01  0.32992584449E+02  0.47000000000E+01 0.  1.
        -11    1    3    3    0    0  0.54107653872E+02 -0.25932967934E+01  0.55469112536E+02  0.77531837598E+02  0.00000000000E+00 0.  1.
         11    1    3    3    0    0  0.12516439914E+02  0.15217988323E+02 -0.34238161408E+02  0.39503166118E+02  0.00000000000E+00 0. -1.
<mgrwt>
<rscale>  0 0.13488238E+03</rscale>
<asrwt>0</asrwt>
<pdfrwt beam="2">  1        1 0.24206397E-01 0.14220792E+03</pdfrwt>
<pdfrwt beam="1">  1       -1 0.17743065E-01 0.14220792E+03</pdfrwt>
<totfact> 0.46914090E+03</totfact>
</mgrwt>
</event>
<event>
 8    1  0.1224355E-005  0.2033566E+03  0.7546771E-02  0.1151052E+00
          1   -1    0    0  501    0  0.00000000000E+00  0.00000000000E+00  0.15802028728E+04  0.15802028728E+04  0.00000000000E+00 0. -1.
         -1   -1    0    0    0  501 -0.00000000000E+00 -0.00000000000E+00 -0.25767741290E+02  0.25767741290E+02  0.00000000000E+00 0.  1.
         23    2    1    2    0    0 -0.15709019749E+03 -0.32416210501E+02  0.52009381012E+03  0.55182836664E+03  0.91043034118E+02 0.  0.
         23    2    1    2    0    0  0.15709019749E+03  0.32416210501E+02  0.10343413214E+04  0.10541422474E+04  0.12500307137E+03 0.  0.
          5    1    4    4  502    0  0.94022285184E+02  0.40708267554E+01  0.87907458501E+03  0.88411027465E+03  0.47000000000E+01 0.  1.
         -5    1    4    4    0  502  0.63067912311E+02  0.28345383746E+02  0.15526673637E+03  0.17003197278E+03  0.47000000000E+01 0.  1.
        -11    1    3    3    0    0  0.10873491322E+02 -0.98973555590E+01  0.34081837593E+02  0.37118218092E+02  0.00000000000E+00 0.  1.
         11    1    3    3    0    0 -0.16796368882E+03 -0.22518854942E+02  0.48601197252E+03  0.51471014855E+03  0.00000000000E+00 0. -1.
<mgrwt>
<rscale>  0 0.19845209E+03</rscale>
<asrwt>0</asrwt>
<pdfrwt beam="1">  1        1 0.24310806E+00 0.20335660E+03</pdfrwt>
<pdfrwt beam="2">  1       -1 0.39642691E-02 0.20335660E+03</pdfrwt>
<totfact> 0.15820785E+03</totfact>
</mgrwt>
</event>
<event>
 8    1  0.1224355E-005  0.1476403E+03  0.7546771E-02  0.1211754E+00
         -1   -1    0    0    0  501 -0.00000000000E+00  0.00000000000E+00  0.89482958023E+02  0.89482958023E+02  0.00000000000E+00 0. -1.
          1   -1    0    0  501    0  0.00000000000E+00 -0.00000000000E+00 -0.28790939402E+03  0.28790939402E+03  0.00000000000E+00 0.  1.
         23    2    1    2    0    0  0.21538709480E+02  0.75557565268E+02  0.78945435521E+01  0.12368781450E+03  0.95202363221E+02 0.  0.
         23    2    1    2    0    0 -0.21538709480E+02 -0.75557565268E+02 -0.20632097954E+03  0.25370453754E+03  0.12499913636E+03 0.  0.
          5    1    4    4  502    0  0.34025741068E+02  0.16065140161E+02 -0.35151273384E+02  0.51706303331E+02  0.47000000000E+01 0. -1.
         -5    1    4    4    0  502 -0.55564450549E+02 -0.91622705430E+02 -0.17116970616E+03  0.20199823421E+03  0.47000000000E+01 0. -1.
        -11    1    3    3    0    0 -0.67844674072E+01  0.40024061702E+02  0.48151179192E+02  0.62980080746E+02  0.00000000000E+00 0. -1.
         11    1    3    3    0    0  0.28323176888E+02  0.35533503566E+02 -0.40256635640E+02  0.60707733756E+02  0.00000000000E+00 0.  1.
<mgrwt>
<rscale>  0 0.14117693E+03</rscale>
<asrwt>0</asrwt>
<pdfrwt beam="2">  1        1 0.44293753E-01 0.14764026E+03</pdfrwt>
<pdfrwt beam="1">  1       -1 0.13766609E-01 0.14764026E+03</pdfrwt>
<totfact> 0.33038256E+03</totfact>
</mgrwt>
</event>
<event>
 8    1  0.1224355E-005  0.1377888E+03  0.7546771E-02  0.1229555E+00
          3   -1    0    0  501    0  0.00000000000E+00  0.00000000000E+00  0.45702646773E+02  0.45702646773E+02  0.00000000000E+00 0. -1.
         -3   -1    0    0    0  501 -0.00000000000E+00 -0.00000000000E+00 -0.33107730657E+03  0.33107730657E+03  0.00000000000E+00 0.  1.
         23    2    1    2    0    0 -0.57985288930E+02 -0.15805573050E+01 -0.15591224210E+03  0.18771308959E+03  0.86964273552E+02 0.  0.
         23    2    1    2    0    0  0.57985288930E+02  0.15805573050E+01 -0.12946241770E+03  0.18906686375E+03  0.12498387687E+03 0.  0.
          5    1    4    4  502    0  0.48169617957E+02 -0.58340880460E+02 -0.59909311038E+02  0.96618766169E+02  0.47000000000E+01 0. -1.
         -5    1    4    4    0  502  0.98156709735E+01  0.59921437765E+02 -0.69553106661E+02  0.92448097582E+02  0.47000000000E+01 0. -1.
        -11    1    3    3    0    0 -0.50768566265E+02 -0.40441183251E+02 -0.92827841136E+02  0.11326934587E+03  0.00000000000E+00 0. -1.
         11    1    3    3    0    0 -0.72167226659E+01  0.38860625946E+02 -0.63084400959E+02  0.74443743722E+02  0.00000000000E+00 0.  1.
<mgrwt>
<rscale>  0 0.12859556E+03</rscale>
<asrwt>0</asrwt>
<pdfrwt beam="1">  1        3 0.70311769E-02 0.13778883E+03</pdfrwt>
<pdfrwt beam="2">  1       -3 0.50934967E-01 0.13778883E+03</pdfrwt>
<totfact> 0.11704665E+03</totfact>
</mgrwt>
</event>
<event>
 8    1  0.1224355E-005  0.1255116E+03  0.7546771E-02  0.1251963E+00
          1   -1    0    0  501    0  0.00000000000E+00  0.00000000000E+00  0.46911534527E+03  0.46911534527E+03  0.00000000000E+00 0. -1.
         -1   -1    0    0    0  501 -0.00000000000E+00 -0.00000000000E+00 -0.24311786034E+02  0.24311786034E+02  0.00000000000E+00 0.  1.
         23    2    1    2    0    0  0.10994637699E+02 -0.13621409640E+01  0.19579223142E+03  0.21457267985E+03  0.87086735871E+02 0.  0.
         23    2    1    2    0    0 -0.10994637699E+02  0.13621409640E+01  0.24901132781E+03  0.27885445145E+03  0.12502170304E+03 0.  0.
          5    1    4    4  502    0  0.52449356664E+02  0.18702755403E+02  0.14827750783E+03  0.15845831440E+03  0.47000000000E+01 0. -1.
         -5    1    4    4    0  502 -0.63443994364E+02 -0.17340614439E+02  0.10073381998E+03  0.12039613705E+03  0.47000000000E+01 0. -1.
        -11    1    3    3    0    0 -0.19243124949E+02  0.24593822326E+02  0.27447003500E+02  0.41575136266E+02  0.00000000000E+00 0.  1.
         11    1    3    3    0    0  0.30237762648E+02 -0.25955963290E+02  0.16834522792E+03  0.17299754358E+03  0.00000000000E+00 0. -1.
<mgrwt>
<rscale>  0 0.11478164E+03</rscale>
<asrwt>0</asrwt>
<pdfrwt beam="1">  1        1 0.72171585E-01 0.12551161E+03</pdfrwt>
<pdfrwt beam="2">  1       -1 0.37402751E-02 0.12551161E+03</pdfrwt>
<totfact> 0.12586201E+04</totfact>
</mgrwt>
</event>
<event>
 8    1  0.1224355E-005  0.1486398E+03  0.7546771E-02  0.1212502E+00
          1   -1    0    0  501    0  0.00000000000E+00  0.00000000000E+00  0.19895215717E+03  0.19895215717E+03  0.00000000000E+00 0. -1.
         -1   -1    0    0    0  501 -0.00000000000E+00 -0.00000000000E+00 -0.90073512359E+02  0.90073512359E+02  0.00000000000E+00 0.  1.
         23    2    1    2    0    0 -0.70972763489E+02  0.37081426394E+02  0.50930550641E+02  0.12948951046E+03  0.88099074850E+02 0.  0.
         23    2    1    2    0    0  0.70972763489E+02 -0.37081426394E+02  0.57948094167E+02  0.15953615907E+03  0.12522635143E+03 0.  0.
          5    1    4    4  502    0  0.61838601063E+02 -0.81768858812E+02  0.43450567767E+02  0.11144595413E+03  0.47000000000E+01 0. -1.
         -5    1    4    4    0  502  0.91341624266E+01  0.44687432417E+02  0.14497526400E+02  0.48090204938E+02  0.47000000000E+01 0.  1.
        -11    1    3    3    0    0 -0.10190568000E+02 -0.26977446610E+02  0.22952050340E+02  0.36856843552E+02  0.00000000000E+00 0. -1.
         11    1    3    3    0    0 -0.60782195489E+02  0.64058873005E+02  0.27978500301E+02  0.92632666907E+02  0.00000000000E+00 0.  1.
<mgrwt>
<rscale>  0 0.14061657E+03</rscale>
<asrwt>0</asrwt>
<pdfrwt beam="1">  1        1 0.30608024E-01 0.14863985E+03</pdfrwt>
<pdfrwt beam="2">  1       -1 0.13857463E-01 0.14863985E+03</pdfrwt>
<totfact> 0.51752868E+03</totfact>
</mgrwt>
</event>
<event>
 8    1  0.1224355E-005  0.1681486E+03  0.7546771E-02  0.1185838E+00
         -2   -1    0    0    0  501 -0.00000000000E+00  0.00000000000E+00  0.25143153927E+02  0.25143153927E+02  0.00000000000E+00 0.  1.
          2   -1    0    0  501    0  0.00000000000E+00 -0.00000000000E+00 -0.11389666140E+04  0.11389666140E+04  0.00000000000E+00 0. -1.
         23    2    1    2    0    0  0.10851916199E+03 -0.29525507533E+02 -0.31199769582E+03  0.34484271023E+03  0.94476285313E+02 0.  0.
         23    2    1    2    0    0 -0.10851916199E+03  0.29525507533E+02 -0.80182576429E+03  0.81926705774E+03  0.12500316595E+03 0.  0.
          5    1    4    4  502    0  0.15818064885E+02 -0.94859580099E+01 -0.30566626357E+03  0.30625830480E+03  0.47000000000E+01 0.  1.
         -5    1    4    4    0  502 -0.12433722688E+03  0.39011465543E+02 -0.49615950072E+03  0.51300875293E+03  0.47000000000E+01 0.  1.
        -11    1    3    3    0    0  0.25012435278E+02 -0.54292218754E+02 -0.12613045542E+03  0.13957850379E+03  0.00000000000E+00 0.  1.
         11    1    3    3    0    0  0.83506726712E+02  0.24766711221E+02 -0.18586724040E+03  0.20526420644E+03  0.00000000000E+00 0. -1.
<mgrwt>
<rscale>  0 0.16255904E+03</rscale>
<asrwt>0</asrwt>
<pdfrwt beam="2">  1        2 0.17522566E+00 0.16814861E+03</pdfrwt>
<pdfrwt beam="1">  1       -2 0.38681770E-02 0.16814861E+03</pdfrwt>
<totfact> 0.61626560E+03</totfact>
</mgrwt>
</event>
<event>
 8    1  0.1224355E-005  0.1623383E+03  0.7546771E-02  0.1198108E+00
          1   -1    0    0  501    0  0.00000000000E+00  0.00000000000E+00  0.32442826753E+02  0.32442826753E+02  0.00000000000E+00 0. -1.
         -1   -1    0    0    0  501 -0.00000000000E+00 -0.00000000000E+00 -0.64298137160E+03  0.64298137160E+03  0.00000000000E+00 0.  1.
         23    2    1    2    0    0  0.54338505751E+02  0.88147068131E+02 -0.30442920021E+03  0.32893226088E+03  0.69258324256E+02 0.  0.
         23    2    1    2    0    0 -0.54338505751E+02 -0.88147068131E+02 -0.30610934463E+03  0.34649193747E+03  0.12502460971E+03 0.  0.
          5    1    4    4  502    0 -0.78554662252E+02 -0.64988381284E+02 -0.29289516068E+03  0.31016768015E+03  0.47000000000E+01 0. -1.
         -5    1    4    4    0  502  0.24216156502E+02 -0.23158686847E+02 -0.13214183958E+02  0.36324257320E+02  0.47000000000E+01 0. -1.
        -11    1    3    3    0    0  0.48097643020E+02  0.64397921947E+02 -0.28891311089E+03  0.29988541355E+03  0.00000000000E+00 0.  1.
         11    1    3    3    0    0  0.62408627307E+01  0.23749146184E+02 -0.15516089323E+02  0.29046847332E+02  0.00000000000E+00 0. -1.
<mgrwt>
<rscale>  0 0.15194093E+03</rscale>
<asrwt>0</asrwt>
<pdfrwt beam="1">  1        1 0.49912043E-02 0.16233833E+03</pdfrwt>
<pdfrwt beam="2">  1       -1 0.98920207E-01 0.16233833E+03</pdfrwt>
<totfact> 0.16909347E+03</totfact>
</mgrwt>
</event>
<event>
 8    1  0.1224355E-005  0.1526167E+03  0.7546771E-02  0.1202422E+00
          3   -1    0    0  501    0  0.00000000000E+00  0.00000000000E+00  0.25442474372E+02  0.25442474372E+02  0.00000000000E+00 0. -1.
         -3   -1    0    0    0  501 -0.00000000000E+00 -0.00000000000E+00 -0.84416117031E+03  0.84416117031E+03  0.00000000000E+00 0.  1.
         23    2    1    2    0    0 -0.75934391474E+02  0.70291317903E+02 -0.31606785860E+03  0.34429446585E+03  0.89066754713E+02 0.  0.
         23    2    1    2    0    0  0.75934391474E+02 -0.70291317903E+02 -0.50265083734E+03  0.52530917883E+03  0.11218274335E+03 0.  0.
          5    1    4    4  502    0  0.44672935476E+02  0.90308064536E+01 -0.32486836353E+03  0.32808348061E+03  0.47000000000E+01 0. -1.
         -5    1    4    4    0  502  0.31261455999E+02 -0.79322124356E+02 -0.17778247381E+03  0.19722569822E+03  0.47000000000E+01 0.  1.
        -11    1    3    3    0    0 -0.43008149672E+02  0.12005570914E+02 -0.39101559787E+02  0.59352899247E+02  0.00000000000E+00 0. -1.
         11    1    3    3    0    0 -0.32926241802E+02  0.58285746989E+02 -0.27696629881E+03  0.28494156661E+03  0.00000000000E+00 0.  1.
<mgrwt>
<rscale>  0 0.14842489E+03</rscale>
<asrwt>0</asrwt>
<pdfrwt beam="1">  1        3 0.39142265E-02 0.15261674E+03</pdfrwt>
<pdfrwt beam="2">  1       -3 0.12987096E+00 0.15261674E+03</pdfrwt>
<totfact> 0.38838270E+02</totfact>
</mgrwt>
</event>
<event>
 8    1  0.2098676E-005  0.1621331E+03  0.7546771E-02  0.1194000E+00
         -2   -1    0    0    0  501 -0.00000000000E+00  0.00000000000E+00  0.26355623065E+02  0.26355623065E+02  0.00000000000E+00 0.  1.
          2   -1    0    0  501    0  0.00000000000E+00 -0.00000000000E+00 -0.88149921576E+03  0.88149921576E+03  0.00000000000E+00 0. -1.
         23    2    1    2    0    0 -0.83210165362E+02  0.61135713399E+02 -0.30410075760E+03  0.33345485952E+03  0.89740545402E+02 0.  0.
         23    2    1    2    0    0  0.83210165362E+02 -0.61135713399E+02 -0.55104283509E+03  0.57439997931E+03  0.12500249217E+03 0.  0.
          5    1    4    4  502    0 -0.16037395887E+02 -0.56703489105E+02 -0.15049479185E+03  0.16168876312E+03  0.47000000000E+01 0. -1.
         -5    1    4    4    0  502  0.99247561249E+02 -0.44322242939E+01 -0.40054804324E+03  0.41271121619E+03  0.47000000000E+01 0. -1.
        -11    1    3    3    0    0 -0.24071144374E+02  0.38664932215E+02 -0.36182258868E+02  0.58168314669E+02  0.00000000000E+00 0.  1.
         11    1    3    3    0    0 -0.59139020988E+02  0.22470781184E+02 -0.26791849874E+03  0.27528654485E+03  0.00000000000E+00 0. -1.
<mgrwt>
<rscale>  0 0.15539143E+03</rscale>
<asrwt>0</asrwt>
<pdfrwt beam="2">  1        2 0.13561525E+00 0.16213306E+03</pdfrwt>
<pdfrwt beam="1">  1       -2 0.40547117E-02 0.16213306E+03</pdfrwt>
<totfact> 0.81944796E+03</totfact>
</mgrwt>
</event>
<event>
 8    1  0.1224355E-005  0.2396990E+03  0.7546771E-02  0.1122836E+00
          1   -1    0    0  501    0  0.00000000000E+00  0.00000000000E+00  0.11855957733E+04  0.11855957733E+04  0.00000000000E+00 0. -1.
         -1   -1    0    0    0  501 -0.00000000000E+00 -0.00000000000E+00 -0.45386895088E+02  0.45386895088E+02  0.00000000000E+00 0.  1.
         23    2    1    2    0    0  0.46919715743E+02  0.19907068524E+03  0.51067000845E+03  0.55735457031E+03  0.89608381688E+02 0.  0.
         23    2    1    2    0    0 -0.46919715743E+02 -0.19907068524E+03  0.62953886973E+03  0.67362809805E+03  0.12500011412E+03 0.  0.
          5    1    4    4  502    0  0.17733558503E+02 -0.16413285314E+03  0.40747481331E+03  0.43967247589E+03  0.47000000000E+01 0. -1.
         -5    1    4    4    0  502 -0.64653274245E+02 -0.34937832091E+02  0.22206405643E+03  0.23395562216E+03  0.47000000000E+01 0. -1.
        -11    1    3    3    0    0  0.27436678633E+02  0.13848164872E+02  0.35310708869E+02  0.46812275800E+02  0.00000000000E+00 0.  1.
         11    1    3    3    0    0  0.19483037110E+02  0.18522252036E+03  0.47535929958E+03  0.51054229451E+03  0.00000000000E+00 0. -1.
<mgrwt>
<rscale>  0 0.23548813E+03</rscale>
<asrwt>0</asrwt>
<pdfrwt beam="1">  1        1 0.18239933E+00 0.23969903E+03</pdfrwt>
<pdfrwt beam="2">  1       -1 0.69826001E-02 0.23969903E+03</pdfrwt>
<totfact> 0.12449898E+03</totfact>
</mgrwt>
</event>
<event>
 7    1  0.1224355E-005  0.1772598E+03  0.7546771E-02  0.1186800E+00
          2   -1    0    0  501    0  0.00000000000E+00  0.00000000000E+00  0.35688452612E+03  0.35688452612E+03  0.00000000000E+00 0. -1.
         -2   -1    0    0    0  501 -0.00000000000E+00 -0.00000000000E+00 -0.69529841426E+02  0.69529841426E+02  0.00000000000E+00 0.  1.
         23    2    1    2    0    0 -0.65708302278E+02 -0.48855230723E+02  0.55826229381E+02  0.13482136930E+03  0.91410169977E+02 0.  0.
          5    1    1    2  502    0  0.96411761033E+02 -0.46296744035E+01  0.20010586003E+03  0.22221860131E+03  0.47000000000E+01 0. -1.
         -5    1    1    2    0  502 -0.30703458755E+02  0.53484905126E+02  0.31422595281E+02  0.69374396935E+02  0.47000000000E+01 0.  1.
        -11    1    3    3    0    0 -0.51440676090E+02 -0.65081482174E+01 -0.12353982421E+02  0.53302157850E+02  0.00000000000E+00 0.  1.
         11    1    3    3    0    0 -0.14267626188E+02 -0.42347082506E+02  0.68180211802E+02  0.81519211448E+02  0.00000000000E+00 0. -1.
<mgrwt>
<rscale>  0 0.16169133E+03</rscale>
<asrwt>0</asrwt>
<pdfrwt beam="1">  1        2 0.54905311E-01 0.17725984E+03</pdfrwt>
<pdfrwt beam="2">  1       -2 0.10696899E-01 0.17725984E+03</pdfrwt>
<totfact> 0.52459096E+03</totfact>
</mgrwt>
</event>
<event>
 8    1  0.1224355E-005  0.1278037E+03  0.7546771E-02  0.1244817E+00
          3   -1    0    0  501    0  0.00000000000E+00  0.00000000000E+00  0.45234093720E+02  0.45234093720E+02  0.00000000000E+00 0. -1.
         -3   -1    0    0    0  501 -0.00000000000E+00 -0.00000000000E+00 -0.27750238020E+03  0.27750238020E+03  0.00000000000E+00 0.  1.
         23    2    1    2    0    0 -0.26305219236E+02 -0.40896531597E+01 -0.90999609051E+02  0.13223551769E+03  0.92177076699E+02 0.  0.
         23    2    1    2    0    0  0.26305219236E+02  0.40896531597E+01 -0.14126867742E+03  0.19050095623E+03  0.12500034112E+03 0.  0.
          5    1    4    4  502    0 -0.45316602068E+02  0.18924206522E+02 -0.84288961687E+02  0.97664932692E+02  0.47000000000E+01 0. -1.
         -5    1    4    4    0  502  0.71621821304E+02 -0.14834553362E+02 -0.56979715737E+02  0.92836023535E+02  0.47000000000E+01 0. -1.
        -11    1    3    3    0    0 -0.23648839181E+02  0.34144383614E+02 -0.83390048571E+02  0.93161186808E+02  0.00000000000E+00 0.  1.
         11    1    3    3    0    0 -0.26563800555E+01 -0.38234036774E+02 -0.76095604809E+01  0.39074330880E+02  0.00000000000E+00 0. -1.
<mgrwt>
<rscale>  0 0.11896309E+03</rscale>
<asrwt>0</asrwt>
<pdfrwt beam="1">  1        3 0.69590914E-02 0.12780366E+03</pdfrwt>
<pdfrwt beam="2">  1       -3 0.42692674E-01 0.12780366E+03</pdfrwt>
<totfact> 0.16646537E+03</totfact>
</mgrwt>
</event>
<event>
 8    1  0.1224355E-005  0.1295846E+03  0.7546771E-02  0.1242111E+00
          1   -1    0    0  501    0  0.00000000000E+00  0.00000000000E+00  0.92914335829E+02  0.92914335829E+02  0.00000000000E+00 0. -1.
         -1   -1    0    0    0  501 -0.00000000000E+00 -0.00000000000E+00 -0.17524188414E+03  0.17524188414E+03  0.00000000000E+00 0.  1.
         23    2    1    2    0    0 -0.26373938736E+02 -0.21727039949E+02 -0.97503414122E+02  0.13768600811E+03  0.91010285981E+02 0.  0.
         23    2    1    2    0    0  0.26373938736E+02  0.21727039949E+02  0.15175865812E+02  0.13047021186E+03  0.12499808146E+03 0.  0.
          5    1    4    4  502    0  0.11172728030E+02  0.66951280189E+02 -0.20102767512E+02  0.70947269378E+02  0.47000000000E+01 0.  1.
         -5    1    4    4    0  502  0.15201210706E+02 -0.45224240240E+02  0.35278633324E+02  0.59522942479E+02  0.47000000000E+01 0.  1.
        -11    1    3    3    0    0 -0.70454963710E+01  0.27224234651E+02 -0.75636509170E+02  0.80694978102E+02  0.00000000000E+00 0.  1.
         11    1    3    3    0    0 -0.19328442365E+02 -0.48951274599E+02 -0.21866904952E+02  0.56991030008E+02  0.00000000000E+00 0. -1.
<mgrwt>
<rscale>  0 0.12059992E+03</rscale>
<asrwt>0</asrwt>
<pdfrwt beam="1">  1        1 0.14294513E-01 0.12958460E+03</pdfrwt>
<pdfrwt beam="2">  1       -1 0.26960290E-01 0.12958460E+03</pdfrwt>
<totfact> 0.46405594E+03</totfact>
</mgrwt>
</event>
<event>
 8    1  0.1224355E-005  0.1292502E+03  0.7546771E-02  0.1242438E+00
          4   -1    0    0  501    0  0.00000000000E+00  0.00000000000E+00  0.35433994843E+03  0.35433994843E+03  0.00000000000E+00 0. -1.
         -4   -1    0    0    0  501 -0.00000000000E+00 -0.00000000000E+00 -0.37350895153E+02  0.37350895153E+02  0.00000000000E+00 0.  1.
         23    2    1    2    0    0 -0.21661851634E+02  0.24704229625E+02  0.10307357112E+03  0.14175993982E+03  0.91608867996E+02 0.  0.
         23    2    1    2    0    0  0.21661851634E+02 -0.24704229625E+02  0.21391548215E+03  0.24993090377E+03  0.12500435342E+03 0.  0.
          5    1    4    4  502    0 -0.26356187991E+01 -0.43235135259E+02  0.11355548894E+02  0.45025125185E+02  0.47000000000E+01 0. -1.
         -5    1    4    4    0  502  0.24297470433E+02  0.18530905634E+02  0.20255993326E+03  0.20490577858E+03  0.47000000000E+01 0. -1.
        -11    1    3    3    0    0  0.18527556874E+02 -0.25052767265E+02  0.48677976164E+02  0.57796685673E+02  0.00000000000E+00 0. -1.
         11    1    3    3    0    0 -0.40189408508E+02  0.49756996889E+02  0.54395594959E+02  0.83963254145E+02  0.00000000000E+00 0.  1.
<mgrwt>
<rscale>  0 0.12040017E+03</rscale>
<asrwt>0</asrwt>
<pdfrwt beam="1">  1        4 0.54513836E-01 0.12925023E+03</pdfrwt>
<pdfrwt beam="2">  1       -4 0.57462918E-02 0.12925023E+03</pdfrwt>
<totfact> 0.10108297E+03</totfact>
</mgrwt>
</event>
<event>
 8    1  0.1224355E-005  0.1261980E+03  0.7546771E-02  0.1247931E+00
          3   -1    0    0  501    0  0.00000000000E+00  0.00000000000E+00  0.27777958016E+03  0.27777958016E+03  0.00000000000E+00 0. -1.
         -3   -1    0    0    0  501 -0.00000000000E+00 -0.00000000000E+00 -0.43489551600E+02  0.43489551600E+02  0.00000000000E+00 0.  1.
         23    2    1    2    0    0 -0.63438111689E+01 -0.16154543448E+02  0.97902890626E+02  0.13545366680E+03  0.91986448140E+02 0.  0.
         23    2    1    2    0    0  0.63438111689E+01  0.16154543448E+02  0.13638713794E+03  0.18581546497E+03  0.12499888964E+03 0.  0.
          5    1    4    4  502    0  0.48813575131E+02 -0.17987272610E+02  0.17732576073E+02  0.55161955614E+02  0.47000000000E+01 0. -1.
         -5    1    4    4    0  502 -0.42469763962E+02  0.34141816058E+02  0.11865456186E+03  0.13065350935E+03  0.47000000000E+01 0. -1.
        -11    1    3    3    0    0  0.38836227136E+02 -0.26674061674E+02  0.52561051331E+02  0.70586275022E+02  0.00000000000E+00 0.  1.
         11    1    3    3    0    0 -0.45180038305E+02  0.10519518226E+02  0.45341839295E+02  0.64867391774E+02  0.00000000000E+00 0. -1.
<mgrwt>
<rscale>  0 0.11711681E+03</rscale>
<asrwt>0</asrwt>
<pdfrwt beam="1">  1        3 0.42735319E-01 0.12619800E+03</pdfrwt>
<pdfrwt beam="2">  1       -3 0.66907004E-02 0.12619800E+03</pdfrwt>
<totfact> 0.17665560E+03</totfact>
</mgrwt>
</event>
<event>
 7    1  0.1224355E-005  0.1717927E+03  0.7546771E-02  0.1209087E+00
         -4   -1    0    0    0  501 -0.00000000000E+00  0.00000000000E+00  0.78374122009E+02  0.78374122009E+02  0.00000000000E+00 0.  1.
          4   -1    0    0  501    0  0.00000000000E+00 -0.00000000000E+00 -0.20701481268E+03  0.20701481268E+03  0.00000000000E+00 0. -1.
         23    2    1    2    0    0 -0.55318463462E+02 -0.21722639655E+02 -0.40191925672E+02  0.92163901996E+02  0.57851434455E+02 0.  0.
          5    1    1    2  502    0 -0.60107561843E+00 -0.41117594116E+02 -0.99962454661E+02  0.10819242201E+03  0.47000000000E+01 0. -1.
         -5    1    1    2    0  502  0.55919539081E+02  0.62840233770E+02  0.11513689658E+02  0.85032610691E+02  0.47000000000E+01 0.  1.
        -11    1    3    3    0    0 -0.10321049562E+02  0.18031871477E+02 -0.19940336529E+02  0.28797386581E+02  0.00000000000E+00 0. -1.
         11    1    3    3    0    0 -0.44997413900E+02 -0.39754511131E+02 -0.20251589143E+02  0.63366515415E+02  0.00000000000E+00 0.  1.
<mgrwt>
<rscale>  0 0.14319985E+03</rscale>
<asrwt>0</asrwt>
<pdfrwt beam="2">  1        4 0.31848433E-01 0.17179269E+03</pdfrwt>
<pdfrwt beam="1">  1       -4 0.12057557E-01 0.17179269E+03</pdfrwt>
<totfact> 0.90497392E+02</totfact>
</mgrwt>
</event>
<event>
 8    1  0.1224355E-005  0.1422079E+03  0.7546771E-02  0.1220854E+00
         -2   -1    0    0    0  501 -0.00000000000E+00  0.00000000000E+00  0.17334409435E+03  0.17334409435E+03  0.00000000000E+00 0.  1.
          2   -1    0    0  501    0  0.00000000000E+00 -0.00000000000E+00 -0.12635108412E+03  0.12635108412E+03  0.00000000000E+00 0. -1.
         23    2    1    2    0    0 -0.54454995183E+02 -0.40409271761E+02  0.96275696753E+02  0.14918982024E+03  0.91598782385E+02 0.  0.
         23    2    1    2    0    0  0.54454995183E+02  0.40409271761E+02 -0.49282686519E+02  0.15050535823E+03  0.12499929568E+03 0.  0.
          5    1    4    4  502    0  0.25361322933E+02  0.58875256020E+01 -0.87347788280E+02  0.91266564392E+02  0.47000000000E+01 0. -1.
         -5    1    4    4    0  502  0.29093672250E+02  0.34521746159E+02  0.38065101760E+02  0.59238793834E+02  0.47000000000E+01 0. -1.
        -11    1    3    3    0    0 -0.27887442844E+02  0.18984883337E+02  0.91772702338E+00  0.33748740519E+02  0.00000000000E+00 0.  1.
         11    1    3    3    0    0 -0.26567552339E+02 -0.59394155098E+02  0.95357969730E+02  0.11544107973E+03  0.00000000000E+00 0. -1.
<mgrwt>
<rscale>  0 0.13455133E+03</rscale>
<asrwt>0</asrwt>
<pdfrwt beam="2">  1        2 0.19438628E-01 0.14220787E+03</pdfrwt>
<pdfrwt beam="1">  1       -2 0.26668322E-01 0.14220787E+03</pdfrwt>
<totfact> 0.35002810E+03</totfact>
</mgrwt>
</event>
<event>
 8    1  0.1224355E-005  0.1250907E+03  0.7546771E-02  0.1254765E+00
          2   -1    0    0  501    0  0.00000000000E+00  0.00000000000E+00  0.41906658745E+02  0.41906658745E+02  0.00000000000E+00 0. -1.
         -2   -1    0    0    0  501 -0.00000000000E+00 -0.00000000000E+00 -0.30006297298E+03  0.30006297298E+03  0.00000000000E+00 0.  1.
         23    2    1    2    0    0 -0.15261679102E+01 -0.68465519941E+01 -0.16800540254E+03  0.18777858076E+03  0.83580952643E+02 0.  0.
         23    2    1    2    0    0  0.15261679102E+01  0.68465519941E+01 -0.90150911696E+02  0.15419105097E+03  0.12489391041E+03 0.  0.
          5    1    4    4  502    0 -0.25877555240E+02 -0.52208111612E+02 -0.31328505940E+02  0.66324204237E+02  0.47000000000E+01 0.  1.
         -5    1    4    4    0  502  0.27403723150E+02  0.59054663606E+02 -0.58822405756E+02  0.87866846734E+02  0.47000000000E+01 0.  1.
        -11    1    3    3    0    0 -0.83998088453E+01  0.26715322697E+02 -0.14208655851E+03  0.14482007929E+03  0.00000000000E+00 0.  1.
         11    1    3    3    0    0  0.68736409351E+01 -0.33561874691E+02 -0.25918844032E+02  0.42958501469E+02  0.00000000000E+00 0. -1.
<mgrwt>
<rscale>  0 0.11319487E+03</rscale>
<asrwt>0</asrwt>
<pdfrwt beam="1">  1        2 0.64471780E-02 0.12509074E+03</pdfrwt>
<pdfrwt beam="2">  1       -2 0.46163536E-01 0.12509074E+03</pdfrwt>
<totfact> 0.47804393E+03</totfact>
</mgrwt>
</event>
<event>
 8    1  0.1224355E-005  0.1267195E+03  0.7546771E-02  0.1257081E+00
         -2   -1    0    0    0  501 -0.00000000000E+00  0.00000000000E+00  0.15355767543E+02  0.15355767543E+02  0.00000000000E+00 0.  1.
          2   -1    0    0  501    0  0.00000000000E+00 -0.00000000000E+00 -0.74277653286E+03  0.74277653286E+03  0.00000000000E+00 0. -1.
         23    2    1    2    0    0  0.19764202592E+02  0.24366482081E+01 -0.17260552403E+03  0.18902969570E+03  0.74451312765E+02 0.  0.
         23    2    1    2    0    0 -0.19764202592E+02 -0.24366482081E+01 -0.55481524128E+03  0.56910260470E+03  0.12514496297E+03 0.  0.
          5    1    4    4  502    0  0.44884530901E+02 -0.16318632229E+02 -0.11961437595E+03  0.12888214696E+03  0.47000000000E+01 0.  1.
         -5    1    4    4    0  502 -0.64648733493E+02  0.13881984021E+02 -0.43520086533E+03  0.44022045773E+03  0.47000000000E+01 0.  1.
        -11    1    3    3    0    0  0.27278994114E+02  0.26290871061E+02 -0.44217305226E+02  0.58228201951E+02  0.00000000000E+00 0.  1.
         11    1    3    3    0    0 -0.75147915217E+01 -0.23854222852E+02 -0.12838821881E+03  0.13080149375E+03  0.00000000000E+00 0. -1.
<mgrwt>
<rscale>  0 0.11190559E+03</rscale>
<asrwt>0</asrwt>
<pdfrwt beam="2">  1        2 0.11427334E+00 0.12671946E+03</pdfrwt>
<pdfrwt beam="1">  1       -2 0.23624253E-02 0.12671946E+03</pdfrwt>
<totfact> 0.22147899E+04</totfact>
</mgrwt>
</event>
<event>
 8    1  0.1224355E-005  0.1455005E+03  0.7546771E-02  0.1216771E+00
         -2   -1    0    0    0  501 -0.00000000000E+00  0.00000000000E+00  0.82443243271E+02  0.82443243271E+02  0.00000000000E+00 0.  1.
          2   -1    0    0  501    0  0.00000000000E+00 -0.00000000000E+00 -0.21571048206E+03  0.21571048206E+03  0.00000000000E+00 0. -1.
         23    2    1    2    0    0 -0.74420622422E+02  0.10456164349E+01 -0.88681172684E+02  0.14597520879E+03  0.88909441771E+02 0.  0.
         23    2    1    2    0    0  0.74420622422E+02 -0.10456164349E+01 -0.44586066107E+02  0.15217851655E+03  0.12502344281E+03 0.  0.
          5    1    4    4  502    0 -0.12797482549E+02  0.26212448629E+02 -0.52598995506E+02  0.60329199820E+02  0.47000000000E+01 0. -1.
         -5    1    4    4    0  502  0.87218104971E+02 -0.27258065064E+02  0.80129293986E+01  0.91849316727E+02  0.47000000000E+01 0. -1.
        -11    1    3    3    0    0 -0.27379736004E+02 -0.36607972411E+02 -0.68650202330E+02  0.82478141756E+02  0.00000000000E+00 0.  1.
         11    1    3    3    0    0 -0.47040886418E+02  0.37653588846E+02 -0.20030970355E+02  0.63497067029E+02  0.00000000000E+00 0. -1.
<mgrwt>
<rscale>  0 0.13747255E+03</rscale>
<asrwt>0</asrwt>
<pdfrwt beam="2">  1        2 0.33186228E-01 0.14550046E+03</pdfrwt>
<pdfrwt beam="1">  1       -2 0.12683576E-01 0.14550046E+03</pdfrwt>
<totfact> 0.67661100E+03</totfact>
</mgrwt>
</event>
<event>
 8    1  0.1224355E-005  0.1261102E+03  0.7546771E-02  0.1249145E+00
          1   -1    0    0  501    0  0.00000000000E+00  0.00000000000E+00  0.34056509371E+02  0.34056509371E+02  0.00000000000E+00 0. -1.
         -1   -1    0    0    0  501 -0.00000000000E+00 -0.00000000000E+00 -0.34922916150E+03  0.34922916150E+03  0.00000000000E+00 0.  1.
         23    2    1    2    0    0  0.16534836689E+02 -0.22200269961E+01 -0.14487508248E+03  0.17137754381E+03  0.90017463056E+02 0.  0.
         23    2    1    2    0    0 -0.16534836689E+02  0.22200269961E+01 -0.17029756964E+03  0.21190812706E+03  0.12500185095E+03 0.  0.
          5    1    4    4  502    0 -0.15759867626E+02 -0.29952272929E+02  0.41803119339E+01  0.34424948643E+02  0.47000000000E+01 0.  1.
         -5    1    4    4    0  502 -0.77496906270E+00  0.32172299925E+02 -0.17447788158E+03  0.17748317841E+03  0.47000000000E+01 0.  1.
        -11    1    3    3    0    0 -0.31699953393E+02  0.50690966751E+01 -0.21310616424E+02  0.38532131509E+02  0.00000000000E+00 0. -1.
         11    1    3    3    0    0  0.48234790082E+02 -0.72891236712E+01 -0.12356446606E+03  0.13284541230E+03  0.00000000000E+00 0.  1.
<mgrwt>
<rscale>  0 0.11640665E+03</rscale>
<asrwt>0</asrwt>
<pdfrwt beam="1">  1        1 0.52394629E-02 0.12611024E+03</pdfrwt>
<pdfrwt beam="2">  1       -1 0.53727564E-01 0.12611024E+03</pdfrwt>
<totfact> 0.53073636E+03</totfact>
</mgrwt>
</event>
<event>
 8    1  0.1224355E-005  0.1467993E+03  0.7546771E-02  0.1214594E+00
         -1   -1    0    0    0  501 -0.00000000000E+00  0.00000000000E+00  0.47652455682E+02  0.47652455682E+02  0.00000000000E+00 0.  1.
          1   -1    0    0  501    0  0.00000000000E+00 -0.00000000000E+00 -0.36912798846E+03  0.36912798846E+03  0.00000000000E+00 0. -1.
         23    2    1    2    0    0 -0.97289042320E+01  0.76424796143E+02 -0.13468642689E+03  0.17920897745E+03  0.89666175162E+02 0.  0.
         23    2    1    2    0    0  0.97289042320E+01 -0.76424796143E+02 -0.18678910588E+03  0.23757146668E+03  0.12495851577E+03 0.  0.
          5    1    4    4  502    0 -0.48776773430E+02 -0.72135033709E+02 -0.12305759099E+03  0.15082406112E+03  0.47000000000E+01 0. -1.
         -5    1    4    4    0  502  0.58505677662E+02 -0.42897624337E+01 -0.63731514897E+02  0.86747405561E+02  0.47000000000E+01 0. -1.
        -11    1    3    3    0    0  0.11208047894E+02  0.20521954750E+02  0.78592010050E+01  0.24668563087E+02  0.00000000000E+00 0.  1.
         11    1    3    3    0    0 -0.20936952126E+02  0.55902841393E+02 -0.14254562790E+03  0.15454041437E+03  0.00000000000E+00 0. -1.
<mgrwt>
<rscale>  0 0.13906364E+03</rscale>
<asrwt>0</asrwt>
<pdfrwt beam="2">  1        1 0.56788924E-01 0.14679929E+03</pdfrwt>
<pdfrwt beam="1">  1       -1 0.73311467E-02 0.14679929E+03</pdfrwt>
<totfact> 0.63578104E+03</totfact>
</mgrwt>
</event>
<event>
 8    1  0.1224355E-005  0.1302951E+03  0.7546771E-02  0.1242978E+00
         -4   -1    0    0    0  501 -0.00000000000E+00  0.00000000000E+00  0.70425845249E+02  0.70425845249E+02  0.00000000000E+00 0.  1.
          4   -1    0    0  501    0  0.00000000000E+00 -0.00000000000E+00 -0.18643874586E+03  0.18643874586E+03  0.00000000000E+00 0. -1.
         23    2    1    2    0    0  0.10621471680E+02  0.35190509977E+02 -0.22905213762E+02  0.96721351626E+02  0.86482272113E+02 0.  0.
         23    2    1    2    0    0 -0.10621471680E+02 -0.35190509977E+02 -0.93107686849E+02  0.16014323948E+03  0.12500251257E+03 0.  0.
          5    1    4    4  502    0  0.11706781845E+02  0.30882193743E+02  0.10665461641E+02  0.35022859729E+02  0.47000000000E+01 0.  1.
         -5    1    4    4    0  502 -0.22328253525E+02 -0.66072703720E+02 -0.10377314849E+03  0.12512037976E+03  0.47000000000E+01 0.  1.
        -11    1    3    3    0    0 -0.11165781480E+02  0.29228303376E+02  0.27392026790E+02  0.41584751123E+02  0.00000000000E+00 0.  1.
         11    1    3    3    0    0  0.21787253161E+02  0.59622066007E+01 -0.50297240552E+02  0.55136600503E+02  0.00000000000E+00 0. -1.
<mgrwt>
<rscale>  0 0.12007247E+03</rscale>
<asrwt>0</asrwt>
<pdfrwt beam="2">  1        4 0.28682884E-01 0.13029511E+03</pdfrwt>
<pdfrwt beam="1">  1       -4 0.10834746E-01 0.13029511E+03</pdfrwt>
<totfact> 0.12524832E+03</totfact>
</mgrwt>
</event>
<event>
 8    1  0.1224355E-005  0.1853888E+03  0.7546771E-02  0.1167813E+00
         -1   -1    0    0    0  501 -0.00000000000E+00  0.00000000000E+00  0.66137312118E+02  0.66137312118E+02  0.00000000000E+00 0.  1.
          1   -1    0    0  501    0  0.00000000000E+00 -0.00000000000E+00 -0.47627998574E+03  0.47627998574E+03  0.00000000000E+00 0. -1.
         23    2    1    2    0    0  0.13681799188E+03  0.22383906228E+01 -0.14866010429E+03  0.22188312203E+03  0.91695801107E+02 0.  0.
         23    2    1    2    0    0 -0.13681799188E+03 -0.22383906228E+01 -0.26148256933E+03  0.32053417583E+03  0.12507937686E+03 0.  0.
          5    1    4    4  502    0  0.17263708372E+02 -0.15966174955E+02 -0.71955593256E+02  0.75846237680E+02  0.47000000000E+01 0.  1.
         -5    1    4    4    0  502 -0.15408170025E+03  0.13727784332E+02 -0.18952697607E+03  0.24468793815E+03  0.47000000000E+01 0.  1.
        -11    1    3    3    0    0  0.10534837672E+03 -0.17599268680E+01 -0.46967278166E+02  0.11535728429E+03  0.00000000000E+00 0.  1.
         11    1    3    3    0    0  0.31469615154E+02  0.39983174908E+01 -0.10169282613E+03  0.10652583774E+03  0.00000000000E+00 0. -1.
<mgrwt>
<rscale>  0 0.17999006E+03</rscale>
<asrwt>0</asrwt>
<pdfrwt beam="2">  1        1 0.73273844E-01 0.18538884E+03</pdfrwt>
<pdfrwt beam="1">  1       -1 0.10174971E-01 0.18538884E+03</pdfrwt>
<totfact> 0.28176621E+03</totfact>
</mgrwt>
</event>
<event>
 7    1  0.1224355E-005  0.1452277E+03  0.7546771E-02  0.1226262E+00
          1   -1    0    0  501    0  0.00000000000E+00  0.00000000000E+00  0.12090601810E+04  0.12090601810E+04  0.00000000000E+00 0. -1.
         -1   -1    0    0    0  501 -0.00000000000E+00 -0.00000000000E+00 -0.13051511720E+02  0.13051511720E+02  0.00000000000E+00 0.  1.
         23    2    1    2    0    0  0.27179874672E+02  0.10337998571E+02  0.31397495831E+03  0.32820199577E+03  0.91053038281E+02 0.  0.
          5    1    1    2  502    0 -0.82692842460E+02  0.11483012020E+02  0.58112086596E+03  0.58710605227E+03  0.47000000000E+01 0. -1.
         -5    1    1    2    0  502  0.55512967788E+02 -0.21821010591E+02  0.30091284502E+03  0.30680364468E+03  0.47000000000E+01 0.  1.
        -11    1    3    3    0    0  0.61041199148E+02  0.53017964762E+01  0.19495633247E+03  0.20435779557E+03  0.00000000000E+00 0.  1.
         11    1    3    3    0    0 -0.33861324477E+02  0.50362020949E+01  0.11901862584E+03  0.12384420020E+03  0.00000000000E+00 0. -1.
<mgrwt>
<rscale>  0 0.13080767E+03</rscale>
<asrwt>0</asrwt>
<pdfrwt beam="1">  1        1 0.18600917E+00 0.14522768E+03</pdfrwt>
<pdfrwt beam="2">  1       -1 0.20079258E-02 0.14522768E+03</pdfrwt>
<totfact> 0.75064180E+03</totfact>
</mgrwt>
</event>
<event>
 8    1  0.1224355E-005  0.1348729E+03  0.7546771E-02  0.1232722E+00
          2   -1    0    0  501    0  0.00000000000E+00  0.00000000000E+00  0.11962350430E+03  0.11962350430E+03  0.00000000000E+00 0. -1.
         -2   -1    0    0    0  501 -0.00000000000E+00 -0.00000000000E+00 -0.13306077554E+03  0.13306077554E+03  0.00000000000E+00 0.  1.
         23    2    1    2    0    0  0.46079165127E+02  0.21041253789E+02 -0.45739515174E+02  0.11399710976E+03  0.91308345539E+02 0.  0.
         23    2    1    2    0    0 -0.46079165127E+02 -0.21041253789E+02  0.32302243942E+02  0.13868717008E+03  0.12499868944E+03 0.  0.
          5    1    4    4  502    0 -0.78302811495E+01  0.49605580348E+02 -0.36006447624E+01  0.50567593844E+02  0.47000000000E+01 0.  1.
         -5    1    4    4    0  502 -0.38248883977E+02 -0.70646834137E+02  0.35902888705E+02  0.88119576238E+02  0.47000000000E+01 0.  1.
        -11    1    3    3    0    0  0.48857734679E+02  0.66245735439E+01  0.14978045227E+02  0.51529652157E+02  0.00000000000E+00 0. -1.
         11    1    3    3    0    0 -0.27785695527E+01  0.14416680245E+02 -0.60717560401E+02  0.62467457601E+02  0.00000000000E+00 0.  1.
<mgrwt>
<rscale>  0 0.12651381E+03</rscale>
<asrwt>0</asrwt>
<pdfrwt beam="1">  1        2 0.18403616E-01 0.13487289E+03</pdfrwt>
<pdfrwt beam="2">  1       -2 0.20470889E-01 0.13487289E+03</pdfrwt>
<totfact> 0.58680530E+03</totfact>
</mgrwt>
</event>
<event>
 8    1  0.1224356E-005  0.1271511E+03  0.7546771E-02  0.1250529E+00
          2   -1    0    0  501    0  0.00000000000E+00  0.00000000000E+00  0.11595987181E+04  0.11595987181E+04  0.00000000000E+00 0. -1.
         -2   -1    0    0    0  501 -0.00000000000E+00 -0.00000000000E+00 -0.12088626490E+02  0.12088626490E+02  0.00000000000E+00 0.  1.
         23    2    1    2    0    0 -0.23269862133E+02  0.66004322115E+00  0.23861466927E+03  0.25394103441E+03  0.83708819276E+02 0.  0.
         23    2    1    2    0    0  0.23269862133E+02 -0.66004322115E+00  0.90889542229E+03  0.91774631013E+03  0.12500191583E+03 0.  0.
          5    1    4    4  502    0 -0.43755906186E+02 -0.41799238068E+01  0.59910304845E+03  0.60073172361E+03  0.47000000000E+01 0. -1.
         -5    1    4    4    0  502  0.67025768320E+02  0.35198805857E+01  0.30979237384E+03  0.31701458652E+03  0.47000000000E+01 0. -1.
        -11    1    3    3    0    0 -0.39638548015E+02 -0.31608465624E+02  0.13795968372E+03  0.14698021609E+03  0.00000000000E+00 0.  1.
         11    1    3    3    0    0  0.16368685882E+02  0.32268508845E+02  0.10065498555E+03  0.10696081832E+03  0.00000000000E+00 0. -1.
<mgrwt>
<rscale>  0 0.11560507E+03</rscale>
<asrwt>0</asrwt>
<pdfrwt beam="1">  1        2 0.17839971E+00 0.12715110E+03</pdfrwt>
<pdfrwt beam="2">  1       -2 0.18597896E-02 0.12715110E+03</pdfrwt>
<totfact> 0.17329832E+04</totfact>
</mgrwt>
</event>
<event>
 8    1  0.1224355E-005  0.1383628E+03  0.7546771E-02  0.1228330E+00
          2   -1    0    0  501    0  0.00000000000E+00  0.00000000000E+00  0.11509757154E+03  0.11509757154E+03  0.00000000000E+00 0. -1.
         -2   -1    0    0    0  501 -0.00000000000E+00 -0.00000000000E+00 -0.13391549052E+03  0.13391549052E+03  0.00000000000E+00 0.  1.
         23    2    1    2    0    0 -0.20288622529E+02  0.55735927974E+02 -0.30402465318E+02  0.11016617646E+03  0.87716330676E+02 0.  0.
         23    2    1    2    0    0  0.20288622529E+02 -0.55735927974E+02  0.11584546343E+02  0.13884688560E+03  0.12500453614E+03 0.  0.
          5    1    4    4  502    0  0.36247535322E+02  0.32015162300E+02 -0.13067235731E+01  0.48607118414E+02  0.47000000000E+01 0. -1.
         -5    1    4    4    0  502 -0.15958912793E+02 -0.87751090274E+02  0.12891269916E+02  0.90239767186E+02  0.47000000000E+01 0. -1.
        -11    1    3    3    0    0 -0.39781351161E+02 -0.49209258155E+01 -0.12571117771E+01  0.40104260884E+02  0.00000000000E+00 0.  1.
         11    1    3    3    0    0  0.19492728632E+02  0.60656853789E+02 -0.29145353541E+02  0.70061915576E+02  0.00000000000E+00 0. -1.
<mgrwt>
<rscale>  0 0.12941248E+03</rscale>
<asrwt>0</asrwt>
<pdfrwt beam="1">  1        2 0.17707319E-01 0.13836277E+03</pdfrwt>
<pdfrwt beam="2">  1       -2 0.20602383E-01 0.13836277E+03</pdfrwt>
<totfact> 0.60772083E+03</totfact>
</mgrwt>
</event>
<event>
 8    1  0.1224355E-005  0.1732404E+03  0.7546771E-02  0.1181580E+00
         -1   -1    0    0    0  501 -0.00000000000E+00  0.00000000000E+00  0.11039274312E+03  0.11039274312E+03  0.00000000000E+00 0.  1.
          1   -1    0    0  501    0  0.00000000000E+00 -0.00000000000E+00 -0.23532305410E+03  0.23532305410E+03  0.00000000000E+00 0. -1.
         23    2    1    2    0    0  0.72194690229E+02 -0.95784546854E+02 -0.41451971593E+02  0.15341168688E+03  0.86198184480E+02 0.  0.
         23    2    1    2    0    0 -0.72194690229E+02  0.95784546854E+02 -0.83478339385E+02  0.19230411035E+03  0.12500193998E+03 0.  0.
          5    1    4    4  502    0 -0.45074507908E+02  0.29577253970E+02 -0.10441789106E+03  0.11760829558E+03  0.47000000000E+01 0.  1.
         -5    1    4    4    0  502 -0.27120182321E+02  0.66207292884E+02  0.20939551675E+02  0.74695814773E+02  0.47000000000E+01 0.  1.
        -11    1    3    3    0    0  0.35000364248E+02 -0.58392243944E+02  0.21400333360E+02  0.71362832891E+02  0.00000000000E+00 0.  1.
         11    1    3    3    0    0  0.37194325982E+02 -0.37392302910E+02 -0.62852304954E+02  0.82048853984E+02  0.00000000000E+00 0. -1.
<mgrwt>
<rscale>  0 0.16647000E+03</rscale>
<asrwt>0</asrwt>
<pdfrwt beam="2">  1        1 0.36203547E-01 0.17324040E+03</pdfrwt>
<pdfrwt beam="1">  1       -1 0.16983499E-01 0.17324040E+03</pdfrwt>
<totfact> 0.30700649E+03</totfact>
</mgrwt>
</event>
<event>
 8    1  0.1224355E-005  0.1496214E+03  0.7546771E-02  0.1210420E+00
         -2   -1    0    0    0  501 -0.00000000000E+00  0.00000000000E+00  0.32454862375E+03  0.32454862375E+03  0.00000000000E+00 0.  1.
          2   -1    0    0  501    0  0.00000000000E+00 -0.00000000000E+00 -0.81010904085E+02  0.81010904085E+02  0.00000000000E+00 0. -1.
         23    2    1    2    0    0  0.82065877322E+02  0.52838533349E+01  0.22345183192E+03  0.25459594898E+03  0.90142380266E+02 0.  0.
         23    2    1    2    0    0 -0.82065877322E+02 -0.52838533349E+01  0.20085887743E+02  0.15096357886E+03  0.12499532763E+03 0.  0.
          5    1    4    4  502    0 -0.11458166350E+03  0.43275117562E+01  0.95890971421E+01  0.11515956648E+03  0.47000000000E+01 0. -1.
         -5    1    4    4    0  502  0.32515786175E+02 -0.96113650911E+01  0.10496790601E+02  0.35804012378E+02  0.47000000000E+01 0. -1.
        -11    1    3    3    0    0  0.34833611070E+02  0.88842872787E+01  0.19717758576E+03  0.20042782079E+03  0.00000000000E+00 0.  1.
         11    1    3    3    0    0  0.47232266252E+02 -0.36004339438E+01  0.26274246161E+02  0.54168128186E+02  0.00000000000E+00 0. -1.
<mgrwt>
<rscale>  0 0.14218415E+03</rscale>
<asrwt>0</asrwt>
<pdfrwt beam="2">  1        2 0.12463216E-01 0.14962139E+03</pdfrwt>
<pdfrwt beam="1">  1       -2 0.49930557E-01 0.14962139E+03</pdfrwt>
<totfact> 0.18293087E+03</totfact>
</mgrwt>
</event>
<event>
 8    1  0.1224355E-005  0.1709901E+03  0.7546771E-02  0.1179834E+00
          2   -1    0    0  501    0  0.00000000000E+00  0.00000000000E+00  0.14229664394E+04  0.14229664394E+04  0.00000000000E+00 0. -1.
         -2   -1    0    0    0  501 -0.00000000000E+00 -0.00000000000E+00 -0.19976199129E+02  0.19976199129E+02  0.00000000000E+00 0.  1.
         23    2    1    2    0    0 -0.98565946573E+02  0.62430343116E+02  0.53818689628E+03  0.56139716095E+03  0.10912764743E+03 0.  0.
         23    2    1    2    0    0  0.98565946573E+02 -0.62430343116E+02  0.86480334395E+03  0.88154547753E+03  0.12499924675E+03 0.  0.
          5    1    4    4  502    0  0.39074996782E+02 -0.51758322064E+02  0.73944143643E+03  0.74229475761E+03  0.47000000000E+01 0.  1.
         -5    1    4    4    0  502  0.59490949791E+02 -0.10672021052E+02  0.12536190752E+03  0.13925071992E+03  0.47000000000E+01 0.  1.
        -11    1    3    3    0    0 -0.10956867063E+03  0.18001021288E+02  0.42597673869E+03  0.44021075891E+03  0.00000000000E+00 0. -1.
         11    1    3    3    0    0  0.11002724059E+02  0.44429321828E+02  0.11221015759E+03  0.12118640204E+03  0.00000000000E+00 0.  1.
<mgrwt>
<rscale>  0 0.16810930E+03</rscale>
<asrwt>0</asrwt>
<pdfrwt beam="1">  1        2 0.21891783E+00 0.17099007E+03</pdfrwt>
<pdfrwt beam="2">  1       -2 0.30732625E-02 0.17099007E+03</pdfrwt>
<totfact> 0.60632907E+03</totfact>
</mgrwt>
</event>
<event>
 8    1  0.1224355E-005  0.3463278E+03  0.7546771E-02  0.1065346E+00
         -2   -1    0    0    0  501 -0.00000000000E+00  0.00000000000E+00  0.75031607621E+02  0.75031607621E+02  0.00000000000E+00 0.  1.
          2   -1    0    0  501    0  0.00000000000E+00 -0.00000000000E+00 -0.15508339897E+04  0.15508339897E+04  0.00000000000E+00 0. -1.
         23    2    1    2    0    0  0.28111339104E+03 -0.15904345318E+03 -0.77046103801E+03  0.84008614420E+03  0.88402262213E+02 0.  0.
         23    2    1    2    0    0 -0.28111339104E+03  0.15904345318E+03 -0.70534134404E+03  0.78577945309E+03  0.12499351451E+03 0.  0.
          5    1    4    4  502    0 -0.22227764166E+03  0.73324714438E+02 -0.40345125423E+03  0.46645350066E+03  0.47000000000E+01 0. -1.
         -5    1    4    4    0  502 -0.58835749374E+02  0.85718738744E+02 -0.30189008981E+03  0.31932595244E+03  0.47000000000E+01 0. -1.
        -11    1    3    3    0    0  0.85396374401E+02 -0.97659319158E+02 -0.30268693201E+03  0.32931635578E+03  0.00000000000E+00 0.  1.
         11    1    3    3    0    0  0.19571701664E+03 -0.61384134023E+02 -0.46777410600E+03  0.51076978841E+03  0.00000000000E+00 0. -1.
<mgrwt>
<rscale>  0 0.34342580E+03</rscale>
<asrwt>0</asrwt>
<pdfrwt beam="2">  1        2 0.23858984E+00 0.34632779E+03</pdfrwt>
<pdfrwt beam="1">  1       -2 0.11543325E-01 0.34632779E+03</pdfrwt>
<totfact> 0.67138792E+02</totfact>
</mgrwt>
</event>
<event>
 8    1  0.1224355E-005  0.1310870E+03  0.7546771E-02  0.1239646E+00
          1   -1    0    0  501    0  0.00000000000E+00  0.00000000000E+00  0.15470171862E+03  0.15470171862E+03  0.00000000000E+00 0. -1.
         -1   -1    0    0    0  501 -0.00000000000E+00 -0.00000000000E+00 -0.11034905219E+03  0.11034905219E+03  0.00000000000E+00 0.  1.
         23    2    1    2    0    0 -0.38875703021E+02  0.69019157246E+01 -0.42836824897E+02  0.10761566871E+03  0.90483047354E+02 0.  0.
         23    2    1    2    0    0  0.38875703021E+02 -0.69019157246E+01  0.87189491322E+02  0.15743510210E+03  0.12499938900E+03 0.  0.
          5    1    4    4  502    0  0.26190129518E+02 -0.15229526366E+02  0.11845876777E+03  0.12236188549E+03  0.47000000000E+01 0. -1.
         -5    1    4    4    0  502  0.12685573503E+02  0.83276106415E+01 -0.31269276451E+02  0.35073216617E+02  0.47000000000E+01 0. -1.
        -11    1    3    3    0    0 -0.32255460942E+02 -0.14793951010E+02  0.20052883859E+02  0.40760199927E+02  0.00000000000E+00 0. -1.
         11    1    3    3    0    0 -0.66202420791E+01  0.21695866735E+02 -0.62889708756E+02  0.66855468782E+02  0.00000000000E+00 0.  1.
<mgrwt>
<rscale>  0 0.12211635E+03</rscale>
<asrwt>0</asrwt>
<pdfrwt beam="1">  1        1 0.23800265E-01 0.13108701E+03</pdfrwt>
<pdfrwt beam="2">  1       -1 0.16976777E-01 0.13108701E+03</pdfrwt>
<totfact> 0.51146820E+03</totfact>
</mgrwt>
</event>
<event>
 8    1  0.1224355E-005  0.1430772E+03  0.7546771E-02  0.1221124E+00
         -2   -1    0    0    0  501 -0.00000000000E+00  0.00000000000E+00  0.11965603804E+03  0.11965603804E+03  0.00000000000E+00 0.  1.
          2   -1    0    0  501    0  0.00000000000E+00 -0.00000000000E+00 -0.18619215646E+03  0.18619215646E+03  0.00000000000E+00 0. -1.
         23    2    1    2    0    0  0.40339678065E+02  0.56723005943E+02  0.49352448706E+02  0.12172531946E+03  0.86813594406E+02 0.  0.
         23    2    1    2    0    0 -0.40339678065E+02 -0.56723005943E+02 -0.11588856713E+03  0.18412287504E+03  0.12500513627E+03 0.  0.
          5    1    4    4  502    0  0.31312409150E+02 -0.49131531673E+02 -0.90201174130E+02  0.10748356240E+03  0.47000000000E+01 0.  1.
         -5    1    4    4    0  502 -0.71652087215E+02 -0.75914742700E+01 -0.25687392998E+02  0.76639312646E+02  0.47000000000E+01 0.  1.
        -11    1    3    3    0    0  0.15331595811E+01  0.12970835250E+02 -0.24354289329E+02  0.27635566831E+02  0.00000000000E+00 0. -1.
         11    1    3    3    0    0  0.38806518484E+02  0.43752170693E+02  0.73706738035E+02  0.94089752624E+02  0.00000000000E+00 0.  1.
<mgrwt>
<rscale>  0 0.13436121E+03</rscale>
<asrwt>0</asrwt>
<pdfrwt beam="2">  1        2 0.28644947E-01 0.14307716E+03</pdfrwt>
<pdfrwt beam="1">  1       -2 0.18408621E-01 0.14307716E+03</pdfrwt>
<totfact> 0.43025205E+03</totfact>
</mgrwt>
</event>
<event>
 8    1  0.1372915E-005  0.2131368E+03  0.7546771E-02  0.1144449E+00
         -2   -1    0    0    0  501 -0.00000000000E+00  0.00000000000E+00  0.10563445938E+03  0.10563445938E+03  0.00000000000E+00 0.  1.
          2   -1    0    0  501    0  0.00000000000E+00 -0.00000000000E+00 -0.38992227524E+03  0.38992227524E+03  0.00000000000E+00 0. -1.
         23    2    1    2    0    0  0.17113457231E+03 -0.22692963708E+02 -0.17319309713E+03  0.25520421800E+03  0.73015967777E+02 0.  0.
         23    2    1    2    0    0 -0.17113457231E+03  0.22692963708E+02 -0.11109471873E+03  0.24035251662E+03  0.12500113308E+03 0.  0.
          5    1    4    4  502    0 -0.15961885974E+03  0.59729213053E+02 -0.71968984178E+02  0.18506048730E+03  0.47000000000E+01 0. -1.
         -5    1    4    4    0  502 -0.11515712573E+02 -0.37036249345E+02 -0.39125734552E+02  0.55292029316E+02  0.47000000000E+01 0. -1.
        -11    1    3    3    0    0  0.10678279752E+03  0.20686658135E+02 -0.87528366189E+02  0.13961274497E+03  0.00000000000E+00 0.  1.
         11    1    3    3    0    0  0.64351774794E+02 -0.43379621844E+02 -0.85664730940E+02  0.11559147303E+03  0.00000000000E+00 0. -1.
<mgrwt>
<rscale>  0 0.20639956E+03</rscale>
<asrwt>0</asrwt>
<pdfrwt beam="2">  1        2 0.59988043E-01 0.21313680E+03</pdfrwt>
<pdfrwt beam="1">  1       -2 0.16251455E-01 0.21313680E+03</pdfrwt>
<totfact> 0.24336825E+03</totfact>
</mgrwt>
</event>
<event>
 8    1  0.1224355E-005  0.2255780E+03  0.7546771E-02  0.1132938E+00
          2   -1    0    0  501    0  0.00000000000E+00  0.00000000000E+00  0.17824769540E+04  0.17824769540E+04  0.00000000000E+00 0.  1.
         -2   -1    0    0    0  501 -0.00000000000E+00 -0.00000000000E+00 -0.29493214244E+02  0.29493214244E+02  0.00000000000E+00 0. -1.
         23    2    1    2    0    0 -0.17524401479E+03  0.67446487492E+02  0.55626736547E+03  0.59417893236E+03  0.91409673346E+02 0.  0.
         23    2    1    2    0    0  0.17524401479E+03 -0.67446487492E+02  0.11967163743E+04  0.12177912359E+04  0.12500368121E+03 0.  0.
          5    1    4    4  502    0  0.27550705889E+02  0.34234151573E+02  0.17803080262E+03  0.18343411681E+03  0.47000000000E+01 0. -1.
         -5    1    4    4    0  502  0.14769330890E+03 -0.10168063906E+03  0.10186855717E+04  0.10343571191E+04  0.47000000000E+01 0. -1.
        -11    1    3    3    0    0 -0.14990945979E+03  0.48040310095E+02  0.52988197994E+03  0.55277086591E+03  0.00000000000E+00 0.  1.
         11    1    3    3    0    0 -0.25334554993E+02  0.19406177397E+02  0.26385385526E+02  0.41408066451E+02  0.00000000000E+00 0. -1.
<mgrwt>
<rscale>  0 0.22127240E+03</rscale>
<asrwt>0</asrwt>
<pdfrwt beam="1">  1        2 0.27422714E+00 0.22557795E+03</pdfrwt>
<pdfrwt beam="2">  1       -2 0.45374190E-02 0.22557795E+03</pdfrwt>
<totfact> 0.21979996E+03</totfact>
</mgrwt>
</event>
<event>
 7    1  0.1224355E-005  0.2583317E+03  0.7546771E-02  0.1126304E+00
         -2   -1    0    0    0  501 -0.00000000000E+00  0.00000000000E+00  0.32484590701E+02  0.32484590701E+02  0.00000000000E+00 0.  1.
          2   -1    0    0  501    0  0.00000000000E+00 -0.00000000000E+00 -0.13724282844E+04  0.13724282844E+04  0.00000000000E+00 0. -1.
         23    2    1    2    0    0  0.55602726032E+02  0.12468821397E+03 -0.54511851170E+03  0.56916030352E+03  0.90279817605E+02 0.  0.
          5    1    1    2  502    0 -0.43490424270E+02 -0.90539047369E+01 -0.64258259504E+03  0.64413342689E+03  0.47000000000E+01 0. -1.
         -5    1    1    2    0  502 -0.12112301762E+02 -0.11563430923E+03 -0.15224258696E+03  0.19161914469E+03  0.47000000000E+01 0.  1.
        -11    1    3    3    0    0  0.31702365479E+01  0.10829014161E+02 -0.16267831469E+01  0.11400191704E+02  0.00000000000E+00 0. -1.
         11    1    3    3    0    0  0.52432489484E+02  0.11385919980E+03 -0.54349172855E+03  0.55776011182E+03  0.00000000000E+00 0.  1.
<mgrwt>
<rscale>  0 0.23047744E+03</rscale>
<asrwt>0</asrwt>
<pdfrwt beam="2">  1        2 0.21114280E+00 0.25833175E+03</pdfrwt>
<pdfrwt beam="1">  1       -2 0.49976295E-02 0.25833175E+03</pdfrwt>
<totfact> 0.31329698E+03</totfact>
</mgrwt>
</event>
<event>
 8    1  0.1224355E-005  0.1607216E+03  0.7546771E-02  0.1195629E+00
          2   -1    0    0  501    0  0.00000000000E+00  0.00000000000E+00  0.19419600436E+03  0.19419600436E+03  0.00000000000E+00 0. -1.
         -2   -1    0    0    0  501 -0.00000000000E+00 -0.00000000000E+00 -0.12261767313E+03  0.12261767313E+03  0.00000000000E+00 0.  1.
         23    2    1    2    0    0 -0.96646586163E+02  0.29464383825E+02  0.77258972591E+02  0.15599174170E+03  0.90309258121E+02 0.  0.
         23    2    1    2    0    0  0.96646586163E+02 -0.29464383825E+02 -0.56806413615E+01  0.16082193580E+03  0.12499085093E+03 0.  0.
          5    1    4    4  502    0  0.39075224371E+02 -0.78960350278E+01  0.59065013672E+02  0.71414188849E+02  0.47000000000E+01 0.  1.
         -5    1    4    4    0  502  0.57571361792E+02 -0.21568348798E+02 -0.64745655034E+02  0.89407746947E+02  0.47000000000E+01 0.  1.
        -11    1    3    3    0    0 -0.83245851472E+02 -0.51145691644E+00  0.13582747661E+02  0.84348232996E+02  0.00000000000E+00 0.  1.
         11    1    3    3    0    0 -0.13400734691E+02  0.29975840742E+02  0.63676224930E+02  0.71643508707E+02  0.00000000000E+00 0. -1.
<mgrwt>
<rscale>  0 0.15401143E+03</rscale>
<asrwt>0</asrwt>
<pdfrwt beam="1">  1        2 0.29876308E-01 0.16072158E+03</pdfrwt>
<pdfrwt beam="2">  1       -2 0.18864257E-01 0.16072158E+03</pdfrwt>
<totfact> 0.39696997E+03</totfact>
</mgrwt>
</event>
<event>
 8    1  0.1224355E-005  0.1712878E+03  0.7546771E-02  0.1182847E+00
          1   -1    0    0  501    0  0.00000000000E+00  0.00000000000E+00  0.46872947998E+03  0.46872947998E+03  0.00000000000E+00 0. -1.
         -1   -1    0    0    0  501 -0.00000000000E+00 -0.00000000000E+00 -0.58204121587E+02  0.58204121587E+02  0.00000000000E+00 0.  1.
         23    2    1    2    0    0 -0.64047962201E+02  0.98049955016E+02  0.12577528320E+03  0.19463538521E+03  0.91365070860E+02 0.  0.
         23    2    1    2    0    0  0.64047962201E+02 -0.98049955016E+02  0.28475007520E+03  0.33229821636E+03  0.12499425638E+03 0.  0.
          5    1    4    4  502    0  0.61528571018E+02 -0.50557329617E+02  0.53243464800E+02  0.95910193272E+02  0.47000000000E+01 0.  1.
         -5    1    4    4    0  502  0.25193911833E+01 -0.47492625399E+02  0.23150661040E+03  0.23638802308E+03  0.47000000000E+01 0.  1.
        -11    1    3    3    0    0 -0.25975679208E+02 -0.14458733378E+02  0.26848128545E+02  0.40057619595E+02  0.00000000000E+00 0.  1.
         11    1    3    3    0    0 -0.38072282993E+02  0.11250868839E+03  0.98927154650E+02  0.15457776562E+03  0.00000000000E+00 0. -1.
<mgrwt>
<rscale>  0 0.16529286E+03</rscale>
<asrwt>0</asrwt>
<pdfrwt beam="1">  1        1 0.72112225E-01 0.17128777E+03</pdfrwt>
<pdfrwt beam="2">  1       -1 0.89544805E-02 0.17128777E+03</pdfrwt>
<totfact> 0.34894633E+03</totfact>
</mgrwt>
</event>
<event>
 8    1  0.1224355E-005  0.1571286E+03  0.7546771E-02  0.1199964E+00
         -2   -1    0    0    0  501 -0.00000000000E+00  0.00000000000E+00  0.11873813840E+03  0.11873813840E+03  0.00000000000E+00 0.  1.
          2   -1    0    0  501    0  0.00000000000E+00 -0.00000000000E+00 -0.18794681625E+03  0.18794681625E+03  0.00000000000E+00 0. -1.
         23    2    1    2    0    0  0.72061811814E+01 -0.94926684273E+02  0.68348784207E+01  0.13212263218E+03  0.91360111295E+02 0.  0.
         23    2    1    2    0    0 -0.72061811814E+01  0.94926684273E+02 -0.76043556275E+02  0.17456232247E+03  0.12500551004E+03 0.  0.
          5    1    4    4  502    0 -0.21312189878E+02 -0.10201017639E+02  0.20063304270E+02  0.31351178232E+02  0.47000000000E+01 0. -1.
         -5    1    4    4    0  502  0.14106008697E+02  0.10512770191E+03 -0.96106860545E+02  0.14321114424E+03  0.47000000000E+01 0. -1.
        -11    1    3    3    0    0 -0.12125996563E+02 -0.40513800452E+02 -0.39666776825E+02  0.57981557442E+02  0.00000000000E+00 0. -1.
         11    1    3    3    0    0  0.19332177745E+02 -0.54412883822E+02  0.46501655246E+02  0.74141074734E+02  0.00000000000E+00 0.  1.
<mgrwt>
<rscale>  0 0.15041466E+03</rscale>
<asrwt>0</asrwt>
<pdfrwt beam="2">  1        2 0.28914895E-01 0.15712855E+03</pdfrwt>
<pdfrwt beam="1">  1       -2 0.18267406E-01 0.15712855E+03</pdfrwt>
<totfact> 0.43369557E+03</totfact>
</mgrwt>
</event>
<event>
 8    1  0.1224355E-005  0.2418620E+03  0.7546771E-02  0.1121427E+00
          1   -1    0    0  501    0  0.00000000000E+00  0.00000000000E+00  0.37036527169E+03  0.37036527169E+03  0.00000000000E+00 0. -1.
         -1   -1    0    0    0  501 -0.00000000000E+00 -0.00000000000E+00 -0.20574120409E+03  0.20574120409E+03  0.00000000000E+00 0.  1.
         23    2    1    2    0    0 -0.17647718192E+03  0.10829665008E+03 -0.73380914628E+02  0.23677829968E+03  0.88356349015E+02 0.  0.
         23    2    1    2    0    0  0.17647718192E+03 -0.10829665008E+03  0.23800498223E+03  0.33932817610E+03  0.12499951749E+03 0.  0.
          5    1    4    4  502    0  0.12703979683E+03 -0.10132145092E+02  0.15931261271E+03  0.20406951980E+03  0.47000000000E+01 0.  1.
         -5    1    4    4    0  502  0.49437385097E+02 -0.98164504987E+02  0.78692369517E+02  0.13525865630E+03  0.47000000000E+01 0.  1.
        -11    1    3    3    0    0 -0.49353958920E+02  0.78866090727E+02 -0.44519528240E+02  0.10313904170E+03  0.00000000000E+00 0.  1.
         11    1    3    3    0    0 -0.12712322300E+03  0.29430559352E+02 -0.28861386388E+02  0.13363925799E+03  0.00000000000E+00 0. -1.
<mgrwt>
<rscale>  0 0.23756338E+03</rscale>
<asrwt>0</asrwt>
<pdfrwt beam="1">  1        1 0.56979273E-01 0.24186203E+03</pdfrwt>
<pdfrwt beam="2">  1       -1 0.31652493E-01 0.24186203E+03</pdfrwt>
<totfact> 0.62630489E+02</totfact>
</mgrwt>
</event>
<event>
 8    1  0.1224355E-005  0.2170389E+03  0.7546771E-02  0.1138656E+00
         -3   -1    0    0    0  501 -0.00000000000E+00  0.00000000000E+00  0.78387705530E+02  0.78387705530E+02  0.00000000000E+00 0.  1.
          3   -1    0    0  501    0  0.00000000000E+00 -0.00000000000E+00 -0.64034532816E+03  0.64034532816E+03  0.00000000000E+00 0. -1.
         23    2    1    2    0    0  0.31328725375E+02 -0.17464216885E+03 -0.15053220429E+03  0.25356986945E+03  0.10077875763E+03 0.  0.
         23    2    1    2    0    0 -0.31328725375E+02  0.17464216885E+03 -0.41142541833E+03  0.46516316424E+03  0.12499807334E+03 0.  0.
          5    1    4    4  502    0 -0.19824757818E+02  0.17290241087E+03 -0.41665723884E+03  0.45156794548E+03  0.47000000000E+01 0. -1.
         -5    1    4    4    0  502 -0.11503967557E+02  0.17397579784E+01  0.52318205039E+01  0.13595218761E+02  0.47000000000E+01 0. -1.
        -11    1    3    3    0    0  0.62430261109E+02 -0.12435643451E+03 -0.76386283923E+02  0.15873539201E+03  0.00000000000E+00 0.  1.
         11    1    3    3    0    0 -0.31101535734E+02 -0.50285734336E+02 -0.74145920372E+02  0.94834477436E+02  0.00000000000E+00 0. -1.
<mgrwt>
<rscale>  0 0.21371702E+03</rscale>
<asrwt>0</asrwt>
<pdfrwt beam="2">  1        3 0.98514661E-01 0.21703892E+03</pdfrwt>
<pdfrwt beam="1">  1       -3 0.12059648E-01 0.21703892E+03</pdfrwt>
<totfact> 0.12439554E+02</totfact>
</mgrwt>
</event>
<event>
 7    1  0.1224355E-005  0.1278924E+03  0.7546771E-02  0.1303272E+00
          2   -1    0    0  501    0  0.00000000000E+00  0.00000000000E+00  0.40320095508E+03  0.40320095508E+03  0.00000000000E+00 0. -1.
         -2   -1    0    0    0  501 -0.00000000000E+00 -0.00000000000E+00 -0.29328428273E+02  0.29328428273E+02  0.00000000000E+00 0.  1.
         23    2    1    2    0    0 -0.56540611195E+01 -0.12910147397E+02  0.37988081796E+03  0.40083150916E+03  0.12711342401E+03 0.  0.
          5    1    3    3  502    0  0.42902044137E+02 -0.23603386142E+02  0.31569907452E+03  0.31950853021E+03  0.47000000000E+01 0. -1.
         -5    1    3    3    0  502 -0.48556105257E+02  0.10693238744E+02  0.64181743447E+02  0.81322978945E+02  0.47000000000E+01 0.  1.
        -11    1    1    2    0    0  0.15450370647E+02  0.62366007484E+01  0.28454780943E+01  0.16902836674E+02  0.00000000000E+00 0. -1.
         11    1    1    2    0    0 -0.97963095279E+01  0.66735466491E+01 -0.88537692518E+01  0.14795037520E+02  0.00000000000E+00 0.  1.
<mgrwt>
<rscale>  0 0.89826546E+02</rscale>
<asrwt>0</asrwt>
<pdfrwt beam="1">  1        2 0.62030912E-01 0.12789239E+03</pdfrwt>
<pdfrwt beam="2">  1       -2 0.45120662E-02 0.12789239E+03</pdfrwt>
<totfact> 0.16955082E+04</totfact>
</mgrwt>
</event>
<event>
 8    1  0.1224355E-005  0.2357648E+03  0.7546771E-02  0.1125432E+00
          1   -1    0    0  501    0  0.00000000000E+00  0.00000000000E+00  0.35290588870E+03  0.35290588870E+03  0.00000000000E+00 0. -1.
         -1   -1    0    0    0  501 -0.00000000000E+00 -0.00000000000E+00 -0.22339692046E+03  0.22339692046E+03  0.00000000000E+00 0.  1.
         23    2    1    2    0    0  0.55643544841E+02 -0.19199930717E+03 -0.10498515056E+03  0.24377830412E+03  0.91902348639E+02 0.  0.
         23    2    1    2    0    0 -0.55643544841E+02  0.19199930717E+03  0.23449411880E+03  0.33252450503E+03  0.12500046662E+03 0.  0.
          5    1    4    4  502    0  0.19191115126E+02  0.66315380754E+02  0.14582001473E+03  0.16140506596E+03  0.47000000000E+01 0. -1.
         -5    1    4    4    0  502 -0.74834659967E+02  0.12568392642E+03  0.88674104072E+02  0.17111943906E+03  0.47000000000E+01 0. -1.
        -11    1    3    3    0    0  0.34776220703E+02 -0.39608816233E+02  0.74771772922E+01  0.53236754503E+02  0.00000000000E+00 0.  1.
         11    1    3    3    0    0  0.20867324138E+02 -0.15239049094E+03 -0.11246232785E+03  0.19054154962E+03  0.00000000000E+00 0. -1.
<mgrwt>
<rscale>  0 0.23172433E+03</rscale>
<asrwt>0</asrwt>
<pdfrwt beam="1">  1        1 0.54293213E-01 0.23576483E+03</pdfrwt>
<pdfrwt beam="2">  1       -1 0.34368757E-01 0.23576483E+03</pdfrwt>
<totfact> 0.57792126E+02</totfact>
</mgrwt>
</event>
<event>
 8    1  0.1224355E-005  0.1706721E+03  0.7546771E-02  0.1182571E+00
         -1   -1    0    0    0  501 -0.00000000000E+00  0.00000000000E+00  0.52961339173E+03  0.52961339173E+03  0.00000000000E+00 0. -1.
          1   -1    0    0  501    0  0.00000000000E+00 -0.00000000000E+00 -0.55826256012E+02  0.55826256012E+02  0.00000000000E+00 0.  1.
         23    2    1    2    0    0  0.88816916256E+02 -0.74902574482E+02  0.12109661364E+03  0.19362392657E+03  0.96576367867E+02 0.  0.
         23    2    1    2    0    0 -0.88816916256E+02  0.74902574482E+02  0.35269052208E+03  0.39181572117E+03  0.12502045717E+03 0.  0.
          5    1    4    4  502    0 -0.32173832102E+02 -0.30760735493E+02  0.55366971321E+02  0.71196698192E+02  0.47000000000E+01 0. -1.
         -5    1    4    4    0  502 -0.56643084154E+02  0.10566330998E+03  0.29732355076E+03  0.32061902298E+03  0.47000000000E+01 0. -1.
        -11    1    3    3    0    0  0.12890301769E+02 -0.59893921363E+02  0.92837188096E+02  0.11123032495E+03  0.00000000000E+00 0. -1.
         11    1    3    3    0    0  0.75926614488E+02 -0.15008653119E+02  0.28259425542E+02  0.82393601620E+02  0.00000000000E+00 0.  1.
<mgrwt>
<rscale>  0 0.16554847E+03</rscale>
<asrwt>0</asrwt>
<pdfrwt beam="2">  1        1 0.85886551E-02 0.17067207E+03</pdfrwt>
<pdfrwt beam="1">  1       -1 0.81478980E-01 0.17067207E+03</pdfrwt>
<totfact> 0.12237893E+03</totfact>
</mgrwt>
</event>
<event>
 8    1  0.1224355E-005  0.1362551E+03  0.7546771E-02  0.1233299E+00
          2   -1    0    0  501    0  0.00000000000E+00  0.00000000000E+00  0.22180634475E+03  0.22180634475E+03  0.00000000000E+00 0. -1.
         -2   -1    0    0    0  501 -0.00000000000E+00 -0.00000000000E+00 -0.62953700190E+02  0.62953700190E+02  0.00000000000E+00 0.  1.
         23    2    1    2    0    0  0.30063744158E+02  0.45052396455E+02  0.67129194119E+02  0.12050831287E+03  0.84156863226E+02 0.  0.
         23    2    1    2    0    0 -0.30063744158E+02 -0.45052396455E+02  0.91723450437E+02  0.16425173207E+03  0.12502756891E+03 0.  0.
          5    1    4    4  502    0 -0.45905827292E+02 -0.78553024636E+02  0.88079127456E+02  0.12671994852E+03  0.47000000000E+01 0.  1.
         -5    1    4    4    0  502  0.15842083133E+02  0.33500628180E+02  0.36443229812E+01  0.37531783551E+02  0.47000000000E+01 0.  1.
        -11    1    3    3    0    0  0.45807103388E+02  0.30262561405E+02  0.54674202490E+01  0.55172511523E+02  0.00000000000E+00 0.  1.
         11    1    3    3    0    0 -0.15743359229E+02  0.14789835050E+02  0.61661773870E+02  0.65335801345E+02  0.00000000000E+00 0. -1.
<mgrwt>
<rscale>  0 0.12613943E+03</rscale>
<asrwt>0</asrwt>
<pdfrwt beam="1">  1        2 0.34124053E-01 0.13625506E+03</pdfrwt>
<pdfrwt beam="2">  1       -2 0.96851847E-02 0.13625506E+03</pdfrwt>
<totfact> 0.10027380E+04</totfact>
</mgrwt>
</event>
<event>
 8    1  0.1224355E-005  0.2563990E+03  0.7546771E-02  0.1111712E+00
          2   -1    0    0  501    0  0.00000000000E+00  0.00000000000E+00  0.78802641281E+03  0.78802641281E+03  0.00000000000E+00 0. -1.
         -2   -1    0    0    0  501 -0.00000000000E+00 -0.00000000000E+00 -0.85343221993E+02  0.85343221993E+02  0.00000000000E+00 0.  1.
         23    2    1    2    0    0 -0.22359246653E+03 -0.10981517164E+02  0.21865815415E+03  0.32562817607E+03  0.90045187907E+02 0.  0.
         23    2    1    2    0    0  0.22359246653E+03  0.10981517164E+02  0.48402503667E+03  0.54774145874E+03  0.12500513866E+03 0.  0.
          5    1    4    4  502    0  0.18817769373E+03  0.49806484243E+02  0.43098525721E+03  0.47292907737E+03  0.47000000000E+01 0. -1.
         -5    1    4    4    0  502  0.35414772802E+02 -0.38824967079E+02  0.53039779466E+02  0.74812381376E+02  0.47000000000E+01 0. -1.
        -11    1    3    3    0    0 -0.90461102175E+02 -0.18860171615E+02  0.35345335466E+02  0.98935382039E+02  0.00000000000E+00 0.  1.
         11    1    3    3    0    0 -0.13313136435E+03  0.78786544505E+01  0.18331281868E+03  0.22669279403E+03  0.00000000000E+00 0. -1.
<mgrwt>
<rscale>  0 0.25253611E+03</rscale>
<asrwt>0</asrwt>
<pdfrwt beam="1">  1        2 0.12123483E+00 0.25639904E+03</pdfrwt>
<pdfrwt beam="2">  1       -2 0.13129727E-01 0.25639904E+03</pdfrwt>
<totfact> 0.15427951E+03</totfact>
</mgrwt>
</event>
<event>
 8    1  0.1224355E-005  0.1299819E+03  0.7546771E-02  0.1243077E+00
          3   -1    0    0  501    0  0.00000000000E+00  0.00000000000E+00  0.24235839624E+03  0.24235839624E+03  0.00000000000E+00 0. -1.
         -3   -1    0    0    0  501 -0.00000000000E+00 -0.00000000000E+00 -0.74638991016E+02  0.74638991016E+02  0.00000000000E+00 0.  1.
         23    2    1    2    0    0  0.14071751199E+02 -0.26771207976E+02 -0.11978126436E+02  0.95217092770E+02  0.89488029838E+02 0.  0.
         23    2    1    2    0    0 -0.14071751199E+02  0.26771207976E+02  0.17969753166E+03  0.22178029448E+03  0.12641433613E+03 0.  0.
          5    1    4    4  502    0 -0.16463612422E+02 -0.32032351720E+02  0.15252124213E+03  0.15678629210E+03  0.47000000000E+01 0. -1.
         -5    1    4    4    0  502  0.23918612228E+01  0.58803559696E+02  0.27176289529E+02  0.64994002382E+02  0.47000000000E+01 0.  1.
        -11    1    3    3    0    0  0.37651075686E+02  0.17125427033E+02 -0.17837470219E+02  0.45045078479E+02  0.00000000000E+00 0.  1.
         11    1    3    3    0    0 -0.23579324487E+02 -0.43896635009E+02  0.58593437825E+01  0.50172014291E+02  0.00000000000E+00 0. -1.
<mgrwt>
<rscale>  0 0.12001207E+03</rscale>
<asrwt>0</asrwt>
<pdfrwt beam="1">  1        3 0.37285907E-01 0.12998191E+03</pdfrwt>
<pdfrwt beam="2">  1       -3 0.11482922E-01 0.12998191E+03</pdfrwt>
<totfact> 0.95405492E+02</totfact>
</mgrwt>
</event>
<event>
 8    1  0.1224355E-005  0.1751157E+03  0.7546771E-02  0.1179083E+00
         -1   -1    0    0    0  501 -0.00000000000E+00  0.00000000000E+00  0.45519350166E+03  0.45519350166E+03  0.00000000000E+00 0.  1.
          1   -1    0    0  501    0  0.00000000000E+00 -0.00000000000E+00 -0.59202079029E+02  0.59202079029E+02  0.00000000000E+00 0. -1.
         23    2    1    2    0    0  0.69319186875E+02  0.10116261266E+03  0.21155867455E+03  0.26007106110E+03  0.88548631700E+02 0.  0.
         23    2    1    2    0    0 -0.69319186875E+02 -0.10116261266E+03  0.18443274808E+03  0.25432451959E+03  0.12500599518E+03 0.  0.
          5    1    4    4  502    0 -0.12548219953E+02 -0.10766744672E+03  0.78661751379E+02  0.13401305174E+03  0.47000000000E+01 0.  1.
         -5    1    4    4    0  502 -0.56770966922E+02  0.65048340655E+01  0.10577099671E+03  0.12031146785E+03  0.47000000000E+01 0.  1.
        -11    1    3    3    0    0  0.23123662233E+02 -0.14031157394E+02  0.34286101582E+02  0.43670515162E+02  0.00000000000E+00 0.  1.
         11    1    3    3    0    0  0.46195524643E+02  0.11519377005E+03  0.17727257297E+03  0.21640054594E+03  0.00000000000E+00 0. -1.
<mgrwt>
<rscale>  0 0.16882067E+03</rscale>
<asrwt>0</asrwt>
<pdfrwt beam="2">  1        1 0.91080124E-02 0.17511574E+03</pdfrwt>
<pdfrwt beam="1">  1       -1 0.70029767E-01 0.17511574E+03</pdfrwt>
<totfact> 0.15381697E+03</totfact>
</mgrwt>
</event>
<event>
 8    1  0.1224355E-005  0.1600983E+03  0.7546771E-02  0.1196540E+00
          1   -1    0    0  501    0  0.00000000000E+00  0.00000000000E+00  0.14354565353E+04  0.14354565353E+04  0.00000000000E+00 0. -1.
         -1   -1    0    0    0  501 -0.00000000000E+00 -0.00000000000E+00 -0.15325668465E+02  0.15325668465E+02  0.00000000000E+00 0.  1.
         23    2    1    2    0    0 -0.68859762676E+02  0.72563702124E+02  0.56220694220E+03  0.57804804539E+03  0.89753769557E+02 0.  0.
         23    2    1    2    0    0  0.68859762676E+02 -0.72563702124E+02  0.85792392461E+03  0.87273415834E+03  0.12499717171E+03 0.  0.
          5    1    4    4  502    0  0.43091404121E+02 -0.90232764809E+02  0.80421193226E+03  0.81041825185E+03  0.47000000000E+01 0. -1.
         -5    1    4    4    0  502  0.25768358555E+02  0.17669062685E+02  0.53711992357E+02  0.62315906490E+02  0.47000000000E+01 0. -1.
        -11    1    3    3    0    0 -0.86278378806E+02  0.37508883467E+02  0.42980648902E+03  0.43998237804E+03  0.00000000000E+00 0.  1.
         11    1    3    3    0    0  0.17418616130E+02  0.35054818657E+02  0.13240045318E+03  0.13806566735E+03  0.00000000000E+00 0. -1.
<mgrwt>
<rscale>  0 0.15324573E+03</rscale>
<asrwt>0</asrwt>
<pdfrwt beam="1">  1        1 0.22083936E+00 0.16009825E+03</pdfrwt>
<pdfrwt beam="2">  1       -1 0.23577963E-02 0.16009825E+03</pdfrwt>
<totfact> 0.42097588E+03</totfact>
</mgrwt>
</event>
<event>
 8    1  0.1224355E-005  0.1511110E+03  0.7546771E-02  0.1207919E+00
          1   -1    0    0  501    0  0.00000000000E+00  0.00000000000E+00  0.64897592681E+03  0.64897592681E+03  0.00000000000E+00 0. -1.
         -1   -1    0    0    0  501 -0.00000000000E+00 -0.00000000000E+00 -0.31402126746E+02  0.31402126746E+02  0.00000000000E+00 0.  1.
         23    2    1    2    0    0  0.71978155593E+02  0.45036725577E+02  0.36786577602E+03  0.38850711242E+03  0.91669982541E+02 0.  0.
         23    2    1    2    0    0 -0.71978155593E+02 -0.45036725577E+02  0.24970802404E+03  0.29187094113E+03  0.12500154989E+03 0.  0.
          5    1    4    4  502    0 -0.23845281239E+02 -0.40328662130E+02  0.23701933871E+03  0.24165110252E+03  0.47000000000E+01 0.  1.
         -5    1    4    4    0  502 -0.48132874354E+02 -0.47080634464E+01  0.12688685330E+02  0.50219838614E+02  0.47000000000E+01 0.  1.
        -11    1    3    3    0    0  0.10115870887E+02  0.12501351701E+02  0.22121585892E+01  0.16232938236E+02  0.00000000000E+00 0.  1.
         11    1    3    3    0    0  0.61862284706E+02  0.32535373876E+02  0.36565361743E+03  0.37227417418E+03  0.00000000000E+00 0. -1.
<mgrwt>
<rscale>  0 0.14409748E+03</rscale>
<asrwt>0</asrwt>
<pdfrwt beam="1">  1        1 0.99842440E-01 0.15111105E+03</pdfrwt>
<pdfrwt beam="2">  1       -1 0.48310969E-02 0.15111105E+03</pdfrwt>
<totfact> 0.56647901E+03</totfact>
</mgrwt>
</event>
<event>
 8    1  0.1224355E-005  0.1665703E+03  0.7546771E-02  0.1188778E+00
         -2   -1    0    0    0  501 -0.00000000000E+00  0.00000000000E+00  0.12628763766E+03  0.12628763766E+03  0.00000000000E+00 0.  1.
          2   -1    0    0  501    0  0.00000000000E+00 -0.00000000000E+00 -0.27780137512E+03  0.27780137512E+03  0.00000000000E+00 0. -1.
         23    2    1    2    0    0  0.85230861247E+02  0.69820330471E+02  0.43061906163E+02  0.14795363974E+03  0.88863791802E+02 0.  0.
         23    2    1    2    0    0 -0.85230861247E+02 -0.69820330471E+02 -0.19457564362E+03  0.25613537304E+03  0.12492585791E+03 0.  0.
          5    1    4    4  502    0 -0.81261431664E+02 -0.67005450295E+02 -0.59834748793E+02  0.12122474091E+03  0.47000000000E+01 0. -1.
         -5    1    4    4    0  502 -0.39694295834E+01 -0.28148801762E+01 -0.13474089483E+03  0.13491063213E+03  0.47000000000E+01 0. -1.
        -11    1    3    3    0    0  0.26899404471E+02  0.48314239232E+01 -0.25151718215E+02  0.37142018621E+02  0.00000000000E+00 0. -1.
         11    1    3    3    0    0  0.58331456776E+02  0.64988906548E+02  0.68213624379E+02  0.11081162112E+03  0.00000000000E+00 0.  1.
<mgrwt>
<rscale>  0 0.15992793E+03</rscale>
<asrwt>0</asrwt>
<pdfrwt beam="2">  1        2 0.42738673E-01 0.16657025E+03</pdfrwt>
<pdfrwt beam="1">  1       -2 0.19428867E-01 0.16657025E+03</pdfrwt>
<totfact> 0.25727738E+03</totfact>
</mgrwt>
</event>
<event>
 7    1  0.1224355E-005  0.1279415E+03  0.7546771E-02  0.1276235E+00
         -2   -1    0    0    0  501 -0.00000000000E+00  0.00000000000E+00  0.88528744698E+01  0.88528744698E+01  0.00000000000E+00 0.  1.
          2   -1    0    0  501    0  0.00000000000E+00 -0.00000000000E+00 -0.10230049522E+04  0.10230049522E+04  0.00000000000E+00 0. -1.
         23    2    1    2    0    0 -0.12491403433E+02 -0.24227891637E+02 -0.85582965433E+03  0.86534006879E+03  0.12500404604E+03 0.  0.
          5    1    3    3  502    0  0.25636121513E+02  0.13443345435E+02 -0.69753496657E+03  0.69815116833E+03  0.47000000000E+01 0.  1.
         -5    1    3    3    0  502 -0.38127524947E+02 -0.37671237071E+02 -0.15829468777E+03  0.16718890046E+03  0.47000000000E+01 0.  1.
        -11    1    1    2    0    0  0.24572427335E+02  0.95389540351E+00 -0.62256489807E+02  0.66937169232E+02  0.00000000000E+00 0.  1.
         11    1    1    2    0    0 -0.12081023902E+02  0.23273996233E+02 -0.96065933634E+02  0.99580588691E+02  0.00000000000E+00 0. -1.
<mgrwt>
<rscale>  0 0.10195610E+03</rscale>
<asrwt>0</asrwt>
<pdfrwt beam="2">  1        2 0.15738533E+00 0.12794154E+03</pdfrwt>
<pdfrwt beam="1">  1       -2 0.13619811E-02 0.12794154E+03</pdfrwt>
<totfact> 0.32532429E+04</totfact>
</mgrwt>
</event>
<event>
 8    1  0.1224355E-005  0.1841886E+03  0.7546771E-02  0.1168527E+00
          2   -1    0    0  501    0  0.00000000000E+00  0.00000000000E+00  0.67080379114E+03  0.67080379114E+03  0.00000000000E+00 0. -1.
         -2   -1    0    0    0  501 -0.00000000000E+00 -0.00000000000E+00 -0.84378505663E+02  0.84378505663E+02  0.00000000000E+00 0.  1.
         23    2    1    2    0    0 -0.13512161178E+03  0.65505433556E+01  0.28537700438E+02  0.16767570251E+03  0.94868231138E+02 0.  0.
         23    2    1    2    0    0  0.13512161178E+03 -0.65505433556E+01  0.55788758504E+03  0.58750659429E+03  0.12499872481E+03 0.  0.
          5    1    4    4  502    0  0.82460829140E+02  0.21371895431E+02  0.13021412128E+03  0.15567386948E+03  0.47000000000E+01 0.  1.
         -5    1    4    4    0  502  0.52660782639E+02 -0.27922438786E+02  0.42767346375E+03  0.43183272481E+03  0.47000000000E+01 0.  1.
        -11    1    3    3    0    0 -0.69074581073E+02 -0.29015948470E+02 -0.20965257837E+02  0.77799518328E+02  0.00000000000E+00 0. -1.
         11    1    3    3    0    0 -0.66047030706E+02  0.35566491825E+02  0.49502958275E+02  0.89876184186E+02  0.00000000000E+00 0.  1.
<mgrwt>
<rscale>  0 0.17925400E+03</rscale>
<asrwt>0</asrwt>
<pdfrwt beam="1">  1        2 0.10320058E+00 0.18418860E+03</pdfrwt>
<pdfrwt beam="2">  1       -2 0.12981309E-01 0.18418860E+03</pdfrwt>
<totfact> 0.19070574E+03</totfact>
</mgrwt>
</event>
<event>
 8    1  0.1224355E-005  0.1727927E+03  0.7546771E-02  0.1180637E+00
          2   -1    0    0  501    0  0.00000000000E+00  0.00000000000E+00  0.64814704600E+03  0.64814704600E+03  0.00000000000E+00 0. -1.
         -2   -1    0    0    0  501 -0.00000000000E+00 -0.00000000000E+00 -0.40923663251E+02  0.40923663251E+02  0.00000000000E+00 0.  1.
         23    2    1    2    0    0 -0.10196022221E+03 -0.61944850635E+02  0.25882434260E+03  0.30017587096E+03  0.94246812946E+02 0.  0.
         23    2    1    2    0    0  0.10196022221E+03  0.61944850635E+02  0.34839904014E+03  0.38889483828E+03  0.12499701052E+03 0.  0.
          5    1    4    4  502    0 -0.21975154357E+02 -0.13867079001E+02  0.70339141366E+02  0.75132470325E+02  0.47000000000E+01 0. -1.
         -5    1    4    4    0  502  0.12393537657E+03  0.75811929636E+02  0.27805989877E+03  0.31376236796E+03  0.47000000000E+01 0. -1.
        -11    1    3    3    0    0 -0.20258242288E+01 -0.49906031260E+02  0.10604218327E+03  0.11721629815E+03  0.00000000000E+00 0.  1.
         11    1    3    3    0    0 -0.99934397984E+02 -0.12038819375E+02  0.15278215933E+03  0.18295957281E+03  0.00000000000E+00 0. -1.
<mgrwt>
<rscale>  0 0.16735239E+03</rscale>
<asrwt>0</asrwt>
<pdfrwt beam="1">  1        2 0.99714922E-01 0.17279266E+03</pdfrwt>
<pdfrwt beam="2">  1       -2 0.62959487E-02 0.17279266E+03</pdfrwt>
<totfact> 0.61756353E+03</totfact>
</mgrwt>
</event>
<event>
 8    1  0.1224355E-005  0.1327270E+03  0.7546771E-02  0.1235454E+00
          1   -1    0    0  501    0  0.00000000000E+00  0.00000000000E+00  0.83064002689E+03  0.83064002689E+03  0.00000000000E+00 0. -1.
         -1   -1    0    0    0  501 -0.00000000000E+00 -0.00000000000E+00 -0.24643860253E+02  0.24643860253E+02  0.00000000000E+00 0.  1.
         23    2    1    2    0    0  0.14788904642E+02 -0.42119566508E+02  0.12924294338E+03  0.16563805205E+03  0.93485059188E+02 0.  0.
         23    2    1    2    0    0 -0.14788904642E+02  0.42119566508E+02  0.67675322326E+03  0.68964583509E+03  0.12499473223E+03 0.  0.
          5    1    4    4  502    0 -0.68510121522E+02  0.24410557147E+02  0.45190348860E+03  0.45774268434E+03  0.47000000000E+01 0.  1.
         -5    1    4    4    0  502  0.53721216880E+02  0.17709009361E+02  0.22484973466E+03  0.23190315076E+03  0.47000000000E+01 0.  1.
        -11    1    3    3    0    0  0.47445368157E+02 -0.16706753598E+02  0.31125954856E+02  0.59152376461E+02  0.00000000000E+00 0.  1.
         11    1    3    3    0    0 -0.32656463515E+02 -0.25412812910E+02  0.98116988522E+02  0.10648567559E+03  0.00000000000E+00 0. -1.
<mgrwt>
<rscale>  0 0.12475434E+03</rscale>
<asrwt>0</asrwt>
<pdfrwt beam="1">  1        1 0.12779075E+00 0.13272699E+03</pdfrwt>
<pdfrwt beam="2">  1       -1 0.37913637E-02 0.13272699E+03</pdfrwt>
<totfact> 0.56115135E+03</totfact>
</mgrwt>
</event>
<event>
 8    1  0.1224355E-005  0.1977829E+03  0.7546771E-02  0.1155645E+00
         -2   -1    0    0    0  501 -0.00000000000E+00  0.00000000000E+00  0.24462523995E+02  0.24462523995E+02  0.00000000000E+00 0.  1.
          2   -1    0    0  501    0  0.00000000000E+00 -0.00000000000E+00 -0.19178150117E+04  0.19178150117E+04  0.00000000000E+00 0. -1.
         23    2    1    2    0    0  0.92617168766E+02 -0.12212880014E+03 -0.43746577386E+03  0.47301778445E+03  0.94213254563E+02 0.  0.
         23    2    1    2    0    0 -0.92617168766E+02  0.12212880014E+03 -0.14558867139E+04  0.14692597513E+04  0.12499883718E+03 0.  0.
          5    1    4    4  502    0 -0.83320121476E+02  0.89884322500E+02 -0.13877757193E+04  0.13931851891E+04  0.47000000000E+01 0. -1.
         -5    1    4    4    0  502 -0.92970472900E+01  0.32244477644E+02 -0.68110994607E+02  0.76074562195E+02  0.47000000000E+01 0. -1.
        -11    1    3    3    0    0  0.58455389835E+02 -0.61603102604E+02 -0.11391536092E+03  0.14208688999E+03  0.00000000000E+00 0.  1.
         11    1    3    3    0    0  0.34161778931E+02 -0.60525697539E+02 -0.32355041293E+03  0.33093089447E+03  0.00000000000E+00 0. -1.
<mgrwt>
<rscale>  0 0.19315620E+03</rscale>
<asrwt>0</asrwt>
<pdfrwt beam="2">  1        2 0.29504846E+00 0.19778294E+03</pdfrwt>
<pdfrwt beam="1">  1       -2 0.37634652E-02 0.19778294E+03</pdfrwt>
<totfact> 0.24788422E+03</totfact>
</mgrwt>
</event>
<event>
 8    1  0.1224355E-005  0.1273338E+03  0.7546771E-02  0.1244590E+00
          1   -1    0    0  501    0  0.00000000000E+00  0.00000000000E+00  0.69106207943E+03  0.69106207943E+03  0.00000000000E+00 0. -1.
         -1   -1    0    0    0  501 -0.00000000000E+00 -0.00000000000E+00 -0.19061823165E+02  0.19061823165E+02  0.00000000000E+00 0.  1.
         23    2    1    2    0    0  0.21500285429E+02  0.11281955367E+02  0.22187168804E+03  0.24233162494E+03  0.94382337883E+02 0.  0.
         23    2    1    2    0    0 -0.21500285429E+02 -0.11281955367E+02  0.45012856823E+03  0.46779227765E+03  0.12499736920E+03 0.  0.
          5    1    4    4  502    0 -0.11751753054E+02 -0.50446233889E+01  0.45439001333E+03  0.45459424340E+03  0.47000000000E+01 0.  1.
         -5    1    4    4    0  502 -0.97485323745E+01 -0.62373319779E+01 -0.42614450998E+01  0.13198034247E+02  0.47000000000E+01 0.  1.
        -11    1    3    3    0    0  0.36126727432E+02  0.45988844743E+02  0.15366388647E+03  0.16441625309E+03  0.00000000000E+00 0.  1.
         11    1    3    3    0    0 -0.14626442003E+02 -0.34706889377E+02  0.68207801567E+02  0.77915371850E+02  0.00000000000E+00 0. -1.
<mgrwt>
<rscale>  0 0.11909931E+03</rscale>
<asrwt>0</asrwt>
<pdfrwt beam="1">  1        1 0.10631722E+00 0.12733376E+03</pdfrwt>
<pdfrwt beam="2">  1       -1 0.29325887E-02 0.12733376E+03</pdfrwt>
<totfact> 0.10674185E+04</totfact>
</mgrwt>
</event>
<event>
 8    1  0.1224355E-005  0.1387848E+03  0.7546771E-02  0.1226138E+00
         -1   -1    0    0    0  501 -0.00000000000E+00  0.00000000000E+00  0.41046177594E+02  0.41046177594E+02  0.00000000000E+00 0.  1.
          1   -1    0    0  501    0  0.00000000000E+00 -0.00000000000E+00 -0.38661550585E+03  0.38661550585E+03  0.00000000000E+00 0. -1.
         23    2    1    2    0    0  0.12442585956E+01 -0.60307778099E+02 -0.11863156756E+03  0.16165048203E+03  0.91754309116E+02 0.  0.
         23    2    1    2    0    0 -0.12442585956E+01  0.60307778099E+02 -0.22693776070E+03  0.26601120142E+03  0.12499054271E+03 0.  0.
          5    1    4    4  502    0 -0.15112621257E+02 -0.36901133025E+02 -0.57746659597E+02  0.70333858379E+02  0.47000000000E+01 0. -1.
         -5    1    4    4    0  502  0.13868362661E+02  0.97208911124E+02 -0.16919110110E+03  0.19567734304E+03  0.47000000000E+01 0. -1.
        -11    1    3    3    0    0 -0.28386186200E+02 -0.35166680335E+02 -0.11385765749E+03  0.12249913119E+03  0.00000000000E+00 0. -1.
         11    1    3    3    0    0  0.29630444796E+02 -0.25141097764E+02 -0.47739100668E+01  0.39151350844E+02  0.00000000000E+00 0.  1.
<mgrwt>
<rscale>  0 0.13089203E+03</rscale>
<asrwt>0</asrwt>
<pdfrwt beam="2">  1        1 0.59479308E-01 0.13878477E+03</pdfrwt>
<pdfrwt beam="1">  1       -1 0.63147966E-02 0.13878477E+03</pdfrwt>
<totfact> 0.74770594E+03</totfact>
</mgrwt>
</event>
<event>
 8    1  0.1224355E-005  0.1626321E+03  0.7546771E-02  0.1197769E+00
         -1   -1    0    0    0  501 -0.00000000000E+00  0.00000000000E+00  0.75205076142E+02  0.75205076142E+02  0.00000000000E+00 0.  1.
          1   -1    0    0  501    0  0.00000000000E+00 -0.00000000000E+00 -0.27482213347E+03  0.27482213347E+03  0.00000000000E+00 0. -1.
         23    2    1    2    0    0 -0.10051522228E+03 -0.27359819046E+02 -0.82732632681E+02  0.14974946512E+03  0.68762956491E+02 0.  0.
         23    2    1    2    0    0  0.10051522228E+03  0.27359819046E+02 -0.11688442465E+03  0.20027774449E+03  0.12488929740E+03 0.  0.
          5    1    4    4  502    0  0.94876403200E+02  0.42326371843E+02 -0.13836378470E+03  0.17308864941E+03  0.47000000000E+01 0.  1.
         -5    1    4    4    0  502  0.56388190848E+01 -0.14966552797E+02  0.21479360050E+02  0.27189095084E+02  0.47000000000E+01 0.  1.
        -11    1    3    3    0    0 -0.10600056011E+03 -0.36154932329E+02 -0.65799409984E+02  0.12989557433E+03  0.00000000000E+00 0.  1.
         11    1    3    3    0    0  0.54853378290E+01  0.87951132834E+01 -0.16933222697E+02  0.19853890794E+02  0.00000000000E+00 0. -1.
<mgrwt>
<rscale>  0 0.15222165E+03</rscale>
<asrwt>0</asrwt>
<pdfrwt beam="2">  1        1 0.42280328E-01 0.16263212E+03</pdfrwt>
<pdfrwt beam="1">  1       -1 0.11570012E-01 0.16263212E+03</pdfrwt>
<totfact> 0.46070387E+03</totfact>
</mgrwt>
</event>
<event>
 8    1  0.1224355E-005  0.2544691E+03  0.7546771E-02  0.1112785E+00
         -2   -1    0    0    0  501 -0.00000000000E+00  0.00000000000E+00  0.35205086440E+03  0.35205086440E+03  0.00000000000E+00 0.  1.
          2   -1    0    0  501    0  0.00000000000E+00 -0.00000000000E+00 -0.17452908733E+03  0.17452908733E+03  0.00000000000E+00 0. -1.
         23    2    1    2    0    0  0.12170362509E+02  0.22132173908E+03  0.68825705995E+02  0.24986827674E+03  0.92551326322E+02 0.  0.
         23    2    1    2    0    0 -0.12170362509E+02 -0.22132173908E+03  0.10869607107E+03  0.27671167499E+03  0.12499234095E+03 0.  0.
          5    1    4    4  502    0 -0.18796122286E+02 -0.23340267280E+03  0.85496775458E+02  0.24932286397E+03  0.47000000000E+01 0. -1.
         -5    1    4    4    0  502  0.66257597766E+01  0.12080933721E+02  0.23199295617E+02  0.27388811024E+02  0.47000000000E+01 0. -1.
        -11    1    3    3    0    0 -0.38527628054E+02  0.12499460329E+03  0.29130049841E+02  0.13400219692E+03  0.00000000000E+00 0. -1.
         11    1    3    3    0    0  0.50697990563E+02  0.96327135789E+02  0.39695656154E+02  0.11586607982E+03  0.00000000000E+00 0.  1.
<mgrwt>
<rscale>  0 0.25082487E+03</rscale>
<asrwt>0</asrwt>
<pdfrwt beam="2">  1        2 0.26850629E-01 0.25446908E+03</pdfrwt>
<pdfrwt beam="1">  1       -2 0.54161671E-01 0.25446908E+03</pdfrwt>
<totfact> 0.64937001E+02</totfact>
</mgrwt>
</event>
<event>
 8    1  0.1224355E-005  0.1295410E+03  0.7546771E-02  0.1243597E+00
          2   -1    0    0  501    0  0.00000000000E+00  0.00000000000E+00  0.26769846036E+03  0.26769846036E+03  0.00000000000E+00 0. -1.
         -2   -1    0    0    0  501 -0.00000000000E+00 -0.00000000000E+00 -0.48862377751E+02  0.48862377751E+02  0.00000000000E+00 0.  1.
         23    2    1    2    0    0 -0.11187172568E+00 -0.33959342030E+02  0.61213735821E+02  0.11253710188E+03  0.88114859250E+02 0.  0.
         23    2    1    2    0    0  0.11187172568E+00  0.33959342030E+02  0.15762234679E+03  0.20402373623E+03  0.12501052480E+03 0.  0.
          5    1    4    4  502    0  0.33356631168E+02  0.70063753768E+02  0.11522324329E+03  0.13899669144E+03  0.47000000000E+01 0.  1.
         -5    1    4    4    0  502 -0.33244759442E+02 -0.36104411738E+02  0.42399103492E+02  0.65027044791E+02  0.47000000000E+01 0.  1.
        -11    1    3    3    0    0 -0.19630348797E+02 -0.70285338009E+01 -0.17412664029E+02  0.27165267344E+02  0.00000000000E+00 0.  1.
         11    1    3    3    0    0  0.19518477071E+02 -0.26930808229E+02  0.78626399850E+02  0.85371834538E+02  0.00000000000E+00 0. -1.
<mgrwt>
<rscale>  0 0.11969769E+03</rscale>
<asrwt>0</asrwt>
<pdfrwt beam="1">  1        2 0.41184378E-01 0.12954104E+03</pdfrwt>
<pdfrwt beam="2">  1       -2 0.75172890E-02 0.12954104E+03</pdfrwt>
<totfact> 0.12107436E+04</totfact>
</mgrwt>
</event>
<event>
 8    1  0.1224355E-005  0.1959018E+03  0.7546771E-02  0.1158199E+00
          2   -1    0    0  501    0  0.00000000000E+00  0.00000000000E+00  0.15642740127E+03  0.15642740127E+03  0.00000000000E+00 0. -1.
         -2   -1    0    0    0  501 -0.00000000000E+00 -0.00000000000E+00 -0.33072293495E+03  0.33072293495E+03  0.00000000000E+00 0.  1.
         23    2    1    2    0    0  0.10620036073E+03  0.10726074122E+03 -0.22510959750E+03  0.28476562587E+03  0.87371320021E+02 0.  0.
         23    2    1    2    0    0 -0.10620036073E+03 -0.10726074122E+03  0.50814063830E+02  0.20238471035E+03  0.12487641360E+03 0.  0.
          5    1    4    4  502    0  0.26669257478E+02 -0.35287291111E+02  0.74113857269E+01  0.45093911416E+02  0.47000000000E+01 0. -1.
         -5    1    4    4    0  502 -0.13286961821E+03 -0.71973450109E+02  0.43402678103E+02  0.15729079894E+03  0.47000000000E+01 0. -1.
        -11    1    3    3    0    0  0.10843381742E+03  0.65960915580E+02 -0.19842454887E+03  0.23554412907E+03  0.00000000000E+00 0.  1.
         11    1    3    3    0    0 -0.22334566881E+01  0.41299825641E+02 -0.26685048630E+02  0.49221496799E+02  0.00000000000E+00 0. -1.
<mgrwt>
<rscale>  0 0.19029113E+03</rscale>
<asrwt>0</asrwt>
<pdfrwt beam="1">  1        2 0.24065754E-01 0.19590177E+03</pdfrwt>
<pdfrwt beam="2">  1       -2 0.50880451E-01 0.19590177E+03</pdfrwt>
<totfact> 0.82926320E+02</totfact>
</mgrwt>
</event>
<event>
 8    1  0.1224355E-005  0.1350019E+03  0.7546771E-02  0.1232681E+00
          1   -1    0    0  501    0  0.00000000000E+00  0.00000000000E+00  0.22479919912E+03  0.22479919912E+03  0.00000000000E+00 0. -1.
         -1   -1    0    0    0  501 -0.00000000000E+00 -0.00000000000E+00 -0.63715662190E+02  0.63715662190E+02  0.00000000000E+00 0.  1.
         23    2    1    2    0    0  0.49814171710E+02 -0.10924593490E+02  0.75234716118E+02  0.12852883203E+03  0.90876838123E+02 0.  0.
         23    2    1    2    0    0 -0.49814171710E+02  0.10924593490E+02  0.85848820811E+02  0.15998602928E+03  0.12499884433E+03 0.  0.
          5    1    4    4  502    0 -0.25578021987E+02  0.62691801287E+02  0.75824134495E+02  0.10176387635E+03  0.47000000000E+01 0.  1.
         -5    1    4    4    0  502 -0.24236149723E+02 -0.51767207797E+02  0.10024686316E+02  0.58222152934E+02  0.47000000000E+01 0.  1.
        -11    1    3    3    0    0  0.73578983758E+02 -0.23312875172E+02  0.52074533581E+02  0.93108077239E+02  0.00000000000E+00 0.  1.
         11    1    3    3    0    0 -0.23764812048E+02  0.12388281682E+02  0.23160182537E+02  0.35420754789E+02  0.00000000000E+00 0. -1.
<mgrwt>
<rscale>  0 0.12654081E+03</rscale>
<asrwt>0</asrwt>
<pdfrwt beam="1">  1        1 0.34584492E-01 0.13500189E+03</pdfrwt>
<pdfrwt beam="2">  1       -1 0.98024097E-02 0.13500189E+03</pdfrwt>
<totfact> 0.75374646E+03</totfact>
</mgrwt>
</event>
<event>
 8    1  0.1224355E-005  0.2247414E+03  0.7546771E-02  0.1133516E+00
         -1   -1    0    0    0  501 -0.00000000000E+00  0.00000000000E+00  0.73180231405E+03  0.73180231405E+03  0.00000000000E+00 0.  1.
          1   -1    0    0  501    0  0.00000000000E+00 -0.00000000000E+00 -0.64173662844E+02  0.64173662844E+02  0.00000000000E+00 0. -1.
         23    2    1    2    0    0 -0.79592820038E+02 -0.16896219209E+03  0.33923768243E+03  0.39804466191E+03  0.92054920235E+02 0.  0.
         23    2    1    2    0    0  0.79592820038E+02  0.16896219209E+03  0.32839096877E+03  0.39793131498E+03  0.12500185484E+03 0.  0.
          5    1    4    4  502    0 -0.10667486361E+02  0.28257423656E+02  0.15130350518E+03  0.15436035092E+03  0.47000000000E+01 0. -1.
         -5    1    4    4    0  502  0.90260306400E+02  0.14070476843E+03  0.17708746359E+03  0.24357096406E+03  0.47000000000E+01 0. -1.
        -11    1    3    3    0    0 -0.33255960352E+02 -0.11370711761E+03  0.28234102008E+03  0.30618902514E+03  0.00000000000E+00 0.  1.
         11    1    3    3    0    0 -0.46336859686E+02 -0.55255074474E+02  0.56896662352E+02  0.91855636775E+02  0.00000000000E+00 0. -1.
<mgrwt>
<rscale>  0 0.22049318E+03</rscale>
<asrwt>0</asrwt>
<pdfrwt beam="2">  1        1 0.98728717E-02 0.22474141E+03</pdfrwt>
<pdfrwt beam="1">  1       -1 0.11258497E+00 0.22474141E+03</pdfrwt>
<totfact> 0.50206677E+02</totfact>
</mgrwt>
</event>
<event>
 8    1  0.1224355E-005  0.1322458E+03  0.7546771E-02  0.1237477E+00
         -2   -1    0    0    0  501 -0.00000000000E+00  0.00000000000E+00  0.55468341573E+02  0.55468341573E+02  0.00000000000E+00 0.  1.
          2   -1    0    0  501    0  0.00000000000E+00 -0.00000000000E+00 -0.32416046171E+03  0.32416046171E+03  0.00000000000E+00 0. -1.
         23    2    1    2    0    0 -0.42668734572E+02 -0.65759393154E+01 -0.26891823956E+02  0.10402704876E+03  0.90744657085E+02 0.  0.
         23    2    1    2    0    0  0.42668734572E+02  0.65759393154E+01 -0.24180029618E+03  0.27560175453E+03  0.12500031991E+03 0.  0.
          5    1    4    4  502    0 -0.98479759153E+01  0.52303857723E+02 -0.15660270991E+03  0.16546653714E+03  0.47000000000E+01 0. -1.
         -5    1    4    4    0  502  0.52516710487E+02 -0.45727918408E+02 -0.85197586274E+02  0.11013521739E+03  0.47000000000E+01 0. -1.
        -11    1    3    3    0    0 -0.60416381167E+02  0.23843453863E+02 -0.21384456473E+02  0.68380877327E+02  0.00000000000E+00 0.  1.
         11    1    3    3    0    0  0.17747646595E+02 -0.30419393178E+02 -0.55073674833E+01  0.35646171430E+02  0.00000000000E+00 0. -1.
<mgrwt>
<rscale>  0 0.12347193E+03</rscale>
<asrwt>0</asrwt>
<pdfrwt beam="2">  1        2 0.49870840E-01 0.13224577E+03</pdfrwt>
<pdfrwt beam="1">  1       -2 0.85335911E-02 0.13224577E+03</pdfrwt>
<totfact> 0.81430824E+03</totfact>
</mgrwt>
</event>
<event>
 8    1  0.1224355E-005  0.1259246E+03  0.7546771E-02  0.1248458E+00
          1   -1    0    0  501    0  0.00000000000E+00  0.00000000000E+00  0.29061169679E+03  0.29061169679E+03  0.00000000000E+00 0. -1.
         -1   -1    0    0    0  501 -0.00000000000E+00 -0.00000000000E+00 -0.42285278294E+02  0.42285278294E+02  0.00000000000E+00 0.  1.
         23    2    1    2    0    0  0.11666834736E+02 -0.98152845427E+01  0.81148906856E+02  0.12359973952E+03  0.91974429499E+02 0.  0.
         23    2    1    2    0    0 -0.11666834736E+02  0.98152845427E+01  0.16717751164E+03  0.20929723557E+03  0.12499823029E+03 0.  0.
          5    1    4    4  502    0 -0.40378254322E+02  0.31034893091E+02  0.15554119887E+02  0.53456418294E+02  0.47000000000E+01 0.  1.
         -5    1    4    4    0  502  0.28711419586E+02 -0.21219608549E+02  0.15162339176E+03  0.15584081728E+03  0.47000000000E+01 0.  1.
        -11    1    3    3    0    0  0.31943394049E+02 -0.44173959875E+01 -0.69911437034E+01  0.32996513466E+02  0.00000000000E+00 0.  1.
         11    1    3    3    0    0 -0.20276559313E+02 -0.53978885552E+01  0.88140050559E+02  0.90603226052E+02  0.00000000000E+00 0. -1.
<mgrwt>
<rscale>  0 0.11680769E+03</rscale>
<asrwt>0</asrwt>
<pdfrwt beam="1">  1        1 0.44709491E-01 0.12592463E+03</pdfrwt>
<pdfrwt beam="2">  1       -1 0.65054276E-02 0.12592463E+03</pdfrwt>
<totfact> 0.10130153E+04</totfact>
</mgrwt>
</event>
<event>
 8    1  0.1224355E-005  0.1291225E+03  0.7546771E-02  0.1243417E+00
         -2   -1    0    0    0  501 -0.00000000000E+00  0.00000000000E+00  0.37660719562E+02  0.37660719562E+02  0.00000000000E+00 0.  1.
          2   -1    0    0  501    0  0.00000000000E+00 -0.00000000000E+00 -0.62291288891E+03  0.62291288891E+03  0.00000000000E+00 0. -1.
         23    2    1    2    0    0 -0.19081340401E+02 -0.26216164985E+02 -0.46190825064E+02  0.10626345022E+03  0.90038567705E+02 0.  0.
         23    2    1    2    0    0  0.19081340401E+02  0.26216164985E+02 -0.53906134429E+03  0.55431015826E+03  0.12498493422E+03 0.  0.
          5    1    4    4  502    0  0.22691395325E+02  0.62446537073E+02 -0.48117933003E+03  0.48576754426E+03  0.47000000000E+01 0. -1.
         -5    1    4    4    0  502 -0.36100549236E+01 -0.36230372088E+02 -0.57882014261E+02  0.68542613994E+02  0.47000000000E+01 0. -1.
        -11    1    3    3    0    0 -0.36338929597E+02 -0.12760264627E+02  0.14957961973E+02  0.41316858350E+02  0.00000000000E+00 0.  1.
         11    1    3    3    0    0  0.17257589195E+02 -0.13455900358E+02 -0.61148787037E+02  0.64946591869E+02  0.00000000000E+00 0. -1.
<mgrwt>
<rscale>  0 0.11980597E+03</rscale>
<asrwt>0</asrwt>
<pdfrwt beam="2">  1        2 0.95832745E-01 0.12912249E+03</pdfrwt>
<pdfrwt beam="1">  1       -2 0.57939573E-02 0.12912249E+03</pdfrwt>
<totfact> 0.72256082E+03</totfact>
</mgrwt>
</event>
<event>
 8    1  0.1224355E-005  0.1453764E+03  0.7546771E-02  0.1216986E+00
          1   -1    0    0  501    0  0.00000000000E+00  0.00000000000E+00  0.46503433527E+03  0.46503433527E+03  0.00000000000E+00 0. -1.
         -1   -1    0    0    0  501 -0.00000000000E+00 -0.00000000000E+00 -0.49054048722E+02  0.49054048722E+02  0.00000000000E+00 0.  1.
         23    2    1    2    0    0 -0.14113469579E+02  0.72833509995E+02  0.61700646196E+02  0.13114145356E+03  0.88809914412E+02 0.  0.
         23    2    1    2    0    0  0.14113469579E+02 -0.72833509995E+02  0.35427964036E+03  0.38294693044E+03  0.12502150920E+03 0.  0.
          5    1    4    4  502    0  0.47998103832E+02 -0.28357270052E+02  0.55004671845E+02  0.78457355685E+02  0.47000000000E+01 0. -1.
         -5    1    4    4    0  502 -0.33884634252E+02 -0.44476239942E+02  0.29927496851E+03  0.30448957476E+03  0.47000000000E+01 0. -1.
        -11    1    3    3    0    0  0.27154371365E+02  0.53232245286E+02  0.61080441147E+02  0.85450875438E+02  0.00000000000E+00 0.  1.
         11    1    3    3    0    0 -0.41267840944E+02  0.19601264709E+02  0.62020504855E+00  0.45690578117E+02  0.00000000000E+00 0. -1.
<mgrwt>
<rscale>  0 0.13731641E+03</rscale>
<asrwt>0</asrwt>
<pdfrwt beam="1">  1        1 0.71543741E-01 0.14537637E+03</pdfrwt>
<pdfrwt beam="2">  1       -1 0.75467770E-02 0.14537637E+03</pdfrwt>
<totfact> 0.45363469E+03</totfact>
</mgrwt>
</event>
<event>
 8    1  0.1224355E-005  0.1342082E+03  0.7546771E-02  0.1235198E+00
          1   -1    0    0  501    0  0.00000000000E+00  0.00000000000E+00  0.48113289960E+03  0.48113289960E+03  0.00000000000E+00 0. -1.
         -1   -1    0    0    0  501 -0.00000000000E+00 -0.00000000000E+00 -0.30720203750E+02  0.30720203750E+02  0.00000000000E+00 0.  1.
         23    2    1    2    0    0  0.45580211440E+02  0.17654112426E+02  0.12992727017E+03  0.16440131741E+03  0.88076525092E+02 0.  0.
         23    2    1    2    0    0 -0.45580211440E+02 -0.17654112426E+02  0.32048542569E+03  0.34745178595E+03  0.12499044811E+03 0.  0.
          5    1    4    4  502    0 -0.24443806718E+02 -0.41963892095E+02  0.30915553468E+03  0.31298195243E+03  0.47000000000E+01 0. -1.
         -5    1    4    4    0  502 -0.21136404722E+02  0.24309779670E+02  0.11329891011E+02  0.34469833514E+02  0.47000000000E+01 0. -1.
        -11    1    3    3    0    0  0.11696149319E+02 -0.16421861449E+02 -0.53358790356E+01  0.20855432085E+02  0.00000000000E+00 0.  1.
         11    1    3    3    0    0  0.33884062121E+02  0.34075973875E+02  0.13526314920E+03  0.14354588532E+03  0.00000000000E+00 0. -1.
<mgrwt>
<rscale>  0 0.12491794E+03</rscale>
<asrwt>0</asrwt>
<pdfrwt beam="1">  1        1 0.74020440E-01 0.13420818E+03</pdfrwt>
<pdfrwt beam="2">  1       -1 0.47261856E-02 0.13420818E+03</pdfrwt>
<totfact> 0.86819099E+03</totfact>
</mgrwt>
</event>
<event>
 8    1  0.1224355E-005  0.1418771E+03  0.7546771E-02  0.1220389E+00
         -1   -1    0    0    0  501 -0.00000000000E+00  0.00000000000E+00  0.56019260060E+02  0.56019260060E+02  0.00000000000E+00 0.  1.
          1   -1    0    0  501    0  0.00000000000E+00 -0.00000000000E+00 -0.33616747220E+03  0.33616747220E+03  0.00000000000E+00 0. -1.
         23    2    1    2    0    0  0.60678072498E+02 -0.28711840164E+02 -0.60583213882E+02  0.13077155570E+03  0.94470501894E+02 0.  0.
         23    2    1    2    0    0 -0.60678072498E+02  0.28711840164E+02 -0.21956499825E+03  0.26141517656E+03  0.12499163104E+03 0.  0.
          5    1    4    4  502    0 -0.83679482254E+02  0.20416890100E+02 -0.22021508781E+03  0.23650767440E+03  0.47000000000E+01 0. -1.
         -5    1    4    4    0  502  0.23001409757E+02  0.82949500634E+01  0.65008955353E+00  0.24907502159E+02  0.47000000000E+01 0. -1.
        -11    1    3    3    0    0  0.52034137566E+02 -0.70198180298E+01 -0.83122848966E+02  0.98317024659E+02  0.00000000000E+00 0.  1.
         11    1    3    3    0    0  0.86439349312E+01 -0.21692022134E+02  0.22539635084E+02  0.32454531041E+02  0.00000000000E+00 0. -1.
<mgrwt>
<rscale>  0 0.13487989E+03</rscale>
<asrwt>0</asrwt>
<pdfrwt beam="2">  1        1 0.51718071E-01 0.14187708E+03</pdfrwt>
<pdfrwt beam="1">  1       -1 0.86183479E-02 0.14187708E+03</pdfrwt>
<totfact> 0.55862993E+03</totfact>
</mgrwt>
</event>
<event>
 8    1  0.1224355E-005  0.1286913E+03  0.7546771E-02  0.1242384E+00
         -2   -1    0    0    0  501 -0.00000000000E+00  0.00000000000E+00  0.26264324836E+03  0.26264324836E+03  0.00000000000E+00 0.  1.
          2   -1    0    0  501    0  0.00000000000E+00 -0.00000000000E+00 -0.54683242559E+02  0.54683242559E+02  0.00000000000E+00 0. -1.
         23    2    1    2    0    0 -0.29685823815E+02  0.73430261378E+01  0.14139583135E+03  0.17243946840E+03  0.93847860771E+02 0.  0.
         23    2    1    2    0    0  0.29685823815E+02 -0.73430261378E+01  0.66564174456E+02  0.14488702252E+03  0.12500516712E+03 0.  0.
          5    1    4    4  502    0  0.29456722145E+02  0.43039785668E+02 -0.98035431930E+01  0.53275895948E+02  0.47000000000E+01 0.  1.
         -5    1    4    4    0  502  0.22910166958E+00 -0.50382811806E+02  0.76367717649E+02  0.91611126573E+02  0.47000000000E+01 0.  1.
        -11    1    3    3    0    0 -0.56648199165E+02 -0.37232962232E+01  0.12866993653E+03  0.14063724247E+03  0.00000000000E+00 0.  1.
         11    1    3    3    0    0  0.26962375350E+02  0.11066322361E+02  0.12725894818E+02  0.31802225929E+02  0.00000000000E+00 0. -1.
<mgrwt>
<rscale>  0 0.12043322E+03</rscale>
<asrwt>0</asrwt>
<pdfrwt beam="2">  1        2 0.84128067E-02 0.12869134E+03</pdfrwt>
<pdfrwt beam="1">  1       -2 0.40406653E-01 0.12869134E+03</pdfrwt>
<totfact> 0.44202513E+03</totfact>
</mgrwt>
</event>
<event>
 8    1  0.1224355E-005  0.1398858E+03  0.7546771E-02  0.1224615E+00
         -2   -1    0    0    0  501 -0.00000000000E+00  0.00000000000E+00  0.48956670325E+02  0.48956670325E+02  0.00000000000E+00 0. -1.
          2   -1    0    0  501    0  0.00000000000E+00 -0.00000000000E+00 -0.32124559643E+03  0.32124559643E+03  0.00000000000E+00 0.  1.
         23    2    1    2    0    0  0.62802029372E+02  0.32172222104E+01 -0.12838298035E+03  0.16951106817E+03  0.91089885146E+02 0.  0.
         23    2    1    2    0    0 -0.62802029372E+02 -0.32172222104E+01 -0.14390594575E+03  0.20069119858E+03  0.12495435388E+03 0.  0.
          5    1    4    4  502    0 -0.47182260080E+02  0.56401650679E+02 -0.53013859136E+02  0.90773735883E+02  0.47000000000E+01 0.  1.
         -5    1    4    4    0  502 -0.15619769292E+02 -0.59618872890E+02 -0.90892086617E+02  0.10991746270E+03  0.47000000000E+01 0.  1.
        -11    1    3    3    0    0 -0.18252240730E+02  0.15597680053E+02 -0.52767939042E+02  0.57973160216E+02  0.00000000000E+00 0.  1.
         11    1    3    3    0    0  0.81054270102E+02 -0.12380457843E+02 -0.75615041306E+02  0.11153790795E+03  0.00000000000E+00 0. -1.
<mgrwt>
<rscale>  0 0.13193355E+03</rscale>
<asrwt>0</asrwt>
<pdfrwt beam="2">  1        2 0.49422401E-01 0.13988580E+03</pdfrwt>
<pdfrwt beam="1">  1       -2 0.75317952E-02 0.13988580E+03</pdfrwt>
<totfact> 0.10009855E+04</totfact>
</mgrwt>
</event>
<event>
 7    1  0.1552335E-005  0.1613928E+03  0.7546771E-02  0.1192003E+00
          1   -1    0    0  501    0  0.00000000000E+00  0.00000000000E+00  0.53335799654E+03  0.53335799654E+03  0.00000000000E+00 0. -1.
         -1   -1    0    0    0  501 -0.00000000000E+00 -0.00000000000E+00 -0.48252870120E+02  0.48252870120E+02  0.00000000000E+00 0.  1.
         23    2    1    2    0    0  0.25400784625E+02 -0.68786551495E+02  0.31709219391E+03  0.34863882127E+03  0.12499911491E+03 0.  0.
          5    1    3    3  502    0  0.38173727437E+02 -0.50583666311E+01  0.18427211513E+02  0.42947324289E+02  0.47000000000E+01 0.  1.
         -5    1    3    3    0  502 -0.12772942812E+02 -0.63728184864E+02  0.29866498240E+03  0.30569149698E+03  0.47000000000E+01 0.  1.
        -11    1    1    2    0    0  0.39726369357E+02  0.27606107006E+02  0.26944041662E+00  0.48377207076E+02  0.00000000000E+00 0.  1.
         11    1    1    2    0    0 -0.65127153982E+02  0.41180444489E+02  0.16774349210E+03  0.18459483832E+03  0.00000000000E+00 0. -1.
<mgrwt>
<rscale>  0 0.15710664E+03</rscale>
<asrwt>0</asrwt>
<pdfrwt beam="1">  1        1 0.82055072E-01 0.16139278E+03</pdfrwt>
<pdfrwt beam="2">  1       -1 0.74235189E-02 0.16139278E+03</pdfrwt>
<totfact> 0.39050494E+03</totfact>
</mgrwt>
</event>
<event>
 8    1  0.1224355E-005  0.2056362E+03  0.7546771E-02  0.1148609E+00
         -1   -1    0    0    0  501 -0.00000000000E+00  0.00000000000E+00  0.50714116801E+02  0.50714116801E+02  0.00000000000E+00 0.  1.
          1   -1    0    0  501    0  0.00000000000E+00 -0.00000000000E+00 -0.10218997964E+04  0.10218997964E+04  0.00000000000E+00 0. -1.
         23    2    1    2    0    0 -0.15103798648E+03  0.62045388365E+02 -0.20292689269E+03  0.27731031928E+03  0.95181856578E+02 0.  0.
         23    2    1    2    0    0  0.15103798648E+03 -0.62045388365E+02 -0.76825878686E+03  0.79530359388E+03  0.12499655704E+03 0.  0.
          5    1    4    4  502    0  0.30999788537E+02 -0.29820334732E+01 -0.25348502731E+02  0.40429147946E+02  0.47000000000E+01 0. -1.
         -5    1    4    4    0  502  0.12003819794E+03 -0.59063354892E+02 -0.74291028413E+03  0.75487444593E+03  0.47000000000E+01 0. -1.
        -11    1    3    3    0    0 -0.55739989472E+02  0.32004284179E+02 -0.17402176995E+02  0.66588710728E+02  0.00000000000E+00 0.  1.
         11    1    3    3    0    0 -0.95297997007E+02  0.30041104186E+02 -0.18552471570E+03  0.21072160855E+03  0.00000000000E+00 0. -1.
<mgrwt>
<rscale>  0 0.20134514E+03</rscale>
<asrwt>0</asrwt>
<pdfrwt beam="2">  1        1 0.15721534E+00 0.20563619E+03</pdfrwt>
<pdfrwt beam="1">  1       -1 0.78021723E-02 0.20563619E+03</pdfrwt>
<totfact> 0.13787824E+03</totfact>
</mgrwt>
</event>
<event>
 8    1  0.1224355E-005  0.1328171E+03  0.7546771E-02  0.1235928E+00
          2   -1    0    0  501    0  0.00000000000E+00  0.00000000000E+00  0.44094784345E+03  0.44094784345E+03  0.00000000000E+00 0. -1.
         -2   -1    0    0    0  501 -0.00000000000E+00 -0.00000000000E+00 -0.33620013132E+02  0.33620013132E+02  0.00000000000E+00 0.  1.
         23    2    1    2    0    0 -0.37836402669E+02 -0.23057663914E+02  0.11811432211E+03  0.15631508141E+03  0.92304725543E+02 0.  0.
         23    2    1    2    0    0  0.37836402669E+02  0.23057663914E+02  0.28921350821E+03  0.31825277517E+03  0.12520833175E+03 0.  0.
          5    1    4    4  502    0  0.56648107719E+02  0.64710669613E+02  0.17211770470E+03  0.19246577135E+03  0.47000000000E+01 0.  1.
         -5    1    4    4    0  502 -0.18811705050E+02 -0.41653005698E+02  0.11709580351E+03  0.12578700382E+03  0.47000000000E+01 0.  1.
        -11    1    3    3    0    0 -0.58417979181E+02  0.20819171826E+01  0.37628750453E+02  0.69519188225E+02  0.00000000000E+00 0. -1.
         11    1    3    3    0    0  0.20581576512E+02 -0.25139581097E+02  0.80485571657E+02  0.86795893188E+02  0.00000000000E+00 0.  1.
<mgrwt>
<rscale>  0 0.12445240E+03</rscale>
<asrwt>0</asrwt>
<pdfrwt beam="1">  1        2 0.67838126E-01 0.13281708E+03</pdfrwt>
<pdfrwt beam="2">  1       -2 0.51723100E-02 0.13281708E+03</pdfrwt>
<totfact> 0.12594140E+04</totfact>
</mgrwt>
</event>
<event>
 8    1  0.1224355E-005  0.1277389E+03  0.7546771E-02  0.1245639E+00
         -2   -1    0    0    0  501 -0.00000000000E+00  0.00000000000E+00  0.43199916432E+02  0.43199916432E+02  0.00000000000E+00 0.  1.
          2   -1    0    0  501    0  0.00000000000E+00 -0.00000000000E+00 -0.28730218056E+03  0.28730218056E+03  0.00000000000E+00 0. -1.
         23    2    1    2    0    0  0.19793350550E+02  0.16404058842E+02 -0.92319842819E+02  0.13212082894E+03  0.90951031813E+02 0.  0.
         23    2    1    2    0    0 -0.19793350550E+02 -0.16404058842E+02 -0.15178242131E+03  0.19838126806E+03  0.12512535404E+03 0.  0.
          5    1    4    4  502    0 -0.17530582413E+02  0.53816752021E+02 -0.76806110608E+02  0.95523990414E+02  0.47000000000E+01 0. -1.
         -5    1    4    4    0  502 -0.22627681370E+01 -0.70220810863E+02 -0.74976310701E+02  0.10285727764E+03  0.47000000000E+01 0. -1.
        -11    1    3    3    0    0  0.43568283217E+02  0.26029585785E+02 -0.18577400301E+02  0.54044929832E+02  0.00000000000E+00 0.  1.
         11    1    3    3    0    0 -0.23774932667E+02 -0.96255269432E+01 -0.73742442518E+02  0.78075899103E+02  0.00000000000E+00 0. -1.
<mgrwt>
<rscale>  0 0.11847229E+03</rscale>
<asrwt>0</asrwt>
<pdfrwt beam="2">  1        2 0.44200336E-01 0.12773889E+03</pdfrwt>
<pdfrwt beam="1">  1       -2 0.66461409E-02 0.12773889E+03</pdfrwt>
<totfact> 0.13547779E+04</totfact>
</mgrwt>
</event>
<event>
 8    1  0.1224355E-005  0.1596567E+03  0.7546771E-02  0.1196716E+00
          4   -1    0    0  501    0  0.00000000000E+00  0.00000000000E+00  0.45146121907E+03  0.45146121907E+03  0.00000000000E+00 0. -1.
         -4   -1    0    0    0  501 -0.00000000000E+00 -0.00000000000E+00 -0.48106152053E+02  0.48106152053E+02  0.00000000000E+00 0.  1.
         23    2    1    2    0    0 -0.27419181609E+02  0.95455634075E+02  0.17873375678E+03  0.22398616610E+03  0.91435535736E+02 0.  0.
         23    2    1    2    0    0  0.27419181609E+02 -0.95455634075E+02  0.22462131024E+03  0.27558120502E+03  0.12500671163E+03 0.  0.
          5    1    4    4  502    0  0.50062366852E+02 -0.46693581886E+02  0.20812969217E+03  0.21914969753E+03  0.47000000000E+01 0.  1.
         -5    1    4    4    0  502 -0.22643185242E+02 -0.48762052189E+02  0.16491618069E+02  0.56431507494E+02  0.47000000000E+01 0.  1.
        -11    1    3    3    0    0 -0.14724435064E+02 -0.13108084275E+02  0.80290654382E+01  0.21286069461E+02  0.00000000000E+00 0.  1.
         11    1    3    3    0    0 -0.12694746545E+02  0.10856371835E+03  0.17070469134E+03  0.20270009664E+03  0.00000000000E+00 0. -1.
<mgrwt>
<rscale>  0 0.15309852E+03</rscale>
<asrwt>0</asrwt>
<pdfrwt beam="1">  1        4 0.69455569E-01 0.15965672E+03</pdfrwt>
<pdfrwt beam="2">  1       -4 0.74009468E-02 0.15965672E+03</pdfrwt>
<totfact> 0.41754857E+02</totfact>
</mgrwt>
</event>
<event>
 8    1  0.1224355E-005  0.1667680E+03  0.7546771E-02  0.1188404E+00
          2   -1    0    0  501    0  0.00000000000E+00  0.00000000000E+00  0.45257474999E+03  0.45257474999E+03  0.00000000000E+00 0. -1.
         -2   -1    0    0    0  501 -0.00000000000E+00 -0.00000000000E+00 -0.59585977030E+02  0.59585977030E+02  0.00000000000E+00 0.  1.
         23    2    1    2    0    0 -0.10150339647E+03  0.43387766036E+02  0.96112355950E+02  0.17165054652E+03  0.89670995419E+02 0.  0.
         23    2    1    2    0    0  0.10150339647E+03 -0.43387766036E+02  0.29687641701E+03  0.34051018049E+03  0.12500455316E+03 0.  0.
          5    1    4    4  502    0  0.94253916759E+02 -0.56056898200E+02  0.11868961756E+03  0.16166475181E+03  0.47000000000E+01 0. -1.
         -5    1    4    4    0  502  0.72494797064E+01  0.12669132164E+02  0.17818679944E+03  0.17884542868E+03  0.47000000000E+01 0. -1.
        -11    1    3    3    0    0 -0.69578539253E+02 -0.17519246791E+02  0.62288775509E+02  0.95015728630E+02  0.00000000000E+00 0.  1.
         11    1    3    3    0    0 -0.31924857212E+02  0.60907012826E+02  0.33823580441E+02  0.76634817892E+02  0.00000000000E+00 0. -1.
<mgrwt>
<rscale>  0 0.16025966E+03</rscale>
<asrwt>0</asrwt>
<pdfrwt beam="1">  1        2 0.69626883E-01 0.16676803E+03</pdfrwt>
<pdfrwt beam="2">  1       -2 0.91670737E-02 0.16676803E+03</pdfrwt>
<totfact> 0.51639976E+03</totfact>
</mgrwt>
</event>
<event>
 8    1  0.1224355E-005  0.1291578E+03  0.7546771E-02  0.1242688E+00
          2   -1    0    0  501    0  0.00000000000E+00  0.00000000000E+00  0.32023976302E+03  0.32023976302E+03  0.00000000000E+00 0. -1.
         -2   -1    0    0    0  501 -0.00000000000E+00 -0.00000000000E+00 -0.51331661483E+02  0.51331661483E+02  0.00000000000E+00 0.  1.
         23    2    1    2    0    0  0.25435672046E+02 -0.20231223961E+02  0.32780628647E+02  0.10242848674E+03  0.91437133842E+02 0.  0.
         23    2    1    2    0    0 -0.25435672046E+02  0.20231223961E+02  0.23612747289E+03  0.26914293777E+03  0.12500184663E+03 0.  0.
          5    1    4    4  502    0  0.98151840891E+01  0.68305044214E+02  0.11927532335E+03  0.13787896745E+03  0.47000000000E+01 0. -1.
         -5    1    4    4    0  502 -0.35250856135E+02 -0.48073820253E+02  0.11685214954E+03  0.13126397032E+03  0.47000000000E+01 0. -1.
        -11    1    3    3    0    0 -0.97434945646E+01  0.23944973975E+02 -0.13727660085E+02  0.29270225766E+02  0.00000000000E+00 0.  1.
         11    1    3    3    0    0  0.35179166610E+02 -0.44176197936E+02  0.46508288732E+02  0.73158260970E+02  0.00000000000E+00 0. -1.
<mgrwt>
<rscale>  0 0.12024851E+03</rscale>
<asrwt>0</asrwt>
<pdfrwt beam="1">  1        2 0.49267655E-01 0.12915780E+03</pdfrwt>
<pdfrwt beam="2">  1       -2 0.78971789E-02 0.12915780E+03</pdfrwt>
<totfact> 0.92824124E+03</totfact>
</mgrwt>
</event>
<event>
 8    1  0.1224355E-005  0.2387963E+03  0.7546771E-02  0.1123364E+00
         -1   -1    0    0    0  501 -0.00000000000E+00  0.00000000000E+00  0.21339136864E+03  0.21339136864E+03  0.00000000000E+00 0.  1.
          1   -1    0    0  501    0  0.00000000000E+00 -0.00000000000E+00 -0.27240492411E+03  0.27240492411E+03  0.00000000000E+00 0. -1.
         23    2    1    2    0    0 -0.18077954502E+03  0.93362425069E+02 -0.98634417557E+02  0.24373539643E+03  0.90996751782E+02 0.  0.
         23    2    1    2    0    0  0.18077954502E+03 -0.93362425069E+02  0.39620862085E+02  0.24206089631E+03  0.12500351395E+03 0.  0.
          5    1    4    4  502    0  0.33421717133E+02 -0.60844400322E+02  0.57190044726E+02  0.90065772869E+02  0.47000000000E+01 0.  1.
         -5    1    4    4    0  502  0.14735782788E+03 -0.32518024747E+02 -0.17569182641E+02  0.15199512344E+03  0.47000000000E+01 0.  1.
        -11    1    3    3    0    0 -0.14584764060E+03  0.27715178529E+02 -0.68500143824E+02  0.16349903698E+03  0.00000000000E+00 0. -1.
         11    1    3    3    0    0 -0.34931904418E+02  0.65647246540E+02 -0.30134273734E+02  0.80236359451E+02  0.00000000000E+00 0.  1.
<mgrwt>
<rscale>  0 0.23471530E+03</rscale>
<asrwt>0</asrwt>
<pdfrwt beam="2">  1        1 0.41908450E-01 0.23879628E+03</pdfrwt>
<pdfrwt beam="1">  1       -1 0.32829442E-01 0.23879628E+03</pdfrwt>
<totfact> 0.86723573E+02</totfact>
</mgrwt>
</event>
<event>
 8    1  0.2205655E-005  0.1974444E+03  0.7546771E-02  0.1155564E+00
         -1   -1    0    0    0  501 -0.00000000000E+00  0.00000000000E+00  0.68410542295E+02  0.68410542295E+02  0.00000000000E+00 0.  1.
          1   -1    0    0  501    0  0.00000000000E+00 -0.00000000000E+00 -0.54929251895E+03  0.54929251895E+03  0.00000000000E+00 0. -1.
         23    2    1    2    0    0 -0.22066846799E+02  0.15123738833E+03 -0.16425135911E+03  0.24455531329E+03  0.97309295208E+02 0.  0.
         23    2    1    2    0    0  0.22066846799E+02 -0.15123738833E+03 -0.31663061755E+03  0.37314774795E+03  0.12499840190E+03 0.  0.
          5    1    4    4  502    0 -0.21424878018E+02  0.77584069885E+01 -0.10710387777E+02  0.25612900722E+02  0.47000000000E+01 0. -1.
         -5    1    4    4    0  502  0.43491724816E+02 -0.15899579532E+03 -0.30592022977E+03  0.34753484723E+03  0.47000000000E+01 0. -1.
        -11    1    3    3    0    0 -0.46225646115E+02  0.68313826314E+02 -0.36153396096E+02  0.90059187614E+02  0.00000000000E+00 0. -1.
         11    1    3    3    0    0  0.24158799316E+02  0.82923562017E+02 -0.12809796301E+03  0.15449612568E+03  0.00000000000E+00 0.  1.
<mgrwt>
<rscale>  0 0.19324821E+03</rscale>
<asrwt>0</asrwt>
<pdfrwt beam="2">  1        1 0.84506545E-01 0.19744441E+03</pdfrwt>
<pdfrwt beam="1">  1       -1 0.10524698E-01 0.19744441E+03</pdfrwt>
<totfact> 0.22175166E+03</totfact>
</mgrwt>
</event>
<event>
 8    1  0.1224355E-005  0.1578393E+03  0.7546771E-02  0.1198866E+00
          4   -1    0    0  501    0  0.00000000000E+00  0.00000000000E+00  0.11040843936E+03  0.11040843936E+03  0.00000000000E+00 0. -1.
         -4   -1    0    0    0  501 -0.00000000000E+00 -0.00000000000E+00 -0.19230911698E+03  0.19230911698E+03  0.00000000000E+00 0.  1.
         23    2    1    2    0    0 -0.69388951057E+02  0.66880341513E+02 -0.44027575520E+02  0.14039806796E+03  0.92116141210E+02 0.  0.
         23    2    1    2    0    0  0.69388951057E+02 -0.66880341513E+02 -0.37873102094E+02  0.16231948838E+03  0.12500175133E+03 0.  0.
          5    1    4    4  502    0 -0.22370925892E+02 -0.44187408340E+02 -0.45437134009E+02  0.67376617072E+02  0.47000000000E+01 0.  1.
         -5    1    4    4    0  502  0.91759876949E+02 -0.22692933173E+02  0.75640319151E+01  0.94942871310E+02  0.47000000000E+01 0.  1.
        -11    1    3    3    0    0  0.12172429342E+02 -0.10489429673E+02  0.62575906291E+01  0.17243944196E+02  0.00000000000E+00 0.  1.
         11    1    3    3    0    0 -0.81561380399E+02  0.77369771185E+02 -0.50285166149E+02  0.12315412377E+03  0.00000000000E+00 0. -1.
<mgrwt>
<rscale>  0 0.15131502E+03</rscale>
<asrwt>0</asrwt>
<pdfrwt beam="1">  1        4 0.16985914E-01 0.15783930E+03</pdfrwt>
<pdfrwt beam="2">  1       -4 0.29586018E-01 0.15783930E+03</pdfrwt>
<totfact> 0.56353740E+02</totfact>
</mgrwt>
</event>
<event>
 8    1  0.1224355E-005  0.1278033E+03  0.7546771E-02  0.1244241E+00
          1   -1    0    0  501    0  0.00000000000E+00  0.00000000000E+00  0.79567591463E+03  0.79567591463E+03  0.00000000000E+00 0. -1.
         -1   -1    0    0    0  501 -0.00000000000E+00 -0.00000000000E+00 -0.16885113386E+02  0.16885113386E+02  0.00000000000E+00 0.  1.
         23    2    1    2    0    0  0.20466718838E+02  0.17008375064E+02  0.24145410593E+03  0.26023466782E+03  0.93347874425E+02 0.  0.
         23    2    1    2    0    0 -0.20466718838E+02 -0.17008375064E+02  0.53733669531E+03  0.55232636020E+03  0.12500205055E+03 0.  0.
          5    1    4    4  502    0 -0.33564932322E+02  0.10188876858E+02  0.37523112470E+02  0.51579956018E+02  0.47000000000E+01 0. -1.
         -5    1    4    4    0  502  0.13098213484E+02 -0.27197251921E+02  0.49981358284E+03  0.50074640418E+03  0.47000000000E+01 0. -1.
        -11    1    3    3    0    0  0.27715474469E+02 -0.23912933346E+02  0.19281583933E+03  0.19625983747E+03  0.00000000000E+00 0. -1.
         11    1    3    3    0    0 -0.72487556318E+01  0.40921308410E+02  0.48638266606E+02  0.63974830353E+02  0.00000000000E+00 0.  1.
<mgrwt>
<rscale>  0 0.11930934E+03</rscale>
<asrwt>0</asrwt>
<pdfrwt beam="1">  1        1 0.12241165E+00 0.12780330E+03</pdfrwt>
<pdfrwt beam="2">  1       -1 0.25977104E-02 0.12780330E+03</pdfrwt>
<totfact> 0.10365929E+04</totfact>
</mgrwt>
</event>
<event>
 8    1  0.1224355E-005  0.1112759E+03  0.7546771E-02  0.1267248E+00
         -1   -1    0    0    0  501 -0.00000000000E+00  0.00000000000E+00  0.12967302780E+03  0.12967302780E+03  0.00000000000E+00 0.  1.
          1   -1    0    0  501    0  0.00000000000E+00 -0.00000000000E+00 -0.11405495733E+03  0.11405495733E+03  0.00000000000E+00 0. -1.
         23    2    1    2    0    0  0.69847698875E+01 -0.35560466763E+01  0.73083308731E+02  0.11848988779E+03  0.92936811943E+02 0.  0.
         23    2    1    2    0    0 -0.69847698875E+01  0.35560466763E+01 -0.57465238255E+02  0.12523809735E+03  0.11099952676E+03 0.  0.
          5    1    4    4  502    0  0.76080569853E+01  0.42900433080E+02 -0.68751201361E+02  0.81530039728E+02  0.47000000000E+01 0. -1.
         -5    1    4    4    0  502 -0.14592826873E+02 -0.39344386404E+02  0.11285963106E+02  0.43708057620E+02  0.47000000000E+01 0.  1.
        -11    1    3    3    0    0  0.19707543009E+02 -0.45033084608E+02  0.31423427252E+02  0.58342075221E+02  0.00000000000E+00 0.  1.
         11    1    3    3    0    0 -0.12722773121E+02  0.41477037932E+02  0.41659881479E+02  0.60147812565E+02  0.00000000000E+00 0. -1.
<mgrwt>
<rscale>  0 0.10647130E+03</rscale>
<asrwt>0</asrwt>
<pdfrwt beam="2">  1        1 0.17546916E-01 0.11127591E+03</pdfrwt>
<pdfrwt beam="1">  1       -1 0.19949697E-01 0.11127591E+03</pdfrwt>
<totfact> 0.57566960E+03</totfact>
</mgrwt>
</event>
<event>
 8    1  0.1224355E-005  0.1790567E+03  0.7546771E-02  0.1174400E+00
          1   -1    0    0  501    0  0.00000000000E+00  0.00000000000E+00  0.96579049165E+02  0.96579049165E+02  0.00000000000E+00 0. -1.
         -1   -1    0    0    0  501 -0.00000000000E+00 -0.00000000000E+00 -0.29969931107E+03  0.29969931107E+03  0.00000000000E+00 0.  1.
         23    2    1    2    0    0  0.11325701238E+03 -0.60073907882E+02 -0.12504132606E+03  0.20093863413E+03  0.91131642149E+02 0.  0.
         23    2    1    2    0    0 -0.11325701238E+03  0.60073907882E+02 -0.78078935840E+02  0.19533972610E+03  0.12500105244E+03 0.  0.
          5    1    4    4  502    0 -0.10034610735E+03  0.81795637585E+02 -0.98314471599E+02  0.16262746666E+03  0.47000000000E+01 0.  1.
         -5    1    4    4    0  502 -0.12910905033E+02 -0.21721729702E+02  0.20235535760E+02  0.32712259438E+02  0.47000000000E+01 0.  1.
        -11    1    3    3    0    0  0.12384395832E+03 -0.60384798238E+02 -0.12983155901E+03  0.18931424560E+03  0.00000000000E+00 0.  1.
         11    1    3    3    0    0 -0.10586945939E+02  0.31089035610E+00  0.47902329459E+01  0.11624388535E+02  0.00000000000E+00 0. -1.
<mgrwt>
<rscale>  0 0.17334847E+03</rscale>
<asrwt>0</asrwt>
<pdfrwt beam="1">  1        1 0.14858315E-01 0.17905666E+03</pdfrwt>
<pdfrwt beam="2">  1       -1 0.46107587E-01 0.17905666E+03</pdfrwt>
<totfact> 0.17746849E+03</totfact>
</mgrwt>
</event>
<event>
 8    1  0.1224355E-005  0.2122053E+03  0.7546771E-02  0.1143429E+00
          2   -1    0    0  501    0  0.00000000000E+00  0.00000000000E+00  0.11116938424E+04  0.11116938424E+04  0.00000000000E+00 0. -1.
         -2   -1    0    0    0  501 -0.00000000000E+00 -0.00000000000E+00 -0.53707190078E+02  0.53707190078E+02  0.00000000000E+00 0.  1.
         23    2    1    2    0    0 -0.17689497267E+02 -0.17056912654E+03  0.19049556287E+03  0.27233223513E+03  0.92030112339E+02 0.  0.
         23    2    1    2    0    0  0.17689497267E+02  0.17056912654E+03  0.86749108947E+03  0.89306879737E+03  0.12499736505E+03 0.  0.
          5    1    4    4  502    0 -0.35242001305E+02  0.10253231531E+03  0.65128350383E+03  0.66026295269E+03  0.47000000000E+01 0. -1.
         -5    1    4    4    0  502  0.52931498572E+02  0.68036811229E+02  0.21620758565E+03  0.23280584467E+03  0.47000000000E+01 0. -1.
        -11    1    3    3    0    0  0.37815984816E+02 -0.77800920435E+02  0.83427256466E+02  0.12017961162E+03  0.00000000000E+00 0.  1.
         11    1    3    3    0    0 -0.55505482083E+02 -0.92768206106E+02  0.10706830640E+03  0.15215262351E+03  0.00000000000E+00 0. -1.
<mgrwt>
<rscale>  0 0.20766489E+03</rscale>
<asrwt>0</asrwt>
<pdfrwt beam="1">  1        2 0.17102980E+00 0.21220529E+03</pdfrwt>
<pdfrwt beam="2">  1       -2 0.82626455E-02 0.21220529E+03</pdfrwt>
<totfact> 0.20175914E+03</totfact>
</mgrwt>
</event>
<event>
 8    1  0.1224355E-005  0.1392827E+03  0.7546771E-02  0.1225042E+00
          2   -1    0    0  501    0  0.00000000000E+00  0.00000000000E+00  0.78762659914E+03  0.78762659914E+03  0.00000000000E+00 0.  1.
         -2   -1    0    0    0  501 -0.00000000000E+00 -0.00000000000E+00 -0.26851553335E+02  0.26851553335E+02  0.00000000000E+00 0. -1.
         23    2    1    2    0    0  0.56033970478E+02  0.25200820511E+02  0.14253623915E+03  0.18074407615E+03  0.92611848013E+02 0.  0.
         23    2    1    2    0    0 -0.56033970478E+02 -0.25200820511E+02  0.61823880666E+03  0.63373407632E+03  0.12499908092E+03 0.  0.
          5    1    4    4  502    0 -0.43126516674E+02 -0.23111595023E+02  0.61788292978E+03  0.61983501609E+03  0.47000000000E+01 0.  1.
         -5    1    4    4    0  502 -0.12907453804E+02 -0.20892254879E+01  0.35587687977E+00  0.13899060227E+02  0.47000000000E+01 0.  1.
        -11    1    3    3    0    0  0.70785246938E+02  0.45664029597E+02  0.12178999213E+03  0.14808293948E+03  0.00000000000E+00 0.  1.
         11    1    3    3    0    0 -0.14751276460E+02 -0.20463209086E+02  0.20746247021E+02  0.32661136673E+02  0.00000000000E+00 0. -1.
<mgrwt>
<rscale>  0 0.13164041E+03</rscale>
<asrwt>0</asrwt>
<pdfrwt beam="1">  1        2 0.12117331E+00 0.13928265E+03</pdfrwt>
<pdfrwt beam="2">  1       -2 0.41310088E-02 0.13928265E+03</pdfrwt>
<totfact> 0.91203192E+03</totfact>
</mgrwt>
</event>
<event>
 8    1  0.1224355E-005  0.1774535E+03  0.7546771E-02  0.1173910E+00
          1   -1    0    0  501    0  0.00000000000E+00  0.00000000000E+00  0.12654096120E+04  0.12654096120E+04  0.00000000000E+00 0. -1.
         -1   -1    0    0    0  501 -0.00000000000E+00 -0.00000000000E+00 -0.38573753988E+02  0.38573753988E+02  0.00000000000E+00 0.  1.
         23    2    1    2    0    0 -0.12812990764E+03 -0.48184442454E+02  0.18368748805E+03  0.24584903790E+03  0.89228036199E+02 0.  0.
         23    2    1    2    0    0  0.12812990764E+03  0.48184442454E+02  0.10431483700E+04  0.10581343281E+04  0.11291908959E+03 0.  0.
          5    1    4    4  502    0  0.73836101542E+02  0.83387355388E+02  0.60100164886E+03  0.61125305141E+03  0.47000000000E+01 0. -1.
         -5    1    4    4    0  502  0.54293806100E+02 -0.35202912934E+02  0.44214672114E+03  0.44688127671E+03  0.47000000000E+01 0.  1.
        -11    1    3    3    0    0 -0.99517149642E+02 -0.47475142935E+01  0.16048212134E+03  0.18889339119E+03  0.00000000000E+00 0.  1.
         11    1    3    3    0    0 -0.28612758001E+02 -0.43436928160E+02  0.23205366710E+02  0.56955646714E+02  0.00000000000E+00 0. -1.
<mgrwt>
<rscale>  0 0.17383156E+03</rscale>
<asrwt>0</asrwt>
<pdfrwt beam="1">  1        1 0.19467837E+00 0.17745347E+03</pdfrwt>
<pdfrwt beam="2">  1       -1 0.59344246E-02 0.17745347E+03</pdfrwt>
<totfact> 0.14037512E+03</totfact>
</mgrwt>
</event>
<event>
 8    1  0.1224355E-005  0.1685269E+03  0.7546771E-02  0.1185217E+00
         -2   -1    0    0    0  501 -0.00000000000E+00  0.00000000000E+00  0.92818672349E+02  0.92818672349E+02  0.00000000000E+00 0.  1.
          2   -1    0    0  501    0  0.00000000000E+00 -0.00000000000E+00 -0.32102644040E+03  0.32102644040E+03  0.00000000000E+00 0. -1.
         23    2    1    2    0    0  0.10579448376E+03  0.39780935598E+02 -0.25290262582E+02  0.15007092689E+03  0.95428979279E+02 0.  0.
         23    2    1    2    0    0 -0.10579448376E+03 -0.39780935598E+02 -0.20291750547E+03  0.26377418586E+03  0.12500524576E+03 0.  0.
          5    1    4    4  502    0 -0.68793131272E+02 -0.84899219645E+02 -0.14267937765E+03  0.17977727113E+03  0.47000000000E+01 0.  1.
         -5    1    4    4    0  502 -0.37001352486E+02  0.45118284047E+02 -0.60238127815E+02  0.83996914728E+02  0.47000000000E+01 0.  1.
        -11    1    3    3    0    0  0.77849014677E+02  0.24429876803E+01  0.24693741800E+02  0.81708127864E+02  0.00000000000E+00 0.  1.
         11    1    3    3    0    0  0.27945469082E+02  0.37337947918E+02 -0.49984004383E+02  0.68362799029E+02  0.00000000000E+00 0. -1.
<mgrwt>
<rscale>  0 0.16312179E+03</rscale>
<asrwt>0</asrwt>
<pdfrwt beam="2">  1        2 0.49388683E-01 0.16852687E+03</pdfrwt>
<pdfrwt beam="1">  1       -2 0.14279796E-01 0.16852687E+03</pdfrwt>
<totfact> 0.36801182E+03</totfact>
</mgrwt>
</event>
<event>
 7    1  0.1224355E-005  0.2955345E+03  0.7546771E-02  0.1089419E+00
         -1   -1    0    0    0  501 -0.00000000000E+00  0.00000000000E+00  0.29069515332E+03  0.29069515332E+03  0.00000000000E+00 0.  1.
          1   -1    0    0  501    0  0.00000000000E+00 -0.00000000000E+00 -0.99928519381E+03  0.99928519381E+03  0.00000000000E+00 0. -1.
         23    2    1    2    0    0 -0.26408265764E+03 -0.26084538223E+02  0.19328221489E+03  0.34092070980E+03  0.91917694577E+02 0.  0.
          5    1    1    2  502    0  0.23520991934E+03  0.59999805258E+02 -0.66370799089E+03  0.70672064492E+03  0.47000000000E+01 0. -1.
         -5    1    1    2    0  502  0.28872738306E+02 -0.33915267035E+02 -0.23816426450E+03  0.24233899240E+03  0.47000000000E+01 0.  1.
        -11    1    3    3    0    0 -0.14494962056E+03 -0.48989172220E+02  0.71017439938E+02  0.16868256659E+03  0.00000000000E+00 0.  1.
         11    1    3    3    0    0 -0.11913303708E+03  0.22904633997E+02  0.12226477495E+03  0.17223814321E+03  0.00000000000E+00 0. -1.
<mgrwt>
<rscale>  0 0.29178929E+03</rscale>
<asrwt>0</asrwt>
<pdfrwt beam="2">  1        1 0.15373619E+00 0.29553448E+03</pdfrwt>
<pdfrwt beam="1">  1       -1 0.44722330E-01 0.29553448E+03</pdfrwt>
<totfact> 0.81470109E+01</totfact>
</mgrwt>
</event>
<event>
 7    1  0.1224355E-005  0.1518890E+03  0.7546771E-02  0.1216987E+00
         -1   -1    0    0    0  501 -0.00000000000E+00  0.00000000000E+00  0.30146592051E+03  0.30146592051E+03  0.00000000000E+00 0.  1.
          1   -1    0    0  501    0  0.00000000000E+00 -0.00000000000E+00 -0.16001654395E+03  0.16001654395E+03  0.00000000000E+00 0. -1.
         23    2    1    2    0    0 -0.31943499011E+01  0.43168344386E+02  0.25329241772E+03  0.27285815896E+03  0.91765005361E+02 0.  0.
          5    1    1    2  502    0  0.21330585280E+02 -0.80299920548E+02 -0.12020665409E+03  0.14620123391E+03  0.47000000000E+01 0. -1.
         -5    1    1    2    0  502 -0.18136235379E+02  0.37131576162E+02  0.83636129366E+01  0.42423071593E+02  0.47000000000E+01 0.  1.
        -11    1    3    3    0    0 -0.30161795501E+02  0.23641608434E+00  0.25516257958E+02  0.39507837458E+02  0.00000000000E+00 0.  1.
         11    1    3    3    0    0  0.26967445600E+02  0.42931928301E+02  0.22777615976E+03  0.23335032150E+03  0.00000000000E+00 0. -1.
<mgrwt>
<rscale>  0 0.13731580E+03</rscale>
<asrwt>0</asrwt>
<pdfrwt beam="2">  1        1 0.24617930E-01 0.15188898E+03</pdfrwt>
<pdfrwt beam="1">  1       -1 0.46379372E-01 0.15188898E+03</pdfrwt>
<totfact> 0.91537359E+02</totfact>
</mgrwt>
</event>
<event>
 8    1  0.1224355E-005  0.1742292E+03  0.7546771E-02  0.1179454E+00
          2   -1    0    0  501    0  0.00000000000E+00  0.00000000000E+00  0.32612317634E+02  0.32612317634E+02  0.00000000000E+00 0. -1.
         -2   -1    0    0    0  501 -0.00000000000E+00 -0.00000000000E+00 -0.85157777448E+03  0.85157777448E+03  0.00000000000E+00 0.  1.
         23    2    1    2    0    0 -0.97910754951E+02  0.71756307041E+02 -0.47151163139E+03  0.49549999685E+03  0.91986655566E+02 0.  0.
         23    2    1    2    0    0  0.97910754951E+02 -0.71756307041E+02 -0.34745382546E+03  0.38869009527E+03  0.12498138182E+03 0.  0.
          5    1    4    4  502    0  0.35731060257E+01 -0.35148618550E+02 -0.10974053559E+02  0.37292255552E+02  0.47000000000E+01 0. -1.
         -5    1    4    4    0  502  0.94337648926E+02 -0.36607688491E+02 -0.33647977190E+03  0.35139783972E+03  0.47000000000E+01 0. -1.
        -11    1    3    3    0    0 -0.85784537233E+02  0.82879357010E+02 -0.46050678748E+03  0.47570418955E+03  0.00000000000E+00 0.  1.
         11    1    3    3    0    0 -0.12126217719E+02 -0.11123049969E+02 -0.11004843913E+02  0.19795807292E+02  0.00000000000E+00 0. -1.
<mgrwt>
<rscale>  0 0.16846894E+03</rscale>
<asrwt>0</asrwt>
<pdfrwt beam="1">  1        2 0.50172797E-02 0.17422924E+03</pdfrwt>
<pdfrwt beam="2">  1       -2 0.13101196E+00 0.17422924E+03</pdfrwt>
<totfact> 0.68946840E+02</totfact>
</mgrwt>
</event>
<event>
 7    1  0.1224355E-005  0.3309918E+03  0.7546771E-02  0.1070699E+00
         -2   -1    0    0    0  501 -0.00000000000E+00  0.00000000000E+00  0.22298712911E+02  0.22298712911E+02  0.00000000000E+00 0.  1.
          2   -1    0    0  501    0  0.00000000000E+00 -0.00000000000E+00 -0.12282726642E+04  0.12282726642E+04  0.00000000000E+00 0. -1.
         23    2    1    2    0    0 -0.10543662536E+03 -0.21285915075E+02 -0.41106048640E+03  0.43207400292E+03  0.78404389995E+02 0.  0.
          5    1    1    2  502    0  0.11293038055E+03  0.67230781937E+02 -0.70476238166E+03  0.71692771846E+03  0.47000000000E+01 0. -1.
         -5    1    1    2    0  502 -0.74937551872E+01 -0.45944866863E+02 -0.90151083195E+02  0.10156965570E+03  0.47000000000E+01 0.  1.
        -11    1    3    3    0    0 -0.74956873061E+02 -0.10324546409E+02 -0.37907307925E+03  0.38655080972E+03  0.00000000000E+00 0.  1.
         11    1    3    3    0    0 -0.30479752299E+02 -0.10961368666E+02 -0.31987407142E+02  0.45523193198E+02  0.00000000000E+00 0. -1.
<mgrwt>
<rscale>  0 0.33099184E+03</rscale>
<asrwt>0</asrwt>
<pdfrwt beam="2">  1        2 0.18896498E+00 0.33099184E+03</pdfrwt>
<pdfrwt beam="1">  1       -2 0.34305721E-02 0.33099184E+03</pdfrwt>
<totfact> 0.66918807E+03</totfact>
</mgrwt>
</event>
<event>
 7    1  0.1224355E-005  0.2124627E+03  0.7546771E-02  0.1161036E+00
         -4   -1    0    0    0  501 -0.00000000000E+00  0.00000000000E+00  0.20088369424E+03  0.20088369424E+03  0.00000000000E+00 0.  1.
          4   -1    0    0  501    0  0.00000000000E+00 -0.00000000000E+00 -0.15470536966E+03  0.15470536966E+03  0.00000000000E+00 0. -1.
         23    2    1    2    0    0 -0.68005843989E+02  0.45143727221E+02  0.62650755460E+02  0.14248877367E+03  0.98565625545E+02 0.  0.
          5    1    1    2  502    0  0.68469657003E+02 -0.52816390133E+02 -0.98169231435E+02  0.13090818537E+03  0.47000000000E+01 0. -1.
         -5    1    1    2    0  502 -0.46381301455E+00  0.76726629119E+01  0.81696800561E+02  0.82192104855E+02  0.47000000000E+01 0.  1.
        -11    1    3    3    0    0 -0.77655413443E+02  0.67304125462E+02  0.57570840471E+02  0.11779053533E+03  0.00000000000E+00 0.  1.
         11    1    3    3    0    0  0.96495694545E+01 -0.22160398241E+02  0.50799149891E+01  0.24698238341E+02  0.00000000000E+00 0. -1.
<mgrwt>
<rscale>  0 0.18717351E+03</rscale>
<asrwt>0</asrwt>
<pdfrwt beam="2">  1        4 0.23800826E-01 0.21246269E+03</pdfrwt>
<pdfrwt beam="1">  1       -4 0.30905184E-01 0.21246269E+03</pdfrwt>
<totfact> 0.29592471E+02</totfact>
</mgrwt>
</event>
<event>
 8    1  0.1224355E-005  0.1427324E+03  0.7546771E-02  0.1224722E+00
          2   -1    0    0  501    0  0.00000000000E+00  0.00000000000E+00  0.38549127122E+03  0.38549127122E+03  0.00000000000E+00 0. -1.
         -2   -1    0    0    0  501 -0.00000000000E+00 -0.00000000000E+00 -0.39719377727E+02  0.39719377727E+02  0.00000000000E+00 0.  1.
         23    2    1    2    0    0 -0.64058715450E+02 -0.25359125121E+02  0.12919810758E+03  0.16583306688E+03  0.77857888596E+02 0.  0.
         23    2    1    2    0    0  0.64058715450E+02  0.25359125121E+02  0.21657378591E+03  0.25937758207E+03  0.12500368427E+03 0.  0.
          5    1    4    4  502    0  0.16734243039E+02  0.39173857981E+02  0.20376722375E+03  0.20822535272E+03  0.47000000000E+01 0. -1.
         -5    1    4    4    0  502  0.47324472410E+02 -0.13814732860E+02  0.12806562161E+02  0.51152229348E+02  0.47000000000E+01 0. -1.
        -11    1    3    3    0    0 -0.32041766752E+02  0.15755201369E+02  0.12162153589E+02  0.37720275273E+02  0.00000000000E+00 0.  1.
         11    1    3    3    0    0 -0.32016948698E+02 -0.41114326490E+02  0.11703595399E+03  0.12811279160E+03  0.00000000000E+00 0. -1.
<mgrwt>
<rscale>  0 0.13185976E+03</rscale>
<asrwt>0</asrwt>
<pdfrwt beam="1">  1        2 0.59306347E-01 0.14273236E+03</pdfrwt>
<pdfrwt beam="2">  1       -2 0.61106738E-02 0.14273236E+03</pdfrwt>
<totfact> 0.11367795E+04</totfact>
</mgrwt>
</event>
<event>
 8    1  0.1224355E-005  0.1500048E+03  0.7546771E-02  0.1210427E+00
         -1   -1    0    0    0  501 -0.00000000000E+00  0.00000000000E+00  0.97886028853E+02  0.97886028853E+02  0.00000000000E+00 0.  1.
          1   -1    0    0  501    0  0.00000000000E+00 -0.00000000000E+00 -0.21276139068E+03  0.21276139068E+03  0.00000000000E+00 0. -1.
         23    2    1    2    0    0 -0.72074662777E+02 -0.41041293647E+02  0.10470061166E+01  0.12107039961E+03  0.88191839991E+02 0.  0.
         23    2    1    2    0    0  0.72074662777E+02  0.41041293647E+02 -0.11592236795E+03  0.18957701993E+03  0.12498922472E+03 0.  0.
          5    1    4    4  502    0 -0.32865360100E+02  0.11465696242E+02 -0.53074517018E+02  0.63644233372E+02  0.47000000000E+01 0.  1.
         -5    1    4    4    0  502  0.10494002288E+03  0.29575597405E+02 -0.62847850931E+02  0.12593278656E+03  0.47000000000E+01 0.  1.
        -11    1    3    3    0    0  0.16887687643E+02 -0.22382955022E+02  0.99159429944E+01  0.29740823709E+02  0.00000000000E+00 0.  1.
         11    1    3    3    0    0 -0.88962350421E+02 -0.18658338625E+02 -0.88689368778E+01  0.91329575899E+02  0.00000000000E+00 0. -1.
<mgrwt>
<rscale>  0 0.14217865E+03</rscale>
<asrwt>0</asrwt>
<pdfrwt beam="2">  1        1 0.32732522E-01 0.15000484E+03</pdfrwt>
<pdfrwt beam="1">  1       -1 0.15059389E-01 0.15000484E+03</pdfrwt>
<totfact> 0.41810344E+03</totfact>
</mgrwt>
</event>
<event>
 7    1  0.1224355E-005  0.3196880E+03  0.7546771E-02  0.1113031E+00
          1   -1    0    0  501    0  0.00000000000E+00  0.00000000000E+00  0.36778445274E+03  0.36778445274E+03  0.00000000000E+00 0. -1.
         -1   -1    0    0    0  501 -0.00000000000E+00 -0.00000000000E+00 -0.39779347258E+03  0.39779347258E+03  0.00000000000E+00 0.  1.
         23    2    1    2    0    0 -0.52082719512E+02  0.49455207900E+02 -0.31504991466E+03  0.33726879748E+03  0.96619696570E+02 0.  0.
          5    1    1    2  502    0  0.16233376939E+03  0.48497308565E+02  0.17964911750E+03  0.24698205814E+03  0.47000000000E+01 0. -1.
         -5    1    1    2    0  502 -0.11025104988E+03 -0.97952516465E+02  0.10539177732E+03  0.18132706971E+03  0.47000000000E+01 0.  1.
        -11    1    3    3    0    0 -0.67741172452E+02 -0.58924287144E+00 -0.18738132643E+03  0.19925103550E+03  0.00000000000E+00 0.  1.
         11    1    3    3    0    0  0.15658452941E+02  0.50044450771E+02 -0.12766858823E+03  0.13801776198E+03  0.00000000000E+00 0. -1.
<mgrwt>
<rscale>  0 0.25043353E+03</rscale>
<asrwt>0</asrwt>
<pdfrwt beam="1">  1        1 0.56582224E-01 0.31968797E+03</pdfrwt>
<pdfrwt beam="2">  1       -1 0.61198996E-01 0.31968797E+03</pdfrwt>
<totfact> 0.18959579E+02</totfact>
</mgrwt>
</event>
<event>
 8    1  0.1224355E-005  0.1424157E+03  0.7546771E-02  0.1221173E+00
         -2   -1    0    0    0  501 -0.00000000000E+00  0.00000000000E+00  0.55007006633E+02  0.55007006633E+02  0.00000000000E+00 0.  1.
          2   -1    0    0  501    0  0.00000000000E+00 -0.00000000000E+00 -0.29585355441E+03  0.29585355441E+03  0.00000000000E+00 0. -1.
         23    2    1    2    0    0  0.66193096220E+02  0.16626779286E+02 -0.10484388764E+03  0.15393683758E+03  0.89701356804E+02 0.  0.
         23    2    1    2    0    0 -0.66193096220E+02 -0.16626779286E+02 -0.13600266015E+03  0.19692372347E+03  0.12499701405E+03 0.  0.
          5    1    4    4  502    0 -0.80040870286E+02 -0.57079932229E+02 -0.83656726879E+02  0.12917119467E+03  0.47000000000E+01 0.  1.
         -5    1    4    4    0  502  0.13847774066E+02  0.40453152944E+02 -0.52345933267E+02  0.67752528803E+02  0.47000000000E+01 0.  1.
        -11    1    3    3    0    0  0.65672778312E+02 -0.13127051221E+01 -0.11563957533E+03  0.13299303887E+03  0.00000000000E+00 0. -1.
         11    1    3    3    0    0  0.52031790848E+00  0.17939484408E+02  0.10795687693E+02  0.20943798708E+02  0.00000000000E+00 0.  1.
<mgrwt>
<rscale>  0 0.13432668E+03</rscale>
<asrwt>0</asrwt>
<pdfrwt beam="2">  1        2 0.45515932E-01 0.14241569E+03</pdfrwt>
<pdfrwt beam="1">  1       -2 0.84626163E-02 0.14241569E+03</pdfrwt>
<totfact> 0.91349503E+03</totfact>
</mgrwt>
</event>
<event>
 7    1  0.1224355E-005  0.4605492E+03  0.7546771E-02  0.1024622E+00
         -1   -1    0    0    0  501 -0.00000000000E+00  0.00000000000E+00  0.27051220507E+03  0.27051220507E+03  0.00000000000E+00 0.  1.
          1   -1    0    0  501    0  0.00000000000E+00 -0.00000000000E+00 -0.19602219036E+03  0.19602219036E+03  0.00000000000E+00 0. -1.
         23    2    1    2    0    0  0.16181883058E+02 -0.52613552311E+02  0.20223429253E+03  0.22851570229E+03  0.91053159697E+02 0.  0.
          5    1    1    2  502    0 -0.26693157178E+01  0.40531775949E+02 -0.17891556165E+03  0.18352879422E+03  0.47000000000E+01 0. -1.
         -5    1    1    2    0  502 -0.13512567340E+02  0.12081776362E+02  0.51171283829E+02  0.54489898925E+02  0.47000000000E+01 0.  1.
        -11    1    3    3    0    0 -0.15981790590E+01  0.24863601626E+02  0.31327532149E+02  0.40027079992E+02  0.00000000000E+00 0. -1.
         11    1    3    3    0    0  0.17780062117E+02 -0.77477153937E+02  0.17090676038E+03  0.18848862229E+03  0.00000000000E+00 0.  1.
<mgrwt>
<rscale>  0 0.46054922E+03</rscale>
<asrwt>0</asrwt>
<pdfrwt beam="2">  1        1 0.30157260E-01 0.46054922E+03</pdfrwt>
<pdfrwt beam="1">  1       -1 0.41617262E-01 0.46054922E+03</pdfrwt>
<totfact> 0.86814889E+02</totfact>
</mgrwt>
</event>
<event>
 8    1  0.1224355E-005  0.1974983E+03  0.7546771E-02  0.1156365E+00
         -4   -1    0    0    0  501 -0.00000000000E+00  0.00000000000E+00  0.77660238268E+02  0.77660238268E+02  0.00000000000E+00 0. -1.
          4   -1    0    0  501    0  0.00000000000E+00 -0.00000000000E+00 -0.54960419443E+03  0.54960419443E+03  0.00000000000E+00 0.  1.
         23    2    1    2    0    0 -0.29527947114E+02  0.15003034331E+03 -0.94419054851E+02  0.20120029827E+03  0.90474297612E+02 0.  0.
         23    2    1    2    0    0  0.29527947114E+02 -0.15003034331E+03 -0.37752490131E+03  0.42606413443E+03  0.12499836785E+03 0.  0.
          5    1    4    4  502    0  0.33669466550E+02 -0.42934524189E+02 -0.26498286217E+03  0.27058272966E+03  0.47000000000E+01 0.  1.
         -5    1    4    4    0  502 -0.41415194357E+01 -0.10709581912E+03 -0.11254203914E+03  0.15548140477E+03  0.47000000000E+01 0.  1.
        -11    1    3    3    0    0  0.59844727350E+01  0.11946948848E+03 -0.97393790361E+02  0.15425408582E+03  0.00000000000E+00 0.  1.
         11    1    3    3    0    0 -0.35512419849E+02  0.30560854835E+02  0.29747355107E+01  0.46946212448E+02  0.00000000000E+00 0. -1.
<mgrwt>
<rscale>  0 0.19234286E+03</rscale>
<asrwt>0</asrwt>
<pdfrwt beam="2">  1        4 0.84554491E-01 0.19749834E+03</pdfrwt>
<pdfrwt beam="1">  1       -4 0.11947729E-01 0.19749834E+03</pdfrwt>
<totfact> 0.12473532E+02</totfact>
</mgrwt>
</event>
<event>
 8    1  0.1323138E-005  0.2035881E+03  0.7546771E-02  0.1150608E+00
         -2   -1    0    0    0  501 -0.00000000000E+00  0.00000000000E+00  0.16981154148E+03  0.16981154148E+03  0.00000000000E+00 0.  1.
          2   -1    0    0  501    0  0.00000000000E+00 -0.00000000000E+00 -0.22316713742E+03  0.22316713742E+03  0.00000000000E+00 0. -1.
         23    2    1    2    0    0 -0.15842526923E+03 -0.26912026406E+02 -0.26503548479E+02  0.18762735899E+03  0.93159887626E+02 0.  0.
         23    2    1    2    0    0  0.15842526923E+03  0.26912026406E+02 -0.26852047461E+02  0.20535131992E+03  0.12500123617E+03 0.  0.
          5    1    4    4  502    0  0.64271697967E+02 -0.14413273758E+02 -0.67735815316E+02  0.94598225652E+02  0.47000000000E+01 0. -1.
         -5    1    4    4    0  502  0.94153571265E+02  0.41325300164E+02  0.40883767854E+02  0.11075309427E+03  0.47000000000E+01 0. -1.
        -11    1    3    3    0    0 -0.63244424405E+01 -0.31838242307E+02  0.30513566484E+01  0.32603420415E+02  0.00000000000E+00 0.  1.
         11    1    3    3    0    0 -0.15210082679E+03  0.49262159004E+01 -0.29554905127E+02  0.15502393857E+03  0.00000000000E+00 0. -1.
<mgrwt>
<rscale>  0 0.19897305E+03</rscale>
<asrwt>0</asrwt>
<pdfrwt beam="2">  1        2 0.34333406E-01 0.20358814E+03</pdfrwt>
<pdfrwt beam="1">  1       -2 0.26124853E-01 0.20358814E+03</pdfrwt>
<totfact> 0.19634321E+03</totfact>
</mgrwt>
</event>
<event>
 8    1  0.1224355E-005  0.1414302E+03  0.7546771E-02  0.1221762E+00
         -2   -1    0    0    0  501 -0.00000000000E+00  0.00000000000E+00  0.28548640500E+02  0.28548640500E+02  0.00000000000E+00 0. -1.
          2   -1    0    0  501    0  0.00000000000E+00 -0.00000000000E+00 -0.57353066375E+03  0.57353066375E+03  0.00000000000E+00 0.  1.
         23    2    1    2    0    0  0.35779923844E+02 -0.55652868040E+02 -0.21920155331E+03  0.24692381805E+03  0.92437039520E+02 0.  0.
         23    2    1    2    0    0 -0.35779923844E+02  0.55652868040E+02 -0.32578046994E+03  0.35515548620E+03  0.12500024045E+03 0.  0.
          5    1    4    4  502    0 -0.57392460587E+02  0.17321368567E+02 -0.29544288058E+03  0.30150043123E+03  0.47000000000E+01 0. -1.
         -5    1    4    4    0  502  0.21612536743E+02  0.38331499473E+02 -0.30337589353E+02  0.53655054972E+02  0.47000000000E+01 0. -1.
        -11    1    3    3    0    0 -0.28471132787E+02 -0.33449640124E+02 -0.10798168935E+03  0.11657413548E+03  0.00000000000E+00 0.  1.
         11    1    3    3    0    0  0.64251056631E+02 -0.22203227916E+02 -0.11121986396E+03  0.13034968257E+03  0.00000000000E+00 0. -1.
<mgrwt>
<rscale>  0 0.13391310E+03</rscale>
<asrwt>0</asrwt>
<pdfrwt beam="2">  1        2 0.88235479E-01 0.14143021E+03</pdfrwt>
<pdfrwt beam="1">  1       -2 0.43920989E-02 0.14143021E+03</pdfrwt>
<totfact> 0.12103277E+04</totfact>
</mgrwt>
</event>
<event>
 8    1  0.1224355E-005  0.1760953E+03  0.7546771E-02  0.1177322E+00
          2   -1    0    0  501    0  0.00000000000E+00  0.00000000000E+00  0.15645634580E+04  0.15645634580E+04  0.00000000000E+00 0. -1.
         -2   -1    0    0    0  501 -0.00000000000E+00 -0.00000000000E+00 -0.19808459829E+02  0.19808459829E+02  0.00000000000E+00 0.  1.
         23    2    1    2    0    0 -0.12403251470E+03  0.88800714105E+00  0.45810270392E+03  0.48354370172E+03  0.92582778523E+02 0.  0.
         23    2    1    2    0    0  0.12403251470E+03 -0.88800714105E+00  0.10866522943E+04  0.11008282161E+04  0.12499879803E+03 0.  0.
          5    1    4    4  502    0  0.78205812266E+02  0.15869430433E+02  0.98217263958E+03  0.98542030212E+03  0.47000000000E+01 0. -1.
         -5    1    4    4    0  502  0.45826702437E+02 -0.16757437575E+02  0.10447965471E+03  0.11540791402E+03  0.47000000000E+01 0. -1.
        -11    1    3    3    0    0 -0.30298210502E+02 -0.82029829455E+01  0.24462980272E+02  0.39795827578E+02  0.00000000000E+00 0.  1.
         11    1    3    3    0    0 -0.93734304201E+02  0.90909900866E+01  0.43363972365E+03  0.44374787415E+03  0.00000000000E+00 0. -1.
<mgrwt>
<rscale>  0 0.17050557E+03</rscale>
<asrwt>0</asrwt>
<pdfrwt beam="1">  1        2 0.24070197E+00 0.17609529E+03</pdfrwt>
<pdfrwt beam="2">  1       -2 0.30474566E-02 0.17609529E+03</pdfrwt>
<totfact> 0.51735558E+03</totfact>
</mgrwt>
</event>
<event>
 8    1  0.1224355E-005  0.1527105E+03  0.7546771E-02  0.1205883E+00
         -2   -1    0    0    0  501 -0.00000000000E+00  0.00000000000E+00  0.43031287634E+02  0.43031287634E+02  0.00000000000E+00 0.  1.
          2   -1    0    0  501    0  0.00000000000E+00 -0.00000000000E+00 -0.47832174964E+03  0.47832174964E+03  0.00000000000E+00 0. -1.
         23    2    1    2    0    0  0.68389102734E+02 -0.54943655284E+02 -0.13836395378E+03  0.18745807307E+03  0.91104724497E+02 0.  0.
         23    2    1    2    0    0 -0.68389102734E+02  0.54943655284E+02 -0.29692650823E+03  0.33389496420E+03  0.12499848480E+03 0.  0.
          5    1    4    4  502    0 -0.61359951326E+02  0.86042726616E+02 -0.27571692130E+03  0.29531390946E+03  0.47000000000E+01 0. -1.
         -5    1    4    4    0  502 -0.70291514086E+01 -0.31099071331E+02 -0.21209586925E+02  0.38581054738E+02  0.47000000000E+01 0. -1.
        -11    1    3    3    0    0  0.22782484917E+02  0.17391454525E+02 -0.77127381964E+02  0.82280844418E+02  0.00000000000E+00 0. -1.
         11    1    3    3    0    0  0.45606617817E+02 -0.72335109809E+02 -0.61236571817E+02  0.10517722866E+03  0.00000000000E+00 0.  1.
<mgrwt>
<rscale>  0 0.14568100E+03</rscale>
<asrwt>0</asrwt>
<pdfrwt beam="2">  1        2 0.73587963E-01 0.15271050E+03</pdfrwt>
<pdfrwt beam="1">  1       -2 0.66201979E-02 0.15271050E+03</pdfrwt>
<totfact> 0.80062774E+03</totfact>
</mgrwt>
</event>
<event>
 8    1  0.1224355E-005  0.1494809E+03  0.7546771E-02  0.1210079E+00
          2   -1    0    0  501    0  0.00000000000E+00  0.00000000000E+00  0.92290971475E+02  0.92290971475E+02  0.00000000000E+00 0. -1.
         -2   -1    0    0    0  501 -0.00000000000E+00 -0.00000000000E+00 -0.22603142235E+03  0.22603142235E+03  0.00000000000E+00 0.  1.
         23    2    1    2    0    0 -0.57074225484E+02 -0.58842836326E+02 -0.11335969146E+03  0.16745849108E+03  0.92043359267E+02 0.  0.
         23    2    1    2    0    0  0.57074225484E+02  0.58842836326E+02 -0.20380759412E+02  0.15086390274E+03  0.12499838077E+03 0.  0.
          5    1    4    4  502    0  0.50039398378E+02  0.39909744168E+02  0.47527163992E+02  0.79860192754E+02  0.47000000000E+01 0. -1.
         -5    1    4    4    0  502  0.70348271063E+01  0.18933092158E+02 -0.67907923404E+02  0.71003709989E+02  0.47000000000E+01 0. -1.
        -11    1    3    3    0    0 -0.14034877370E+02 -0.37112937398E+02 -0.11244042911E+03  0.11923589226E+03  0.00000000000E+00 0.  1.
         11    1    3    3    0    0 -0.43039348115E+02 -0.21729898929E+02 -0.91926235283E+00  0.48222598819E+02  0.00000000000E+00 0. -1.
<mgrwt>
<rscale>  0 0.14244293E+03</rscale>
<asrwt>0</asrwt>
<pdfrwt beam="1">  1        2 0.14198611E-01 0.14948091E+03</pdfrwt>
<pdfrwt beam="2">  1       -2 0.34774065E-01 0.14948091E+03</pdfrwt>
<totfact> 0.31277987E+03</totfact>
</mgrwt>
</event>
<event>
 8    1  0.1224355E-005  0.1564653E+03  0.7546771E-02  0.1201128E+00
         -3   -1    0    0    0  501 -0.00000000000E+00  0.00000000000E+00  0.31755195550E+03  0.31755195550E+03  0.00000000000E+00 0.  1.
          3   -1    0    0  501    0  0.00000000000E+00 -0.00000000000E+00 -0.83917540600E+02  0.83917540600E+02  0.00000000000E+00 0. -1.
         23    2    1    2    0    0  0.44973762603E+02 -0.82667152402E+02  0.20424421791E+03  0.24226781163E+03  0.90119335278E+02 0.  0.
         23    2    1    2    0    0 -0.44973762603E+02  0.82667152402E+02  0.29390196987E+02  0.15920168447E+03  0.12499958100E+03 0.  0.
          5    1    4    4  502    0 -0.59072719108E+02  0.10999757690E+03  0.18871535211E+02  0.12636169478E+03  0.47000000000E+01 0.  1.
         -5    1    4    4    0  502  0.14098956505E+02 -0.27330424495E+02  0.10518661776E+02  0.32839989694E+02  0.47000000000E+01 0.  1.
        -11    1    3    3    0    0  0.29810553398E+02 -0.11482781540E+02  0.79570272277E+01  0.32921689630E+02  0.00000000000E+00 0. -1.
         11    1    3    3    0    0  0.15163209206E+02 -0.71184370862E+02  0.19628719069E+03  0.20934612200E+03  0.00000000000E+00 0.  1.
<mgrwt>
<rscale>  0 0.14946838E+03</rscale>
<asrwt>0</asrwt>
<pdfrwt beam="2">  1        3 0.12910391E-01 0.15646531E+03</pdfrwt>
<pdfrwt beam="1">  1       -3 0.48854146E-01 0.15646531E+03</pdfrwt>
<totfact> 0.47543374E+02</totfact>
</mgrwt>
</event>
<event>
 8    1  0.1224355E-005  0.1363983E+03  0.7546771E-02  0.1230412E+00
         -2   -1    0    0    0  501 -0.00000000000E+00  0.00000000000E+00  0.10312501354E+02  0.10312501354E+02  0.00000000000E+00 0.  1.
          2   -1    0    0  501    0  0.00000000000E+00 -0.00000000000E+00 -0.18435075549E+04  0.18435075549E+04  0.00000000000E+00 0. -1.
         23    2    1    2    0    0  0.53263559760E+02 -0.11911739923E+02 -0.38744228976E+03  0.40164735668E+03  0.90720311342E+02 0.  0.
         23    2    1    2    0    0 -0.53263559760E+02  0.11911739923E+02 -0.14457527638E+04  0.14521726996E+04  0.12500239611E+03 0.  0.
          5    1    4    4  502    0 -0.66258813287E+02  0.18159706575E+02 -0.37243757308E+03  0.37875036782E+03  0.47000000000E+01 0. -1.
         -5    1    4    4    0  502  0.12995253527E+02 -0.62479666524E+01 -0.10733151907E+04  0.10734223317E+04  0.47000000000E+01 0. -1.
        -11    1    3    3    0    0  0.11035057913E+02  0.37431525978E+02 -0.18388922535E+03  0.18798441116E+03  0.00000000000E+00 0. -1.
         11    1    3    3    0    0  0.42228501848E+02 -0.49343265901E+02 -0.20355306441E+03  0.21366294552E+03  0.00000000000E+00 0.  1.
<mgrwt>
<rscale>  0 0.12802740E+03</rscale>
<asrwt>0</asrwt>
<pdfrwt beam="2">  1        2 0.28361634E+00 0.13639830E+03</pdfrwt>
<pdfrwt beam="1">  1       -2 0.15865398E-02 0.13639830E+03</pdfrwt>
<totfact> 0.95749571E+03</totfact>
</mgrwt>
</event>
<event>
 8    1  0.1224355E-005  0.1911920E+03  0.7546771E-02  0.1162669E+00
         -2   -1    0    0    0  501 -0.00000000000E+00  0.00000000000E+00  0.74606359659E+02  0.74606359659E+02  0.00000000000E+00 0.  1.
          2   -1    0    0  501    0  0.00000000000E+00 -0.00000000000E+00 -0.53774387673E+03  0.53774387673E+03  0.00000000000E+00 0. -1.
         23    2    1    2    0    0  0.11788945795E+03  0.83854991204E+02 -0.86413441420E+02  0.18988672500E+03  0.87522006535E+02 0.  0.
         23    2    1    2    0    0 -0.11788945795E+03 -0.83854991204E+02 -0.37672407565E+03  0.42246351140E+03  0.12499922175E+03 0.  0.
          5    1    4    4  502    0 -0.93175683411E+02 -0.10956192552E+03 -0.34750963189E+03  0.37612572069E+03  0.47000000000E+01 0. -1.
         -5    1    4    4    0  502 -0.24713774535E+02  0.25706934314E+02 -0.29214443761E+02  0.46337790710E+02  0.47000000000E+01 0. -1.
        -11    1    3    3    0    0  0.95306288223E+02  0.15780286872E+02 -0.40653036733E+02  0.10480923349E+03  0.00000000000E+00 0.  1.
         11    1    3    3    0    0  0.22583169723E+02  0.68074704332E+02 -0.45760404687E+02  0.85077491511E+02  0.00000000000E+00 0. -1.
<mgrwt>
<rscale>  0 0.18540801E+03</rscale>
<asrwt>0</asrwt>
<pdfrwt beam="2">  1        2 0.82729824E-01 0.19119202E+03</pdfrwt>
<pdfrwt beam="1">  1       -2 0.11477902E-01 0.19119202E+03</pdfrwt>
<totfact> 0.30041026E+03</totfact>
</mgrwt>
</event>
<event>
 8    1  0.1224355E-005  0.1574757E+03  0.7546771E-02  0.1200462E+00
         -2   -1    0    0    0  501 -0.00000000000E+00  0.00000000000E+00  0.15556016665E+02  0.15556016665E+02  0.00000000000E+00 0.  1.
          2   -1    0    0  501    0  0.00000000000E+00 -0.00000000000E+00 -0.18457719365E+04  0.18457719365E+04  0.00000000000E+00 0. -1.
         23    2    1    2    0    0  0.69545817632E+02  0.60752709567E+02 -0.35884231085E+03  0.38155131341E+03  0.91027953042E+02 0.  0.
         23    2    1    2    0    0 -0.69545817632E+02 -0.60752709567E+02 -0.14713736089E+04  0.14797766397E+04  0.12755819806E+03 0.  0.
          5    1    4    4  502    0 -0.27405622135E+02  0.21534541005E+02 -0.92109815247E+03  0.92176933181E+03  0.47000000000E+01 0. -1.
         -5    1    4    4    0  502 -0.42140195497E+02 -0.82287250572E+02 -0.55027545647E+03  0.55800730791E+03  0.47000000000E+01 0.  1.
        -11    1    3    3    0    0  0.55629419853E+02  0.46415612676E+01 -0.26889117429E+03  0.27462454380E+03  0.00000000000E+00 0.  1.
         11    1    3    3    0    0  0.13916397779E+02  0.56111148300E+02 -0.89951136565E+02  0.10692676961E+03  0.00000000000E+00 0. -1.
<mgrwt>
<rscale>  0 0.15000917E+03</rscale>
<asrwt>0</asrwt>
<pdfrwt beam="2">  1        2 0.28396471E+00 0.15747573E+03</pdfrwt>
<pdfrwt beam="1">  1       -2 0.23932350E-02 0.15747573E+03</pdfrwt>
<totfact> 0.52716319E+03</totfact>
</mgrwt>
</event>
<event>
 8    1  0.1224355E-005  0.1593598E+03  0.7546771E-02  0.1198125E+00
         -1   -1    0    0    0  501 -0.00000000000E+00  0.00000000000E+00  0.12814128315E+02  0.12814128315E+02  0.00000000000E+00 0.  1.
          1   -1    0    0  501    0  0.00000000000E+00 -0.00000000000E+00 -0.21467524139E+04  0.21467524139E+04  0.00000000000E+00 0. -1.
         23    2    1    2    0    0  0.43433386573E+02  0.88796965584E+02 -0.47228782491E+03  0.49029190534E+03  0.86942525329E+02 0.  0.
         23    2    1    2    0    0 -0.43433386573E+02 -0.88796965584E+02 -0.16616504606E+04  0.16692746368E+04  0.12499679879E+03 0.  0.
          5    1    4    4  502    0  0.17450591570E+02 -0.17384827091E+02 -0.62173607005E+02  0.67040307034E+02  0.47000000000E+01 0. -1.
         -5    1    4    4    0  502 -0.60883978143E+02 -0.71412138493E+02 -0.15994768536E+04  0.16022343298E+04  0.47000000000E+01 0. -1.
        -11    1    3    3    0    0 -0.15082406246E+02  0.13916883564E+02 -0.22002815272E+02  0.30087912958E+02  0.00000000000E+00 0.  1.
         11    1    3    3    0    0  0.58515792819E+02  0.74880082020E+02 -0.45028500964E+03  0.46020399238E+03  0.00000000000E+00 0. -1.
<mgrwt>
<rscale>  0 0.15192706E+03</rscale>
<asrwt>0</asrwt>
<pdfrwt beam="2">  1        1 0.33026973E+00 0.15935984E+03</pdfrwt>
<pdfrwt beam="1">  1       -1 0.19714036E-02 0.15935984E+03</pdfrwt>
<totfact> 0.19040097E+03</totfact>
</mgrwt>
</event>
<event>
 8    1  0.1224355E-005  0.1380765E+03  0.7546771E-02  0.1227156E+00
         -2   -1    0    0    0  501 -0.00000000000E+00  0.00000000000E+00  0.10973936532E+03  0.10973936532E+03  0.00000000000E+00 0. -1.
          2   -1    0    0  501    0  0.00000000000E+00 -0.00000000000E+00 -0.14710266260E+03  0.14710266260E+03  0.00000000000E+00 0.  1.
         23    2    1    2    0    0  0.41446052635E+02  0.41495221588E+02  0.12831562882E+02  0.10992492321E+03  0.92082631607E+02 0.  0.
         23    2    1    2    0    0 -0.41446052635E+02 -0.41495221588E+02 -0.50194860156E+02  0.14691710471E+03  0.12500193189E+03 0.  0.
          5    1    4    4  502    0 -0.74043217851E+02 -0.39245576001E+01 -0.60608022401E+02  0.95881294533E+02  0.47000000000E+01 0. -1.
         -5    1    4    4    0  502  0.32597165215E+02 -0.37570663988E+02  0.10413162245E+02  0.51035810178E+02  0.47000000000E+01 0. -1.
        -11    1    3    3    0    0  0.93968311486E+01 -0.25619838385E+02 -0.14234879232E+02  0.30778374572E+02  0.00000000000E+00 0.  1.
         11    1    3    3    0    0  0.32049221487E+02  0.67115059973E+02  0.27066442113E+02  0.79146548641E+02  0.00000000000E+00 0. -1.
<mgrwt>
<rscale>  0 0.13020240E+03</rscale>
<asrwt>0</asrwt>
<pdfrwt beam="2">  1        2 0.22631179E-01 0.13807647E+03</pdfrwt>
<pdfrwt beam="1">  1       -2 0.16882979E-01 0.13807647E+03</pdfrwt>
<totfact> 0.64291424E+03</totfact>
</mgrwt>
</event>
<event>
 8    1  0.1224355E-005  0.1443067E+03  0.7546771E-02  0.1217963E+00
         -2   -1    0    0    0  501 -0.00000000000E+00  0.00000000000E+00  0.18694928200E+03  0.18694928200E+03  0.00000000000E+00 0.  1.
          2   -1    0    0  501    0  0.00000000000E+00 -0.00000000000E+00 -0.10363158745E+03  0.10363158745E+03  0.00000000000E+00 0. -1.
         23    2    1    2    0    0  0.66489093967E+02 -0.27748487996E+02  0.89049223819E+02  0.14616037547E+03  0.90787184619E+02 0.  0.
         23    2    1    2    0    0 -0.66489093967E+02  0.27748487996E+02 -0.57315292679E+01  0.14442049399E+03  0.12503459703E+03 0.  0.
          5    1    4    4  502    0  0.20342933333E+02  0.28110380603E+02 -0.37993960877E+02  0.51668747782E+02  0.47000000000E+01 0.  1.
         -5    1    4    4    0  502 -0.86832027300E+02 -0.36189260751E+00  0.32262431609E+02  0.92751746208E+02  0.47000000000E+01 0.  1.
        -11    1    3    3    0    0  0.28525377097E+02 -0.35351235399E+02  0.96569196863E+02  0.10671933642E+03  0.00000000000E+00 0.  1.
         11    1    3    3    0    0  0.37963716870E+02  0.76027474031E+01 -0.75199730431E+01  0.39441039049E+02  0.00000000000E+00 0. -1.
<mgrwt>
<rscale>  0 0.13661139E+03</rscale>
<asrwt>0</asrwt>
<pdfrwt beam="2">  1        2 0.15943321E-01 0.14430672E+03</pdfrwt>
<pdfrwt beam="1">  1       -2 0.28761428E-01 0.14430672E+03</pdfrwt>
<totfact> 0.38474413E+03</totfact>
</mgrwt>
</event>
<event>
 8    1  0.1224355E-005  0.1413825E+03  0.7546771E-02  0.1223483E+00
          2   -1    0    0  501    0  0.00000000000E+00  0.00000000000E+00  0.70953087147E+03  0.70953087147E+03  0.00000000000E+00 0. -1.
         -2   -1    0    0    0  501 -0.00000000000E+00 -0.00000000000E+00 -0.22280568529E+02  0.22280568529E+02  0.00000000000E+00 0.  1.
         23    2    1    2    0    0 -0.49531859226E+02  0.43711253398E+02  0.28235469068E+03  0.30294146420E+03  0.87665732356E+02 0.  0.
         23    2    1    2    0    0  0.49531859226E+02 -0.43711253398E+02  0.40489561226E+03  0.42886997580E+03  0.12499968225E+03 0.  0.
          5    1    4    4  502    0 -0.12273638519E+02 -0.65054188110E+02  0.12642120037E+03  0.14278340063E+03  0.47000000000E+01 0. -1.
         -5    1    4    4    0  502  0.61805497745E+02  0.21342934712E+02  0.27847441189E+03  0.28608657516E+03  0.47000000000E+01 0. -1.
        -11    1    3    3    0    0  0.19022068318E+02 -0.10813920136E+02  0.65778418372E+02  0.69322292773E+02  0.00000000000E+00 0. -1.
         11    1    3    3    0    0 -0.68553927544E+02  0.54525173534E+02  0.21657627231E+03  0.23361917143E+03  0.00000000000E+00 0.  1.
<mgrwt>
<rscale>  0 0.13271412E+03</rscale>
<asrwt>0</asrwt>
<pdfrwt beam="1">  1        2 0.10915858E+00 0.14138246E+03</pdfrwt>
<pdfrwt beam="2">  1       -2 0.34277803E-02 0.14138246E+03</pdfrwt>
<totfact> 0.13669751E+04</totfact>
</mgrwt>
</event>
<event>
 8    1  0.1224355E-005  0.1523725E+03  0.7546771E-02  0.1205722E+00
          2   -1    0    0  501    0  0.00000000000E+00  0.00000000000E+00  0.43841667850E+03  0.43841667850E+03  0.00000000000E+00 0. -1.
         -2   -1    0    0    0  501 -0.00000000000E+00 -0.00000000000E+00 -0.46356734439E+02  0.46356734439E+02  0.00000000000E+00 0.  1.
         23    2    1    2    0    0  0.92564773875E+01 -0.86636526356E+02  0.13442388697E+03  0.18545132051E+03  0.93438968405E+02 0.  0.
         23    2    1    2    0    0 -0.92564773875E+01  0.86636526356E+02  0.25763605709E+03  0.29932209244E+03  0.12500322809E+03 0.  0.
          5    1    4    4  502    0  0.27547232997E+02  0.10650927874E+03  0.17996505782E+03  0.21098006669E+03  0.47000000000E+01 0.  1.
         -5    1    4    4    0  502 -0.36803710384E+02 -0.19872752382E+02  0.77670999272E+02  0.88342025747E+02  0.47000000000E+01 0.  1.
        -11    1    3    3    0    0  0.63136529787E+01 -0.42867691219E+02 -0.75084954414E+00  0.43336646610E+02  0.00000000000E+00 0.  1.
         11    1    3    3    0    0  0.29428244088E+01 -0.43768835137E+02  0.13517473651E+03  0.14211467390E+03  0.00000000000E+00 0. -1.
<mgrwt>
<rscale>  0 0.14580686E+03</rscale>
<asrwt>0</asrwt>
<pdfrwt beam="1">  1        2 0.67448717E-01 0.15237249E+03</pdfrwt>
<pdfrwt beam="2">  1       -2 0.71318056E-02 0.15237249E+03</pdfrwt>
<totfact> 0.78523770E+03</totfact>
</mgrwt>
</event>
<event>
 8    1  0.1224355E-005  0.1287518E+03  0.7546771E-02  0.1243281E+00
          1   -1    0    0  501    0  0.00000000000E+00  0.00000000000E+00  0.90617959988E+03  0.90617959988E+03  0.00000000000E+00 0. -1.
         -1   -1    0    0    0  501 -0.00000000000E+00 -0.00000000000E+00 -0.15758337158E+02  0.15758337158E+02  0.00000000000E+00 0.  1.
         23    2    1    2    0    0 -0.44856192720E+01 -0.30534933834E+02  0.23794200363E+03  0.25687687245E+03  0.91743269746E+02 0.  0.
         23    2    1    2    0    0  0.44856192720E+01  0.30534933834E+02  0.65247925909E+03  0.66506106459E+03  0.12499813247E+03 0.  0.
          5    1    4    4  502    0 -0.15539778987E+02 -0.43891577857E+02  0.33884052884E+03  0.34205693872E+03  0.47000000000E+01 0.  1.
         -5    1    4    4    0  502  0.20025398260E+02  0.74426511691E+02  0.31363873024E+03  0.32300412587E+03  0.47000000000E+01 0.  1.
        -11    1    3    3    0    0 -0.33555637339E+02 -0.46863576508E+02  0.10459690816E+03  0.11942649956E+03  0.00000000000E+00 0.  1.
         11    1    3    3    0    0  0.29070018067E+02  0.16328642673E+02  0.13334509547E+03  0.13745037289E+03  0.00000000000E+00 0. -1.
<mgrwt>
<rscale>  0 0.11988881E+03</rscale>
<asrwt>0</asrwt>
<pdfrwt beam="1">  1        1 0.13941221E+00 0.12875184E+03</pdfrwt>
<pdfrwt beam="2">  1       -1 0.24243603E-02 0.12875184E+03</pdfrwt>
<totfact> 0.93745867E+03</totfact>
</mgrwt>
</event>
<event>
 8    1  0.1224355E-005  0.2289466E+03  0.7546771E-02  0.1130135E+00
         -2   -1    0    0    0  501 -0.00000000000E+00  0.00000000000E+00  0.37100859895E+03  0.37100859895E+03  0.00000000000E+00 0.  1.
          2   -1    0    0  501    0  0.00000000000E+00 -0.00000000000E+00 -0.13400674540E+03  0.13400674540E+03  0.00000000000E+00 0. -1.
         23    2    1    2    0    0  0.32732086278E+02  0.18899353927E+03  0.14401160143E+03  0.25790461367E+03  0.94791882822E+02 0.  0.
         23    2    1    2    0    0 -0.32732086278E+02 -0.18899353927E+03  0.92990252119E+02  0.24711073068E+03  0.12500631533E+03 0.  0.
          5    1    4    4  502    0 -0.69707115800E+02 -0.13527163721E+03  0.27773812600E+02  0.15476101735E+03  0.47000000000E+01 0.  1.
         -5    1    4    4    0  502  0.36975029521E+02 -0.53721902061E+02  0.65216439518E+02  0.92349713332E+02  0.47000000000E+01 0.  1.
        -11    1    3    3    0    0  0.13566244787E+01  0.16836589419E+03  0.14207664880E+03  0.22030589845E+03  0.00000000000E+00 0.  1.
         11    1    3    3    0    0  0.31375461800E+02  0.20627645076E+02  0.19349526270E+01  0.37598715220E+02  0.00000000000E+00 0. -1.
<mgrwt>
<rscale>  0 0.22510216E+03</rscale>
<asrwt>0</asrwt>
<pdfrwt beam="2">  1        2 0.20616423E-01 0.22894656E+03</pdfrwt>
<pdfrwt beam="1">  1       -2 0.57078246E-01 0.22894656E+03</pdfrwt>
<totfact> 0.78493032E+02</totfact>
</mgrwt>
</event>
<event>
 8    1  0.1224355E-005  0.1294012E+03  0.7546771E-02  0.1234431E+00
          4   -1    0    0  501    0  0.00000000000E+00  0.00000000000E+00  0.13506401615E+03  0.13506401615E+03  0.00000000000E+00 0. -1.
         -4   -1    0    0    0  501 -0.00000000000E+00 -0.00000000000E+00 -0.11134160400E+03  0.11134160400E+03  0.00000000000E+00 0.  1.
         23    2    1    2    0    0  0.64703799078E+02  0.15731591803E+02  0.25591979444E+02  0.11699087286E+03  0.92724593964E+02 0.  0.
         23    2    1    2    0    0 -0.64703799078E+02 -0.15731591803E+02 -0.18695672966E+01  0.12941474728E+03  0.11095321959E+03 0.  0.
          5    1    4    4  502    0 -0.56769131530E+02  0.30190391276E+02  0.31648310303E+02  0.71818518260E+02  0.47000000000E+01 0. -1.
         -5    1    4    4    0  502 -0.79346675485E+01 -0.45921983079E+02 -0.33517877600E+02  0.57596229024E+02  0.47000000000E+01 0.  1.
        -11    1    3    3    0    0  0.25581318206E+02 -0.35636973259E+02  0.28571667105E+02  0.52352056936E+02  0.00000000000E+00 0.  1.
         11    1    3    3    0    0  0.39122480872E+02  0.51368565062E+02 -0.29796876613E+01  0.64638815928E+02  0.00000000000E+00 0. -1.
<mgrwt>
<rscale>  0 0.12540933E+03</rscale>
<asrwt>0</asrwt>
<pdfrwt beam="1">  1        4 0.20779079E-01 0.12940124E+03</pdfrwt>
<pdfrwt beam="2">  1       -4 0.17129478E-01 0.12940124E+03</pdfrwt>
<totfact> 0.10248707E+03</totfact>
</mgrwt>
</event>
<event>
 8    1  0.1224355E-005  0.1395367E+03  0.7546771E-02  0.1224019E+00
         -2   -1    0    0    0  501 -0.00000000000E+00  0.00000000000E+00  0.22739744919E+02  0.22739744919E+02  0.00000000000E+00 0. -1.
          2   -1    0    0  501    0  0.00000000000E+00 -0.00000000000E+00 -0.73176630389E+03  0.73176630389E+03  0.00000000000E+00 0.  1.
         23    2    1    2    0    0 -0.53733362928E+01  0.61756147806E+02 -0.24135176118E+03  0.26645872032E+03  0.94376281312E+02 0.  0.
         23    2    1    2    0    0  0.53733362928E+01 -0.61756147806E+02 -0.46767479779E+03  0.48804732849E+03  0.12501113480E+03 0.  0.
          5    1    4    4  502    0  0.41669144330E+02 -0.48468189683E+02 -0.42683922217E+03  0.43162401993E+03  0.47000000000E+01 0.  1.
         -5    1    4    4    0  502 -0.36295808038E+02 -0.13287958123E+02 -0.40835575617E+02  0.56423308553E+02  0.47000000000E+01 0.  1.
        -11    1    3    3    0    0 -0.26028821494E+02 -0.87455580641E+01 -0.22166766638E+02  0.35289515120E+02  0.00000000000E+00 0. -1.
         11    1    3    3    0    0  0.20655485202E+02  0.70501705870E+02 -0.21918499454E+03  0.23116920520E+03  0.00000000000E+00 0.  1.
<mgrwt>
<rscale>  0 0.13234368E+03</rscale>
<asrwt>0</asrwt>
<pdfrwt beam="2">  1        2 0.11257943E+00 0.13953666E+03</pdfrwt>
<pdfrwt beam="1">  1       -2 0.34984224E-02 0.13953666E+03</pdfrwt>
<totfact> 0.12769970E+04</totfact>
</mgrwt>
</event>
<event>
 8    1  0.1224355E-005  0.1741048E+03  0.7546771E-02  0.1179503E+00
          1   -1    0    0  501    0  0.00000000000E+00  0.00000000000E+00  0.46239423816E+03  0.46239423816E+03  0.00000000000E+00 0. -1.
         -1   -1    0    0    0  501 -0.00000000000E+00 -0.00000000000E+00 -0.10523462048E+03  0.10523462048E+03  0.00000000000E+00 0.  1.
         23    2    1    2    0    0 -0.11806193422E+03  0.27460947622E+02 -0.18503109243E+02  0.15358178825E+03  0.92478520072E+02 0.  0.
         23    2    1    2    0    0  0.11806193422E+03 -0.27460947622E+02  0.37566272693E+03  0.41404707039E+03  0.12497907078E+03 0.  0.
          5    1    4    4  502    0  0.63922668639E+02 -0.57519052089E+02  0.10232054922E+03  0.13373905081E+03  0.47000000000E+01 0.  1.
         -5    1    4    4    0  502  0.54139265585E+02  0.30058104467E+02  0.27334217771E+03  0.28030801957E+03  0.47000000000E+01 0.  1.
        -11    1    3    3    0    0 -0.34509010478E+02 -0.29850395474E+02  0.13058815694E+02  0.47459989270E+02  0.00000000000E+00 0. -1.
         11    1    3    3    0    0 -0.83552923745E+02  0.57311343096E+02 -0.31561924937E+02  0.10612179898E+03  0.00000000000E+00 0.  1.
<mgrwt>
<rscale>  0 0.16842219E+03</rscale>
<asrwt>0</asrwt>
<pdfrwt beam="1">  1        1 0.71137574E-01 0.17410483E+03</pdfrwt>
<pdfrwt beam="2">  1       -1 0.16189942E-01 0.17410483E+03</pdfrwt>
<totfact> 0.14157659E+03</totfact>
</mgrwt>
</event>
<event>
 8    1  0.1224355E-005  0.2643451E+03  0.7546771E-02  0.1106773E+00
          2   -1    0    0  501    0  0.00000000000E+00  0.00000000000E+00  0.16990281782E+03  0.16990281782E+03  0.00000000000E+00 0. -1.
         -2   -1    0    0    0  501 -0.00000000000E+00 -0.00000000000E+00 -0.39085452064E+03  0.39085452064E+03  0.00000000000E+00 0.  1.
         23    2    1    2    0    0  0.18148737526E+03  0.14600203083E+03 -0.12727824807E+03  0.28030587805E+03  0.90096461935E+02 0.  0.
         23    2    1    2    0    0 -0.18148737526E+03 -0.14600203083E+03 -0.93673454745E+02  0.28045146041E+03  0.12499618050E+03 0.  0.
          5    1    4    4  502    0 -0.13652436870E+03 -0.13723560936E+03 -0.21482163252E+02  0.19482322517E+03  0.47000000000E+01 0. -1.
         -5    1    4    4    0  502 -0.44963006557E+02 -0.87664214638E+01 -0.72191291493E+02  0.85628235246E+02  0.47000000000E+01 0. -1.
        -11    1    3    3    0    0  0.14052079395E+03  0.15115859594E+03 -0.91856132705E+02  0.22590388172E+03  0.00000000000E+00 0.  1.
         11    1    3    3    0    0  0.40966581305E+02 -0.51565651153E+01 -0.35422115369E+02  0.54401996331E+02  0.00000000000E+00 0. -1.
<mgrwt>
<rscale>  0 0.26061642E+03</rscale>
<asrwt>0</asrwt>
<pdfrwt beam="1">  1        2 0.26138895E-01 0.26434505E+03</pdfrwt>
<pdfrwt beam="2">  1       -2 0.60131464E-01 0.26434505E+03</pdfrwt>
<totfact> 0.53988759E+02</totfact>
</mgrwt>
</event>
<event>
 8    1  0.1224355E-005  0.2221252E+03  0.7546771E-02  0.1135578E+00
          2   -1    0    0  501    0  0.00000000000E+00  0.00000000000E+00  0.15114299756E+03  0.15114299756E+03  0.00000000000E+00 0. -1.
         -2   -1    0    0    0  501 -0.00000000000E+00 -0.00000000000E+00 -0.31061975880E+03  0.31061975880E+03  0.00000000000E+00 0.  1.
         23    2    1    2    0    0 -0.13571645575E+03  0.12367176226E+03 -0.38017607518E+02  0.20859893298E+03  0.91403037244E+02 0.  0.
         23    2    1    2    0    0  0.13571645575E+03 -0.12367176226E+03 -0.12145915372E+03  0.25316382338E+03  0.12500373717E+03 0.  0.
          5    1    4    4  502    0  0.11241511847E+03 -0.86275558544E+02 -0.14515817786E+03  0.20291283218E+03  0.47000000000E+01 0. -1.
         -5    1    4    4    0  502  0.23301337278E+02 -0.37396203714E+02  0.23699024145E+02  0.50250991200E+02  0.47000000000E+01 0. -1.
        -11    1    3    3    0    0 -0.13590352099E+03  0.73768205819E+02 -0.22019380822E+02  0.15619336843E+03  0.00000000000E+00 0. -1.
         11    1    3    3    0    0  0.18706524606E+00  0.49903556439E+02 -0.15998226695E+02  0.52405564553E+02  0.00000000000E+00 0.  1.
<mgrwt>
<rscale>  0 0.21774217E+03</rscale>
<asrwt>0</asrwt>
<pdfrwt beam="1">  1        2 0.23252769E-01 0.22212518E+03</pdfrwt>
<pdfrwt beam="2">  1       -2 0.47787654E-01 0.22212518E+03</pdfrwt>
<totfact> 0.97873287E+02</totfact>
</mgrwt>
</event>
<event>
 8    1  0.1224355E-005  0.1265014E+03  0.7546771E-02  0.1247510E+00
         -2   -1    0    0    0  501 -0.00000000000E+00  0.00000000000E+00  0.22642062303E+02  0.22642062303E+02  0.00000000000E+00 0.  1.
          2   -1    0    0  501    0  0.00000000000E+00 -0.00000000000E+00 -0.77565055940E+03  0.77565055940E+03  0.00000000000E+00 0. -1.
         23    2    1    2    0    0  0.10469586621E+02 -0.16358760834E+02 -0.11742679071E+03  0.15024423072E+03  0.91690001570E+02 0.  0.
         23    2    1    2    0    0 -0.10469586621E+02  0.16358760834E+02 -0.63558170639E+03  0.64804839098E+03  0.12500156104E+03 0.  0.
          5    1    4    4  502    0 -0.65924157096E+02  0.11875356881E+02 -0.26984987395E+03  0.27807923882E+03  0.47000000000E+01 0.  1.
         -5    1    4    4    0  502  0.55454570475E+02  0.44834039533E+01 -0.36573183243E+03  0.36996915216E+03  0.47000000000E+01 0.  1.
        -11    1    3    3    0    0  0.88878838275E+01  0.37143171395E+02 -0.34057278275E+02  0.51171357845E+02  0.00000000000E+00 0. -1.
         11    1    3    3    0    0  0.15817027938E+01 -0.53501932229E+02 -0.83369512433E+02  0.99072872873E+02  0.00000000000E+00 0.  1.
<mgrwt>
<rscale>  0 0.11736398E+03</rscale>
<asrwt>0</asrwt>
<pdfrwt beam="2">  1        2 0.11933085E+00 0.12650143E+03</pdfrwt>
<pdfrwt beam="1">  1       -2 0.34833942E-02 0.12650143E+03</pdfrwt>
<totfact> 0.11894047E+04</totfact>
</mgrwt>
</event>
<event>
 8    1  0.1224355E-005  0.1316211E+03  0.7546771E-02  0.1237821E+00
         -2   -1    0    0    0  501 -0.00000000000E+00  0.00000000000E+00  0.10102202256E+02  0.10102202256E+02  0.00000000000E+00 0. -1.
          2   -1    0    0  501    0  0.00000000000E+00 -0.00000000000E+00 -0.17593981143E+04  0.17593981143E+04  0.00000000000E+00 0.  1.
         23    2    1    2    0    0 -0.41153610377E+02  0.43465046335E+01 -0.35923158299E+03  0.37321848724E+03  0.92369893626E+02 0.  0.
         23    2    1    2    0    0  0.41153610377E+02 -0.43465046335E+01 -0.13900643290E+04  0.13962818293E+04  0.12494637340E+03 0.  0.
          5    1    4    4  502    0 -0.40417079656E+02  0.16403445317E+02 -0.33602467940E+03  0.33887650924E+03  0.47000000000E+01 0.  1.
         -5    1    4    4    0  502  0.81570690033E+02 -0.20749949951E+02 -0.10540396496E+04  0.10574053200E+04  0.47000000000E+01 0.  1.
        -11    1    3    3    0    0 -0.67696461804E+02 -0.95431874037E+01 -0.20484325698E+03  0.21595055753E+03  0.00000000000E+00 0.  1.
         11    1    3    3    0    0  0.26542851427E+02  0.13889692037E+02 -0.15438832601E+03  0.15726792971E+03  0.00000000000E+00 0. -1.
<mgrwt>
<rscale>  0 0.12325556E+03</rscale>
<asrwt>0</asrwt>
<pdfrwt beam="2">  1        2 0.27067662E+00 0.13162108E+03</pdfrwt>
<pdfrwt beam="1">  1       -2 0.15541851E-02 0.13162108E+03</pdfrwt>
<totfact> 0.10874697E+04</totfact>
</mgrwt>
</event>
<event>
 8    1  0.1224355E-005  0.1960141E+03  0.7546771E-02  0.1157580E+00
          2   -1    0    0  501    0  0.00000000000E+00  0.00000000000E+00  0.12785964442E+04  0.12785964442E+04  0.00000000000E+00 0. -1.
         -2   -1    0    0    0  501 -0.00000000000E+00 -0.00000000000E+00 -0.27911753708E+02  0.27911753708E+02  0.00000000000E+00 0.  1.
         23    2    1    2    0    0 -0.15085358288E+03  0.62767005359E+01  0.48615656092E+03  0.51725236477E+03  0.91682095845E+02 0.  0.
         23    2    1    2    0    0  0.15085358288E+03 -0.62767005359E+01  0.76452812961E+03  0.78925583317E+03  0.12500123517E+03 0.  0.
          5    1    4    4  502    0  0.15286692453E+03  0.21444924678E+02  0.72130745645E+03  0.73765487739E+03  0.47000000000E+01 0. -1.
         -5    1    4    4    0  502 -0.20133416447E+01 -0.27721625214E+02  0.43220673156E+02  0.51600955777E+02  0.47000000000E+01 0. -1.
        -11    1    3    3    0    0 -0.31577450993E+02  0.41506918375E+02  0.15234759146E+03  0.16102716637E+03  0.00000000000E+00 0. -1.
         11    1    3    3    0    0 -0.11927613189E+03 -0.35230217839E+02  0.33380896946E+03  0.35622519840E+03  0.00000000000E+00 0.  1.
<mgrwt>
<rscale>  0 0.19097999E+03</rscale>
<asrwt>0</asrwt>
<pdfrwt beam="1">  1        2 0.19670710E+00 0.19601405E+03</pdfrwt>
<pdfrwt beam="2">  1       -2 0.42941170E-02 0.19601405E+03</pdfrwt>
<totfact> 0.44212699E+03</totfact>
</mgrwt>
</event>
<event>
 8    1  0.1224355E-005  0.1409353E+03  0.7546771E-02  0.1222513E+00
          1   -1    0    0  501    0  0.00000000000E+00  0.00000000000E+00  0.43424931803E+03  0.43424931803E+03  0.00000000000E+00 0. -1.
         -1   -1    0    0    0  501 -0.00000000000E+00 -0.00000000000E+00 -0.44056955638E+02  0.44056955638E+02  0.00000000000E+00 0.  1.
         23    2    1    2    0    0  0.57345895281E+02  0.30809352394E+02  0.82842483407E+02  0.14018393286E+03  0.92471022887E+02 0.  0.
         23    2    1    2    0    0 -0.57345895281E+02 -0.30809352394E+02  0.30734987898E+03  0.33812234081E+03  0.12500000537E+03 0.  0.
          5    1    4    4  502    0 -0.94079671864E+02 -0.34883026340E+01  0.22130779091E+03  0.24054600648E+03  0.47000000000E+01 0.  1.
         -5    1    4    4    0  502  0.36733776584E+02 -0.27321049760E+02  0.86042088069E+02  0.97576334330E+02  0.47000000000E+01 0.  1.
        -11    1    3    3    0    0  0.63679125426E+02  0.14928080281E+02  0.10986441151E+02  0.66321794947E+02  0.00000000000E+00 0.  1.
         11    1    3    3    0    0 -0.63332301449E+01  0.15881272112E+02  0.71856042256E+02  0.73862137910E+02  0.00000000000E+00 0. -1.
<mgrwt>
<rscale>  0 0.13338839E+03</rscale>
<asrwt>0</asrwt>
<pdfrwt beam="1">  1        1 0.66807584E-01 0.14093534E+03</pdfrwt>
<pdfrwt beam="2">  1       -1 0.67779935E-02 0.14093534E+03</pdfrwt>
<totfact> 0.58112567E+03</totfact>
</mgrwt>
</event>
<event>
 8    1  0.1224355E-005  0.1775009E+03  0.7546771E-02  0.1176780E+00
         -2   -1    0    0    0  501 -0.00000000000E+00  0.00000000000E+00  0.67278945059E+02  0.67278945059E+02  0.00000000000E+00 0. -1.
          2   -1    0    0  501    0  0.00000000000E+00 -0.00000000000E+00 -0.40656080300E+03  0.40656080300E+03  0.00000000000E+00 0.  1.
         23    2    1    2    0    0 -0.98553620617E+02 -0.78475313307E+02 -0.16686615528E+03  0.22638521828E+03  0.86803008823E+02 0.  0.
         23    2    1    2    0    0  0.98553620617E+02  0.78475313307E+02 -0.17241570266E+03  0.24745452979E+03  0.12504150851E+03 0.  0.
          5    1    4    4  502    0  0.59417310623E+02  0.46995455491E+02 -0.18101254979E+03  0.19628199820E+03  0.47000000000E+01 0.  1.
         -5    1    4    4    0  502  0.39136309994E+02  0.31479857815E+02  0.85968471237E+01  0.51172531582E+02  0.47000000000E+01 0.  1.
        -11    1    3    3    0    0 -0.48888703886E+02 -0.46957989383E+02 -0.15091370252E+03  0.16543912398E+03  0.00000000000E+00 0.  1.
         11    1    3    3    0    0 -0.49664916731E+02 -0.31517323923E+02 -0.15952452762E+02  0.60946094299E+02  0.00000000000E+00 0. -1.
<mgrwt>
<rscale>  0 0.17102760E+03</rscale>
<asrwt>0</asrwt>
<pdfrwt beam="2">  1        2 0.62547817E-01 0.17750090E+03</pdfrwt>
<pdfrwt beam="1">  1       -2 0.10350607E-01 0.17750090E+03</pdfrwt>
<totfact> 0.48046445E+03</totfact>
</mgrwt>
</event>
